/*--------------------------------*- C++ -*----------------------------------*\
  =========                 |
  \\      /  F ield         | OpenFOAM: The Open Source CFD Toolbox
   \\    /   O peration     | Website:  https://openfoam.org
    \\  /    A nd           | Version:  12
     \\/     M anipulation  |
\*---------------------------------------------------------------------------*/
/*   Windows 32 and 64 bit porting by blueCAPE: http://www.bluecape.com.pt   *\
|  Based on Windows porting (2.0.x v4) by Symscape: http://www.symscape.com   |
\*---------------------------------------------------------------------------*/
FoamFile
{
    format      ascii;
    class       volScalarField;
    location    "300";
    object      k;
}
// * * * * * * * * * * * * * * * * * * * * * * * * * * * * * * * * * * * * * //

dimensions      [0 2 -2 0 0 0 0];

internalField   nonuniform List<scalar> 
10063
(
0.000150168859030847
0.000148288275507453
0.000151316706881731
0.000144979969221841
0.000293661698426283
0.000149280575077951
0.00014158045564143
0.000288016347807395
0.000146107472723449
0.000405401482154976
0.000291817185211227
0.000145682179370933
0.00013626108583041
0.000280985856223218
0.000142170966985884
0.000398442792405493
0.000286153110533492
0.000142437689275785
0.000512171443394554
0.000402389363693546
0.00028459180680901
0.000135543564799192
0.000131075908723029
0.000271989309288607
0.00013673234231884
0.000389510451984698
0.00027884076238833
0.000138150116720467
0.000504419029058559
0.000395364537445431
0.000278795882504919
0.000132196120918749
0.00061784926812111
0.000509156882828194
0.000393487036318212
0.000267185241011158
0.000112502120733543
0.000121346862146109
0.000260536294161698
0.000130435255359813
0.000378290601688098
0.00026938481847748
0.000132601187223601
0.00049445440868978
0.000386231158254455
0.000271149024521233
0.000127677033063636
0.000609675412128199
0.000501353982342626
0.000386330895707642
0.000261279864743266
0.000109228847138585
0.000720794901555065
0.000615174112031808
0.000500159853608
0.000374436631357472
0.000230115799982525
6.92990399328853e-05
0.000107578731339363
0.000243520925546445
0.000120542119177476
0.000364055765378576
0.000257156260189752
0.00012530094373327
0.000482110220618647
0.000374625834085018
0.000261203802042941
0.000121867911072789
0.000599266987532982
0.000491247311599606
0.000376896364564439
0.000253351561375165
0.00010474949180261
0.000712478285128436
0.000606991644601487
0.000492273687011742
0.000367176371939598
0.000224329510281488
6.6337371373152e-05
0.000819262856883776
0.000718314456781969
0.000606850869322458
0.000482124271200995
0.000337234134819004
0.00015547487646799
1.32359018383003e-05
7.55967148718367e-05
0.000215861493419091
0.000104579508887486
0.000344855600792522
0.000239433830552432
0.000114862070732107
0.000466996568133019
0.000359771363075511
0.00024795939443566
0.0001143158821669
0.000586574266990396
0.00047861638271147
0.000364750893244144
0.000243003773746992
9.90164176340424e-05
0.000701996475315804
0.000596518025755748
0.000481943271510625
0.000357464245040445
0.000216405994494696
6.24885505173625e-05
0.000810959270788653
0.000710026365375851
0.000598656597695886
0.000474175139659021
0.000330047325038824
0.000150231740472968
1.21784542460425e-05
0.000912455955175907
0.000816746963278536
0.000710535498796861
0.000591067441275039
0.000450048814298327
0.000260693732933623
3.40678221200022e-05
3.77262597802867e-05
0.000164878502881241
7.93095392251222e-05
0.000315805563783747
0.000210792180076932
9.69230481065301e-05
0.00044831469250563
0.000339710312398784
0.00022885709449886
0.000103096606133143
0.000571490823367817
0.000462982072827236
0.000348950606946812
0.000229262583519156
9.17064302876395e-05
0.000689387887398977
0.00058366401344236
0.000468853980593056
0.000344836576317766
0.000206074054905108
5.76633026985218e-05
0.000800550949389627
0.000699543479387133
0.000588078603655236
0.000463628197867213
0.000320276104486488
0.000142927454589176
1.09495101311742e-05
0.000904266333746101
0.00080849304506271
0.000702297456767643
0.000582887979423559
0.000442161589364851
0.000253950520575965
3.17051481534704e-05
0.00100043245280692
0.00090979124193053
0.000808996568073489
0.000696442192645398
0.000566490177938888
0.000392596162003652
6.33504264625916e-05
5.36651757696204e-06
9.20158860964457e-05
6.35483088712555e-05
0.000271480818955404
0.000164464635665176
0.000141202193636908
0.000424618976294258
0.000310188864645925
0.000194993722958488
0.000172025843938516
8.26854430384791e-05
5.4391502471764e-05
0.000553842753735164
0.000443473763723891
0.000327283499649506
0.000209443664315554
8.1349623135593e-05
0.000674738054117884
0.000568247039959484
0.000452354002164111
0.000328297304755974
0.00019256921952097
5.19493209341263e-05
0.000788121671044561
0.000686887803780208
0.000574950831225231
0.00045008669462309
0.000307521138497707
0.000133517374627905
9.51649375047126e-06
0.000893932469757463
0.00079811984731819
0.000691821357615967
0.000572223396191662
0.000431566501224672
0.000244591460653581
2.87562663150678e-05
0.000992355545339983
0.000901654348996382
0.000800827991389155
0.000688293010540417
0.000558417712004505
0.000385015490277471
6.00427548763301e-05
0.0010835726037831
0.000997584520661767
0.000901664834427228
0.000795315475051852
0.000676063472875403
0.000534606536691569
0.000332402329768228
7.65456802162312e-05
9.70026695705492e-06
1.55034869377308e-05
0.000152858544520216
0.000134539493436007
0.000125015793734056
0.00039040485924829
0.000265129807666427
0.000179363883808738
0.000533084503390239
0.000418921282727456
0.000293479629414385
0.000175961525825835
0.000130568570779828
0.000147392812183603
4.55780984878511e-05
6.26279354431731e-05
0.000658263442597265
0.000550030167512999
0.000431320114440285
0.000305612385578498
0.00017380229671999
4.45680055677682e-05
0.000773824833033203
0.00067210707804843
0.000558946677966764
0.0004327336772837
0.000290897883062432
0.00012176841379741
7.93528131319946e-06
0.000881575336421877
0.000785709914626976
0.000679089826057507
0.000558836057386644
0.000417867095690463
0.000232562097888146
2.54675214128641e-05
0.000982059507637207
0.000891363997300246
0.000790527966121186
0.00067786282412438
0.000547817185629889
0.000374670179199129
5.50199523290422e-05
0.00107559652920306
0.000989560755603871
0.000893626843743016
0.000787279453383082
0.000668087833071629
0.00052681206249364
0.000325354454005059
7.33344979630294e-05
0.00116228046227711
0.0010805455867313
0.000988909996478783
0.000887477352420023
0.000775771890318606
0.00065048770966921
0.000500157453372544
0.000312033049727305
8.66499161578876e-05
6.3638864794086e-06
2.75012155270817e-05
3.26932171700398e-05
0.000162022792005051
0.00034315441097467
0.000384834963980967
0.000507695243287446
0.00023371130567523
0.000640417875241639
0.000528528151727599
0.00040403600374187
0.000271566241568969
0.000110883479363544
0.000142925214062676
3.06762963625614e-05
3.14862033562292e-05
0.00075795442788802
0.000655397484626339
0.000539693722887396
0.000410049005481997
0.000268547138077601
0.000106852587788485
6.51767612867611e-06
0.000867333283783469
0.000771409879135853
0.000664085697919596
0.000542243180149288
0.00040024193681896
0.000217268394193599
2.15340322138233e-05
0.000969635363346597
0.000879050345505919
0.000778167233407235
0.000665099927162082
0.00053444933301543
0.000361367384566791
5.00475757365517e-05
0.00106527189190457
0.000979308220663483
0.000883433841545159
0.0007771047376379
0.000657830472190245
0.000516570468301129
0.000315730193858521
6.83409288612416e-05
0.00115438812791851
0.0010726212173328
0.000980984943872537
0.000879589927677734
0.000767944562061016
0.000642814794108193
0.000492801862080513
0.000305774335201443
8.32255874621858e-05
0.00123686453443918
0.00115908420337656
0.00107129648452702
0.000973833487512934
0.000867246655007544
0.000750916822453762
0.000620810671208721
0.000468656870344612
0.000293336287189076
8.48657380364114e-05
4.31784620733935e-06
1.83701928501031e-05
5.74299945299138e-05
2.82354258158445e-05
0.000218003532245084
0.000278222037252938
0.000315084185334266
0.000337291639601186
0.000488121133111342
0.000344366980869625
0.000363677295301084
0.000503034579298161
0.000622409600137627
0.000207102657377713
0.000740956611613639
0.000637319734667929
0.000516815119847971
0.000379963911309442
0.000235767540893906
8.18348460206617e-05
8.21463492217646e-05
9.14874846383577e-06
4.71940037439266e-06
0.000851400804061739
0.000755523937055401
0.00064700404175045
0.000521777198787826
0.00037690718314113
0.00019813849832116
1.78438267806431e-05
0.000955179459173485
0.000864849813723905
0.000763881158816291
0.000649932127373496
0.000517823253525918
0.00034461946533042
4.30771396483484e-05
0.0010526763353612
0.000966925775261463
0.000871216153058515
0.000764852514897319
0.000645249666375642
0.000503750728940594
0.000303860287101289
6.3771334361116e-05
0.00114399383572052
0.00106233649755359
0.000970833242849306
0.000869553195494615
0.000757989550372627
0.000632941789496834
0.00048324148622718
0.000297782398337261
7.87444404862563e-05
0.00122904075783803
0.00115124334726779
0.00106346668193821
0.000966057521148761
0.000859575614556302
0.000743395869172758
0.000613559373988789
0.000461921956991818
0.000287799924667666
8.17258216705311e-05
0.00130752460264373
0.00123350917140604
0.00114928372946978
0.00105524807737464
0.00095238812710726
0.00084138177174546
0.000721119846627791
0.000587703649324154
0.000439118044647431
0.000270983806869997
7.62931157585496e-05
7.96586774324288e-07
1.43515885459562e-05
3.88839554634749e-05
5.6035171794804e-05
4.26420786836839e-05
0.000281103070423005
0.00032252631744031
9.23591567100088e-05
0.000292840626356901
0.000464455581712724
0.000308499597570823
0.000375575968680162
0.000319748684677988
0.000604578363577442
0.000489747488522586
0.000336706731071433
0.000489754843386755
0.000324044259140435
0.000619708838977645
0.000723108271331776
0.000174797874938263
0.000833961389634575
0.000738575437633426
0.000628674052679033
0.000497640685898509
0.000342864645145365
0.000172500486556061
2.95386794206218e-05
1.36513032030506e-05
1.54232246868153e-06
0.000938797893438213
0.000848965551042149
0.000748003471612978
0.000632554035096518
0.000497042916119302
0.000323815767475565
3.71565453209827e-05
0.00103786393602147
0.000952515024224333
0.000857113591961235
0.000750657075425319
0.000630308201682899
0.000488157117332451
0.000289273975483445
5.69185624479029e-05
0.00113116098420734
0.00104977945313293
0.000958555517166588
0.000857493626139658
0.000745981289092276
0.000620884358858218
0.00047148006164235
0.000288150887683467
7.41015851867434e-05
0.00121855326791236
0.00114088727784907
0.00105327925610945
0.000956066801697372
0.00084977599016727
0.000733797074881096
0.000604278787730743
0.000453385711329042
0.000281057494602454
7.79861232566983e-05
0.00129975993324155
0.0012257370456381
0.00114153434808015
0.00104756106833581
0.000944821423654767
0.000834002792062519
0.000714004244496811
0.000580964960715758
0.000433067020295323
0.000266180933560402
7.37093211592084e-05
0.00137437865437602
0.00130402025758133
0.00122319174103431
0.00113229073597685
0.00103247814580789
0.000925021720323202
0.000810220256512691
0.000686635345312711
0.000552516885384341
0.00040775703134267
0.000245553094079942
6.5134657111988e-05
2.9415678908491e-06
4.00663767264519e-05
4.84267349443941e-05
5.37657046515418e-05
0.000224630054617311
6.84537670252285e-05
0.000311950373927411
9.05116531201307e-05
8.41290747690846e-05
0.000275394227820773
0.000439260289485994
0.000283112617189553
0.000582595827257317
0.000464995770475196
0.000348587397201526
0.000292817410854701
0.000237449186541384
0.000308989897141539
0.000703744261899369
0.000602703690945441
0.000478831051375561
0.000301888756178831
0.000473021249656735
0.000304239282088925
0.000611472642154244
0.000297100128157326
0.000362269043488397
0.00072090798709874
0.000814977858750044
0.000132891817832579
0.000920535799391924
0.000831593924188897
0.000731165788203572
0.000614250648026536
0.000470725364420652
0.000300360717198825
3.34358049330373e-05
0.000134729694532114
5.03173995235926e-06
8.18259171478202e-05
0.00102087284634301
0.000936180776644319
0.000841341278525854
0.000734902650150841
0.000613301001184435
0.000469753587976177
0.000271593771028881
5.0558260319952e-05
0.00111591778190765
0.00103500587485755
0.000944253872967473
0.000843558693780772
0.000732075125324686
0.000606740237255249
0.000457518644109726
0.000277221131863287
6.84014749381561e-05
0.00120545707860558
0.00112808995867329
0.00104082402469873
0.00094396026838244
0.000837966346663992
0.000722224480707633
0.00059303373617635
0.000443110825716503
0.000273235710608778
7.37431192282154e-05
0.00128917063610215
0.00121528732108365
0.00113127272909341
0.00103753152370433
0.000935061317563374
0.000824538817359191
0.000704898512567583
0.000572416515303915
0.00042556103034288
0.000260477008660016
7.07406609721996e-05
0.00136666891339615
0.00129630770149895
0.00121550901618638
0.00112467823515466
0.00102499048933952
0.000917728110649258
0.000803203314017423
0.000679987612270362
0.000546375266583589
0.000402382321591308
0.000241413473387138
6.30787743818623e-05
0.0014374938635928
0.00137073548199729
0.00129322159545135
0.0012053112276563
0.0011082302299414
0.00100352085020678
0.000892160239605813
0.000774046172138419
0.00064837059714503
0.000515042775626505
0.000373819230333044
0.000218118380601012
5.33929881679396e-05
8.38483700284811e-06
5.76045329296469e-05
5.94708277495616e-05
0.000210068045850507
5.47425784195489e-05
0.00020553442897456
0.000232262897222014
0.000287135323376129
7.71802682960339e-05
8.07861898003558e-05
0.000258239870218208
0.000418578831435865
0.000270780875660991
0.000557610160595219
0.00043611697320922
0.000268384620472796
0.000681406939371603
0.000580652858710768
0.00044807950148669
0.000291890601779922
0.00079401813498625
0.000701718719438878
0.00059503672139558
0.000464026181378091
0.000287307397974837
0.000449636113520391
0.000262465850258564
0.0005976550836925
0.000348419144432689
0.000291535749190024
0.00028020023580303
0.000713755902590041
0.000812692576123258
0.000900310427594656
0.000183075681376097
7.97029997523081e-05
0.0010017071409872
0.000917967440743326
0.000824112676305867
0.00071831298959574
0.000595950522547799
0.000450409222596358
0.000288150518269887
0.000249709021703283
4.4365754030156e-05
1.40015476109542e-05
0.000182287342873825
8.92733930941814e-05
0.00109827625766013
0.00101805439521719
0.00092803643931172
0.000827975072423615
0.000716711651980671
0.000591068680384341
0.000441446008942407
0.000264689252201466
6.25989422637192e-05
0.0011897651426663
0.00111288315636762
0.0010261582192252
0.000929837314767801
0.000824306158908466
0.00070886163101872
0.000579994095921934
0.000431269510696791
0.000264611438815574
6.94485704778521e-05
0.00127580758154302
0.00120222650829425
0.00111857495165245
0.00102524613563155
0.000923204927811228
0.000813100072947601
0.000693930174242189
0.000562162698145589
0.000416690595709195
0.000253915055392625
6.73857815183602e-05
0.00135598015260158
0.00128575630265621
0.00120515272568636
0.00111457154069702
0.00101518468447455
0.000908276115288123
0.000794170379631953
0.000671484092439464
0.000538639668082578
0.00039580858215985
0.000236574097500846
6.07609346057076e-05
0.00142983836396175
0.00136307844500295
0.00128559708138665
0.00119776058573292
0.0011008078016289
0.000996290548179831
0.000885198332315394
0.000767442430801855
0.000642225194489213
0.000509492985024827
0.000369081149476625
0.000214546214389081
5.17796260030126e-05
0.00149691044983397
0.00143372172413542
0.00135949048129364
0.00127451566832135
0.00118003463605404
0.00107772317750947
0.000968893647215675
0.000854123439413145
0.000733404728547604
0.000606812049736425
0.000474938355907395
0.000337535860013301
0.000189405765142434
4.21481182071995e-05
2.73328962435386e-05
4.44992257085773e-05
5.89875839818572e-05
5.85679005483641e-05
0.000194123657796816
6.78169562656404e-05
0.000268407169360107
6.58739788989119e-05
7.25855407191276e-05
0.000241707294123332
0.000397502872611179
0.000256247811479786
0.000532573788512553
0.000415494996340491
0.000263630317987249
0.00065640172519073
0.000555219924662664
0.000425424379248311
0.000263777664495966
0.00077055173432174
0.000679406690733693
0.000572808326698453
0.000435261167851223
0.00087789159994301
0.000791795767169793
0.00069479181820761
0.000581568091923512
0.000436285974293899
0.000264041226058248
0.000323038484186166
0.000216724370074317
0.000442973712193674
0.000580611222236735
0.000251474288679814
0.000263047541641586
0.000701221396694286
0.000281006852102721
0.000805373077528498
0.000897788677068117
0.000980298968614029
0.000161234805467075
0.00107822154966245
0.000998928222039194
0.000909947472348613
0.000810963987710391
0.00070062313750535
0.000575900960228255
0.000424119824610891
0.000266101135481317
0.00021528564458415
0.000251463349356253
0.00023808169653193
5.62920338556853e-05
3.75302425457993e-05
0.000162335776047697
0.00117147579861537
0.00109527951686581
0.0010093197774903
0.000913807197529527
0.000809022870325706
0.000694169814097523
0.000565691947303366
0.000418108812296442
0.000255298801156374
6.48364749690897e-05
0.00125967590755635
0.00118657139347211
0.00110347523491223
0.00101076144690441
0.000909344731187073
0.00079984646184861
0.000681285953818793
0.00055037293477588
0.000406650465346528
0.000246686985694379
6.3833290822135e-05
0.00134236145994346
0.00127242930688388
0.00119219204720929
0.00110204394278157
0.00100314378681396
0.00089675955440239
0.000783224629648026
0.000661235964641658
0.000529401999384816
0.000388117847123005
0.000231021606674674
5.80966050909265e-05
0.00141905948163859
0.00135242790249647
0.0012751391132989
0.00118755781310835
0.00109092032440685
0.000986777541893774
0.000876130994886759
0.000758914896679458
0.000634378684416359
0.000502546223716496
0.000363338929198828
0.000210434359317472
4.99934134769867e-05
0.00148931031919942
0.00142611951503291
0.00135192047772742
0.00126701936549601
0.00117266625870898
0.00107054462445949
0.000961973769665293
0.000847541407614061
0.000727251649845128
0.000601188960071537
0.000469969025677479
0.000333377436132169
0.000186268014215608
4.08985381822939e-05
0.00155265662475024
0.00149301851488901
0.00142206365217658
0.00134001946127424
0.00124810514160237
0.00114805857441564
0.00104136436147855
0.000928943905238158
0.000811279651199696
0.000688772363805086
0.000562115246057792
0.000432194529294171
0.000299226629891428
0.000159675593156687
3.20283528559956e-05
5.3629631293333e-05
0.000174901373032906
5.18529920004907e-05
0.000166767887929507
6.18847843746504e-05
6.26174527227766e-05
0.000270628366227705
6.69248780154768e-05
5.91815398548296e-05
6.52848825697457e-05
0.00022490609193047
0.000375863165931774
0.000240644016027462
0.000507615282533277
0.000395375015011623
0.000252340112215756
0.000629849630426614
0.000530263216822227
0.000408696830123045
0.000257243557745791
0.000744626623522601
0.000654342858901754
0.000547894223925692
0.00041633302580986
0.000257052295354956
0.000853053723289104
0.000768361306536131
0.00067260437780142
0.000559960000212331
0.000417424304879921
0.000956522754664309
0.000875410323598619
0.00078461749379157
0.000682487735780164
0.000564545491250999
0.000430632810505849
0.000256151658895647
0.000208221555044881
0.000414301931183458
0.000562438562020898
0.000683971491291901
0.00025191651112245
0.00030928312757026
0.000251197693717053
0.000792446635855302
0.000889896538239545
0.000977558974072559
0.00105570357746681
0.00115057042728797
0.00107526404296319
0.000990312459585413
0.000895916931300808
0.000792321570142711
0.000678789502123814
0.000551624994233518
0.000404984470838046
0.000208003003058367
0.000246087782920532
0.000244242480319134
0.000237071679378677
6.06129031725388e-05
5.11489641540124e-05
0.00124076754097311
0.00116832111266754
0.0010859870368257
0.000994116475357603
0.000893586449836171
0.000784992239800584
0.000667349454597217
0.000537444692178776
0.00039577806903167
0.000239148987198686
6.01576085072776e-05
0.00132581368001794
0.00125633589605994
0.00117664683656554
0.00108713001352851
0.000988922289296004
0.000883264802614026
0.000770504353514347
0.000649415545771189
0.000518837562558098
0.000379468137968229
0.000224874860048763
5.51770047289223e-05
0.00140520506789602
0.001338846059661
0.00126191405272187
0.00117476958206632
0.00107863794458746
0.000975061533771548
0.000865047228106058
0.000748562047074762
0.000624930410938713
0.000494294037620875
0.000356649069338341
0.000205701492981541
4.78885538206726e-05
0.00147845511665286
0.00141537914073865
0.00134136366235499
0.00125671442934136
0.00116267997233952
0.00106094124975319
0.000952821341169661
0.000838926125787122
0.000719284823881587
0.000594014948285998
0.000463771621997062
0.000328375036157978
0.000182787978862894
3.95319547384407e-05
0.00154511407096432
0.00148547226809837
0.00141454759961903
0.00133257432906003
0.00124078452311576
0.00114092304585301
0.0010344788150597
0.000922379857229991
0.000805116417040866
0.000683097636760811
0.000557022900840759
0.000427782555360456
0.000295584139014927
0.000156969616226968
3.10504694867813e-05
0.00160475581051386
0.00154865329098212
0.0014809786274085
0.00140188420124695
0.00131255477694898
0.00121474988336844
0.00111004086444531
0.000999526928089898
0.00088396131363425
0.000764000437336043
0.000640452307339962
0.000514363342565756
0.000386912275123655
0.000259025666628351
0.000129261095897438
2.29496918443391e-05
5.45955540890334e-05
5.06690905155558e-05
0.00024650246254897
5.78440263466085e-05
6.11121204550495e-05
6.37480923757113e-05
6.34397835912535e-05
5.16362715944436e-05
5.8687828409939e-05
0.000208433406772966
0.000353655966247503
0.000224473441911868
0.000482028926991451
0.000374376859136949
0.00023825585585723
0.000602241764712478
0.000505676767568637
0.000390405393981001
0.000246856664011414
0.00071665457820927
0.000627825527793828
0.000523974069546296
0.000400157482192661
0.000249779045857301
0.000825782296637222
0.000742457205423351
0.000647725590162278
0.00053654114965782
0.000404511881828811
0.000247576634742083
0.000930266540630697
0.000850611213297463
0.000761312867698988
0.000660595626426164
0.000544000885015689
0.000407604687770663
0.00103064987429949
0.000953822912565365
0.000867648259908619
0.000771902650424514
0.000665487231008079
0.000546600110942006
0.000403199986040042
0.000394509752570148
0.00053839937434317
0.000662641806519032
0.000774094833800897
0.000238288947476431
0.000876074346484793
0.000969069976231948
0.00105278750800249
0.001127013348283
0.00121906431444973
0.0011474580245417
0.00106609663350961
0.000975314767394691
0.000875978799934403
0.000768701321578876
0.000652576714415979
0.000524192135589785
0.000384810176032508
0.000231664190693962
0.000238709145397259
0.000240300556601105
5.68897509873478e-05
5.80553444298696e-05
0.00130632596648816
0.00123746933012909
0.00115851788380724
0.00106984443123463
0.000972560151183503
0.000867884074723448
0.000756191862838403
0.000636291957431998
0.000507232157446411
0.000370130366368379
0.000218326185259337
5.21322577204743e-05
0.00138827307576954
0.00132233808437365
0.00124593461203819
0.00115941698179013
0.00106399442304041
0.000961194265689382
0.00085202568955287
0.000736489960876733
0.000614000071377423
0.00048486225726953
0.000349120229802836
0.000200412084445805
4.55510560472483e-05
0.00146439061821751
0.00140156228616784
0.00132788567108355
0.00124366484883013
0.0011501396676375
0.00104898080413001
0.00094151254489776
0.000828361397875124
0.00070959284313367
0.000585377830799154
0.000456421924697963
0.000322552569966679
0.000178729243207695
3.79601262049812e-05
0.00153420099106442
0.00147465585890791
0.00140390115537456
0.00132217029190171
0.00123069436369268
0.00113121531813018
0.00102522202550261
0.000913650757555494
0.000797009798684206
0.000675728517966363
0.000550522553714479
0.000422292021513399
0.000291249054116897
0.000154103623870513
3.00329176119799e-05
0.00159727537345485
0.0015411652582868
0.00147351773809908
0.0013944899669754
0.00130527952672436
0.00120765288272872
0.00110318444963206
0.000992977456507537
0.000877791274694863
0.000758286375356415
0.000635274361406646
0.000509799807349668
0.000383028880267645
0.000255838531876817
0.000126929641298959
2.21908426308877e-05
0.00165321985054123
0.00160064848585349
0.00153626076067534
0.00146014351034822
0.00137344004994291
0.00127790868698109
0.00117515862611608
0.00106637782068162
0.000952466055718305
0.000834236294035973
0.000712590276521048
0.000588624540697622
0.000463621410763423
0.000339124300521734
0.000216886410544747
9.80755603133244e-05
1.4919828382924e-05
5.63548266177647e-05
5.62876803368511e-05
5.42228639125551e-05
5.74533913580086e-05
5.81046592356539e-05
6.11145160255775e-05
5.80320259876859e-05
4.58321819004059e-05
5.20236223754081e-05
0.000191717121585267
0.000330896224973374
0.00020814274221389
0.00045555348221494
0.000352559549042009
0.000222964028803314
0.000573509560854405
0.000480434617298052
0.000370480030782955
0.000233779361692869
0.000686947424324345
0.00060036761939772
0.000500245664274842
0.000382858989269572
0.000239480514994335
0.000796233897655409
0.000714537957131034
0.000621563982979077
0.000514022048574025
0.000389448210851469
0.00024040807678988
0.000901507430579589
0.000823386299142641
0.000735569007159116
0.000636259375415139
0.000522231040859202
0.000391792148991463
0.000236766720381983
0.00100299982512056
0.000927612624318486
0.000842994749806844
0.000748854993823156
0.000644040118494297
0.000526468194673024
0.000388499838952898
0.00110076083776733
0.00102777963507451
0.000945474227226668
0.000854054864274475
0.000753847182691185
0.000644483676496468
0.000523060402538294
0.000383861105338299
0.000374447940483859
0.000510960250021601
0.000636823725467618
0.000750846580364858
0.000856434457280122
0.000234664806835306
0.000954296936052591
0.00104375790679338
0.00112394753253225
0.0011945400624873
0.00128388141099301
0.00121581233839093
0.00113778949500152
0.00105017632106796
0.000954060594078922
0.000850660556619548
0.000740405825523533
0.000622146771972513
0.000494995108021434
0.000360438803148063
0.000211702053358033
0.000224539012222961
0.000232156233520245
4.91762444253711e-05
5.43597679833888e-05
0.00136825073978759
0.00130289461040138
0.00122719614802132
0.00114150276969675
0.00104700581064552
0.000945213482175216
0.000837140251811222
0.000722832713605478
0.000601769508692649
0.000474434375765681
0.000340916643933302
0.000194598054281795
4.3180538549332e-05
0.00144711070395428
0.00138467127689187
0.00131149549758131
0.00122788502912676
0.00113506676780343
0.00103469582127155
0.000928095770804067
0.000815913972192626
0.000698259457433812
0.000575369524013115
0.000448009575331462
0.000315972431527969
0.000174158349852849
3.62275156570359e-05
0.00151995624066517
0.001460629250567
0.00139018968268113
0.00130887057894479
0.00121789595500247
0.00111899746262223
0.00101365970186359
0.000902828639092254
0.000787037564999156
0.00066674428362013
0.000542689857360159
0.000415780018409817
0.000286203632934163
0.000150766673312382
2.88672336852673e-05
0.00158632969500433
0.00153029095407676
0.0014627952372016
0.00138399585945104
0.00129508884417646
0.00119783748001336
0.00109381420315713
0.000984125591531009
0.000869540881555168
0.000750733590676968
0.000628526201384546
0.000503965785018065
0.000378207482757024
0.000252121350058035
0.000124625181940647
2.14668494847258e-05
0.00164582082955258
0.0015932233360178
0.00152885738383161
0.00145280158830471
0.00136621038363422
0.0012708489787125
0.0011683292293555
0.00105984169419933
0.000946290013575352
0.000828491088389532
0.000707347313626769
0.000583952366638116
0.000459578290931414
0.000335741808874293
0.000214165373333197
9.60909506548362e-05
1.43533815639583e-05
0.00169798355964124
0.00164901445805845
0.00158793055117802
0.00151481921574947
0.00143078940473708
0.00133758696027927
0.00123683107127901
0.00112974711586522
0.00101730857041727
0.000900418906596068
0.000780033426811292
0.000657257863734829
0.000533377867430969
0.000409881222078969
0.000288751628618672
0.000172909554336481
6.66829144085847e-05
8.19451282052918e-06
5.15791812199657e-05
5.39272819790521e-05
5.39626670948917e-05
5.38713762148829e-05
5.43699496372079e-05
5.3658447115134e-05
5.64292879028632e-05
5.20911844099987e-05
3.98854182671854e-05
4.59990483360025e-05
0.000174721939599788
0.000307468644721312
0.00019153169405472
0.00042808222279835
0.000330031537177374
0.000207078413887515
0.0005435125465261
0.000454218682810463
0.000349363666992272
0.000219307044867991
0.000655601754370867
0.000571823164073745
0.000475674989811602
0.00036387369354427
0.000226900542408871
0.000764575169763445
0.000684929412906203
0.000594546465144259
0.00049126578302407
0.000372729712828502
0.000230220689539248
0.000870306536144851
0.000793903446114638
0.000707885575853372
0.000610796515149257
0.000500857111502114
0.000376560154664647
0.000229782433108973
0.000972736605052324
0.000898910133402254
0.000815948376910406
0.000723474334006007
0.000620463766869356
0.000505448482721766
0.000375728852323012
0.000227598142122109
0.00107177842606501
0.00100018278357467
0.000919427292028951
0.000829677713486288
0.000731207192837951
0.000623645310335535
0.000504739457604132
0.000371504966976762
0.00116716695725872
0.00109774742964403
0.00101890576314674
0.000930956849873562
0.000834757327836572
0.000731013929201523
0.000619193070217233
0.00049645650340121
0.000363712517772321
0.000350583094412345
0.000482274989151158
0.0006069144790234
0.000723038464084196
0.00083152450489954
0.000933375994101391
0.000224501701370939
0.00102808559472775
0.00111442988283954
0.00119133965483054
0.00125845996202397
0.00134512214448743
0.00128049954442181
0.0012056833217176
0.00112101428809724
0.00102766541954244
0.000927126790520433
0.00082042789217673
0.000707680794844004
0.000588414463485986
0.000463221415400901
0.000332219831029761
0.000188478101219125
0.000204990007405356
0.000217229243159569