/*--------------------------------*- C++ -*----------------------------------*\
  =========                 |
  \\      /  F ield         | OpenFOAM: The Open Source CFD Toolbox
   \\    /   O peration     | Website:  https://openfoam.org
    \\  /    A nd           | Version:  12
     \\/     M anipulation  |
\*---------------------------------------------------------------------------*/
/*   Windows 32 and 64 bit porting by blueCAPE: http://www.bluecape.com.pt   *\
|  Based on Windows porting (2.0.x v4) by Symscape: http://www.symscape.com   |
\*---------------------------------------------------------------------------*/
FoamFile
{
    format      ascii;
    class       volScalarField;
    location    "300";
    object      nut;
}
// * * * * * * * * * * * * * * * * * * * * * * * * * * * * * * * * * * * * * //

dimensions      [0 2 -1 0 0 0 0];

internalField   nonuniform List<scalar> 
10063
(
0.000516503835365109
0.000513920234732134
0.000502961628690171
0.000501816308351767
0.0010256913325688
0.000500076399408722
0.00048558326544791
0.00100444680573849
0.000489074221946244
0.00145325326184096
0.00098811662804545
0.000456147760264344
0.00045451861053802
0.000968035239244982
0.000471656763713793
0.0014253739265205
0.000968358903891808
0.0004476029585517
0.00188538491644155
0.00140698067974244
0.000899197514637171
0.000380865113558367
0.000414549487842146
0.000910538603139446
0.00044559206187351
0.00137826698721887
0.000933540893661262
0.000431676224165938
0.00185292760808596
0.00138038515260642
0.000882861476842009
0.000374273843116467
0.00234398386667417
0.00183773957222247
0.00129512256854661
0.000740209067129524
0.000265077921306035
0.000353711460674913
0.000826573811987082
0.000406607183348004
0.00130580859120428
0.000880647771258188
0.000409089600682301
0.00179882205375813
0.00133531358029763
0.000852276480296737
0.000361067698648006
0.00230831383936481
0.00180640220994752
0.00127146342837061
0.0007284285751074
0.000260233049748202
0.0028258981021018
0.00230039726203237
0.00171930154316892
0.00108673024373625
0.000499587569958468
0.00010909684583166
0.000275191017086319
0.000703425213319856
0.00034719511722583
0.00119749149535188
0.000801278259573924
0.000377707881243347
0.00171671996542817
0.00126636653292389
0.000806509816306597
0.000342630386407489
0.00225022848509078
0.0017541340751735
0.00123105584590721
0.000704052569771185
0.000250287080124763
0.0027886695242084
0.00226570606622539
0.00169060812182444
0.00106768177896049
0.000492889222841839
0.000105324442011098
0.00331767392976631
0.00278880563166897
0.00219052976347696
0.001497286030104
0.000759375524577209
0.000209274724582757
5.44313229918648e-06
0.000155822908512154
0.000524038836310367
0.000264864725509306
0.00103443344296166
0.000682238453323223
0.000322880632575934
0.00159540790423337
0.00116240081542062
0.000738018055116766
0.000316857323437725
0.00216405753226723
0.00167474799919404
0.00116952158695063
0.000668063055972624
0.000236549537286826
0.00272988083031838
0.00220922752076988
0.00164269207338882
0.00103460466175787
0.000475756504864226
9.94783689344082e-05
0.00328050835782488
0.00275242634798364
0.00215814340390008
0.00147300854525125
0.000747327007574793
0.000204229162094618
5.0092042556258e-06
0.0038042178315735
0.00328700944927706
0.00269531431773459
0.0019880545969181
0.00115053475494313
0.000337011101644115
1.38033014606134e-05
5.15054312996712e-05
0.000283531123189103
0.000159802917907418
0.000780906990544091
0.000508095079775094
0.000239568920988771
0.00141737607515629
0.00100367910456667
0.00062719267270236
0.000274332634947843
0.00204044393640365
0.00155668194691827
0.00107594598324176
0.000614698404822036
0.000217777942344067
0.00264534608986947
0.00212527788339148
0.00156982582077227
0.000984961269020128
0.000450948537234462
9.13420111540998e-05
0.00322370650985834
0.00269503721703279
0.00210545481473457
0.00143235957829705
0.000723991109824776
0.000194313303420303
4.51958899680918e-06
0.00376857878183183
0.00325056236263224
0.00266086327750349
0.00195955301213987
0.00113355698938761
0.00033014568001309
1.28307031214436e-05
0.00427381948263121
0.00377891934991134
0.00321006627625657
0.00252763429660832
0.00168509220280388
0.000696995105606982
1.90341678391003e-05
1.9340793743939e-06
9.15765687647819e-05
0.000116217999823136
0.000433827640121137
0.000275166563618864
0.000244297931070392
0.00116021466304213
0.000758173018129476
0.000445591309206651
0.000309119508311269
0.000193716544525795
9.69986622196755e-05
0.00186672117331612
0.00138151125168253
0.000927196749903986
0.000526344465143035
0.000187328671421906
0.00252895890862171
0.00200419325068418
0.00146028087376798
0.000910020800561888
0.000415797006605126
8.09070067978433e-05
0.00314474696178722
0.00261243924277328
0.00202693316867003
0.00137094091268814
0.000690206779996103
0.000180422736851597
3.9317659041587e-06
0.00371531804934285
0.00319494322580071
0.00260669090146371
0.00191328400069035
0.00110297416643613
0.000317738906097473
1.16079737424927e-05
0.00424036737827249
0.00374384212906426
0.00317519805552301
0.00249632628784774
0.00166238565338682
0.000685609704594291
1.80388877893119e-05
0.00471854473026118
0.00425252006345624
0.00371502256016484
0.00307513001042911
0.00228751992396649
0.00132850947271732
0.00033222786846994
1.55131919743906e-05
4.72984681619469e-06
5.17953341737638e-06
0.000101768989839433
0.000178116573380388
0.000196662688001958
0.000799556267933673
0.000414025288862123
0.000284619749638653
0.00162927343721304
0.00112701840928371
0.000678976975279891
0.000371597879251965
0.000188381494696341
0.000225003006652778
7.17135081866332e-05
0.000126809474039719
0.00237446479476793
0.00183264643742511
0.0012934375172484
0.000788736626369027
0.000359474388990526
6.66028372251925e-05
0.00304054204662255
0.00249837645999784
0.00191254606098522
0.00127825828652677
0.000641533890471553
0.000162500259594648
3.28708473481687e-06
0.00364341895230171
0.00311764597512374
0.00252868435197061
0.00184452206153852
0.00105767068741265
0.000301841946145702
1.02701915577494e-05
0.00419127088317227
0.00369150503955035
0.00312224041390589
0.00244752071331396
0.00162491461850323
0.000665334540365315
1.63905895109341e-05
0.00468755864883306
0.00421950838355788
0.00368122699934425
0.00304276890369893
0.00226055510597688
0.00131106033001747
0.00032424148428795
1.48306588401291e-05
0.00513366955744051
0.00469996014877069
0.00419767647182592
0.00360409918362348
0.0028858137220273
0.00201201191566144
0.00101875092718928
0.000338440376369265
2.67769133487564e-05
2.69157713837185e-06
1.31371101230251e-05
6.9912380781268e-06
5.24729717218311e-05
0.000400977944845181
0.000771629821382117
0.00132289807277127
0.000308221019996691
0.0021804931720262
0.00159666169617374
0.00104060155343998
0.000579617597563707
0.00014561098035389
0.000254030373924483
3.83738764564499e-05
4.07793638214069e-05
0.00290942891565767
0.00234634759292145
0.00174763527071227
0.00113367637703533
0.000565147988017794
0.000139342672704267
2.66616013838101e-06
0.00355178739087406
0.00301558790242414
0.00242045205014458
0.00174364152253147
0.000991002833199126
0.000280594674568124
8.65401354938589e-06
0.00412624630034635
0.00362094097252834
0.00304879178648852
0.00237758861987205
0.00157011734158735
0.000637588881277971
1.49468652435235e-05
0.00464240344275842
0.0041711165028702
0.00363100236700477
0.00299417819372101
0.00221895703241053
0.0012823679432205
0.000311409717540817
1.36566352170065e-05
0.00510510654962692
0.0046693175837562
0.00416567565173474
0.00357234106304346
0.00285674853136075
0.00198931305275387
0.00100250730747479
0.000331250238518867
2.56356432756333e-05
0.00551687286299438
0.00511670680857486
0.00465081949189261
0.00410239297439183
0.00344894269338913
0.00266767865201973
0.00176560511528263
0.000928766317560814
0.000333756266139665
2.82838460071759e-05
1.60051786493492e-06
7.43881498462328e-06
1.91443017162242e-05
2.69571367447663e-06
0.000101848532014025
0.000177973089254487
0.000343164886023298
0.000360681397107536
0.00105786582401863
0.000395422578975818
0.000668549641508925
0.00129559766088097
0.00196433418849336
0.000250814082582556
0.00275487428892337
0.0021552979091455
0.00151674620017572
0.000906087604145224
0.000428420678619613
9.23432491394805e-05
9.98240353728767e-05
7.46048143717453e-06
1.85504087907279e-06
0.00344076814244582
0.00288714291826854
0.00227523936017321
0.00159521838066941
0.000886493011951696
0.000253609480191613
7.14441554817332e-06
0.00404522251330777
0.00353106769292995
0.00295186295703993
0.00228051942191854
0.0014909852009647
0.00059950160086993
1.27874225308786e-05
0.00458325992293297
0.00410707561063923
0.003563488629262
0.00292728511206397
0.00216039272197615
0.00124246895326855
0.000296167762328418
1.26759606281736e-05
0.00506338734065783
0.00462468771254591
0.00411891504661135
0.00352558237821739
0.00281392494544264
0.00195517889274172
0.000979646344241066
0.000321543330372857
2.41099852074496e-05
0.00549049937190636
0.00508842272320485
0.00462096867186709
0.00407201395062015
0.00341982553810345
0.00264209153755366
0.001745125224563
0.000914887089588391
0.000327510419005234
2.7163840122029e-05
0.00586755852539415
0.00550070048575075
0.00507068792612706
0.00456478500909392
0.00396800455615673
0.00326631677797921
0.00245932176809371
0.00161967322293026
0.000881571224055922
0.000316144696340165
2.57358790043241e-05
2.52636018004925e-07
5.68555667571559e-06
1.09853054279907e-05
8.9327260211012e-06
7.95956848673556e-06
0.000193717135545803
0.000303457428843049
3.11021775855838e-05
0.000328171317067431
0.000937307442594085
0.000315808059217398
0.000466291177676979
0.000317244121250559
0.00177106707219379
0.00107939228328376
0.000575319810127658
0.00121759752970107
0.000323846937476171
0.0019469693211209
0.00258948929200135
0.000199451506209618
0.00331392820944226
0.0027361699700657
0.00209281370365158
0.00138566843764983
0.000708827607343021
0.000208741659694856
2.43784897804442e-05
5.61101897139656e-06
5.63967198664542e-07
0.00394919872414228
0.0034222765230585
0.00282997480034485
0.00214989027387858
0.00137369130683863
0.000546549133108847
1.12724910507055e-05
0.00451044043092006
0.00402735130236236
0.00347771903535664
0.00283951179086132
0.00208061634669996
0.00118830396311992
0.000275636545769166
1.10288085764957e-05
0.00500887173271491
0.00456626597618404
0.00405718325972123
0.00346317164165322
0.002756016055826
0.0019089554993649
0.00095032405517916
0.000309481416217444
2.2564364008572e-05
0.00545159025651481
0.00504710642682285
0.00457757914397518
0.00402794762020794
0.00337768274196053
0.00260542648389202
0.00171683515230053
0.00089699574954475
0.000319889176995402
2.58255976883444e-05
0.00584306550540188
0.00547456110612923
0.00504303770076864
0.00453622361183384
0.00393976509537899
0.00324008509966361
0.00243660895877767
0.00160161856114603
0.000869800636681194
0.000310817171620939
2.48183411443205e-05
0.00618632965317387
0.00585159991669894
0.00545594022727865
0.00498932658039289
0.00444175213664962
0.00380523473724139
0.00307895987900739
0.00229224768616768
0.00151911052661973
0.000834046385893051
0.000291771184236376
2.19270517321419e-05
9.82807515710844e-07
1.48340662361206e-05
8.01933249837804e-06
9.95782680053435e-06
8.99735946361395e-05
1.78752527774744e-05
0.000272344047852402
3.18795500346696e-05
2.68487557012649e-05
0.000315636396126005
0.000869786965509277
0.000304348568013571
0.00163298094192589
0.000946907344569915
0.000412515958488061
0.000291839103369831
0.000153776329409451
0.000300684703013308
0.00243370549963536
0.00176783627839436
0.00103201086370709
0.000454086988819306
0.00113357968568
0.000304240070375828
0.00189751830137578
0.000260704692492294
0.000416879959053602
0.00257584632401801
0.00317908539477196
0.000107244038788835
0.0038409032461777
0.00329815107305895
0.00268739739094631
0.00198743556391761
0.00119883352625742
0.00046763456372524
1.1882536662384e-05
0.000117093029951504
1.98771405365657e-06
6.24677668593449e-05
0.00442488698770467
0.00393291860825076
0.00337415450394297
0.00272989898354927
0.00197522966035441
0.00111541956136509
0.00024872138603942
9.46189979781157e-06
0.0049419587523021
0.00449436318298706
0.0039804867206828
0.00338441768699768
0.00268143747508088
0.00184906466555651
0.000912710339937938
0.000296142004367141
2.06297518205979e-05
0.00540054836423508
0.004993122142147
0.00452086955202775
0.00397009000616287
0.00332216404583156
0.0025573563078219
0.00168055185466303
0.00087486840756678
0.000311090264673503
2.43175425923189e-05
0.00580635442940641
0.0054359725856792
0.00500267778823332
0.00449491044252842
0.0038993152461501
0.0032030444641694
0.00240540664173827
0.00157820716088962
0.000855525675855878
0.000304582083461707
2.37593003041003e-05
0.00616339969517078
0.00582731027541949
0.00543032314887398
0.00496271544202222
0.00441493679803149
0.00377941654264369
0.00305546920642531
0.00227221715621636
0.00150357768293902
0.000823904980719183
0.00028724749010495
2.12096018993361e-05
0.00647457327419659
0.00617021563558925
0.0058068433987346
0.00537611402756394
0.00487129421142029
0.00428842627113235
0.00362775917851775
0.00290304301130409
0.00215284412560422
0.00142999158961329
0.000780043903593715
0.000264082665125779
1.7900133715322e-05
1.43264659409499e-06
1.08652264363264e-05
1.17426276722195e-05
8.68631827123992e-05
1.23151870506232e-05
8.64586665800861e-05
0.000136265082836604
0.000236142594228079
2.64118295716077e-05
2.6152377054726e-05
0.000297881379597367
0.000838132111595841
0.000306335405116219
0.0015332759847142
0.000859938787447703
0.000276508881216006
0.00230197491706984
0.00162871837877956
0.000857445186618027
0.000269219741480542
0.00304670531086955
0.00242545359805958
0.00173373478281722
0.000983021652147698
0.000380685740658015
0.00100839473013814
0.000212240117979235
0.00181834477319006
0.000409704275764374
0.000253532737757154
0.000246494749218861
0.00253709530594404
0.00316634502385821
0.00372508468111653
0.000159895964712883
3.18578906513809e-05
0.00432855423821253
0.00382643300687436
0.00325629460239216
0.0026028855448758
0.00184898753571021
0.00102369198739363
0.000389917214927554
0.000209129430288774
7.76310758917499e-06
3.9943019188319e-06
0.000165745746321684
4.84588818580118e-05
0.00486341472385612
0.00440990175459327
0.00388979110929974
0.00328992212602376
0.00259032579600011
0.00177574506728796
0.000864967820069969
0.000279632993807358
1.86816327316162e-05
0.00533771554543248
0.00492687139543945
0.00445115898688941
0.00389852269484318
0.00325308705260415
0.00249759236151676
0.00163600119646589
0.000849107728771328
0.00030165586676885
2.28057950670774e-05
0.00575780488595638
0.00538534049302532
0.00494997704105189
0.00444109789143019
0.00384671467919042
0.00315518984997941
0.00236598664463921
0.00154955398813759
0.000838607778344518
0.00029747010905239
2.25694236926042e-05
0.00612835189726295
0.00579086461639136
0.00539249507537953
0.00492397560415588
0.00437645910584628
0.00374306548707063
0.00302329284050586
0.00224583894410876
0.00148429616783966
0.00081206331357145
0.000282075208177463
2.03971764564496e-05
0.00645291509609586
0.00614746809042251
0.00578299856377423
0.00535135246177422
0.00484612110293291
0.0042636622276604
0.00360441022630397
0.00288212399266613
0.00213522576727504
0.00141644143372883
0.000771269547279201
0.000260192941265508
1.73467660351552e-05
0.00673414234832262
0.0064580856009457
0.00612467870743862
0.00572650952884811
0.00525891831359423
0.00472065274344914
0.00411324726415935
0.00344468451982804
0.0027364258011061
0.00202247366383209
0.00133789972911465
0.000719862135279171
0.000234105240125501
1.40853734812596e-05
5.85699524618152e-06
8.43829522919105e-06
1.53478237554767e-05
1.43243006911684e-05
8.26218760502293e-05
2.0609656908714e-05
0.000225126024906868
2.20444862524827e-05
2.40008453637911e-05
0.000282014438779418
0.000805299707733008
0.000295653899195163
0.00146435381871298
0.000830093467756761
0.000296026353397568
0.00219413290824812
0.0015259194672693
0.000820224807102673
0.000279339208238271
0.00292469306666875
0.00229529691440923
0.00159221934002098
0.00083426430687569
0.0036074682405989
0.00303672191769195
0.0023959251108327
0.00167412427260248
0.000848911123847826
0.000283881615057578
0.000466159961808557
0.000211384707409152
0.000970714965385514
0.0017196420130649
0.000213588213057214
0.000255763852625967
0.00246980370110817
0.000246022363209125
0.003131209972773
0.00371248177196403
0.00422430028689247
0.000102573439484716
0.00477449693563554
0.00431477644515843
0.00378758072229772
0.0031828693507284
0.00248710272887147
0.0016981501316085
0.000807912219062179
0.000294031100916225
0.000215093862378852
0.000260425492265327
0.000197635698662934
1.64772629474332e-05
7.04367695709105e-06
0.000117521523730192
0.00526361330736492
0.00484910215646666
0.00436931812137538
0.00381419070328857
0.00317131069116417
0.00242783202251019
0.00158496915933192
0.000819236115420931
0.000291529243292966
2.12033934643129e-05
0.00569765268011956
0.00532300799024447
0.00488533288757823
0.0043751181716503
0.00378216160099208
0.00309689774836791
0.00231883189075292
0.00151620428002709
0.000819860217859024
0.000289846467843831
2.1326875233715e-05
0.00608151526686844
0.00574264555412793
0.00534285957970982
0.00487347633277408
0.00432662348942612
0.00369641447321918
0.00298267253722823
0.00221343001272226
0.00146130153674383
0.000798484758433691
0.000276189919322732
1.94676018528608e-05
0.00641909089003543
0.00611264877020826
0.00574718047323275
0.00531482166969053
0.00480963500888402
0.00422849296544148
0.00357216389380643
0.00285428506866798
0.0021128684774213
0.0014001809494337
0.00076125609879473
0.000255860885171074
1.67319399915345e-05
0.00671350556947436
0.00643659540715891
0.00610232244122794
0.00570338851274715
0.0052353596601882
0.0046972212759872
0.00409067588610561
0.00342376125839675
0.00271790755123157
0.00200699898136109
0.00132605496647227
0.000712201273913297
0.000230447510987635
1.36623174207392e-05
0.00696712487989559
0.00671716490330639
0.00641132170533619
0.00604259237583807
0.00560753669878336
0.00510668234467333
0.00454272926563122
0.00392153405923913
0.00325640046871733
0.00256984440403449
0.00188825694066025
0.00123759024142411
0.000653559347288384
0.000201193416228051
1.06933818638672e-05
1.62401679811898e-05
8.35765360230055e-05
1.27872181282226e-05
7.01078579246244e-05
1.87336691173047e-05
1.85522116569756e-05
0.000253228766781902
2.16885110570693e-05
1.99131986220484e-05
2.1734355804709e-05
0.000264533616775914
0.00077210829406712
0.000281068400061334
0.00140856166922831
0.00080255945443311
0.00029209804442865
0.0021064397177908
0.0014586805494337
0.000814561139477015
0.00029126595874802
0.00281523080037696
0.0021879798672556
0.00149967764917236
0.000809985154129192
0.000278566419189783
0.00349253773875089
0.00291636486074032
0.00226987042155969
0.0015476540791192
0.000792797704303363
0.00411529909056881
0.0035965448870287
0.00300756086089072
0.00234264470001051
0.00159604947141676
0.000890957776204893
0.00025016499180052
0.000174565866501023
0.000796981531461948
0.00162759874408148
0.00237880154649226
0.000227972075651155
0.000359537914550818
0.000248615003528378
0.00306912747728596
0.00367805071914603
0.00421174758486815
0.00467685708044689
0.00517898108365575
0.00476103162920928
0.00427711512051643
0.00371929150217763
0.0030795331853072
0.00235253170827067
0.00153633281397261
0.000790611771387815
0.000184189402126608
0.000281622394173026
0.000257796059173131
0.000231742780080445
1.97324543386189e-05
1.460438453314e-05
0.00562618690669662
0.00524948277475804
0.004809451940737
0.00429778053550062
0.00370659129135561
0.00302941497982191
0.00226610769691039
0.00147984098215792
0.000800343705754599
0.000282359300935348
2.00663222750451e-05
0.00602300948882935
0.00568289119460463
0.00528175289178927
0.00481160101007132
0.00426578702873292
0.00363982936690025
0.00293423980396123
0.00217587249114198
0.00143552302450092
0.000783750362841577
0.000269819899320087
1.84608675266447e-05
0.00637337142058525
0.00606609058155317
0.00569976852496114
0.00526691167481532
0.00476220909854081
0.0041832796782554
0.00353137564854045
0.00281991711782651
0.00208610000468339
0.00138135491799113
0.000749907903466582
0.000250874551367371
1.60099137641103e-05
0.00668055681657333
0.00640297490825983
0.00606804116189076
0.00566864434866536
0.00520066136498814
0.00466343775571535
0.00405896427147576
0.00339536024167633
0.00269382157599295
0.00198783758201756
0.00131213010275476
0.000703626380584977
0.000226820288313737
1.31985820158109e-05
0.00694730385819614
0.00669668628115021
0.00639018569401526
0.00602086630837667
0.00558544382108712
0.00508461629680929
0.00452122440864264
0.00390119672232578
0.00323782491989992
0.00255356134164223
0.00187470893791601
0.00122721015279682
0.000646667076556611
0.000197890803900422
1.03647854585511e-05
0.00717569225275583
0.00694960791392299
0.00666895612921044
0.00632679416455731
0.00592030501819997
0.00545111835250698
0.0049228351694433
0.0043406032630847
0.00371373690952881
0.00305800119484696
0.00239388523714659
0.00174232840453833
0.001126000110247
0.000579635185900061
0.000166019408996163
7.67515454492085e-06
1.63723685851793e-05
1.34398446030829e-05
0.000228677794490034
1.75860117010057e-05
1.99105653472405e-05
2.07002098519658e-05
2.10673777871734e-05
1.71377202346971e-05
1.95083963425932e-05
0.000248731487532553
0.000737681066122149
0.000265001169652046
0.00135574079290274
0.0007718126449605
0.000280077653078036
0.00202999473229297
0.00140594140595658
0.000796033464641683
0.000288037156780046
0.00271656085253914
0.00210150477253564
0.00144315916864479
0.000802825153494771
0.000286360560653986
0.00338202621685085
0.00280804441630452
0.00216722760526014
0.00146963344242282
0.000796507380271539
0.000272522866753088
0.00400400920515587
0.00348291634063264
0.00289134359821059
0.00222701639272174
0.00149949836264173
0.000801205299323573
0.00457219139951041
0.00410388296583723
0.00356614601242251
0.00295538211442603
0.0022706701483008
0.00154659189846696
0.000794535180232368
0.000780892134577535
0.00150170768237598
0.00227500310639982
0.00298165005754809
0.000246476630913648
0.00361733254318713
0.00417709262269487
0.00466425857281258
0.00508469180630997
0.0055437608013154
0.00516548335380482
0.00472346706813477
0.00421062429770395
0.00362182737685683
0.00295495356495876
0.0022117847053442
0.00144576895930753
0.000782612401590166
0.000275292066955997
0.000276168310062003
0.000266496236632322
1.89627302509812e-05
1.88987988979531e-05
0.00595292621934179
0.00561188345317062
0.00520965359072711
0.00473899190110406
0.0041946888317852
0.00357421254064783
0.0028793786283846
0.00213493029184421
0.00140852573007463
0.00076890845428088
0.00026328428568514
1.74288323909293e-05
0.00631576908678588
0.00600791759506285
0.00564099628234737
0.00520793879574162
0.00470420666363995
0.0041284087413383
0.00348252098322383
0.00277962440661353
0.00205557621884613
0.00136057837599317
0.000737574738041118
0.000245326110486211
1.52142796365435e-05
0.00663551271370452
0.0063575001139187
0.00602216561703867
0.00562263885346198
0.00515519749423894
0.00461968001898963
0.00401850969603806
0.00335989495394742
0.00266457045670636
0.00196529387450153
0.00129620162492663
0.000693907368465355
0.00022227348703167
1.26660105580966e-05
0.00691496386350051
0.00666392502933904
0.00635704299310223
0.00598750629793719
0.00555223453322559
0.00505216749378217
0.00449036769598626
0.00387287704835188
0.00321291593798267
0.00253267711994659
0.0018581607528952
0.00121517537971925
0.000639257815694377
0.000195034080928447
1.00223268670343e-05
0.00715652099783624
0.00692993843824828
0.00664880576278965
0.00630622173578094
0.00589947898081019
0.00543032498854006
0.00490246603588503
0.00432112258751375
0.0036956228871723
0.00304167529016689
0.00237968402427076
0.00173051618139701
0.00111685693775294
0.000573174372400191
0.000163021754749978
7.42067098060624e-06
0.00736201338843625
0.00715762670220761
0.00689988425690688
0.00658167111999196
0.00620038494209695
0.00575826455115693
0.00525950919834789
0.00470905906394804
0.00411421162169326
0.00348670262213962
0.00284275431478759
0.00220064194093874
0.00157883005150769
0.000999391364908506
0.00049534398811748
0.000127622697952744
4.99715942287873e-06
1.84392915413689e-05
1.78029399265147e-05
1.67644802258431e-05
1.8720895554334e-05
1.93697222417338e-05
2.03616625177038e-05
1.93070640726715e-05
1.52361011047051e-05
1.71817538117422e-05
0.000232288710398881
0.000703022492907895
0.000249051485597892
0.00130213055244094
0.000738792766291357
0.000265523420626934
0.00195695420196592
0.00135514265739044
0.0007691877742131
0.000277331969698257
0.00262384684236288
0.00202666224322412
0.00139675080007691
0.00078695553750614
0.000282061943974892
0.00327503314603067
0.00271045549010158
0.00208549920709687
0.0014224670596143
0.00079046479564104
0.000278444568804691
0.00389138966424676
0.00337345273133669
0.00278642612399313
0.00213324688318024
0.00143883849388529
0.000785511265003352
0.000266581142280852
0.00446172002265834
0.00399357721418918
0.00345580128520276
0.00284699281865399
0.00217159637530777
0.00146343901457251
0.000768616933095885
0.00498153992101223
0.00456042754974836
0.00407206858511676
0.00351238089616613
0.00288176323739055
0.00219256609708446
0.00146180925426777
0.000776546286642693
0.00077059509354731
0.001419858575461
0.0021581653404698
0.00287557763993339
0.00353040983577933
0.000267779427470836
0.00411583034904604
0.00462885642588367
0.00507185405810725
0.00545072289274398
0.00587133009102898
0.00552996311171293
0.005127229672074
0.00465664294068722
0.00411456361123054
0.00350098834394424
0.00281986748627277
0.00209323637402631
0.00138265648789479
0.00075476425931683
0.000256991747786969
0.000269165177443815
0.000273043880078619
1.6445438496616e-05
1.8132473551527e-05
0.00624621285436143
0.00593821830217843
0.00557112736570416
0.00513833292638941
0.00463618718943592
0.00406452934747141
0.00342639514567015
0.00273453847849149
0.00202260276206752
0.00133889395720303
0.000724849979534991
0.000238852540718251
1.4416277211169e-05
0.00657829040751448
0.00630018890658728
0.00596481908703316
0.00556558842644412
0.00509925480920404
0.0045662861108322
0.00396970456007441
0.00331782840218822
0.00263067974507844
0.00193987455972666
0.00127863477842169
0.000683156343669791
0.000217023858792431
1.20815168751555e-05
0.00687027240986993
0.00661910304693073
0.00631216938875114
0.00594282579668707
0.0055082487184983
0.0050096937017464
0.00445053338874323
0.00383697399964275
0.00318208487944159
0.00250755885535489
0.00183884328331709
0.00120145218544047
0.000630736413037309
0.000191364638117686
9.63029156397126e-06
0.00712458461720362
0.00689777445823669
0.00661648179916869
0.00627389648335095
0.00586744695048074
0.00539903675486325
0.00487252762472033
0.00429324910785648
0.00367052327062958
0.00301990730302321
0.00236156816546542
0.00171618931124931
0.00110642938393574
0.000566775739817119
0.000160884711542844
7.17763622654857e-06
0.00734336013244773
0.00713860281326072
0.00688052458598367
0.00656203646899819
0.00618061890643054
0.00573859145681424
0.00524022545539769
0.00469052043506734
0.00409679913780802
0.00347077004657346
0.0028285718037806
0.00218838016931473
0.00156860211767838
0.000991298873378062
0.000489512571092718
0.000124925403737091
4.80724842986286e-06
0.00752814206841927
0.00734341121937817
0.00710640969383373
0.00680976567141439
0.00645081499268587
0.00603205211163578
0.00555799912176396
0.00503350340902842
0.00446474900072941
0.0038610079024459
0.00323533066960566
0.00260364278690693
0.00198303968624734
0.00139168707445969
0.00085230992521421
0.000397865092985623
8.65144668214516e-05
2.73251705820713e-06
1.72303597201185e-05
1.77842368223293e-05
1.75063893004979e-05
1.76005202570865e-05
1.8066896489397e-05
1.79786184980343e-05
1.88882495635327e-05
1.72823916675118e-05
1.32003187487559e-05
1.51485338328475e-05
0.000215670045647808
0.000666949988872228
0.000232741101942318
0.00124648168601458
0.000704596584512836
0.000250103735928071
0.00188252928683369
0.00130274508346299
0.000738283173975069
0.00026389598837832
0.00253183196872258
0.00195493855381983
0.0013494548238087
0.000762549444531048
0.000271426778766465
0.0031686390722748
0.00261879127154724
0.00201439968063961
0.00138111411360136
0.000774227306288735
0.000273316075207139
0.00377674123712215
0.00326737128445817
0.00269181413998395
0.00205836699295935
0.0013979685719468
0.000774765129892141
0.000269623672713348
0.00434575918621639
0.0038818100908309
0.00334905935442466
0.00274837511923348
0.00208954543018404
0.00140805225665589
0.000766169983882163
0.000266607769376429
0.00486995595464224
0.00445072701874366
0.00396427656787155
0.00340792053492855
0.00278486605485096
0.00211021578787309
0.00141027666914961
0.000762861600486391
0.00534728372854757
0.00496936123148221
0.00452713823149058
0.00401579134576752
0.00343523507825711
0.0027924572088698
0.00210008164717456
0.00139306551782237
0.000759416066388148
0.000741880966621628
0.00135958687516713
0.00205209777919903
0.00275681241659023
0.00342176600029842
0.00402710076203829
0.000267566424295301
0.00456582882093461
0.00503525843428042
0.00543746281406544
0.00577820521276563
0.00616455034497836
0.00585705041496962
0.00549047283880783
0.00505867630418414
0.00455896134084783
0.00399259259112284
0.00336406607145001
0.00268593957527347
0.00198860876691761
0.0013172173135625
0.000712178397310201
0.000232007997012035
0.00025079704592738
0.000262933823605863
1.36046309150293e-05
1.56061007170974e-05
0.00650868918771994
0.00623097040419821
0.00589608005961341
0.00549772354240641
0.005033197477877
0.00450372223914446
0.00391309045661573
0.00326981739905569
0.00259292570527444
0.00191234744966511
0.00126001873673769
0.000671492450201553
0.000211338598064267
1.14655542668529e-05
0.0068130700336483
0.00656214568134033
0.00625558545002895
0.00588693618555
0.00545367601632515
0.00495744669035416
0.00440202511172802
0.00379384682094129
0.00314572941138598
0.00247860341959036
0.0018170749795682
0.00118618506259192
0.000621052761134881