/*--------------------------------*- C++ -*----------------------------------*\
  =========                 |
  \\      /  F ield         | OpenFOAM: The Open Source CFD Toolbox
   \\    /   O peration     | Website:  https://openfoam.org
    \\  /    A nd           | Version:  12
     \\/     M anipulation  |
\*---------------------------------------------------------------------------*/
/*   Windows 32 and 64 bit porting by blueCAPE: http://www.bluecape.com.pt   *\
|  Based on Windows porting (2.0.x v4) by Symscape: http://www.symscape.com   |
\*---------------------------------------------------------------------------*/
FoamFile
{
    format      ascii;
    class       volScalarField;
    location    "300";
    object      omega;
}
// * * * * * * * * * * * * * * * * * * * * * * * * * * * * * * * * * * * * * //

dimensions      [0 0 -1 0 0 0 0];

internalField   nonuniform List<scalar> 
10063
(
0.290741033751849
0.288543368183866
0.30085139352637
0.288910437562367
0.28630611286421
0.298515537334809
0.291567823102047
0.286741265104269
0.298742943641606
0.278961343352789
0.29532666178127
0.319374974649679
0.299792093593519
0.290264078033329
0.301428873544481
0.279535625699382
0.295503154236979
0.318223297130714
0.27165351697054
0.285994946119095
0.316495321858006
0.355883382263155
0.316188808736246
0.2987125513963
0.306855426786428
0.282608852709061
0.298691534866504
0.320031794633566
0.272228136089793
0.286416104011919
0.315786666218771
0.353206945529486
0.263589385961843
0.277056058716985
0.303822237272711
0.360959157184176
0.424411509563856
0.343067374505108
0.315200276591596
0.320789353217542
0.289698355667288
0.305893942242774
0.32413727213413
0.274876777086848
0.28924378809086
0.318146787796874
0.353609679131405
0.264121542630428
0.277542830484686
0.303847430517704
0.358689751709346
0.419734723334617
0.255067548620725
0.267420815606566
0.290908744655771
0.344553428521629
0.460611540038225
0.635206631361424
0.390923848017972
0.346193057819372
0.347188405587717
0.304015324360695
0.320932531386155
0.331740347383809
0.280832185986958
0.295827333039236
0.323869340163919
0.355683313294495
0.266313839462753
0.28005117656187
0.306156999958593
0.359847506071178
0.418517375129372
0.255490397461378
0.26790396761956
0.291181427947063
0.343900569603319
0.455131700766506
0.629838336728735
0.246938931982831
0.257570641935376
0.277033838772965
0.321998777459713
0.444094027137315
0.742922380034042
2.43167005885168
0.485145063672972
0.411918885514136
0.394841210683645
0.333376306749299
0.350953291164014
0.355741593466724
0.292712958794962
0.309507149601684
0.335980119614322
0.360780306185245
0.271052991080074
0.285784119725357
0.311880428128892
0.363743768757286
0.418586393233908
0.257152791257167
0.27001203821138
0.293386252553342
0.34550805564039
0.454867126948595
0.628162194321509
0.247205366465322
0.257963801972757
0.277394262408154
0.321909293186172
0.441637090180756
0.735603764575831
2.43121534370752
0.23985376116028
0.248477217933818
0.263618789883499
0.297309461315257
0.391164901681369
0.773546425212177
2.46809230510628
0.732471485595104
0.581518180532421
0.496295939170961
0.404408678124026
0.414867587716531
0.404572712130189
0.316299040433708
0.338465064036032
0.364891211998368
0.375808755501307
0.280081610267169
0.297415971029786
0.324319819379264
0.372967591457359
0.421100637192873
0.260604043470544
0.27462950515956
0.298666243343103
0.350101661013352
0.4569790960381
0.63129004901414
0.248332454254592
0.259567279800805
0.279311909018277
0.323681430900491
0.442375742105456
0.735551565813389
2.42267828753998
0.239948900127956
0.248724052907574
0.263935942408345
0.297459663409175
0.390065601910075
0.769207461887418
2.47103746796873
0.234083928175411
0.240754342098324
0.252018649601498
0.275531232338441
0.336177555742223
0.563269610999287
3.32824775940328
2.77471423769451
1.00479726787747
0.546802637869912
0.625780364938479
0.597691207471622
0.577991770205462
0.36598311486677
0.409126752375343
0.437606656435159
0.556502709512899
0.426837280423764
0.560744872424963
0.296692811787899
0.321006262658945
0.352981715782974
0.397921281947246
0.434261464185456
0.266804672791468
0.28352906575526
0.309771914629612
0.36075802284219
0.463132770226624
0.64208679804369
0.250615289758212
0.262929676041396
0.283655544303161
0.32830495498202
0.445549286692669
0.740025214991207
2.42041209534003
0.240607252968713
0.24980720811343
0.26540214538958
0.299079172765356
0.391275257714444
0.769787570737553
2.47728561013206
0.23402584182323
0.240836637313481
0.252213555622515
0.275722374070676
0.335913457185357
0.561566570160064
3.32851756591699
0.229641269867356
0.234586669968813
0.242707768209951
0.258628244124505
0.295544299217787
0.402410782663138
1.00052512541796
4.93423148134787
2.0508628152273
2.99322075724417
1.50201495329166
0.755345170203129
0.635686387713824
0.488276904209918
0.640371046887233
0.630187764680611
0.32719155128565
0.371707577513049
0.432237969915556
0.47352672243461
0.693107202436716
0.655070411619246
0.635558064866034
0.493874262293343
0.277226027544284
0.300128904452403
0.333468071467307
0.387470766997843
0.483490067840605
0.669160765885667
0.254502263467388
0.269017535511446
0.292252662233311
0.338533832985747
0.453441178062487
0.749342887827736
2.41407872122942
0.24196375656029
0.252020248898142
0.268554604503441
0.302970655130316
0.395082420892914
0.770476406138352
2.47975135319141
0.234310674497352
0.241463573190413
0.253192535270609
0.276958973395795
0.337135982033631
0.563130510244379
3.3568013092109
0.229457721978757
0.234520390920393
0.242752442026042
0.258737839875395
0.295541493903516
0.401821373457786
1.00343253337725
4.94479029917401
0.226403442853573
0.229905265689097
0.23558509168493
0.246241101369406
0.268822580056769
0.323302115959569
0.49095165464288
0.921973474544457
3.23599344813625
2.36437083250683
2.09339917756196
4.67631295125333
3.08773806187239
0.855793729770257
0.498730030018362
0.383775026766728
0.758258815955314
0.293703224324494
0.331020749726866
0.388271574654317
0.468526564256222
0.761504929738505
0.562630412476439
0.79940572064372
0.772111195606752
0.260516565230014
0.279326680583715
0.308813704971425
0.361698465089582
0.475180207257759
0.766833201306991
2.44459289404645
0.244196284386838
0.255807459141131
0.274364327060282
0.310983176956032
0.403875673621347
0.774314033322288
2.4883289228674
0.234992119414977
0.242768482605812
0.255237906653999
0.279737176399286
0.340388147343889
0.566771779085095
3.34836602331966
0.229465600101228
0.234783233695249
0.243303020007092
0.259538573645196
0.296459310649932
0.402825469111331
1.0138739290213
5.00422891695439
0.226124198720763
0.229716912180973
0.235492396885009
0.246222270537732
0.268817697333416
0.323134055355603
0.491569346583447
0.923091668005023
3.24647938681889
0.224196671765942
0.226529337470363
0.230345745818457
0.237381814368308
0.251452903717381
0.2814869856552
0.351613543614673
0.504601492844216
0.878893722601527
3.000502053889
2.69778070082018
2.46950527578331
2.99984796422445
10.4741931916514
2.14046808465599
1.56328149619914
0.918171404381027
0.935151195226806
0.461420647145083
0.870883452739519
0.54397949340046
0.38826450099957
0.316855249877321
0.825721806547861
0.268962041060397
0.295699138371365
0.340739353616378
0.41934566764975
0.550317836322834
0.886202800781394
0.822911525414896
1.22629464879422
2.54409508040145
0.247444979962101
0.261685672806422
0.284367461760681
0.327088256448544
0.425166558630095
0.781274020874368
2.49759083305358
0.236125319690372
0.244925866319568
0.258779343734269
0.284993024451739
0.347302745319588
0.574843277866725
3.36871168089794
0.229678515524286
0.235429260848443
0.244484055850332
0.261283915169451
0.298672394056865
0.405443313183306
1.02597353848506
5.03088769614648
0.225934489849219
0.229709888231301
0.235701205745434
0.246641009118692
0.269370919647394
0.323725768443248
0.493281569484698
0.926103483446403
3.26605096638241
0.223848629166002
0.226247583955192
0.230139340353614
0.237243175702194
0.251350720959
0.281366432088524
0.351584726043043
0.504895043605476
0.878750439579348
3.00862548532872
0.222839635426712
0.224245834617132
0.22665242787828
0.231171473634001
0.240016893536461
0.25759343901298
0.293218990692199
0.362853223109351
0.49810841445929
0.857151203252906
2.96446512457301
3.15310057772031
2.52421871146855
3.5396335330284
6.27302031456419
5.35733548304106
1.45110069706013
1.06283876018446
2.96953988047506
0.892340710863312
0.495521064494378
0.976857900128687
0.805453730759497
1.0078947512646
0.341363900368021
0.453725208255763
0.585251411726499
0.40223048375188
1.00060930532739
0.318294095471864
0.279247446037093
0.876392854885517
0.251653426666999
0.26993039384015
0.300396567349549
0.359134026854603
0.483706675069505
0.826382653123611
1.21166978293778
2.4329454725855
2.7347733562053
0.237718575086927
0.248070413165628
0.264314534363284
0.294226195067777
0.361830138725403
0.59247329811623
3.29621422220221
0.230102570229437
0.236511531453839
0.246458550345008
0.264361316561964
0.302943021034427
0.410801556237164
1.04947613051899
5.16089857332425
0.225831493511659
0.229898884254267
0.236261331028082
0.247603559646358
0.270673782003312
0.32524820985339
0.496125567981612
0.931076544773887
3.28400947434604
0.223522533898463
0.226047794789075
0.230095258428407
0.237358300515342
0.251585496651479
0.281641826939957
0.351972515777662
0.505449118972022
0.878608952144992
3.01972191303418
0.222444867688019
0.223896860748488
0.226358479911058
0.230932413826116
0.239816689772434
0.257401508419981
0.293031937654449
0.362736156291828
0.497892277876148
0.856390694800565
2.96995358112709
0.222163824339834
0.222848498896856
0.224194490789798
0.226942597910216
0.232448392896295
0.243091894245083
0.26314739014199
0.29954675031679
0.36371078713659
0.488890112395926
0.841594740490234
2.97051595935764
2.9930254335932
2.70097059624092
6.0387488552431
5.39934121455664
2.49662198699222
3.8295272171754
1.14542754426737
2.8391759928135
3.13344408601852
0.872504664230271
0.505020547449569
0.930224903101658
0.356768295513737
0.491067867560365
0.845027665060902
1.00335221522261
1.5441205252672
1.02762093995804
0.289165744172748
0.340927323594043
0.463978692681152
0.66482582327185
0.417280986623349
0.999997408997105
0.32224861373453
1.13960406817805
0.869000861329045
0.279872281345655
0.256356076527634
1.2391534236625
0.239666489987219
0.252139427748413
0.272072076376508
0.309066949982385
0.392652819687306
0.642297940524566
2.81386086852006
1.15062096000004
2.53142042393016
1.30989022437865
0.230711620246954
0.238037160158954
0.249348770941781
0.269205071169102
0.310496046861908
0.421145194370877
1.09195986462473
5.34335190609877
0.225804754316864
0.230289772481107
0.237220706719378
0.249247809164209
0.273015922290936
0.328133595626651
0.501274746313092
0.936108784890922
3.31567124670207
0.223210125584407
0.225928772931682
0.23022651123209
0.237767976775616
0.252235089870236
0.28241058099673
0.352880355658683
0.506488543744426
0.878316494074624
3.03250704499674
0.22202754788325
0.223563916471041
0.22613343832662
0.230823625291343
0.239801416027233
0.257423469009821
0.293047545615067
0.36270049299564
0.497426368784483
0.855194782633246
2.97738822552747
0.22173945890074
0.222453866403335
0.223837326594169
0.226625573900803
0.232164249734341
0.242822695062691
0.262873967876481
0.299261719070312
0.363383463843116
0.488384378062711
0.840437189891316
2.97406687222342
0.222021406309772
0.222153578246278
0.222706470047592
0.224197481950074
0.227502216421923
0.234006786350043
0.245925982322326
0.266632691670216
0.301169318035534
0.3601718914765
0.47922844933578
0.825947361963821
2.98282621890343
5.85269042442729
5.30173331105683
5.06452468813745
2.4183784117839
4.4451276456072
2.3772565215793
1.70449312756461
1.21594041225277
2.9221856095498
3.0890572444449
0.8669218283038
0.499418678326108
0.883935944518921
0.363672402199109
0.507148857075763
0.970618445572233
0.296009715101048
0.35650906029922
0.52257509690389
1.08420950177986
0.260615338199425
0.289314427618929
0.343210926661273
0.472040651764171
0.754710164552594
0.445892962430294
1.23664579890708
0.328680837927116
0.850416178309714
1.14989390233806
1.13673916661909
0.281327982010694
0.256665830792182
0.241688580170694
1.14496748998536
2.50182915826078
0.231418410365317
0.239901610480089
0.253082959908004
0.275967950649945
0.32231181175534
0.439985101127072
0.739004350765648
1.19404055832063
5.71494772171139
3.50538038823286
1.09980103211842
1.84225037126856
0.225824100970219
0.23085647977459
0.238582590487434
0.251670112758662
0.276687840999534
0.332856720974628
0.510361193444974
0.946559447787529
3.35082822593867
0.222897816966734
0.225880293404403
0.23053731000121
0.238510171044471
0.253391976783589
0.28381798484851
0.354519359261378
0.507909062753255
0.877196394851948
3.04521593189744
0.221578814637292
0.223240575011234
0.225975785821978
0.23085420783224
0.239998285499439
0.257702424135558
0.293294205956098
0.362790004381358
0.496883771495391
0.853581747092126
2.98571121868929
0.221263428623802
0.222031835974339
0.223487033152559
0.226356024135521
0.231964851018125
0.242655683803959
0.262683908416584
0.298990314599757
0.362892312028636
0.487410988213574
0.83869156396052
2.97888949166271
0.221580222685222
0.221730056171673
0.222306311718608
0.223823901394791
0.22715235097255
0.233670139655159
0.245587565437326
0.266276687871408
0.300776247801101
0.359699294932068
0.478537173908432
0.824565852346288
2.98497287033649
0.222286725228912
0.222004137561365
0.221969273203261
0.222564139970569
0.224387329425457
0.228299609414192
0.235554437890982
0.247954038895783
0.268015572814418
0.300034586649037
0.354988005133751
0.468889587979788
0.809062475666484
2.99233231289728
4.66670965139648
5.27348528345378
3.84338424272095
4.08870923691752
2.34954308806545
3.29054270849927
1.19225295907545
2.98822926261178
3.0242910038758
0.857074180915918
0.49360861402792
0.866715481099187
0.363692013300878
0.50054001444358
0.890563677731722
0.299162244330416
0.363859257694808
0.518668023161921
0.944291587849593
0.263464136836555
0.295999478964386
0.35975465961298
0.521730540625993
0.243353937274654
0.260740294511917
0.28998895460724
0.347386452392477
0.513935984625061
0.930110341963124
0.692977755817715
1.02526040190234
0.456337573839453
0.33763493670518
1.17737905608327
1.0284781799337
0.283917866176838
1.14220044242018
0.257208262790265
0.241829787245839
0.232061856884509
1.57189625576608
0.225829352117686
0.231513320501247
0.240245037417077
0.254790221761632
0.281702532578243
0.339134302385123
0.524957804330781
0.905010166108702
1.00089162100293
0.965586537511685
1.2046492518438
3.4163461513767
5.32821746006063
1.38132804013323
0.222561143877387
0.225872642300424
0.231001668785011
0.239580888480917
0.255106783633589
0.285921681426628
0.356910381487681
0.510364233736954
0.875722786066497
3.05783482621379
0.22108681913021
0.222913697602324
0.225875136926287
0.231024947726874
0.240429898856925
0.258273448734346
0.293805668507337
0.362993919767888
0.495999752748647
0.85109536621055
2.99309158620776
0.220728124659412
0.221575455927144
0.223137447170948
0.226130972540143
0.231853728263057
0.242602543870414
0.262591558366601
0.298738139828698
0.362281148738449
0.486067946850153
0.836459227915271
2.98427127953559
0.221068607057962
0.221250713616643
0.221872119596349
0.223442645287758
0.226819773723324
0.23336388400276
0.245266180649167
0.265886160079176
0.300245231161099
0.358915198724673
0.477288694007298
0.822456152986302
2.98790298687904
0.221837950946397
0.221564262598633
0.221541960581058
0.222152035174214
0.223989627231614
0.227910196594794
0.235162549282561
0.24754687714731
0.267577773024542
0.29954622082759
0.354411421517274
0.46809441143004
0.808288244977409
2.99352861764217
0.222854714321342
0.222269147234141
0.22180506883518
0.221762346014344
0.222576366173968
0.22481495752583
0.229237601579555
0.236882783932366
0.249133870048623
0.268021037664288
0.29769001980273
0.349222638340168
0.457841558127687
0.79364223815205
2.99515656166915
3.30228304014156
2.09270904676836
4.05506432130428
2.37873318150449
3.30339902915687
3.37520150592032
1.06871099072558
3.08572948319856
2.97197557148364
3.00376432392816
0.850198529289332
0.48680109878356
0.856175991235404
0.360378458126991
0.492642648252019
0.86388839990127
0.299011467124818
0.363522511510894
0.501738679045561
0.883191289677407
0.264499316866985
0.299062559347268
0.36534132800343
0.514000810616653
0.922768423066207
0.244250395299723
0.26346542467292
0.296318402765589
0.361812117944996
0.526520577209182
0.232430920235277
0.2434031413749
0.260881667930469
0.291332157956817
0.353714281017788
0.483336945932685
1.02393087478803
1.19279650265225
0.519838810346685
0.345563403797233
0.287527764684899
1.10503231767708
0.860223957066274
1.01038831185576
0.258199322680486
0.241947870269217
0.232102934559684
0.22572927915213
0.222161542724888
0.225846859820541
0.231537480680632
0.240883762613458
0.257286258165026
0.288535750543735
0.359053057525434
0.512241893549282
1.12928865969927
0.873821784106199
0.947425189906044
1.02299488810992
3.07173664929819
3.50230193117322
0.220534362179877
0.222559281132491
0.22580265905709
0.231309269318426
0.241080383456402
0.259123376965255
0.294491499899622
0.363177326928107
0.49451012881836
0.846966919122115
2.99793891888654
0.220124786865583
0.221073367945653
0.22277582095798
0.225939351840063
0.231826456087693
0.2426665410874
0.26259079182082
0.298462133426924
0.361427545015156
0.484169648856588
0.833425779994064
2.98886304499422
0.220480649120397
0.220709869340296
0.221397421175182
0.223047139310061
0.226499492623701
0.23308542788566
0.244960410389529
0.265455336379435
0.299568769251577
0.357832756218593
0.475590492765401
0.819937661514021
2.99118124721103
0.221307169034932
0.221050240086496
0.221053817297612
0.221695762168823
0.223563868273929
0.227501964286525
0.234744944138972
0.247080152347232
0.267012793383117
0.298824689531778
0.353449418638742
0.466689489221502
0.805871380473966
2.99516680587994
0.222404849780892
0.22182198862737
0.221362518610973
0.22132601204017
0.222146093105679
0.224387245615556
0.22880501420859
0.236435105143863
0.248659651759599
0.267507823533036
0.297125004087282
0.348581336607699
0.457088585039554
0.793213293054055
2.99576576967777
0.223637769568162
0.222840383250905
0.222070530786928
0.221578917344949
0.22170391101708
0.222844158723828
0.225488123456883
0.2302737355866
0.238024753817686
0.249836539836368
0.267536763000115
0.295216069040697
0.343616551723767
0.446877058069093
0.778590266517729
2.99012765280751
3.33461550202667
3.77006520625492
1.07794665021449
3.28920663366217
3.0693312514865
3.07958676900357
3.01128048455456
3.01301870303033
3.00833689142374
0.837985607856292
0.479415810557001
0.847065853356829
0.3555465244646
0.485061836679431
0.85067785037047
0.29667158989729
0.359671295991588
0.490438419139494
0.857030623309206
0.263809506619158
0.298750464904395
0.363074344764297
0.498436652676786
0.872253655625128
0.244167917008681
0.264403654412436
0.298872895763309
0.36508501655575
0.507857041689818
0.908461875848363
0.232333766723816
0.24422384292554
0.263307642913887
0.29662809334727
0.362788582214454
0.508739380674076
0.225417044966632
0.232419618323783
0.243301383871049
0.261185396858377
0.293079658226044
0.35342232911204
0.507466498742224
0.505203900899295
0.358524751961927
0.29127072602888
0.259619612919116
0.966781096419298
0.24218794817048
0.231996286356405
0.22571379600159
0.221648310500235
0.219898433236959
0.22213952614841
0.225702141696226
0.231631867019466
0.241861002413267
0.260139898878446
0.295045314690528
0.362569781440635
0.491699563220088
0.841521491176826
0.864361104080574
0.901703377269982
3.00008227899588
3.07190656630341
0.219442660358153
0.220508736586455
0.222379062951391
0.225753589278215
0.231855136384359
0.242818261324253
0.262623281073196
0.298038750896336
0.360115649019442
0.48137117534303
0.829241231360204
2.9911503278674
0.219810613195808
0.220099237955646
0.220871376203021
0.222624924612815
0.226179353739772
0.232824394557839
0.244657733193078
0.264960243953971
0.298699734774167
0.35636481207163
0.47333539476968
0.816921134275553
2.99396732118938
0.220689897133806
0.220458082745347
0.220499693221078
0.221188819207973
0.223102930377121
0.227067848815951
0.234293958734508
0.246543838194082
0.266306654172991
0.297857658029706
0.352122629628549
0.464835199372556
0.804096096185458
2.99700730793372
0.221866812516902
0.221289383121132
0.22084185318518
0.22082152838106
0.221657488769248
0.223906930940511
0.228315829552001
0.235910086002937
0.248064317295719
0.266804051982992
0.296272834767772
0.347515287555417
0.455604995303085
0.790136898827695
2.99660128934379
0.22319160021158
0.222392344754562
0.22162141453217
0.221129231638525
0.221253356604909
0.22239053560833
0.225026433953235
0.229796178284048
0.237521874253383
0.249298923460962
0.266957442638345
0.294594071312363
0.342952501184512
0.446353752358959
0.778605539448566
2.99040918117553
0.224560831842278
0.223628383044872
0.222650221869668
0.221849965415774
0.221508835785027
0.221926011844026
0.223435035817642
0.226452419942164
0.231506335429169
0.239262244144023
0.250668963129968
0.267478561481261
0.293648711791806
0.339330829171994
0.43785009154751
0.768480543716758
2.98566187714882
3.05623599970376
3.16170703092804
3.23438980404345
3.06894460210307
2.99976729198843
3.00145019948349
3.00574058123256
3.00813059623584
3.02784121722513
0.82533981636927
0.470676583340451
0.835741821472
0.349852387198021
0.477210342504857
0.839715111672137
0.293062331391439
0.354526967827292
0.481650961186904
0.842958573969043
0.261809269212421
0.296234669296757
0.358149545536182
0.486506506432181
0.849035185745061
0.243122393622319
0.263622833778486
0.298040862765097
0.361359544391418
0.492682549556985
0.863396538211917
0.231667221317475
0.244078208505499
0.263982956815305
0.29825866871377
0.362953203628174
0.498773431326654
0.888160048967534
0.22480115740722
0.232276121023196
0.243936117917551
0.263033678524417
0.296574504275924
0.359747272985484
0.505453135657672
0.220967984844264
0.22536914003408
0.232185241349406
0.243155537375431
0.261592337951329
0.293940363920369
0.357817137229918
0.494318383773204
0.485920483557907
0.359867002849704
0.295076430672819
0.261111565877335
0.242587828925835
0.876336203463066
0.2318601242332
0.225489367299639
0.221604864740861
0.219152594250842
0.218669601451075
0.219859032299102
0.22191116212301
0.22552219151099
0.231874065933712
0.242977260433032
0.262567595508604
0.297217638529672
0.358002954714447
0.477551498628608
0.823769849347541
0.834205280026728
0.850252470238113
2.99026653716106
2.99792346746927
0.219052851974489
0.219408338343408
0.220277884073506
0.222154302971345
0.225833377269848
0.232551767097769
0.244320989325792
0.264334445937009
0.297522341004575
0.354347984926888
0.470327176048219
0.814720470197307
2.99526277948359
0.219982794055614
0.219782501353904
0.219871798028603
0.22062088229389
0.222594635936738
0.226594610183763
0.233794670802068
0.245918074501533
0.265429290182561
0.296601407100359
0.350381190072486
0.462518476854979
0.802484808914118
2.99858999754695
0.221236677381465
0.220668758321309
0.220239603385577
0.220243807192606
0.221104023664077
0.223366442988748
0.227761396965913
0.235297043758001
0.247333931940015
0.265893772421851
0.295125670732093
0.346064557082133
0.453761075178695
0.78785022559739
2.99754514113207
0.222655744894073
0.221852854618844
0.221083542825644
0.220595902900812
0.220724423263912
0.221861330900257
0.224485993185089
0.229226296170445
0.236898343217974
0.248594912143633
0.266147812532303
0.293653958636532
0.341827041335148
0.444834406884434
0.77462414387
2.99079652509059
0.224123670890152
0.22318419692131
0.222200700648036
0.221394927499771
0.221047504192948
0.221456604512845
0.222954000605463
0.225953965849019
0.230982770144221
0.23870526634499
0.250072249423311
0.266842285826861
0.292985892185085
0.338688782859382
0.437507402220795
0.769186632824998
2.98577903209545
0.225551476607266
0.224557008833572
0.223450465085889
0.222448067795971
0.221799789074614
0.22174658566014
0.222531714054405
0.224445485392705
0.227853474014119
0.233208252701493
0.24109851711274
0.252437802543427
0.268969840155
0.294521110098046
0.338787124350453
0.4345934272317
0.770771835723206
2.99888807497721
2.99350576875891
3.03230790940339
3.08245556343003
3.06078317163339
3.00936852486625
2.98457009480461
2.98753400695268
3.01411896062522
3.0215496327272
3.03653468009294
0.810135404177134
0.461007046782057
0.822938846883128
0.343432420709744
0.468397866852506
0.827970094565361
0.288713992567021
0.348662749586471
0.473210929501788
0.831035917657049
0.258943627566898
0.292501860458191
0.352494193521098
0.477180458465936
0.835954887870866
0.241294496572167
0.261544102559015
0.295148212570943
0.355702528984414
0.481421553852428
0.842323999291917
0.23043848691313
0.242979256716548
0.262977136994159
0.296738393706509
0.358274943766886
0.486031366327844
0.852233896217518
0.223835827842829
0.231569837876804
0.243635089904395
0.263237113792452
0.296937198831187
0.358969974539298
0.490398815180939
0.853681581202377
0.220079696006973
0.224723461888929
0.231928140301926
0.243455710009296
0.26256458243809
0.295536273550543
0.357901019456336
0.486988684107176
0.218272868340155
0.220903125876524
0.225066192160706
0.231824009196781
0.242998603827745
0.261781604702688
0.294842379604761
0.356376995230826
0.478937085835136
0.472559763878062
0.35472171580935
0.295753197130933
0.262273363154134
0.24301033584033
0.231773687636504
0.839050347823787
0.225169544248771
0.221325260140058
0.219098446383637
0.21779426581176
0.218202799752161
0.218625323959834
0.219595535232517
0.221602296863713
0.225416568097356
0.232211719418058
0.243879839085058
0.263476066758483
0.295892522086203
0.351666661705266
0.466484004969133
0.812377606144962
0.81735415442139
0.826174587128034
2.99459691151431
2.98727487010692
0.219184020025476
0.219018052752947
0.219160190531224
0.219976966510631
0.222019122838945
0.226058217182303
0.233218575959483
0.245165056119826
0.264325874780846
0.294979430710956
0.348128348100749
0.459759757563294
0.800550982061008
2.99938214100154
0.220512611543039
0.219957195667087
0.219550911415543
0.219585538182044
0.22047596114207
0.222754009352717
0.22712797038497
0.234579241687863
0.246447224087475
0.264750263022095
0.293655164016934
0.344217667242483
0.451606045270546
0.786028561274696
2.99837810078771
0.222025039165735
0.221219896872106
0.220454830553344
0.219975501572867
0.220112114780516
0.221250119779083
0.223859023254949
0.228554663083053
0.236142365108096
0.24771010264256
0.265093610353286
0.292396305800376
0.340318232392283
0.442949630912194
0.771570995611277
2.99123775034206
0.223599506801203
0.222647125550476
0.221656817937736
0.220846734287191
0.220494784774766
0.220896166503369
0.22237860276839
0.225351260943152
0.230335527313943
0.237993606334723
0.249277435765412
0.265950332373632
0.291982014103977
0.337527622805873
0.435799322889333
0.763869818503131
2.98594198261141
0.225138873881574
0.224121948242204
0.223005136194473
0.221993420762656
0.221334778371777
0.221269383375757
0.222039417822007
0.223933600340111
0.227315800398186
0.232637463812711
0.240487708557468
0.251784120587965
0.268281163698939
0.293826584265854
0.338206647582794
0.434565403041056
0.772295891294795
2.99893109267932
0.225553467389026
0.224392708929373
0.223272591448456
0.222433488955852
0.222084637436565
0.222417083415448
0.223648648723783
0.22605418395467
0.229977233399909
0.235852963644721
0.244291246591299
0.256295412230511
0.273769886727791
0.30077100800182
0.347450240660381
0.448274747535794
0.797354306305704
3.0317822479779
2.98505478416789
2.9905910615474
3.0155450962624
3.03341480276552
3.01594593640237
2.99543519391941
2.98366166585928
2.98972233126433
3.02259178430096
3.0212067382113
3.04553202037889
0.79366538405793
0.45031282287013
0.808240706435639
0.33644540618973
0.458679396133943
0.814879409164229
0.283888687127431
0.342172974529285
0.464204566206758
0.818675484543467
0.255553712459208
0.288078351180866
0.346377910781611
0.468382349634106
0.824181186165192
0.238920780033104
0.258620162689706
0.291191940745836
0.349667041883896
0.472281054994892
0.829954665146461
0.228744096426242
0.241107810437373
0.260728969480702
0.29341976116291
0.35237228902536
0.475774325037479
0.834421138827984
0.222534576953418
0.230307571201667
0.242410398283812
0.261877770497041
0.294719177061154
0.354164002848501
0.478555797010398
0.836247744658822
0.218970239395806
0.22373181700363
0.231125509032713
0.242882219352717
0.262112194563237
0.294781889552593
0.354594259698143
0.478124836957353
0.829187089837336
0.217246215666036
0.219994509826559
0.224348413235177
0.231366021300866
0.242815441967812
0.261728099327529
0.294155222809284
0.353164487397533
0.472742100144228
0.216810067933213
0.218203682284668
0.220572324092197
0.224608394439483
0.231416825592089
0.24274813264728
0.261660739056256
0.293873221974376
0.350836726273728
0.467044581270696
0.461931593540082
0.348293542312802
0.29371603231619
0.2622904397284
0.243242409429574
0.231721758807667
0.224865446216965
0.818920790183036
0.220926723766696
0.218800020179843
0.217739199533958
0.217258875384178
0.218294328557953
0.218160350454445
0.218353710037303
0.219237534905495
0.221347576459012
0.225421052801435
0.23252030783007
0.244230451378817
0.262932444394971
0.292928022398649
0.345311096285899
0.456441839131182
0.798124245469232
0.807749848233593
0.810830359800403
2.99913610234045
2.99267310060235
0.219695473808658
0.219153009192882
0.21877071480708
0.218837567572247
0.219759768493881
0.222051931238781
0.226394013127984
0.233730854968651
0.245372513032672
0.263334535262979
0.291814944389892
0.341936296862441
0.449073112192776
0.783980706918679
2.99884994914434
0.221298129906335
0.220492039003368
0.219732726746847
0.219263540653011
0.219409648196014
0.220547864639218
0.223134397191517
0.227767899116122
0.235237770800468
0.246625342047194
0.263775173113973
0.290809039686035
0.33844234027161
0.440796054494027
0.769233915055694
2.99164505373028