/*--------------------------------*- C++ -*----------------------------------*\
  =========                 |
  \\      /  F ield         | OpenFOAM: The Open Source CFD Toolbox
   \\    /   O peration     | Website:  https://openfoam.org
    \\  /    A nd           | Version:  12
     \\/     M anipulation  |
\*---------------------------------------------------------------------------*/
/*   Windows 32 and 64 bit porting by blueCAPE: http://www.bluecape.com.pt   *\
|  Based on Windows porting (2.0.x v4) by Symscape: http://www.symscape.com   |
\*---------------------------------------------------------------------------*/
FoamFile
{
    format      ascii;
    class       volScalarField;
    location    "300";
    object      p;
}
// * * * * * * * * * * * * * * * * * * * * * * * * * * * * * * * * * * * * * //

dimensions      [0 2 -2 0 0 0 0];

internalField   nonuniform List<scalar> 
10063
(
83333.333334225
83333.3333339161
83333.3333337646
83333.3333337756
83333.3333295074
83333.3333334535
83333.3333336954
83333.3333291314
83333.3333332893
83333.3333255777
83333.3333286751
83333.333333086
83333.3333336287
83333.3333287394
83333.3333332209
83333.3333246082
83333.3333282925
83333.3333329138
83333.333317698
83333.3333240859
83333.33332685
83333.3333324812
83333.333333506
83333.3333281418
83333.3333331311
83333.3333235333
83333.3333279495
83333.3333328564
83333.3333165054
83333.3333231272
83333.3333265117
83333.3333323107
83333.3333096968
83333.3333167119
83333.3333210437
83333.3333235481
83333.3333315079
83333.333333306
83333.3333271809
83333.3333330007
83333.3333221168
83333.3333273191
83333.3333327673
83333.3333152452
83333.3333221109
83333.3333262728
83333.3333322795
83333.3333084166
83333.3333154723
83333.3333201378
83333.3333232919
83333.3333313346
83333.3333016439
83333.3333089211
83333.3333144676
83333.3333152419
83333.3333190286
83333.3333309087
83333.3333327573
83333.3333256984
83333.333332831
83333.3333198494
83333.3333262842
83333.3333325907
83333.3333137012
83333.3333208116
83333.3333256639
83333.3333322521
83333.3333070612
83333.3333142143
83333.333319238
83333.3333231966
83333.3333313222
83333.3333004637
83333.3333075933
83333.3333131704
83333.3333144528
83333.3333189156
83333.3333306292
83333.3332934632
83333.3333010519
83333.333307304
83333.3333102035
83333.3333078919
83333.3333193251
83333.3333314774
83333.3333327185
83333.3333231887
83333.3333322433
83333.3333165438
83333.3333250095
83333.3333323225
83333.3333114844
83333.3333183994
83333.3333245086
83333.3333321186
83333.3333054476
83333.3333127326
83333.3333181716
83333.3333227865
83333.3333313791
83333.3332991601
83333.3333062383
83333.3333119471
83333.3333137441
83333.3333190151
83333.3333305214
83333.3332925351
83333.3332998314
83333.3333058826
83333.3333088243
83333.333307298
83333.3333189278
83333.33333096
83333.3332852081
83333.3332929943
83333.3332998652
83333.3333043711
83333.3333042008
83333.3333098393
83333.3333069225
83333.333330776
83333.3333206387
83333.3333326746
83333.3333113998
83333.3333227743
83333.3333316202
83333.3333087852
83333.333315562
83333.3333232539
83333.3333319312
83333.3333032708
83333.3333105065
83333.333315803
83333.3333217485
83333.3333314391
83333.3332976069
83333.333304665
83333.3333106154
83333.3333129794
83333.3333189941
83333.3333305032
83333.3332914034
83333.3332985261
83333.3333045231
83333.3333076514
83333.3333068826
83333.3333187689
83333.3333307291
83333.3332846413
83333.3332920319
83333.333298561
83333.3333027896
83333.3333027153
83333.3333087316
83333.3333070059
83333.3332770485
83333.3332848237
83333.333292056
83333.3332977611
83333.3333000456
83333.3333059098
83333.3332791719
83333.333330586
83333.3333185183
83333.3333317678
83333.3333032667
83333.3333205475
83333.3333200137
83333.3333046524
83333.3333107445
83333.3333217238
83333.33331899
83333.3333318435
83333.3333320713
83333.3333008029
83333.333308187
83333.3333132142
83333.3333205238
83333.3333316263
83333.3332955895
83333.333302563
83333.3333086984
83333.3333112098
83333.3333185213
83333.3333305507
83333.3332900129
83333.3332970013
83333.3333030349
83333.333306509
83333.3333065645
83333.3333185018
83333.3333306566
83333.3332837737
83333.3332908943
83333.3332972377
83333.3333013941
83333.3333016213
83333.3333079757
83333.3333071966
83333.3332768996
83333.3332842249
83333.333291021
83333.333296303
83333.3332982436
83333.3333038665
83333.333279395
83333.3332691856
83333.3332767249
83333.3332840355
83333.3332904147
83333.3332946465
83333.3332986734
83333.3333014161
83333.3332810456
83333.3333315106
83333.3333143007
83333.3333003756
83333.3333192332
83333.3333187767
83333.3332977947
83333.3333044275
83333.3333126088
83333.3332968892
83333.3333045141
83333.3333095281
83333.3333192932
83333.3333221999
83333.3333199536
83333.3333324201
83333.3333323643
83333.3332931396
83333.3333003287
83333.3333065598
83333.3333092014
83333.3333178091
83333.333330843
83333.3332883057
83333.3332950857
83333.3333011813
83333.3333051183
83333.3333057254
83333.3333175786
83333.3333307
83333.3332825813
83333.3332895083
83333.333295754
83333.3332999868
83333.3333007838
83333.3333071561
83333.3333075412
83333.3332763723
83333.3332833521
83333.3332898574
83333.3332949181
83333.3332967767
83333.3333024497
83333.3332797207
83333.3332694712
83333.3332765487
83333.3332833745
83333.3332892487
83333.3332929634
83333.3332964386
83333.3332985669
83333.3332789386
83333.3332617789
83333.3332689059
83333.3332760461
83333.3332826719
83333.3332880261
83333.3332923145
83333.3332954866
83333.3332909989
83333.3332759654
83333.3333318788
83333.3333142329
83333.3332931263
83333.3332897382
83333.3332834785
83333.3332992462
83333.3332916337
83333.3333066138
83333.3332896385
83333.3332969508
83333.3333036704
83333.3333066873
83333.3333208093
83333.3333167104
83333.3333321428
83333.3333310821
83333.3332856403
83333.3332926243
83333.3332989759
83333.3333033691
83333.3333048482
83333.3333164509
83333.3333311166
83333.333280979
83333.3332878096
83333.3332939828
83333.3332984197
83333.3332999402
83333.3333054805
83333.3333072268
83333.3332754763
83333.3332821624
83333.3332884707
83333.3332934594
83333.3332954403
83333.3333014012
83333.3332801276
83333.3332693198
83333.3332760166
83333.3332824773
83333.3332880214
83333.3332914768
83333.3332946889
83333.3332965708
83333.3332773533
83333.3332624851
83333.3332691684
83333.333275817
83333.3332819049
83333.3332866727
83333.3332902831
83333.3332927223
83333.3332876505
83333.3332728494
83333.3332549336
83333.3332615345
83333.3332683178
83333.3332748797
83333.3332806977
83333.3332856887
83333.3332885625
83333.3332889944
83333.3332827568
83333.333274396
83333.3333317586
83333.3333106497
83333.3332919431
83333.3332807081
83333.3332850668
83333.3332891103
83333.3332721235
83333.3332827317
83333.3332813289
83333.3332891437
83333.3333003894
83333.3332923683
83333.3332848178
83333.3333061986
83333.333282702
83333.3332893931
83333.3332963038
83333.3333012161
83333.3333029103
83333.3333180308
83333.3333120008
83333.3333295697
83333.3333291871
83333.3332787219
83333.3332852188
83333.333291455
83333.3332963902
83333.3332991669
83333.333303481
83333.3333056026
83333.3332741778
83333.3332805661
83333.3332867779
83333.3332918284
83333.3332940439
83333.333299956
83333.3332792333
83333.3332687713
83333.3332751203
83333.333281284
83333.3332866268
83333.3332900145
83333.333293131
83333.333295124
83333.333276187
83333.3332627193
83333.3332690168
83333.3332752643
83333.3332809517
83333.3332853421
83333.3332885675
83333.3332906932
83333.3332850795
83333.333270471
83333.3332560212
83333.333262219
83333.3332685352
83333.3332745644
83333.3332797859
83333.3332840952
83333.3332862317
83333.3332859433
83333.3332794184
83333.3332707347
83333.3332487076
83333.3332547181
83333.3332610252
83333.3332673122
83333.333273184
83333.3332784512
83333.3332824287
83333.3332841993
83333.3332824036
83333.3332768632
83333.3332729029
83333.3333314565
83333.3333100677
83333.3332841745
83333.3332839126
83333.3332682778
83333.3332841883
83333.3332922215
83333.3332674473
83333.33326728
83333.3332712535
83333.3332700704
83333.3332862289
83333.3332742052
83333.3332778112
83333.3332816992
83333.333299698
83333.3332924438
83333.3332974641
83333.3332847447
83333.3332786596
83333.3333038877
83333.3332762951
83333.333282337
83333.3332886641
83333.3332942715
83333.3332977717
83333.3332981638
83333.3333067821
83333.3332999849
83333.3333304324
83333.3332724519
83333.3332783399
83333.3332843053
83333.3332893169
83333.3332925011
83333.3332990281
83333.333276227
83333.3332678256
83333.3332738238
83333.3332796984
83333.3332849548
83333.3332884198
83333.3332913882
83333.3332935246
83333.3332737738
83333.3332625319
83333.333268469
83333.3332743634
83333.333279741
83333.333283916
83333.3332869217
83333.3332889345
83333.3332829074
83333.3332684129
83333.3332566225
83333.3332624534
83333.3332683682
83333.3332739652
83333.3332787444
83333.3332826016
83333.3332843185
83333.3332836322
83333.3332766682
83333.3332678457
83333.3332501261
83333.3332557865
83333.3332616706
83333.3332674587
83333.3332727551
83333.3332773716
83333.3332806434
83333.3332817313
83333.3332794255
83333.3332736012
83333.3332691905
83333.3332431256
83333.3332485164
83333.3332542764
83333.3332601594
83333.3332658407
83333.333271092
83333.3332755289
83333.3332785883
83333.3332790215
83333.3332761802
83333.3332711977
83333.3332696598
83333.3333056791
83333.3332862184
83333.3332861897
83333.3332764824
83333.333298651
83333.3332675751
83333.3332941227
83333.3332638424
83333.3332680749
83333.3332626598
83333.3332665612
83333.333265871
83333.3332699668
83333.3332707718
83333.3332692845
83333.3332704565
83333.3332704924
83333.33327114
83333.3332734691
83333.3332776935
83333.3332829765
83333.3332980197
83333.3332913613
83333.3333003405
83333.3332842717
83333.3332949904
83333.3332886674
83333.3332783729
83333.3332728566
83333.3333005035
83333.3332701363
83333.333275919
83333.3332815204
83333.3332869172
83333.3332906775
83333.3332959125
83333.3332692732
83333.3333008188
83333.3333010851
83333.333292972
83333.3332664669
83333.3332720892
83333.333277522
83333.3332825793
83333.3332861615
83333.3332897952
83333.3332927766
83333.3332710598
83333.3332619556
83333.3332675228
83333.3332730691
83333.3332781683
83333.3332822493
83333.3332850713
83333.3332867439
83333.3332798705
83333.3332645534
83333.3332567947
83333.3332622724
83333.3332678183
83333.3332730468
83333.3332774935
83333.3332810495
83333.3332824942
83333.3332815932
83333.3332742081
83333.3332652311
83333.3332510573
83333.333256388
83333.3332618937
83333.3332672552
83333.3332720864
83333.3332762149
83333.3332790194
83333.3332796843
83333.3332769761
83333.3332708637
83333.3332662417
83333.3332448199
83333.3332499185
83333.3332553114
83333.3332607452
83333.3332658957
83333.33327054
83333.333274322
83333.333276715
83333.3332766147
83333.3332733305
83333.3332681284
83333.3332661702
83333.3332381899
83333.3332429566
83333.3332481326
83333.3332535318
83333.3332588858
83333.3332639508
83333.3332684482
83333.3332720541
83333.3332739941
83333.3332733112
83333.3332700197
83333.3332653664
83333.3332650941
83333.3332753915
83333.3332793664
83333.3332818285
83333.3333048119
83333.3332582652
83333.3332881951
83333.3332711966
83333.3332806221
83333.333260532
83333.3332628425
83333.3332583075
83333.3332622098
83333.3332626113
83333.3332655117
83333.3332661677
83333.3332666158
83333.3332676249
83333.3332697955
83333.3332696238
83333.3332695895
83333.3332688681
83333.3332732714
83333.3332776207
83333.3332842172
83333.3332903319
83333.3332883044
83333.3332978447
83333.3332829348
83333.3332931059
83333.333297953
83333.3332974116
83333.3332776964
83333.333272539
83333.3332674652
83333.3332968508
83333.3332927953
83333.3332646981
83333.3332698334
83333.3332751242
83333.3332799165
83333.3332838127
83333.333286867
83333.3332903692
83333.3332903037
83333.3332658698
83333.3332685499
83333.3332979865
83333.3332912779
83333.3332610015
83333.3332661705
83333.3332713335
83333.3332760834
83333.3332799615
83333.3332828709
83333.3332849519
83333.3332780688
83333.3332611523
83333.3332565793
83333.3332616986
83333.3332668776
83333.3332717571
83333.3332759224
83333.3332792732
83333.3332803875
83333.3332789817
83333.3332711436
83333.3332614578
83333.3332515624
83333.3332565656
83333.333261714
83333.3332666936
83333.3332711371
83333.3332748871
83333.3332773602
83333.33327773
83333.3332747143
83333.333268346
83333.3332634784
83333.3332460373
83333.3332508515
83333.3332559045
83333.33326094
83333.3332656394
83333.3332697911
83333.3332730799
83333.3332750068
83333.3332745325
83333.3332709076
83333.3332655497
83333.3332633986
83333.3332401043
83333.3332446369
83333.3332495064
83333.3332545165
83333.3332593962
83333.3332639105
83333.3332678064
83333.333270794
83333.3332721782
83333.3332710395
83333.3332674278
83333.3332626559
83333.3332619957
83333.3332338851
83333.3332380419
83333.3332426236
83333.3332474923
83333.3332524338
83333.333257216
83333.3332615904
83333.3332653242
83333.333267982
83333.3332688505
83333.3332673696
83333.3332639832
83333.3332594636
83333.3332598351
83333.3332696118
83333.3332748598
83333.3332556533
83333.3332591592
83333.333300095
83333.3332620921
83333.3332677525
83333.3332574851
83333.3332604454
83333.333254576
83333.3332580249
83333.3332583542
83333.3332613016
83333.3332623008
83333.3332632034
83333.3332634511
83333.3332654215
83333.3332663885
83333.3332658017
83333.3332644805
83333.3332674853
83333.333269432
83333.3332697474
83333.3332643639
83333.3332686098
83333.3332727788
83333.3332769878
83333.3332837004
83333.3332816411
83333.3332867797
83333.3332944405
83333.3332811111
83333.3332798584
83333.3332923398
83333.3332723264
83333.3332763045
83333.3332869248
83333.3332718372
83333.3332671764
83333.3332625515
83333.3332955888
83333.3332596917
83333.333264416
83333.3332691676
83333.3332736547
83333.3332773572
83333.333279794
83333.3332822191
83333.3332845186
83333.3332953782
83333.3332757119
83333.3332841712
83333.3332565589
83333.3332583426
83333.3332977328
83333.3332560091
83333.3332607498
83333.3332655402
83333.3332700499
83333.3332739071
83333.3332769351
83333.33327802
83333.3332766953
83333.3332685435
83333.333257974
83333.3332516892
83333.3332563567
83333.3332611479
83333.3332657599
83333.3332698505
83333.3332732712
83333.3332754621
83333.333275517
83333.3332721048
83333.3332658131
83333.3332607018
83333.3332468372
83333.3332513616
83333.3332560852
83333.3332607544
83333.3332650583
83333.3332687987
83333.3332716976
83333.3332732729
83333.3332725239
83333.3332686353
83333.333263211
83333.3332609339
83333.3332415608
83333.333245857
83333.3332504338
83333.3332550873
83333.3332595504
83333.333263598
83333.3332670035
83333.3332695112
83333.333270481
83333.3332690173
83333.3332651765
83333.3332603627
83333.3332594985
83333.333235967
83333.3332399443
83333.3332442797
83333.3332488236
83333.3332533556
83333.3332576493
83333.333261481
83333.3332646502
83333.3332667735
83333.3332671842
83333.3332653459
83333.3332617416
83333.3332572133
83333.3332571756
83333.3332301824
83333.3332337572
83333.3332377543
83333.3332420738
83333.3332465487
83333.3332509792
83333.3332551384
83333.3332588088
83333.3332617212
83333.3332634376
83333.3332634093
83333.3332614855
83333.3332581422
83333.3332538305
83333.3332545249
83333.3332518625
83333.3332921745
83333.3332525488
83333.3332946221
83333.3332584971
83333.3332624823
83333.3332686542
83333.3332615363
83333.3332542718
83333.333257574
83333.333251344
83333.3332543548
83333.3332545528
83333.3332573374
83333.3332580405
83333.3332585378
83333.3332595715
83333.3332612721
83333.3332626447
83333.3332628967
83333.3332608404
83333.3332633538
83333.3332654572
83333.3332658441
83333.3332636887
83333.3332609939
83333.3332642845
83333.3332670431
83333.3332687539
83333.3332690265
83333.3332601336
83333.3332641095
83333.3332680175
83333.3332716948
83333.3332742675
83333.3332752642
83333.3332852157
83333.3332896693
83333.3332762739
83333.3332750308
83333.3332738498
83333.3332790147
83333.3332820018
83333.3332640001
83333.3332705355
83333.3332665447
83333.3332623013
83333.333258068
83333.3332551186
83333.333259451
83333.333263823
83333.33326795
83333.3332714843
83333.3332741254
83333.3332748575
83333.3332739121
83333.3332921195
83333.3332658947
83333.3332712707
83333.3332753804
83333.3332544079
83333.3332521323
83333.3332514763
83333.3332557943
83333.3332602145
83333.33326445
83333.3332681842
83333.3332712522
83333.3332731059
83333.3332727512
83333.3332692039
83333.3332628168
83333.3332578448
83333.3332472716
83333.3332514937
83333.3332558849
83333.3332601983
83333.3332641341
83333.3332675033
83333.3332700534
83333.3332712889
83333.3332702912
83333.3332662137
83333.3332608598
83333.3332585279
83333.3332426141
83333.3332466624
83333.3332509476
83333.3332552655
83333.333259354
83333.3332629963
83333.3332659902
83333.3332681087
83333.333268754
83333.3332670451
83333.3332630778
83333.3332583448
83333.3332574293
83333.3332376156
83333.333241404
83333.3332454962
83333.3332497332
83333.3332538942
83333.3332577627
83333.3332611343
83333.3332638366
83333.3332655304
83333.3332655918
83333.3332635026
83333.3332597543
83333.3332552932
83333.3332550099
83333.3332323837
83333.3332358286
83333.3332396362
83333.3332436936
83333.3332478264
83333.3332518367
83333.3332555149
83333.3332586761
83333.3332610936
83333.33326237
83333.3332619896
83333.333259806
83333.333256314
83333.3332519923
83333.3332523105
83333.333227041
83333.3332300732
83333.3332335107
83333.3332372838
83333.3332412657
83333.3332452934
83333.3332491708
83333.3332526893
83333.33325563
83333.333257723
83333.3332585892
83333.3332579309
83333.3332558308
83333.3332527173
83333.3332489272
83333.3332497234
83333.3332522741
83333.3332512096
83333.3332810241
83333.3332569672
83333.3332602632
83333.3332622808
83333.333257986
83333.3332512626
83333.3332542493
83333.3332484802
83333.3332511123
83333.3332512855
83333.3332537686
83333.3332543222
83333.3332545714
83333.3332559732
83333.3332572654
83333.3332581307
83333.3332582645
83333.3332574005
83333.3332594942
83333.3332613013
83333.3332622935
83333.3332610849
83333.3332579224
83333.3332606701
83333.3332630874
83333.3332648502
83333.3332636712
83333.3332610213
83333.3332575051
83333.3332607846
83333.3332637717
83333.333266111
83333.3332667044
83333.3332633498
83333.3332561983
83333.3332599007
83333.3332635462
83333.3332668979
83333.3332694557
83333.3332698149
83333.3332686298
83333.333268886
83333.3332701055
83333.3332704132
83333.3332684998
83333.3332631649
83333.3332654112
83333.3332617495
83333.3332578434
83333.3332539461
83333.3332509612
83333.3332549129
83333.3332589414
83333.3332627838
83333.3332661428
83333.3332688004
83333.3332702956
83333.3332698799
83333.3332665508
83333.3332604235
83333.3332625518
83333.3332642826
83333.333255393
83333.3332529554
83333.3332473807
83333.3332512877
83333.3332553367
83333.3332592904
83333.3332628627
83333.3332658642
83333.3332680623
83333.333268884
83333.3332674776
83333.3332632146
83333.3332585699
83333.3332565956
83333.3332433157
83333.3332471012
83333.3332510879
83333.3332550765
83333.333258812
83333.3332620837
83333.3332647076
83333.333266471
83333.3332668164
83333.3332648815
83333.3332608601
83333.3332563111
83333.3332553833
83333.3332388798
83333.3332424628
83333.3332463058
83333.3332502462
83333.3332540666
83333.3332575581
83333.3332605318
83333.3332628385
83333.3332641777
83333.3332639624
83333.3332616998
83333.3332579362
83333.3332536602
83333.3332533558
83333.3332341798
83333.3332374805
83333.3332410935
83333.3332448955
83333.3332487098
83333.3332523438
83333.3332556049
83333.3332583321
83333.333260333
83333.3332612482
83333.3332605946
83333.3332582392
83333.3332546742
83333.3332504352
83333.3332504874
83333.3332293198
83333.3332322652
83333.3332355646
83333.3332391346
83333.3332428391
83333.3332465152
83333.3332499787
83333.3332530449
83333.3332555345
83333.3332572168
83333.3332577476
83333.3332568371
83333.333254545
83333.3332512866
83333.3332474424
83333.3332479
83333.3332244086
83333.3332269483
83333.3332298639
83333.3332331102
83333.3332365945
83333.3332401898
83333.3332437338
83333.3332470379
83333.3332499021
83333.3332521213
83333.333253454
83333.333253647
83333.3332526319
83333.333250623
83333.333248023
83333.3332450503
83333.3332459421
83333.3332533121
83333.3332539065
83333.3332552269
83333.333258222
83333.3332569455
83333.3332581301
83333.3332543927
83333.3332485068
83333.3332511927
83333.3332459472
83333.3332482352
83333.333248399
83333.333250579
83333.3332510563
83333.3332511628
83333.3332526755
83333.3332536866
83333.3332542589
83333.3332542383
83333.3332542042
83333.3332558702
83333.3332571437
83333.333257758
83333.3332570281
83333.3332549698
83333.3332572603
83333.3332592653
83333.3332608232
83333.3332606693
83333.3332589119
83333.3332549665
83333.3332577364
83333.3332602635
83333.3332623119
83333.333262972
83333.3332608645
83333.3332590359
83333.3332541548
83333.333257306
83333.3332602913
83333.3332628032
83333.3332642865
83333.3332631267
83333.3332610233
83333.3332525527
83333.3332559921
83333.3332593987
83333.333262529
83333.3332650501
83333.3332662736
83333.3332651794
83333.3332632096
83333.3332627843
83333.3332657534
83333.3332666519
83333.3332658367
83333.3332637088
83333.3332589893
83333.333260778
83333.3332573662
83333.3332537533
83333.3332501864
83333.3332472024
83333.3332507818
83333.3332544757
83333.3332580583
83333.3332612586
83333.3332638704
83333.3332656896
83333.333266342
83333.3332649523
83333.3332607309
83333.3332560875
83333.3332576366
83333.3332589754
83333.3332546984
83333.3332534889
83333.333243706
83333.3332472156
83333.3332508945
83333.3332545518
83333.333257941
83333.3332608557
83333.3332631249
83333.3332645382
83333.3332645635
83333.3332624029
83333.3332584982
83333.3332542937
83333.333253566
83333.3332398086
83333.3332431687
83333.3332467519
83333.3332503972
83333.3332538933
83333.3332570373
83333.3332596518
83333.3332616028
83333.3332626235
83333.3332621571
83333.3332597553
83333.3332560425
83333.3332520282
83333.3332517351
83333.3332356136
83333.33323875
83333.3332421564
83333.3332457051
83333.3332492195
83333.3332525142
83333.333255409
83333.3332577606
83333.333259406
83333.3332600204
83333.3332591575
83333.3332567114
83333.3332532026
83333.3332492047
83333.3332492341
83333.3332312233
83333.3332340647
83333.3332372149
83333.3332405796
83333.3332440187
83333.3332473725
83333.333250468
83333.3332531418
83333.3332552434
83333.3332565752
83333.3332568253
83333.3332557198
83333.3332533189
83333.3332500098
83333.3332462207
83333.3332463731
83333.3332267298
83333.3332292186
83333.3332320405
83333.3332351372
83333.3332384048
83333.3332417136
83333.3332449097
83333.3332478232
83333.3332502837
83333.3332521246
83333.3332531395
83333.3332530952
83333.333251905
83333.3332497272
83333.3332469441
83333.3332438358
83333.3332444286
83333.3332222508
83333.3332243306
83333.3332267718
83333.3332295253
83333.3332325253
83333.3332356778
83333.3332388548
83333.3332418945
83333.3332446156
83333.3332468372
83333.3332483819
83333.3332490779
83333.3332488256
83333.3332477349
83333.3332461214
83333.3332443161
83333.3332423118
83333.3332433854
83333.3332525152
83333.3332530392
83333.3332540629
83333.3332553387
83333.3332553151
83333.3332533609
83333.3332542418
83333.3332511235
83333.3332460202
83333.3332484085
83333.3332437214
83333.3332457043
83333.3332458653
83333.3332477465
83333.3332481618
83333.3332482243
83333.3332496777
83333.3332504817
83333.3332508946
83333.3332508013
83333.3332512365
83333.3332525588
83333.3332534918
83333.3332538571
83333.333253295
83333.3332521964
83333.3332540641
83333.3332556173
83333.3332566579
83333.3332565737
83333.3332553313
83333.3332524908
83333.3332548136
83333.3332569221
83333.3332586308
83333.3332594412
83333.333258481
83333.3332562023
83333.3332521026
83333.3332547913
83333.3332573181
83333.3332594415
83333.3332607412
83333.3332604339
83333.3332585223
83333.3332559741
83333.333250998
83333.3332539747
83333.3332568614
83333.333259397
83333.3332612216
83333.3332616157
83333.3332604131
83333.333258624
83333.333249203
83333.3332523742
83333.3332555547
83333.3332585131
83333.3332609733
83333.3332625707
83333.3332628324
83333.3332616723
83333.3332590199
83333.3332578589
83333.3332616012
83333.3332630102
83333.3332628573
83333.3332615266
83333.3332593446
83333.3332556285
83333.333256538
83333.3332533427
83333.3332500181
83333.3332467766
83333.3332438219
83333.3332470443
83333.3332504059
83333.3332537252
83333.3332567662
83333.3332593219
83333.3332612322
83333.3332623345
83333.3332621742
83333.3332598826
83333.3332559537
83333.333252414
83333.3332539766
83333.3332550305
83333.3332521812
83333.3332529654
83333.3332404401
83333.3332435636
83333.3332468769
83333.3332502243
83333.3332534026
83333.3332562142
83333.3332584913
83333.3332601098
83333.3332608306
83333.3332601297
83333.3332576354
83333.3332540549
83333.3332503548
83333.3332501208
83333.3332367303
83333.3332396826
83333.3332428688
83333.3332461606
83333.3332493854
83333.3332523645
83333.3332549274
83333.3332569425
83333.3332582708
83333.333258619
83333.333257579
83333.3332550785
83333.3332516968
83333.333247993
83333.3332480256
83333.3332327883
83333.3332355032
83333.3332384881
83333.3332416425
83333.3332448258
83333.3332478825
83333.3332506501
83333.3332529809
83333.3332547467
83333.3332557782
83333.3332557959
83333.3332545518
83333.3332521261
83333.3332489189
83333.3332453783
83333.3332454812
83333.3332287061
83333.3332311251
83333.3332338388
83333.3332367768
83333.3332398299
83333.3332428699
83333.3332457509
83333.3332483185
83333.333250427
83333.3332519393
83333.3332526795
83333.3332524345
83333.3332511155
83333.3332488613
83333.3332460129
83333.3332428979
83333.3332431066
83333.3332245843
83333.3332266432
83333.3332290282
83333.3332316784
83333.3332345165
83333.3332374432
83333.3332403348
83333.3332430444
83333.3332454141
83333.3332472938
83333.3332485416
83333.3332490104
83333.3332486007
83333.3332473793
83333.3332455823
83333.3332435243
83333.3332412758
83333.3332420914
83333.333222184
83333.3332241821
83333.3332264871
83333.3332290315
83333.3332317484
83333.3332345422
83333.3332372819
83333.3332398089
83333.3332419586
83333.3332435794
83333.3332445441
83333.3332447773
83333.3332443374
83333.333243474
83333.33324255
83333.3332416276
83333.3332410072
83333.3332420179
83333.3332513663
83333.333251172
83333.3332520319
83333.3332529771
83333.3332530948
83333.333252065
83333.3332501358
83333.333250854
83333.3332482505
83333.3332438109
83333.3332459186
83333.3332417859
83333.3332434931
83333.3332436497
83333.3332452638
83333.333245631
83333.3332456829
83333.333247
83333.3332476495
83333.3332479752
83333.3332478658
83333.3332485138
83333.33324956
83333.3332502604
83333.3332504818
83333.333250043
83333.3332495977
83333.3332511016
83333.3332523018
83333.333253012
83333.3332529148
83333.3332519663
83333.3332501304
83333.3332520526
83333.3332537566
83333.3332550464
83333.3332555647
83333.3332549224
83333.3332532098
83333.3332500679
83333.3332523397
83333.3332544596
83333.3332562368
83333.3332573762
83333.3332574271
83333.3332559257
83333.3332535556
83333.3332493843
83333.3332519437
83333.333254404
83333.333256546
83333.3332580754
83333.3332585878
83333.3332578931
83333.3332558885
83333.3332531142
83333.3332480631
83333.3332508363
83333.3332535827
83333.3332560731
83333.33325803
83333.3332590777
83333.3332590309
83333.3332579732
83333.333255629
83333.3332461483
83333.3332490466
83333.3332519949
83333.3332547939
83333.3332571967
83333.3332589545
83333.333259838
83333.3332596666
83333.3332582778
83333.3332550678
83333.3332536707
83333.3332573229
83333.3332593865
83333.3332597542
83333.3332590354
83333.333257511
83333.3332553233
83333.3332524515
83333.3332526371
83333.3332496637
83333.3332466276
83333.3332437008
83333.3332408092
83333.3332436853
83333.3332467198
83333.3332497648
83333.3332526261
83333.3332551115
83333.3332570605
83333.3332583647
83333.3332588316
83333.3332579693
83333.333255439
83333.3332520565
83333.3332487067
83333.333250576
83333.3332519225
83333.3332486325
83333.3332507218
83333.3332375649
83333.3332403183
83333.3332432727
83333.3332463028
83333.3332492424
83333.3332519198
83333.3332541726
83333.3332558782
83333.3332569175
83333.3332570267
83333.3332558394
83333.3332533232
83333.3332501223
83333.3332467351
83333.3332467662
83333.3332340561
83333.3332366233
83333.3332394262
83333.3332423627
83333.3332452942
83333.3332480708
83333.3332505393
83333.3332525628
83333.3332540299
83333.3332547962
83333.3332546137
83333.3332532641
83333.3332508549
83333.3332478106
83333.3332445671
83333.3332446631
83333.3332303684
83333.3332326943
83333.3332352806
83333.3332380496
83333.3332408903
83333.3332436771
83333.333246272
83333.3332485337
83333.3332503354
83333.3332515634
83333.3332520686
83333.3332516623
83333.333250267
83333.3332480329
83333.3332453008
83333.3332424075
83333.3332425088
83333.3332266045
83333.3332286222
83333.3332309335
83333.3332334669
83333.333236138
83333.3332388467
83333.3332414749
83333.3332438877
83333.333245946
83333.3332475258
83333.3332485125
83333.3332487819
83333.3332482396
83333.3332469334
83333.3332450649
83333.3332428976
83333.3332405563
83333.3332409027
83333.3332245092
83333.3332264818
83333.3332287225
83333.3332311527
83333.3332336987
83333.3332362657
83333.3332387325
83333.3332409599
83333.3332428088
83333.333244157
83333.3332449059
83333.3332449909
83333.3332444487
83333.3332434615
83333.333242305
83333.3332410333
83333.333240119
83333.3332408218
83333.333222058
83333.3332239438
83333.3332260723
83333.3332283764
83333.3332307877
83333.3332332064
83333.3332355012
83333.3332375253
83333.3332391405
83333.3332402381
83333.3332407607
83333.3332407462
83333.3332403962
83333.3332400443
83333.3332399348
83333.333240133
83333.3332407735
83333.3332413365
83333.3332491868
83333.3332495975
83333.3332496775
83333.3332505843
83333.333250896
83333.3332503669
83333.3332490819
83333.3332473241
83333.3332479353
83333.333245743
83333.3332418755
83333.3332437201