/*--------------------------------*- C++ -*----------------------------------*\
  =========                 |
  \\      /  F ield         | OpenFOAM: The Open Source CFD Toolbox
   \\    /   O peration     | Website:  https://openfoam.org
    \\  /    A nd           | Version:  12
     \\/     M anipulation  |
\*---------------------------------------------------------------------------*/
/*   Windows 32 and 64 bit porting by blueCAPE: http://www.bluecape.com.pt   *\
|  Based on Windows porting (2.0.x v4) by Symscape: http://www.symscape.com   |
\*---------------------------------------------------------------------------*/
FoamFile
{
    format      ascii;
    class       volVectorField;
    location    "300";
    object      U;
}
// * * * * * * * * * * * * * * * * * * * * * * * * * * * * * * * * * * * * * //

dimensions      [0 1 -1 0 0 0 0];

internalField   nonuniform List<vector> 
10063
(
(-3.35226812967187e-05 -0.000136898593031988 0.000447964009072433)
(-3.24812433989469e-05 -0.000203663387671851 0.000431010948909764)
(-0.000100081315387441 -5.1843225828762e-05 0.000419414693200166)
(-3.3223751205213e-05 -0.000260226693657725 0.000412488018837388)
(-1.29390757177005e-05 -0.000218836407983148 0.000487424172095231)
(-9.69596107575289e-05 -0.000128731107992684 0.000410292216783738)
(-3.48053338677861e-05 -0.000303440021209413 0.000394776343909457)
(-1.33718805672795e-05 -0.000280697339803495 0.000455453041608219)
(-9.84628621997791e-05 -0.000184723526874778 0.000397543786576029)
(2.82166890916888e-06 -0.000162638721010265 0.000552300843366277)
(-3.97997135310118e-05 -0.000161794750711917 0.000465443279922782)
(-0.000179235819917758 -2.91594638590481e-05 0.000360945515161547)
(-3.72928136901153e-05 -0.000331110030410338 0.00037978535945215)
(-1.47473276974484e-05 -0.00033432021818594 0.000424834326815171)
(-0.000103779956550325 -0.000230655609128927 0.000384332777849391)
(2.66306891273059e-06 -0.000231755517070609 0.000505165951939439)
(-4.09044352749039e-05 -0.000224852924734714 0.000438255637070699)
(-0.000182288676265278 -8.95492703795583e-05 0.000359487214643285)
(6.33405254399809e-06 -9.95071208424288e-05 0.000622184568570175)
(7.8692671559151e-06 -0.000110371597239805 0.000530643667468758)
(-7.18303832520366e-05 -0.000112316241012102 0.000425718874313462)
(-0.000290399554708135 0.000187467526377384 0.000264672719875762)
(-3.91973174799446e-05 -0.000338565420163551 0.000372108130624687)
(-1.61415034777031e-05 -0.000379199254719806 0.000394778258197494)
(-0.000112013902210464 -0.000259251966359408 0.000374411224246778)
(1.94648929788209e-06 -0.000291943877242157 0.000460637848294482)
(-4.47075104417844e-05 -0.00028040483119524 0.000411241129524219)
(-0.000192167541102081 -0.000133639096190663 0.000355858958377435)
(6.79437026897192e-06 -0.00017381460481891 0.000563409251923485)
(7.65616618106312e-06 -0.000181075388645882 0.000487415059570001)
(-7.47031101812337e-05 -0.000174305151292661 0.000406720424514667)
(-0.000296014262933273 0.000119756577477775 0.00028185405696586)
(5.95277997214603e-06 -1.52422815793731e-05 0.000688511637446802)
(1.862839435969e-05 -4.66946712743008e-05 0.000600314882992366)
(1.39144072622779e-05 -7.09937090669594e-05 0.00049950910964816)
(-0.000105934207370425 -3.81697671899749e-06 0.000349376792421434)
(-0.000475791945325099 0.000732691910738843 7.93628753505184e-05)
(-4.23269572332257e-05 -0.000319316658793901 0.00037710525272575)
(-1.76538984225808e-05 -0.000415695115988733 0.000365611344961212)
(-0.000122298624811966 -0.000265795541748831 0.000374506330191409)
(7.79498120791524e-07 -0.000342444739237917 0.000414981585280392)
(-4.98263055558893e-05 -0.000326391703354784 0.000384151107742237)
(-0.000208011687709919 -0.000159515940573917 0.000355643860735608)
(6.75914970963829e-06 -0.000236674451798 0.000509192521452206)
(5.69272001967781e-06 -0.000243197845727815 0.000446007826554478)
(-8.17317966325903e-05 -0.000228502697639548 0.000386243812638389)
(-0.000312589293247882 7.61274851702111e-05 0.000295568489133517)
(6.89403017100927e-06 -9.50825547652048e-05 0.000622111124752288)
(2.03067343520774e-05 -0.00012227690754381 0.000545275304719928)
(1.26563549712408e-05 -0.000140161591282197 0.000461962254029885)
(-0.000113109841629738 -6.62176661740687e-05 0.000343218956509205)
(-0.000483310727160606 0.000647049532458466 0.000126433882323468)
(3.94298430968694e-06 7.36247733396223e-05 0.000746388306775416)
(1.68857938961868e-05 3.32270593130368e-05 0.00066653765781896)
(3.09434159388205e-05 -6.94647016539945e-06 0.000574499499065622)
(2.19950283771701e-05 3.66297766325504e-06 0.000441522296478601)
(-0.000189563135408425 0.000283762461642484 0.000199987821013845)
(-0.000893249451640629 0.00196054771731443 -0.000297823783154266)
(-4.81943723993837e-05 -0.000256216765613888 0.000405037491470312)
(-1.9818163514088e-05 -0.000442449102350938 0.000336038370183811)
(-0.000136383454770587 -0.000239680091786499 0.000388366262966255)
(-2.99691167247512e-07 -0.000383389169306534 0.000365349061088447)
(-5.55259291528435e-05 -0.000364076019479696 0.000360018132302926)
(-0.000229465350217527 -0.000160450649478076 0.000369270142718036)
(6.28844948090653e-06 -0.000287377827975563 0.000455792090145629)
(2.22207920420365e-06 -0.000294947369679118 0.000402214208641187)
(-9.31861409083973e-05 -0.000273176794330203 0.000364741934557456)
(-0.000339582613532421 5.47465145202702e-05 0.000312844560466184)
(7.34220642813947e-06 -0.000161089231003335 0.000561589094423282)
(2.03936100414133e-05 -0.000186580465297132 0.000494292020072756)
(8.38972946012519e-06 -0.000201705650769971 0.000425403903962059)
(-0.000127703477477802 -0.000119770353771324 0.000334897133429784)
(-0.000509564050643258 0.00059633324929613 0.000167982760845309)
(5.19299023117739e-06 -1.12191227719897e-05 0.0006760546306816)
(1.99721276307619e-05 -4.70111447645906e-05 0.000603852707204608)
(3.32797759209684e-05 -8.09621024294263e-05 0.000523922406849991)
(1.77750036878018e-05 -6.4019132671351e-05 0.000413605998980905)
(-0.000201406192315759 0.000217722653221716 0.000217563275953438)
(-0.000904126633488683 0.00182820672646872 -0.000206277037008649)
(1.63770012476446e-06 0.000158846061148484 0.000794058243202807)
(1.06189521034644e-05 0.000116276219030069 0.000724395024931361)
(2.7127070243033e-05 6.75369697877479e-05 0.000644418428698783)
(3.87203201140378e-05 5.59520527963911e-05 0.000529496414390947)
(-5.95319661650463e-06 0.000183400374821637 0.000329627915293722)
(-0.000158983110300105 0.000884379711737291 -0.000127582737022901)
(-0.00163911148284283 0.00213076643748906 -0.00072422759705065)
(-6.65408644184816e-05 -9.75642478196891e-06 0.000463733737405562)
(-2.48703014077093e-05 -0.000450430734816649 0.000300867019602907)
(-0.000156601749812093 -0.000165230346596104 0.000435593554005868)
(-2.9857071648372e-06 -0.000412288076155922 0.000303962931293724)
(-6.56104741489636e-05 -0.000384828488594781 0.000334535182986001)
(-0.00025976364736035 -0.000112773104309603 0.000403019817755634)
(5.63433822000598e-06 -0.000324404424824321 0.000400832296228456)
(-7.4935104242206e-07 -0.000336249450582997 0.000355940325059756)
(-0.00010768370646942 -0.000309307421782915 0.000348627679180489)
(-0.000377396243976184 6.19486889209857e-05 0.000348422587730135)
(7.38611924235406e-06 -0.000213118876835257 0.000503677561742229)
(1.89926085871287e-05 -0.000238098447695271 0.000443688565826907)
(8.04654676081221e-07 -0.000252911842597706 0.00038527724747403)
(-0.000150206683246772 -0.000163125852778144 0.000325604355620649)
(-0.000551811581580851 0.000581528478887293 0.000216916175562737)
(5.97407134152694e-06 -8.01987190536211e-05 0.000612151024289948)
(2.15310455688554e-05 -0.000113776224886275 0.000546793728620649)
(3.27918231570416e-05 -0.000144719900527459 0.000476979533072109)
(9.29043557908179e-06 -0.00012534862477655 0.00038553382367092)
(-0.000222767207329531 0.000162847627088218 0.000231346837149068)
(-0.000938469236250691 0.00174742450751276 -0.000109482805537702)
(3.05623546241981e-06 7.00409345774973e-05 0.000722818464694236)
(1.45054868104856e-05 3.17563447179615e-05 0.000657698213740782)
(3.21766113554509e-05 -1.08073919636277e-05 0.000585377807139578)
(4.07791653585866e-05 -1.6314971401e-05 0.00048646870268846)
(-1.35286176307235e-05 0.000117094457251273 0.000317434524807215)
(-0.000190576422247287 0.000804685366009105 -7.4507578489888e-05)
(-0.001631572249466 0.00193377523270655 -0.000598492856529639)
(-4.15228651880781e-07 0.000236377448755685 0.00083215426634163)
(3.67580697610728e-06 0.000195159211747728 0.000772382262200668)
(1.65088550360151e-05 0.000145394231002605 0.000704699566287171)
(3.52119566503144e-05 0.000112676527457405 0.0006088258947615)
(-4.88133959013956e-06 0.000171920263116537 0.000449872779692787)
(0.000215265249440328 0.000603303808218416 0.000102672078178847)
(-0.00132210921214983 0.000657382727345089 -0.000690509145926427)
(-0.000131964189342752 0.000524868323298314 0.000584727476948332)
(-9.0645297254868e-06 -0.000399152874378079 0.000266289871570653)
(-0.0002317993723066 4.8084813924973e-05 0.000501571909835123)
(-5.0926544871203e-06 -0.000419708346100461 0.000209029049744907)
(-8.82562008658573e-05 -0.000368630686182823 0.000292433177721052)
(-0.000316641687042905 6.56544299004444e-05 0.000472007407693247)
(3.65483916608978e-06 -0.000344603392987659 0.000339290865213883)
(-7.87562519142973e-06 -0.000362706764637986 0.000297342373600378)
(-0.000126426060839097 -0.000321470317560857 0.000333545866875903)
(-0.00043079107194695 0.000145096025116493 0.000418580297146526)
(7.09769268996329e-06 -0.000250190187320423 0.000446501824495283)
(1.67503090601375e-05 -0.000274000919135824 0.000392969207307235)
(-9.62209931650627e-06 -0.000293259276798204 0.000343711327225984)
(-0.000179857230230088 -0.000196841590107833 0.000322434474299081)
(-0.00060839303710297 0.000612755439298986 0.000294112381736626)
(6.34896561947437e-06 -0.000133639546112994 0.000551962716593521)
(2.17434747383913e-05 -0.000166114969069594 0.000492417845285951)
(2.93573988184017e-05 -0.000196158462561436 0.000430267213899776)
(-5.075029970471e-06 -0.00017629225816234 0.000354285018309312)
(-0.000254265891926423 0.000120504265936189 0.000243057750898675)
(-0.00100229121590483 0.00172749655963623 -1.60087281630303e-06)
(4.03390704321694e-06 -1.52571862187231e-06 0.000657810268962863)
(1.69721035407436e-05 -3.73957997029013e-05 0.0005973320642592)
(3.46272610542332e-05 -7.67426534691761e-05 0.000531764102594463)
(3.88486089357104e-05 -7.95317642123729e-05 0.000446459009562172)
(-2.52090255414163e-05 5.59065179993865e-05 0.000304410478969978)
(-0.00022480047686925 0.000736591474513298 -2.07383371720489e-05)
(-0.00164663071627016 0.0017729221439017 -0.000427774746900517)
(1.05863239337646e-06 0.000144992502942878 0.000762106669834049)
(7.97844550802736e-06 0.000107145221515642 0.000704528099013908)
(2.30769299052018e-05 6.30428960283396e-05 0.000641068286729667)
(4.1667305343197e-05 3.67949093665065e-05 0.00055561563496752)
(-2.70493183112934e-06 0.000100310297238229 0.000418624762766014)
(0.000186346157238302 0.0005246255797139 0.000112375665626783)
(-0.00134558350983616 0.00055502133767139 -0.000588439662877499)
(-2.06455382613875e-06 0.000305018978375144 0.000862059257183747)
(-2.50330922445259e-06 0.000266834221877588 0.000811238136715172)
(4.89653141037407e-06 0.000219511812605156 0.00075432794983866)
(2.17770134075739e-05 0.000179436593099093 0.000675321293906905)
(2.36209113090901e-05 0.000177124107928288 0.000553146579924564)
(-4.73220691684695e-05 0.000347772293095477 0.000298939347224977)
(-0.00100831816023806 0.000407443593967525 -0.000452706937576327)
(-6.79512057736182e-05 0.000700316655699815 0.000809857149113453)
(5.76195764058393e-05 -0.000218739538703908 0.000272654573463459)
(-0.000324274785732194 0.000395164519528136 0.000567034427417969)
(-3.06398090657558e-06 -0.000360811204755071 8.25995065241434e-05)
(-7.13048914480385e-05 -0.000285834734054085 0.000321691683920578)
(-0.000158227436445515 -0.000138269301072158 0.000412967081330225)
(2.44585285934576e-06 -0.000342390040971157 0.000268363039528291)
(-2.42836304154234e-05 -0.000363338008568022 0.000202627591428976)
(-0.000168008660141186 -0.000271465102780527 0.000316299475879728)
(-0.000125203005292905 -0.000281058712028121 0.000310929193234243)
(-0.000532841581765374 0.000436940176381282 0.000555342692112818)
(-0.000496388987919048 0.000673648599676613 0.000638582793786073)
(6.35432144570516e-06 -0.000270700360604912 0.000386405704430359)
(1.29401083292477e-05 -0.000291544462531827 0.00033726380235512)
(-2.39454634870801e-05 -0.000318495159582146 0.000291795210425568)
(-0.000217417561841227 -0.00020039276354111 0.000329791332426771)
(-0.000681575235881559 0.000745109634054021 0.000424499398966401)
(6.33210627552698e-06 -0.000171242247278321 0.000493584448072533)
(2.0823640492486e-05 -0.000202242516736077 0.000439902305145261)
(2.2663382772496e-05 -0.00023113544229377 0.000383787706313771)
(-2.80567648329098e-05 -0.000214801631028169 0.000323624184628755)
(-0.000291942647022189 8.87588842449873e-05 0.000269497404010776)
(-0.00109415318212416 0.00177066078872138 0.000146570774300937)
(4.63117517414668e-06 -5.67516632109921e-05 0.000597038891096628)
(1.81560783800994e-05 -9.09345983775863e-05 0.000540894697967106)
(3.45684611276748e-05 -0.00012882328742836 0.000480937849336602)
(3.18998043184164e-05 -0.000131153502632287 0.000407258176125778)
(-4.41262716063121e-05 4.32801259106854e-06 0.000289154028615304)
(-0.000284327996592203 0.000683106626326488 3.11083348954056e-05)
(-0.00169482859188999 0.00165776719448626 -0.000238153521424097)
(2.13889260372793e-06 7.14419828369293e-05 0.000697635524629403)
(1.09761259782469e-05 3.56740865178538e-05 0.000642914434604066)
(2.72189535798083e-05 -5.0349635387096e-06 0.000583710951139712)
(4.46534472943591e-05 -2.80636713724365e-05 0.000507413311776622)
(-5.41953079729393e-06 3.65632594184074e-05 0.000390208732821699)
(0.00016100265550184 0.000451628422371345 0.000122702800323054)
(-0.00139861261800624 0.00045480520108001 -0.00044277155622349)
(-5.80412091542116e-07 0.000212459945087343 0.000794509725358748)
(1.99262164448611e-06 0.000176496073111199 0.000744210192331668)
(1.22400680509876e-05 0.000133667740429009 0.000689050808682064)
(3.07411116869043e-05 9.99437135157094e-05 0.000616314801475098)
(3.11043007908972e-05 0.000103902573317253 0.000508252245766646)
(-4.41713765969282e-05 0.000272822258238419 0.000285629670934867)
(-0.000986117071649082 0.000308277159821587 -0.000397047677103355)
(-3.29667309246774e-06 0.000365126701405815 0.000885008754670148)
(-7.44774492366501e-06 0.000330477459135688 0.000842197433228054)
(-5.4578748715719e-06 0.000287156800086232 0.000794475758133948)
(5.71533202788976e-06 0.000246028683329416 0.000728889061150771)
(2.11439806954804e-05 0.000222084043608996 0.000632897522306933)
(1.48094081767744e-05 0.000237788708394667 0.000473642780275389)
(-7.45022707767586e-05 0.000634539076592441 9.69664786699967e-05)
(-0.00137505432291852 0.000544087867130542 -0.000617969514070649)
(-0.000741219638523709 0.000930429382092181 0.000968584805252286)
(0.000328061038743864 -0.000150431577357809 0.000742449259797261)
(0.000186972000105233 -0.000216395537412611 -0.00012727715808191)
(-0.00014569966379446 -0.000131355537240047 0.000394573193015774)
(-0.000228972020981836 3.88067735017549e-06 0.000457398992070117)
(1.18209779105892e-06 -0.000299833278805487 0.000196141450073166)
(-3.86660579933251e-05 -0.000275390760022455 0.000103873125585431)
(-0.000104593036278372 -0.000346985257349097 0.000261375295182926)
(4.88708319367536e-06 -0.000269218685680005 0.000322692100647567)
(6.90942736456069e-06 -0.000280257514846764 0.000278524262706399)
(-5.04726843401765e-05 -0.000313892073797743 0.000208315438866474)
(-0.000277161744903024 -0.000135188116319054 0.00035457134692686)
(-0.000335628954699942 -0.000123979524577068 0.000204428918082127)
(-0.000243290972357968 -0.000123515287527169 0.000380988685972799)
(-0.000815761065196013 0.00118136806224651 0.000877955087729494)
(-0.000796113365462588 0.00113753391469238 0.000688098916649806)
(6.18288516985804e-06 -0.000192777764878023 0.000434933618419654)
(1.92811283164351e-05 -0.000221320620651965 0.000386422274062905)
(1.41218402940484e-05 -0.000247912687272267 0.00033482863651876)
(-5.92372036800901e-05 -0.000236272296542216 0.00028797175517137)
(-0.000335987227027899 8.23046136167229e-05 0.000318099266990522)
(-0.00118995797459028 0.00192556398240426 0.000353306776457018)
(4.89130108764031e-06 -9.59935706816522e-05 0.00053866414581271)
(1.81334720801419e-05 -0.000128191601763424 0.000486792417273975)
(3.19734910943136e-05 -0.000164820879388143 0.000432029390968518)
(1.80568989038576e-05 -0.000166063095264675 0.000369463777252473)
(-7.37139786352508e-05 -3.3052605080782e-05 0.000281775694913191)
(-0.00034682254999817 0.000630570744210672 0.000111453661579471)
(-0.00180997347210159 0.00155481382609175 -1.09573341367455e-05)
(2.84933579670143e-06 1.44568093932481e-05 0.000637327147208157)
(1.27919967671522e-05 -1.96991085286029e-05 0.000585708032777976)
(2.90982902280993e-05 -5.81339936195271e-05 0.000530414393819979)
(4.38769259227766e-05 -8.02415451686606e-05 0.000462206560360919)
(-1.51189436705525e-05 -1.65144984410447e-05 0.000364209915472953)
(0.000126027259439895 0.000390018321647127 0.00012850199877979)
(-0.00151081372139031 0.000363334164809271 -0.000274764082693544)
(5.31491875641009e-07 0.000137651632746374 0.000731672750035393)
(5.25383434148611e-06 0.000103194835404904 0.000682831486701082)
(1.73139903200453e-05 6.32927995192359e-05 0.000630047269170286)
(3.64047737415731e-05 3.3322267651718e-05 0.000563301509255267)
(3.48116775632542e-05 3.96764225882467e-05 0.000468030543694871)
(-4.55582092483186e-05 0.000207107805020425 0.000276161641127884)
(-0.000996819619067389 0.000194773763223772 -0.000306294154321701)
(-1.84177332776834e-06 0.000272618762641889 0.000820752913431799)
(-2.9481045448184e-06 0.000239028250921175 0.000777319425136633)
(2.22189674326941e-06 0.000198828724196266 0.000729640292156517)
(1.59443873441274e-05 0.000162991036557135 0.000667362924209843)
(3.19591344524119e-05 0.000145960219547462 0.000580259094134475)
(2.28815244173494e-05 0.00016792403235769 0.000438593621014912)
(-5.90767361135242e-05 0.000573769637895796 9.96728071498876e-05)
(-0.00132013333595726 0.000470484327985061 -0.000547651850555564)
(-4.16118047214675e-06 0.000417600332974788 0.000902021463891955)
(-1.11236820312602e-05 0.000386386054564982 0.000866381740206264)
(-1.38279706657062e-05 0.000347530676551644 0.000826614723953273)
(-8.99311737327944e-06 0.00030814565427773 0.000771784131170262)
(4.37109997099705e-06 0.000276931044132054 0.000693560563541756)
(2.47924380674046e-05 0.000260142134201534 0.000578298864592061)
(2.07553431526231e-05 0.000318380838038787 0.000379780236332177)
(-0.00016690933594961 0.000669599144939251 -2.66313846794584e-05)
(-0.00123439673047581 0.000367221638139912 -0.000818578848171923)
(-0.00132895214475195 0.000680709712147305 0.00165362717507413)
(-0.000455947549603309 -0.000212846219716887 0.000679734176176684)
(0.000538600375130757 -0.000288211479497873 0.000387458290749607)
(0.00016009645665203 0.000323256598758204 0.000241471660581205)
(1.80895025813679e-05 -0.000171579695595102 0.000101488763276182)
(-5.65045150472533e-06 -0.000233766400459474 0.000230060015877265)
(3.48185527310251e-06 -0.000235328971936494 0.000252735986292665)
(-0.00011464257345416 -0.000221141258429304 8.59843437466762e-06)
(5.39375908579705e-06 -0.000193563224650033 0.000375440058267573)
(1.50415003708305e-05 -0.000215301945015633 0.000333502243334929)
(1.05565680139608e-06 -0.000230893706563291 0.000291756556318943)
(-9.98094663872244e-05 -0.000217532808984119 0.000241259338728954)
(-0.000491195643266085 -1.70753138752259e-05 0.000208113955064777)
(-0.000372712957343479 9.91598728921334e-05 0.000445291368813608)
(-0.00108829354073981 0.00188122084382151 0.00149061768347276)
(-0.00138656132867578 0.00218728231476619 0.000846894759405375)
(4.77209661174503e-06 -0.000119171562910491 0.000482210903068185)
(1.77226605044748e-05 -0.000149634002079197 0.000433727444810697)
(2.8104274307172e-05 -0.000183980043207085 0.000383972867234073)
(-3.63507654219633e-06 -0.000181931905773523 0.000332740475337716)
(-0.000117058996219351 -4.92912937328318e-05 0.000279908391362348)
(-0.000373480217435451 0.000577747923268254 0.000220817977576761)
(-0.00188417635971021 0.00169040431276046 0.000309951720799381)
(3.22628294501474e-06 -2.67994344391019e-05 0.000580164476879935)
(1.35372966187763e-05 -5.91287479579923e-05 0.000531145816280071)
(2.87658909717635e-05 -9.54770495675412e-05 0.000479340521973273)
(3.87209726321009e-05 -0.000117224550092282 0.000419330467031317)
(-3.45974135001435e-05 -5.25988941015726e-05 0.00034507895979385)
(7.43806781966597e-05 0.00034662993646116 0.000154538753245137)
(-0.00164386311401793 0.000243150708476732 -8.31223573461515e-05)
(1.30471632325264e-06 7.91825908908471e-05 0.000672755224574525)
(7.39909720571339e-06 4.60471911006794e-05 0.000625737160222152)
(2.03007769255381e-05 8.28919254358391e-06 0.000575545610992376)
(3.88213803040764e-05 -1.95035747465152e-05 0.000514331917541685)
(3.39225748234324e-05 -1.37682026492647e-05 0.000431499471103336)
(-5.6308583178881e-05 0.000153449316732752 0.000270207716697838)
(-0.00101282266397035 7.31889799753318e-05 -0.000217656875733956)
(-7.2571137755663e-07 0.000197325390632985 0.000760263409059521)
(4.46908791955035e-07 0.000164581767869056 0.000717243499103206)
(7.79253311620966e-06 0.000126575436073455 0.000670526677545595)
(2.30249109524851e-05 9.41676625795595e-05 0.000611902903346653)
(3.91058691561586e-05 8.09880395823081e-05 0.000533214974676075)
(2.75560299747794e-05 0.000105032953741808 0.000408527703402685)
(-4.62696488674346e-05 0.000515535915007091 0.000117321216756692)
(-0.00130836167065518 0.000379881496689737 -0.000444739636547989)
(-2.75499090940762e-06 0.000326234628905914 0.000841439007720254)
(-6.707408238207e-06 0.000295005954520657 0.000804442773296258)
(-6.07849911501278e-06 0.000257886803417009 0.000763607552793414)
(1.82657282820027e-06 0.000222421326463678 0.000710060653737554)
(1.69450411533869e-05 0.000197240418378899 0.000637167288623361)
(3.64614200046652e-05 0.000187893140552209 0.000532855771248793)
(3.16211515835909e-05 0.000254696383334032 0.000353973635743737)
(-0.000151440129838671 0.000622298690313828 -2.40033983957783e-05)
(-0.0011861926159959 0.00033175764150156 -0.000740923472915498)
(-4.71975822742385e-06 0.000463460945987832 0.000913869036321908)
(-1.36735202174508e-05 0.000435319545022203 0.000884694699421231)
(-2.01103325493075e-05 0.000400797797879415 0.000851941107984278)
(-2.10468559169581e-05 0.000364341775083001 0.000806126758487788)
(-1.37029209947777e-05 0.000331186030410202 0.000741018001680716)
(4.2553784243976e-06 0.000306526247665043 0.000649667079695924)
(2.90222117402148e-05 0.000307004680348181 0.000516835632043587)
(9.33035619823464e-06 0.000383744939202221 0.000296406350961503)
(-0.000254080312002309 0.000620477470549615 -0.000115094091607864)
(-0.00109231028997006 0.000518202718700967 -0.00092936000184789)
(-0.00151855683911241 0.000581635169790644 0.00221359814727565)
(-0.00114560742177842 -0.000454438173930102 0.00141015503611065)
(-7.6089684634571e-05 -0.000661419030153322 0.000197104132685633)
(-6.64800408170646e-05 0.000193365190151128 0.000819599373770202)
(5.85722948731923e-05 0.000151002913768179 0.000222003119552313)
(2.55772440596024e-06 -0.000109494426802957 0.000128723583838832)
(4.68522861259215e-05 -2.20216623121332e-07 0.000123231294709175)
(2.7579979848209e-05 -0.000169403074409722 0.000108841053604595)
(4.6644444178922e-06 -0.000161740599917059 0.000184242544244848)
(-2.75068408017513e-05 -0.000243154296079924 0.000139644953642903)
(-2.87230380256765e-05 -0.000192117822717089 0.000253678632022102)
(1.10373969681134e-05 -0.000178363635023833 0.000281721146979893)
(4.62184478023807e-06 -0.000171727820680508 0.000315785445662736)
(-0.000214561301658779 -0.000141997456339096 -4.28276690648148e-05)
(4.40313857041326e-06 -0.000124347695444107 0.000427674976823089)
(1.50769825392574e-05 -0.000150593742996907 0.00038124476258672)
(2.02361298646249e-05 -0.000176329715760728 0.000339973429604487)
(-3.41457315556549e-05 -0.000160170342578776 0.000316146901160989)
(-0.000160209672352627 -4.61205355808427e-05 0.000328525000560461)
(-0.000614539942590927 2.75439104590935e-06 0.000675457578520045)
(-0.000439360887739636 0.000427940657428802 0.000592672480905507)
(-0.00221375286200091 0.00235820875252722 0.00244619162316791)
(-0.00203798215986098 0.00183316227702397 0.00137166595860207)
(3.28361417425191e-06 -5.2469818784459e-05 0.000526155585284064)
(1.31157938172194e-05 -8.27709512876858e-05 0.000479101832964498)
(2.71500837128741e-05 -0.000117192881749811 0.000430260032561244)
(2.84997156617725e-05 -0.000137634326642595 0.00037894186845343)
(-7.22051575582478e-05 -6.72745117543587e-05 0.000332288382625398)
(3.4848228448022e-05 0.000320351887316496 0.000208837914598979)
(-0.00170240574438249 0.000254478137012527 0.00027362692494836)
(1.77626312547622e-06 3.59316141969226e-05 0.000617244888521883)
(8.5067276566889e-06 4.38314193785336e-06 0.000571860892166729)
(2.13655294877199e-05 -3.13010720218446e-05 0.000523767454487885)
(3.79206277408634e-05 -5.74961976747611e-05 0.000467428018353074)
(2.72397699745595e-05 -5.33265137864169e-05 0.000399712525557081)
(-8.29069488528813e-05 0.000120605393990186 0.000283884457635061)
(-0.00109383294665369 -5.210772138577e-05 -0.000108862025861171)
(8.20531421556971e-08 0.000137768542918969 0.000703188864223476)
(2.81234173619091e-06 0.000105986678027335 0.000661152990121557)
(1.14194110606479e-05 6.97788756110132e-05 0.000615786408326105)
(2.71238357843556e-05 3.96507593616871e-05 0.000560845693568785)
(4.24208856836633e-05 2.80929912588791e-05 0.000490253378964314)
(2.7278042622923e-05 5.11902052808061e-05 0.000383051404842328)
(-3.69481395697677e-05 0.000466657325547655 0.000148247217244745)
(-0.00129047525128103 0.000262516356040498 -0.000337844960964975)
(-1.65481587923434e-06 0.000251173659245956 0.000783702594666437)
(-3.29632304961631e-06 0.00022012378492954 0.000746385721500509)
(-2.60280270072243e-07 0.000184385105312 0.000705508658810436)
(9.68624468095559e-06 0.000151670488402512 0.000653907856282433)
(2.58564501770231e-05 0.000130303747717751 0.000586476863346713)
(4.486520760633e-05 0.00012512012924074 0.00049282654121687)
(4.00429551657253e-05 0.000195774358468899 0.000336184674989921)
(-0.000139907738853416 0.000575317240016746 -6.57103717169521e-08)
(-0.00118955108228889 0.000286812018814035 -0.000635888582167818)
(-3.3785783031243e-06 0.000374126943916402 0.00085709043752121)
(-9.39974494141717e-06 0.000345051433877825 0.000826106774130042)
(-1.2463615204767e-05 0.000311008187879634 0.000791614784594852)
(-1.00170511494543e-05 0.000277038147353993 0.000745739709183589)
(-1.84992006912716e-07 0.000248618272387453 0.000683543321740201)
(1.82550562315215e-05 0.000230663501395717 0.000599174694315813)
(4.11673983890358e-05 0.000239228994471307 0.000478133216463915)
(2.07298650116176e-05 0.000327115427565432 0.000275359045821278)
(-0.000248281753257088 0.000584751295427863 -0.000114965576571875)
(-0.00107206997311334 0.000489198975590996 -0.000861228542628283)
(-5.03416986790431e-06 0.000503686662493261 0.000921158182696626)
(-1.52857358392963e-05 0.000478175995816474 0.00089784108575047)
(-2.44885607522144e-05 0.000447554294949402 0.000871362757988677)
(-3.01748112756614e-05 0.000414394680117582 0.000833387116534912)
(-2.91778039867228e-05 0.000381633921026483 0.000778854152034632)
(-1.8634995986657e-05 0.000353321150941229 0.000703395188135552)
(2.22952411795227e-06 0.000340105259905671 0.000600369643853587)
(1.73477137503944e-05 0.000352237349745507 0.000454414185599065)
(-3.54624741556948e-05 0.000419208603157115 0.000225364316834203)
(-0.000277222340791053 0.000521166028748356 -0.000205582534982836)
(-0.000849510242081344 0.00041403604233584 -0.00105376887579509)
(-0.00164819371255208 -0.000447432123084702 0.00265924619492335)
(-0.00154009596293809 -0.000513178547913419 0.00204825931717223)
(-0.00027683916271723 -0.000610480145972181 0.000668466754920242)
(-0.000162364428950408 8.42212734871374e-05 0.00115158863790701)
(-9.05716416418113e-05 0.000185064200419066 0.00015463443859743)
(3.19437287867302e-05 -0.000129777794406102 8.48672776187613e-05)
(-5.13864756156218e-05 -0.000270029249202367 5.28305201681846e-05)
(2.54810259005541e-05 0.000150204972800594 0.000349890422329946)
(2.92358805665906e-05 5.44249306768189e-05 0.000245745452557201)
(1.20132100384288e-05 -4.81265407577199e-05 0.000180382399405631)
(9.61810402540034e-05 5.77902215257651e-06 0.000136342954173827)
(-1.47021442798859e-05 -0.000174710772084084 0.00010396161007204)
(0.000107330023165728 -0.000115051580117665 -1.19044637015498e-05)
(4.46219460366073e-06 -0.000121197172121214 0.000264876818802706)
(1.33743462854407e-05 -0.000127343656489347 0.000206973470685814)
(-8.67245852203663e-05 -0.000138512219942081 0.000300056979710237)
(1.14188066228953e-05 -0.000139022705819795 0.000302329101476556)
(-1.21655426730789e-06 -0.000269763635782554 0.000138264673751293)
(1.25043081000601e-05 -0.000131647566582617 0.000329809084411647)
(3.80894945614538e-06 -0.000111816426305306 0.000376202380759767)
(-0.000394266120428572 -0.000137237672420462 0.000220585190539236)
(3.12279012721057e-06 -6.32248229325886e-05 0.000475130336896424)
(1.18167574820852e-05 -8.9273785036741e-05 0.000429347899214286)
(2.24190884349975e-05 -0.000119876083907077 0.000382255477434486)
(1.35601199771346e-05 -0.000130408760002053 0.000346507684850208)
(-0.000113233100615033 -4.63149792709015e-05 0.000357519964234525)
(4.01589421596466e-05 0.000308129068193569 0.000506468617799159)
(-0.00140747458609962 -0.000166739257934373 0.0018548230788143)