/*--------------------------------*- C++ -*----------------------------------*\
  =========                 |
  \\      /  F ield         | OpenFOAM: The Open Source CFD Toolbox
   \\    /   O peration     | Website:  https://openfoam.org
    \\  /    A nd           | Version:  12
     \\/     M anipulation  |
\*---------------------------------------------------------------------------*/
/*   Windows 32 and 64 bit porting by blueCAPE: http://www.bluecape.com.pt   *\
|  Based on Windows porting (2.0.x v4) by Symscape: http://www.symscape.com   |
\*---------------------------------------------------------------------------*/
FoamFile
{
    format      ascii;
    class       volScalarField;
    location    "600";
    object      k;
}
// * * * * * * * * * * * * * * * * * * * * * * * * * * * * * * * * * * * * * //

dimensions      [0 2 -2 0 0 0 0];

internalField   nonuniform List<scalar> 
10068
(
6.75338899512758e-06
6.80759010255944e-06
5.75390205631798e-05
6.96259226247177e-06
6.84699085439959e-06
5.77791785250679e-05
7.02061960753443e-06
0.000102698780590586
5.77443127159354e-05
7.25825177649581e-06
6.85357052141072e-06
5.79215411581137e-05
7.06219509281863e-06
0.000102937907531305
5.7989382831205e-05
7.32035084143038e-06
0.000137273067919187
0.000102646588193837
5.80069093284675e-05
7.36557134121169e-06
6.83572425277637e-06
5.79210664881738e-05
7.06825563853274e-06
0.000103028911813251
5.81339562691882e-05
7.36457671513123e-06
0.000137510594156492
0.000102887386063134
5.82563168714946e-05
7.43027712570697e-06
0.000166222192968719
0.000137077303765214
0.000102213143070636
5.77219517747579e-05
7.16371457380196e-06
6.79780833480927e-06
5.78008132754692e-05
7.04993337967664e-06
0.000102954268022207
5.81322991237064e-05
7.37098604968226e-06
0.000137554384615172
0.000102978875369114
5.84023888966956e-05
7.47672980047499e-06
0.000166465282903283
0.000137316825026413
0.000102454507186474
5.79741185600269e-05
7.22872551776368e-06
0.000191756751317555
0.000165879181101221
0.000136186520614634
0.000101066106564466
5.6521065506044e-05
6.73721843852642e-06
6.74151076793264e-06
5.75731674466382e-05
7.01079041841209e-06
0.000102713896264675
5.80109177708806e-05
7.35154430391688e-06
0.000137399541392571
0.000102904502213188
5.83999051825637e-05
7.48367331636218e-06
0.000166473490908442
0.000137360982023891
0.000102546351915744
5.81227426332559e-05
7.27591569774444e-06
0.000192007467260876
0.000166124825900201
0.000136426195817328
0.000101306583450171
5.67742033160348e-05
6.80093180530621e-06
0.000214927903356592
0.000191246469935672
0.000164623701414421
0.000134367960598288
9.89518706946586e-05
5.44895302823595e-05
6.21607404063087e-06
6.66694961834349e-06
5.72434601934141e-05
6.95269609989045e-06
0.000102310748207928
5.7781687267897e-05
7.31050818168334e-06
0.000137041767953954
0.000102664142398344
5.8276527000386e-05
7.4641278492839e-06
0.000166247037458036
0.000137206362510784
0.000102472454849129
5.81204783667245e-05
7.28351642935866e-06
0.000191986273013662
0.000166133626548849
0.000136470707425987
0.000101399043257853
5.69253653245274e-05
6.84781857883299e-06
0.000215186055459463
0.000191500250454426
0.000164869665299219
0.000134605378744249
9.91899451441006e-05
5.47423031610717e-05
6.27770558899722e-06
0.000236325045751221
0.000214274463410671
0.000189651918816304
0.000162250099627308
0.000131479593037173
9.58909594211465e-05
5.18954176678908e-05
5.660551801421e-06
6.57392552372239e-06
5.68114003974022e-05
6.87572561968948e-06
0.000101746352836173
5.74500743944372e-05
7.24971279559614e-06
0.000136479444295502
0.000102260733515471
5.80451340823835e-05
7.42242346976903e-06
0.000165781981148489
0.000136848907173322
0.000102232845051927
5.79973132530792e-05
7.26496719137206e-06
0.000191695908379923
0.000165907649178891
0.000136317262152847
0.000101326654227302
5.69252287268742e-05
6.85595794600841e-06
0.000215138563325189
0.000191479958588982
0.000164879131883399
0.000134650087508147
9.92831993654705e-05
5.48956400722707e-05
6.32365866853577e-06
0.000236589733855787
0.000214536176424189
0.000189906298428168
0.000162493298492053
0.000131712643634214
9.61251795694191e-05
5.21465840060611e-05
5.71929050802621e-06
0.000256325218822637
0.000235573193498711
0.000212391210633116
0.000186792039657795
0.000158687182533116
0.00012756021687931
9.20466985737874e-05
4.89146814995598e-05
5.07685645600896e-06
6.46216353093057e-06
5.62757818745753e-05
6.77983141797638e-06
0.000101020694913966
5.70160836554893e-05
7.16925672331423e-06
0.000135711818470532
0.000101696193532331
5.77112161601837e-05
7.36055802597065e-06
0.000165075903537034
0.000136287112177792
0.000101830536069112
5.77663508717535e-05
7.22448146115693e-06
0.000191133329333916
0.000165443415041372
0.000135962019361853
0.0001010898101126
5.68052969681943e-05
6.83883022213796e-06
0.000214789860615254
0.000191190514750483
0.000164655051478488
0.000134499119543215
9.92139469157513e-05
5.48986075789948e-05
6.33212546280099e-06
0.000236517653946962
0.000214489899574385
0.000189887134355522
0.00016250315048316
0.000131757411763318
9.6219153895875e-05
5.23014273832952e-05
5.76374084994875e-06
0.000256595302230131
0.000235841918794606
0.000212653885232713
0.000187043530130187
0.000158925077312553
0.000127787116767216
9.22755024468217e-05
4.91621652348761e-05
5.13218478511173e-06
0.000275173180442015
0.000255509794200242
0.000233468621512126
0.00020912280302094
0.000182640505080289
0.000154010809389386
0.000122730965102053
8.75478291689215e-05
4.55971857751098e-05
4.4639253473394e-06
6.33181047511432e-06
5.56343738489707e-05
6.66452521161448e-06
0.000100132281237544
5.64781866079223e-05
7.06912973454477e-06
0.000134738037934841
0.000100970449937477
5.72748128598299e-05
7.27876947619988e-06
0.00016412729239547
0.00013552030622331
0.000101267666957357
5.74333586169278e-05
7.16423068238985e-06
0.000190296304699358
0.000164738595220355
0.000135403555752348
0.000100691615819172
5.65788592964785e-05
6.80081716833516e-06
0.000214137540174407
0.000190629371940717
0.000164194294364259
0.000134148703354218
9.89827354906089e-05
5.47838826394678e-05
6.31652966827703e-06
0.000236114552722614
0.000214142511938497
0.000189600416982913
0.000162282565975401
0.000131610446441324
9.61543123438666e-05
5.23075571650564e-05
5.77246164087299e-06
0.000256499572752393
0.000235771311856668
0.000212609233940495
0.000187025213414936
0.000158935012633257
0.000127831763552906
9.23697584840553e-05
4.9317293967783e-05
5.17439621207201e-06
0.000275447362290887
0.000255784369625616
0.000233738718467398
0.000209382689274231
0.000182886292276852
0.000154241405224871
0.000122950063761268
8.77694055968081e-05
4.58392262392556e-05
4.51524386542727e-06
0.000293016583135362
0.00027431266497078
0.00025323796206633
0.000229871124214653
0.000204470517850124
0.000177300711489581
0.00014833466408159
0.000117085318924804
8.24529644978294e-05
4.19453277167739e-05
3.82862887958896e-06
6.18319914763496e-06
5.48862192482154e-05
6.53017614618199e-06
9.9079862676877e-05
5.58344529192198e-05
6.94875693277571e-06
0.000133556832995818
0.000100082264359274
5.67343204778505e-05
7.17663091431116e-06
0.000162934809375178
0.000134547624065277
0.000100544257152185
5.69984369674354e-05
7.08416275368608e-06
0.000189183315875016
0.000163791697290343
0.000134641291185786
0.000100134384666028
5.62520667231261e-05
6.74398111938214e-06
0.00021317987926371
0.000189794448447379
0.000163494624175112
0.000133597474543064
9.85928395098879e-05
5.4565359140532e-05
6.28134846768093e-06
0.000235378615338945
0.000213492202832953
0.000189044013436194
0.000161828505979172
0.000131267911977617
9.59313119735932e-05
5.21989650592722e-05
5.75852036476392e-06
0.000256045000519507
0.000235369839018678
0.000212265356304756
0.000186743095933262
0.000158719542343697
0.000127690161214083
9.23100020381748e-05
4.93265194597772e-05
5.18323629912843e-06
0.000275328460738801
0.000255690342966648
0.00023367019870641
0.000209339451045848
0.000182868473860967
0.000154251192543436
0.000122994285097518
8.78631344421654e-05
4.59927611490099e-05
4.55424131452095e-06
0.000293293374150973
0.000274591771580376
0.000253514336916111
0.000230138656942558
0.000204724615091437
0.000177538655681122
0.000148556266047441
0.000117294983638492
8.26654876352076e-05
4.21800433350618e-05
3.8749819511494e-06
0.000309933387837859
0.000292118564499904
0.000271906149666147
0.000249372482382203
0.000224797746829019
0.000198555306972864
0.000170887958092594
0.000141736295921158
0.000110674358722502
7.67846705755177e-05
3.7961240890227e-05
3.18394225938692e-06
6.01646326182117e-06
5.40305020645304e-05
6.37697444497488e-06
9.78619251713731e-05
5.50838761686818e-05
6.80876690021582e-06
0.000132166856154108
9.90301926777595e-05
5.60880672765916e-05
7.05437787038916e-06
0.00016149719381455
0.000133367849745964
9.96592256128737e-05
5.64598574019541e-05
6.9845763322279e-06
0.000187793085196423
0.000162601441978715
0.000133674412990672
9.9418266135834e-05
5.58248580337042e-05
6.66860059860448e-06
0.000211915602263705
0.000188684253760495
0.000162554585976512
0.000132844930046687
9.80467598581171e-05
5.42494080592514e-05
6.22866445376631e-06
0.000234308508341242
0.000212537367496048
0.00018821595669315
0.000161138769958721
0.000130728476534254
9.55536269357945e-05
5.19902076552454e-05
5.72627163587104e-06
0.00025523014834842
0.000234636296209795
0.000211620917656812
0.000186195159807389
0.000158275554302096
0.000127358358392482
9.20970018330739e-05
4.9224777050733e-05
5.17092127094702e-06
0.000274824487892674
0.000255237593590579
0.000233272890955062
0.000209001231004188
0.000182592718903616
0.000154042296843657
0.000122859072170405
8.78087538197836e-05
4.6004588531985e-05
4.56212277593673e-06
0.000293151375247117
0.000274474764874719
0.000253422814023203
0.000230072117713108
0.000204682456130535
0.000177521093603688
0.000148565700897927
0.00011733834488639
8.27575762931471e-05
4.23292318993846e-05
3.90950095181183e-06
0.000310211055604941
0.000292400696645424
0.00027218748186934
0.000249646574398917
0.000225059568939999
0.000198801359719645
0.000171116308875694
0.00014194734092165
0.000110872974853791
7.69863253495376e-05
3.81858140817599e-05
3.22443039273691e-06
0.000325955815619056
0.000309000495172671
0.000289594294086912
0.000267812223053557
0.000243938962626676
0.000218382740033351
0.000191498194615792
0.00016347373102752
0.000134259875042403
0.00010352771201163
7.05546228750975e-05
3.36569055598978e-05
2.54643319659476e-06
5.83169420714988e-06
5.30655873861713e-05
6.20496562066377e-06
9.64770733139554e-05
5.42252737240361e-05
6.64909623643118e-06
0.000130566667241644
9.78127341198632e-05
5.5335177443169e-05
6.91224485703595e-06
0.000159813133849536
0.000131979619118792
9.86111335396989e-05
5.58167235699755e-05
6.8655934889597e-06
0.000186124356306318
0.000161166559636138
0.000132501769481912
9.85423278255872e-05
5.52964581272755e-05
6.57472339409847e-06
0.000210343617445081
0.000187297515283394
0.000161372941018047
0.000131890335182576
9.73448178082558e-05
5.38364269911339e-05
6.15893494099254e-06
0.00023290334793839
0.000211276794738059
0.000187114786951294
0.000160211934458567
0.000129991718184776
9.5024029564424e-05
5.16879446603993e-05
5.67786723145294e-06
0.000254054148496202
0.000233569534055541
0.000210674433191476
0.000185379471147216
0.000157600826357144
0.000126835041171433
9.17345259533491e-05
4.90268207320984e-05
5.14157729190206e-06
0.000273934482639038
0.000254425414842201
0.000232546115718442
0.000208366833375453
0.000182056941460043
0.000153611475949094
0.000122540340254011
8.76070685557967e-05
4.59097735762894e-05
4.55095292731845e-06
0.000292599594792128
0.00027397280289501
0.000252974759877448
0.000229681403998831
0.000204351835922218
0.000177253277658116
0.000148364637647871
0.000117210284816211
8.27085052767469e-05
4.23409503956671e-05
3.91576016587036e-06
0.00031004570513903
0.000292260777034714
0.000272073359274259
0.000249557572058134
0.000224994733416301
0.00019876005566827
0.000171098859272657
0.000141956218847628
0.000110914955004833
7.70754498445101e-05
3.83270847417548e-05
3.25375515826412e-06
0.000326232388386617
0.000309283908366487
0.000289879069727673
0.000268091579879858
0.000244207507416772
0.000218636497445414
0.000191734383612392
0.000163690934834294
0.00013445887854145
0.000103713754637893
7.07436317654233e-05
3.38689583560749e-05
2.5808594388536e-06
0.000341088708790041
0.000324989189727278
0.000306367190916925
0.000285295944007909
0.000262061121230781
0.00023708361122072
0.000210756264713063
0.000183370920321361
0.000155098460790031
0.00012593612340258
9.56656481225781e-05
6.37712242743249e-05
2.90515888286405e-05
1.93426409210703e-06
5.62978475125328e-06
5.19900612682766e-05
6.01436865397402e-06
9.49239669000325e-05
5.3256839031339e-05
6.46981348558717e-06
0.000128754924732148
9.64284385227516e-05
5.4473529685312e-05
6.75002943362757e-06
0.0001578813008335
0.000130381499771379
9.73984669306134e-05
5.50677111680428e-05
6.72694682188083e-06
0.000184175878936498
0.000159485735249133
0.000131122004188548
9.75052222532778e-05
5.46658612150579e-05
6.46233985354703e-06
0.000208462843701774
0.000185632997917875
0.00015994843821843
0.000130732606722503
9.64862138061633e-05
5.3325350240255e-05
6.07200413787103e-06
0.00023116232015943
0.000209709404805632
0.000185739249666797
0.000159046793369319
0.000129056984298489
9.43429859006747e-05
5.12928960180257e-05
5.61380235898886e-06
0.000252516489204575
0.000232168712419758
0.000209424733105434
0.000184294582804487
0.000156693947473773
0.00012611987081185
9.12255480533329e-05
4.87396064275376e-05
5.09745196879428e-06
0.000272657905313588
0.000253253099500127
0.000231488868013804
0.000207434809084405
0.000181259167071759
0.00015295645636944
0.000122036809246325
8.72620475987659e-05
4.57231833988612e-05
4.5246125346032e-06
0.000291637430066849
0.000273085656141964
0.000252170057570596
0.000228965997103036
0.000203731488734793
0.000176732990669707
0.000147949688641871
0.000116906581853622
8.25190918227962e-05
4.22520562765363e-05
3.90545676692777e-06
0.000309447278662625
0.000291711158357218
0.000271576557518549
0.000249116931359064
0.000224612768307323
0.000198438750596826
0.000170840410187506
0.000141764105001312
0.000110794644525562
7.70310882305611e-05
3.83360737617085e-05
3.25841183541303e-06
0.00032604315820362
0.000309120820128873
0.00028974239600541
0.000267980489395761
0.000244120829651686
0.0002185731827211
0.000191693832696262
0.000163673516010505
0.000134467001262727
0.000103753835055351
7.08285610763071e-05
3.39988827588547e-05
2.60553346114954e-06
0.000341361970958548
0.000325271893571636
0.000306653664160355
0.000285579061993224
0.000262335139491739
0.000237344174054465
0.000211000072048444
0.000183595643721808
0.000155303054981897
0.00012612170677321
9.58377611329384e-05
6.39462689549843e-05
2.92493537034821e-05
1.96364157507416e-06
0.000355321570271921
0.000340089413845873
0.000322252410255997
0.000301879596154458
0.000279256589482281
0.000254810053421735
0.000228947251321073
0.000201994465931384
0.000174213128777783
0.000145792707496042
0.000116789957832231
8.71016412945999e-05
5.64379333299208e-05
2.41618492398625e-05
1.36432652860283e-06
5.41262277028583e-06
5.08043595225054e-05
5.80646978667319e-06
9.32015495875371e-05
5.21774997877901e-05
6.27134745280932e-06
0.00012673032626232
9.48759551088303e-05
5.35021081168241e-05
6.56784904835997e-06
0.000155700403524366
0.000128572119725739
9.6019675355433e-05
5.42104117057047e-05
6.56857157735029e-06
0.00018194648597128
0.000157557638524376
0.000129533686104125
9.63054078534945e-05
5.39305455760235e-05
6.33121068504633e-06
0.000206272190105488
0.000183689467410666
0.00015827976969576
0.000129370420961972
9.54696992014146e-05
5.27147969246431e-05
5.96765167415598e-06
0.000229084563515822
0.000207834120942075
0.000184088126966845
0.000157642121469973
0.000127923247050365
9.35097718004566e-05
5.08038146150507e-05
5.53393259391061e-06
0.000250616667700545
0.000230433031250131
0.000207870751661573
0.000182939251215378
0.000155553736830861
0.00012521227110025
9.05707389084283e-05
4.83644558176569e-05
5.03901177567804e-06
0.000270994644625266
0.000251720188827647
0.000230100346384068
0.000206203995725764
0.000180197930891956
0.000152075824720109
0.000121348215094249
8.67768812470519e-05
4.54521663657101e-05
4.48500942123042e-06
0.000290264756688737
0.000271813012845257
0.000251008153334264
0.000227924933577018
0.00020281992206439
0.000175958182727897
0.000147318525955123
0.00011642597986721
8.21933823943935e-05
4.20771937933474e-05
3.88222590699151e-06
0.000308415522718474
0.000290752038515109
0.000270697474427592
0.000248324721243862
0.000223913086898965
0.000197836040647602
0.000170338599594095
0.000141367463818063
0.000110507689243393
7.68544558377258e-05
3.82519686809067e-05
3.24928423975778e-06
0.000325398949149168
0.000308524706637321
0.000289198361007026
0.000267491841807499
0.000243689992837138
0.000218201850867398
0.000191383420004972
0.000163425786464392
0.000134284876872453
0.00010364174177132
7.07882131016655e-05
3.40041831812064e-05
2.60900471174754e-06
0.000341148084182079
0.000325085103999674
0.000306494178880618
0.00028544591364802
0.000262226979795264
0.000237259698856061
0.00021093822197677
0.000183555834576671
0.000155285632984254
0.000126128923558691
9.5875570618604e-05
6.4026047602406e-05
2.93681412155727e-05
1.98432889439055e-06
0.000355588984707752
0.000340369163243047
0.000322538573546674
0.00030216473835958
0.000279534610881276
0.000255076236372677
0.000229197891940235
0.000202226674704696
0.000174424911603636
0.000145983347633982
0.000116960895822319
8.72587883201017e-05
5.65985814827191e-05
2.43478133706457e-05
1.38837990325371e-06
0.00036863566537072
0.000354290948583861
0.000337253993862875
0.000317586610304709
0.000295573129756682
0.00027164325960325
0.00024621026131333
0.00021961203741657
0.000192138314500847
0.000164055384545607
0.000135583508695736
0.000106839852343082
7.78398140506507e-05
4.85462093597026e-05
1.90000188544115e-05
8.50868037435595e-07
5.18146473207863e-06
4.95112271096856e-05
5.58309496378211e-06
9.13096052878266e-05
5.09884255695053e-05
6.05523877607041e-06
0.000124492013951117
9.31543872301723e-05
5.24199585008517e-05
6.36661522761405e-06
0.000153269251574447
0.000126550246235163
9.44735459188253e-05
5.32440066226978e-05
6.39085492391615e-06
0.000179434938022865
0.000155380974110063
0.000127735444678183
9.49413126804664e-05
5.30892470479812e-05
6.18139162552997e-06
0.000203770561291678
0.00018146570945721
0.000156365605427203
0.000127802364508575
9.42936294758987e-05
5.20028845479051e-05
5.84575340935077e-06
0.000226669170525465
0.000205649848944994
0.000182160191316961
0.000155996627119817
0.000126589241527439
9.25231382409181e-05
5.02188872553029e-05
5.43811698771523e-06
0.000248354075417132
0.000228361632238619
0.00020601142057259
0.000181312270110231
0.000154178992465019
0.000124111281234405
8.9769429577657e-05
4.78998114661125e-05
4.96641557091535e-06
0.000268944513427165
0.000249826194191051
0.000228379762996255
0.000204673331521057
0.00017887198622476
0.000150968418138603
0.000120474071759079
8.61524760081986e-05
4.50978397575217e-05
4.43275340134994e-06
0.000288481792340488
0.00027015479259392
0.000249488627244823
0.000226557416826719
0.000201615941502956
0.000174927348108484
0.00014646972705447
0.000115768301492014
8.17347811032278e-05
4.18234489023058e-05
3.84780171157958e-06
0.000306950671694394
0.00028938350163558
0.000269435976074032
0.000247180432822202
0.000222894674064131
0.000196950349360423
0.00016959129062353
0.000140763913784245
0.000110052855011793
7.6549732136267e-05
3.80897084067524e-05
3.22961338832963e-06
0.000324299834168328
0.000307496163740802
0.000288247838715877
0.000266626237725036
0.000242914994964359
0.000217521768511048
0.000190801590012017
0.000162945235926912
0.000133908817800082
0.000103373064417844
7.06246840782145e-05
3.392547639202e-05
2.60133949056523e-06
0.00034045870463338
0.000324443359337882
0.000305904056080452
0.000284910723370871
0.000261749115139615
0.000236840738337355
0.000210579253852966
0.00018325784095083
0.000155049944902588
0.000125957784640059
9.57721249309856e-05
6.39893066996683e-05
2.93701441565821e-05
1.98684740630261e-06
0.000355349433412595
0.000340157892159872
0.000322355735287435
0.00030200926332553
0.000279404986467961
0.000254970958054248
0.000229115617898661
0.000202166332267607
0.000174385897665898
0.000145965941895032
0.000116967153451872
8.72941598461323e-05
5.66727677629829e-05
2.44580261150643e-05
1.40513075334856e-06
0.000368894461650979
0.000354565215924214
0.000337537585830007
0.000317871782640239
0.000295853443077751
0.000271913639372646
0.000246466626992395
0.000219851065367466
0.000192357410574012
0.000164252861613388
0.00013575898266406
0.000106995132121092
7.79815077296974e-05
4.86932601799516e-05
1.91758507479188e-05
8.68977763087561e-07
0.000381008213850727
0.000367575359180614
0.000351361898690349
0.000332419574533676
0.000311029668166952
0.000287623443525988
0.000262616414082605
0.000236349680154103
0.000209120987939614
0.000181218473467863
0.000152925101855472
0.000124491479060922
9.60926832378845e-05
6.78679364964019e-05
4.00721885670639e-05
1.35902537118824e-05
4.24976402190387e-07
4.93725969017285e-06
4.8113048730347e-05
5.34523726204208e-06
8.92485705945326e-05
4.96924007451507e-05
5.82311707559786e-06
0.000122039409366218
9.12635584046926e-05
5.12288194811998e-05
6.14793002424833e-06
0.000150586869938359
0.000124314982816595
9.275931158817e-05
5.21685294272137e-05
6.19505063827502e-06
0.000176640150884919
0.000152954563241108
0.000125726104926652
9.34118674972606e-05
5.21410671216321e-05
6.01376312471069e-06
0.000200956907120183
0.000178960516235201
0.000154204659356203
0.000126027090324644
9.29566040524433e-05
5.11879951116547e-05
5.70689233007382e-06
0.000223915215512189
0.000203155490590305
0.000179954215747321
0.000154108990822888
0.000125053582323718
9.13815770678794e-05
4.95365290290985e-05
5.32648155173632e-06
0.000245728020487379
0.000225953603446822
0.000203845646372344
0.000179412417490725
0.000152568447836301
0.000122815685977234
8.88203890761026e-05
4.73441057270908e-05
4.87985693298666e-06
0.00026650717513917
0.000247570510883343
0.000226326263144617
0.000202841749896723
0.000177280129623364
0.000149633060887062
0.000119413487265458
8.53882770577087e-05
4.46597779687495e-05
4.36835783193511e-06
0.000286288670477402
0.000268110826435643
0.000247611001379709
0.00022486265732419
0.000200118467309377
0.000173639223701708
0.000145402148294512
0.000114933161218621
8.11443941431033e-05
4.14926067541981e-05
3.80276840908139e-06
0.000305053277012428
0.000287605820554507
0.000267792017822941
0.000245683649071145
0.000221556693553923
0.000195780420436647
0.000168596925959852
0.000139952030133172
0.000109430048664563
7.61203486194453e-05
3.78559667271156e-05
3.20078126070487e-06
0.000322746403749799
0.000306035644468314
0.000286891094622221
0.000265383594459022
0.000241795269336672
0.000216531820297938
0.000189946663512896
0.000162229636033589
0.000133336397210511
0.000102946626621912
7.03424366835571e-05
3.37776057858791e-05
2.58524639414944e-06
0.000339294264177809
0.000323347627654661
0.000304884613167072
0.000283974585208085
0.000260902071833749
0.000236087129565187
0.000209922269332324
0.000182699958229521
0.000154593322390071
0.000125604460244548
9.55231127126197e-05
6.38394720633582e-05
2.92978808100506e-05
1.98056509861799e-06
0.000354615346364079
0.000339471138770947
0.000321720379847742
0.000301428646511382
0.000278881503937909
0.0002545061431424
0.000228710423420926
0.000201821409841829
0.000174101843942684
0.000145743597866224
0.000116807982836539
8.71998945774748e-05
5.66398742235582e-05
2.44582142793025e-05
1.40699136047114e-06
0.000368628033142609
0.000354328451464503
0.000337330608346407
0.000317693440486822
0.000295702079640491
0.000271787569938199
0.000246364291189483
0.000219771089387082
0.000192298690672917
0.000164214753026183
0.000135741684436513
0.000107000516905209
7.80146357651605e-05
4.87632507493081e-05
1.92804074709429e-05
8.81721676757287e-07
0.000381255380651779
0.000367841354175686
0.000351640393263538
0.000332702512005198
0.000311310306584663
0.000287896353380687
0.000262877140723277
0.000236594503234162
0.000209346847995059
0.000181423051010102
0.000153107024782274
0.000124650724376085
9.62316336433338e-05
6.79946807872091e-05
4.02102442412123e-05
1.37542558164812e-05
4.36165865686966e-07
0.00039241478248513
0.000379920066513533
0.000364558078102308
0.000346368169299468
0.000325626632851195
0.000302764876068009
0.0002781987718909
0.000252268728412706
0.000225273025866424
0.000197504502448275
0.000169261197704997
0.000140841669609501
0.000112522216177987
8.45322856281797e-05
5.71522030125394e-05
3.10046623795707e-05
8.10642694793306e-06
1.42199421945492e-07
4.68123336458967e-06
4.66121069187592e-05
5.09346058653247e-06
8.70196120982485e-05
4.82911882062168e-05
5.57572020394185e-06
0.00011937249393965
8.9203954733909e-05
4.99309989431442e-05
5.9129686604968e-06
0.000147652685116612
0.000121865787130902
9.08768622344172e-05
5.09859404344139e-05
5.98259557461494e-06
0.000173561195700575
0.000150277451127646
0.000123504786283959
9.17164461114361e-05
5.10871553473334e-05
5.82956014225014e-06
0.000197830210461176
0.000176172786375356
0.000151795774640763
0.000124043481176703
9.1457670966447e-05
5.02706415113399e-05
5.5520170647445e-06
0.000220821766618017
0.00020034997575937
0.000177469002733234
0.000151977944547521
0.000123314972558543
9.0083767031058e-05
4.87563728858265e-05
5.19982013332993e-06
0.000242737769872415
0.000223208008927824
0.000201372326233449
0.000177238466757115
0.000150720802489395
0.000121324156223862
8.77222472685539e-05
4.66966753142079e-05
4.77958087685047e-06
0.000263682177568769
0.000244952441543143
0.00022393893365439
0.000200708155727383
0.0001754211438149
0.000148068510174451
0.000118165298944691
8.44831883645081e-05
4.41374106348024e-05
4.29205479174411e-06
0.00028368533644223
0.000265680781698395
0.000245374673897495
0.000222839796293424
0.000198326423192526
0.000172092600892019
0.000144114638964121
0.000113919744355457
8.04219710081638e-05
4.10851420239194e-05
3.74742246489356e-06
0.000302723782721479
0.000285419144887491
0.000265765440965245
0.000243833886095871
0.00021989832808957
0.00019432513640503
0.000167354217920831
0.000138930692607906
0.000108638991671994
7.55676131060515e-05
3.75525628766556e-05
3.16321084712407e-06
0.000320739489995019
0.000304143761440646
0.000285128445597945
0.000263763868085994
0.000240330352320406
0.000215231095956566
0.000188817306043198
0.000161277377864629
0.000132566197258448
0.000102362409618298
6.99449715143249e-05
3.35662504196085e-05
2.56180931936815e-06
0.000337655605516766
0.000321798710035711
0.00030343649340605
0.000282637818139122
0.000259685702657356
0.000234998192518636
0.000208966031971491
0.000181880387353271
0.000153913448999064
0.000125066498754564
9.51275100078528e-05
6.35814532168661e-05
2.91656856847909e-05
1.96773026590611e-06
0.000353387423748547
0.000338310235492959
0.000320634233941751
0.000300424442078261
0.000277965177910734
0.000253682141223097
0.000227981962912168
0.000201190839610476
0.000173570880150301
0.000145313476168806
0.000116479435319831
8.69719688581644e-05
5.6504924843065e-05
2.43936677556613e-05
1.40204653303811e-06
0.000367849498492366
0.000353597125816809
0.00033665064055625
0.000317068234234483
0.000295134058065785
0.000271278254242984
0.000245914577689305
0.00021938149206779
0.000191969492718264
0.000163946150035604
0.000135533970477239
0.00010685433513406
7.79304267158861e-05
4.87362006193847e-05
1.92805722241171e-05
8.82981881265897e-07
0.000380960624752482
0.000367577871847075
0.000351408261849657
0.000332500508809138
0.000311136665322212
0.000287749217676401
0.000262754755832295
0.000236495264018061
0.000209269337797907
0.000181366120243947
0.000153069982825322
0.000124633712659956
9.62364784996886e-05
6.80266850325839e-05
4.0280511832836e-05
1.38533239672008e-05
4.4463137849741e-07
0.000392647065086086
0.000380174755146286
0.000364828687722111
0.000346646354433806
0.000325905365063112
0.00030303839120308
0.000278462245562839
0.000252518049277854
0.000225504712844261
0.000197715742285741
0.000169449950292255
0.00014100689810535
0.000112664384821842
8.46549019063308e-05
5.72665156813911e-05
3.11408144006894e-05
8.24492127155774e-06
1.47139761728641e-07
0.000402830820618397
0.000391300789566845
0.000376820317582735
0.000359414559111602
0.00033935291954839
0.00031706539797231
0.000292966943995694
0.000267395327685089
0.000240645794246962
0.000213009723532889
0.000184786288996526
0.000156281697065046
0.000127804325237815
9.96486424218036e-05
7.21042047449751e-05
4.5651743816004e-05
2.14010286638329e-05
3.27021307015925e-06
2.56780914114491e-08
4.41499383033587e-06
4.50032148741897e-05
4.82774570969285e-06
8.46233738418632e-05
4.67867194910761e-05
5.31388589490531e-06
0.000116491890042625
8.69768513321942e-05
4.85278356101918e-05
5.6624190103866e-06
0.000144466513766388
0.000119202628472154
8.88267592085349e-05
4.96977671456084e-05
5.75418507307906e-06
0.000170197477105237
0.000147349019844204
0.000121070968428933
8.98550507122432e-05
4.99290646979881e-05
5.62967977089828e-06
0.000194389706731438
0.000173101603106527
0.000149138007764341
0.000121850679833296
8.97963653161195e-05
4.9252081825038e-05
5.38207234689056e-06
0.000217388053338275
0.000197232316549611
0.000174703456598038
0.000149602351264554
0.000121372335214758
8.86289205011109e-05
4.78792002164981e-05
5.05886877287645e-06
0.000239382610443232
0.000220123932411874
0.0001985903861972
0.000174789225841591
0.000148634806937445
0.000119635435613606
8.64738477796803e-05
4.59576680122554e-05
4.66611854400232e-06
0.000260469009960048
0.000241971245954781
0.000221216833179183
0.000198271441914968
0.000173293803691954
0.000146273489780609
0.000116728232181021
8.34359614306317e-05
4.35301779036794e-05
4.20403250809478e-06
0.00028067159075731
0.000262864199044377
0.000242778943830351
0.000220487914564732
0.000196238704578324
0.000170286263166609