/*--------------------------------*- C++ -*----------------------------------*\
  =========                 |
  \\      /  F ield         | OpenFOAM: The Open Source CFD Toolbox
   \\    /   O peration     | Website:  https://openfoam.org
    \\  /    A nd           | Version:  12
     \\/     M anipulation  |
\*---------------------------------------------------------------------------*/
/*   Windows 32 and 64 bit porting by blueCAPE: http://www.bluecape.com.pt   *\
|  Based on Windows porting (2.0.x v4) by Symscape: http://www.symscape.com   |
\*---------------------------------------------------------------------------*/
FoamFile
{
    format      ascii;
    class       volScalarField;
    location    "600";
    object      nut;
}
// * * * * * * * * * * * * * * * * * * * * * * * * * * * * * * * * * * * * * //

dimensions      [0 2 -1 0 0 0 0];

internalField   nonuniform List<scalar> 
10068
(
2.73767153370735e-06
2.75964193472476e-06
0.000104130851645246
2.92341262707736e-06
2.77560617269543e-06
0.000104732686942054
2.94776289538135e-06
0.000368319789641682
0.000107276323533525
3.17372055990092e-06
2.77827430482316e-06
0.000105129769581348
2.96521436089307e-06
0.000369542889082722
0.000107907539863825
3.20085914245365e-06
0.000705590368232094
0.000373244113795701
0.000111300910926485
3.32364677931511e-06
2.77104378257618e-06
0.000105202859854739
2.96776036961263e-06
0.000370354162177379
0.000108319261145297
3.2201975402334e-06
0.000707196637816727
0.00037449154531069
0.000111972250563421
3.35284708419006e-06
0.00105826409708909
0.00070934497983681
0.000379123353996239
0.000113720886955228
3.27525723037889e-06
2.75567411732191e-06
0.000105081201122388
2.96006997250254e-06
0.000370593599899323
0.000108387505135652
3.2230006017024e-06
0.000708211630829853
0.000375317387820499
0.000112403921815077
3.37380998407674e-06
0.00106016625463827
0.000710969715508775
0.000380407784576649
0.000114426095635287
3.30498375717743e-06
0.00139930473329479
0.0010594617108474
0.000712754557340088
0.000382149826569192
0.000113078472016586
3.08170912099957e-06
2.73284912865114e-06
0.000104803661956242
2.94363488955643e-06
0.000370361635174295
0.000108257549909538
3.21450029710782e-06
0.000708500244823279
0.000375560725252508
0.000112469273994568
3.37694379325084e-06
0.00106124259494783
0.000711996195192458
0.000381252758377166
0.000114882836390374
3.32656061381527e-06
0.00140147309703276
0.00106137892706241
0.000714403862444201
0.000383472626594293
0.000113803009841888
3.110854701877e-06
0.00171713899290752
0.001397682852304
0.0010582899344618
0.000712468492127659
0.000379862197969889
0.000109894511339414
2.83589134047592e-06
2.70262732521123e-06
0.000104382612253372
2.91924041975219e-06
0.000369717130440097
0.000107966672246294
3.19655763036103e-06
0.000708076715005376
0.000375325014418062
0.000112325066098613
3.36812421500023e-06
0.00106141835103871
0.000712289054105922
0.000381497973667294
0.000114944542175491
3.33003637289041e-06
0.00140255294182492
0.00106246270176994
0.00071544534913585
0.000384344801707654
0.000114277160143412
3.1323027599515e-06
0.00171955437422364
0.00139986390755891
0.00106022281993609
0.000714141969106674
0.000381214759838058
0.000110628786927834
2.86400577158693e-06
0.00200807308084288
0.00171331607810302
0.00139151298445174
0.00105221671394735
0.000706072346994031
0.000372619606184578
0.000105391109347925
2.57901186613521e-06
2.6649205344814e-06
0.000103813849550506
2.88691190977295e-06
0.000368683308775449
0.000107529176210444
3.16997669141298e-06
0.000706974001952049
0.00037466826144233
0.000112017248093765
3.34930597899567e-06
0.00106066624614568
0.000711863805843061
0.000381252900192956
0.000114791049899792
3.32155546324276e-06
0.00140252205321448
0.00106264113899375
0.000715743834608285
0.000384593682853434
0.000114340263921213
3.13602673512776e-06
0.00172061579465669
0.0014009485170844
0.00106131755763759
0.000715203696348588
0.000382112660804761
0.000111112587575816
2.88497461485661e-06
0.00201071558920048
0.0017157429520683
0.00139370238930781
0.00105415845396353
0.000707763751243605
0.000373993089269836
0.000106132618366579
2.60576858791088e-06
0.00227222295958697
0.00200285344979646
0.00170290208254923
0.00137893919641305
0.0010394244960813
0.000693478934387113
0.000362037398295206
0.000100244201318158
2.31278570688376e-06
2.61961421316265e-06
0.000103092545412836
2.84666426009946e-06
0.000367260007127418
0.000106941608586056
3.13478363419727e-06
0.000705210088952333
0.000373618535348277
0.00011156050101349
3.32139225775653e-06
0.00105898741370809
0.000710754348115162
0.000380579808778552
0.00011447160911017
3.30304518809745e-06
0.0014013462109146
0.0010618890748207
0.000715316863593612
0.000384343669500936
0.000114185623853908
3.1281917752894e-06
0.00172033852648625
0.00140092020104338
0.00106150276479762
0.000715512415671024
0.000382371246262629
0.00011117857927136
2.88884128086205e-06
0.00201174654733502
0.00171680773842807
0.00139479358195281
0.00105526561132947
0.000708846559586454
0.000374911682028051
0.000106622819790985
2.62602759557019e-06
0.00227507124605672
0.00200550712931489
0.00170533145001505
0.00138112324926642
0.00104136557392438
0.000695179281125894
0.000363424513069804
0.000100989065065342
2.33798610600517e-06
0.00251113975288029
0.00226611662702622
0.00198927316927369
0.00168438232468885
0.00135871572187352
0.0010196258243534
0.000675812482633618
0.000349185454615756
9.45393883460396e-05
2.03385999763129e-06
2.56676851440375e-06
0.000102210589046586
2.79824698728186e-06
0.000365434045351243
0.000106197864195503
3.09103373704457e-06
0.000702782909951289
0.000372175373763291
0.000110950337922467
3.28449214751399e-06
0.00105638215505309
0.0007089803634132
0.000379509321482859
0.000114002139230474
3.27550176078341e-06
0.00139900607356359
0.00106020808580811
0.00071419985604411
0.00038366086350567
0.000113864488892472
3.11080289857964e-06
0.0017186920650584
0.00139974651480945
0.00106075464584725
0.000715089450449144
0.00038212559559195
0.000111027229991977
2.88172285918391e-06
0.00201120780218196
0.00171653313708022
0.00139477221101324
0.00105546226875987
0.000709170642753975
0.0003751819633821
0.000106690269425043
2.63000760952935e-06
0.00227606172542183
0.00200654056614595
0.00170639893401861
0.00138221847429439
0.00104248313849723
0.000696279314492211
0.000364359095213223
0.000101483838012019
2.35722255427799e-06
0.00251417268150169
0.00226897624995412
0.0019919251299401
0.00168679396188218
0.00136087964863031
0.0010215543422091
0.000677510319273401
0.000350577006021722
9.52857675329609e-05
2.05723969224534e-06
0.00272668712671972
0.00250435083985555
0.00225014571769502
0.00196576083916633
0.00165680192518055
0.00133052211044444
0.000993322627543324
0.000653908727599443
0.000334327029247619
8.81814816465346e-05
1.7444071783147e-06
2.50652295357e-06
0.00010116490656867
2.74183527567733e-06
0.000363193475352096
0.000105290389170608
3.03837738262271e-06
0.000699676872480067
0.000370327274443324
0.000110179708644382
3.23841427582978e-06
0.00105283851737669
0.000706539874349733
0.000378040896286185
0.000113377346390437
3.23889734714198e-06
0.00139548580148167
0.00105759888517733
0.000712414235109729
0.000382577685767485
0.000113394367790153
3.08480696062889e-06
0.00171565000982164
0.00139740911890492
0.00105907569906965
0.00071397242814435
0.000381445464733642
0.000110712252206841
2.86567046486549e-06
0.00200907673648428
0.00171489125640262
0.00139360730033413
0.00105472504262762
0.000708760214792394
0.000374946629587377
0.000106542760869839
2.62365002304366e-06
0.00227525838361045
0.00200600476316192
0.00170613108681912
0.00138220739089195
0.00104269447637291
0.000696620027785769
0.000364639501181178
0.000101552781742035
2.36125620978371e-06
0.00251511459119418
0.00226996879922934
0.00199295828480886
0.00168785785290985
0.00136197300308737
0.00102267633520314
0.000678620394956698
0.000351521745700079
9.57806405765281e-05
2.07501585436687e-06
0.00272988434649993
0.00250739533632379
0.00225300065973657
0.00196838485582216
0.00165917549237977
0.00133265023074228
0.000995223972888175
0.000655589781922179
0.000335714460300693
8.89272583470084e-05
1.76552476185219e-06
0.00292067247914068
0.00271926347126103
0.0024863841387206
0.00222240559169076
0.00193137206970895
0.0016198544772949
0.00129440099941703
0.000960853297884587
0.000627973309575026
0.000317344049845419
8.10910738651477e-05
1.45045719295562e-06
2.43893527470026e-06
9.99527184336865e-05
2.67751197160785e-06
0.000360525490576311
0.000104215794091447
2.9771642632901e-06
0.000695872102950594
0.000368060462189328
0.000109241117000786
3.18322520636731e-06
0.0010483357943471
0.000703417991761569
0.000376163595815344
0.000112588171305777
3.19336123945088e-06
0.00139076426758531
0.00105405046454466
0.000709958944602941
0.000381093920624138
0.000112768793175606
3.05032561737919e-06
0.00171118631003203
0.00139389244803155
0.00105646773112493
0.0007121846350459
0.000380365653355649
0.000110251782454735
2.84163144072715e-06
0.00200532478371689
0.00171185604916416
0.00139128151121341
0.00105305765209612
0.000707655572727668
0.000374279130254747
0.000106236444505422
2.60895433795755e-06
0.00227264499103469
0.00200387951411612
0.00170450207232431
0.00138105896312317
0.00104197583785726
0.000696227802502143
0.000364415392152949
0.000101410111884946
2.35564053066867e-06
0.00251404785856945
0.00226916804659835
0.00199242896468919
0.00168759868764138
0.00136197325796948
0.00102290197938671
0.000678975003409908
0.000351810059780461
9.58506451394101e-05
2.07861252927433e-06
0.00273077092997649
0.00250833887827975
0.00225399081422838
0.00196940824207009
0.00166022625254947
0.00133373295920225
0.000996340815260235
0.00065669938846586
0.000336659371691645
8.94157020619766e-05
1.78125403019921e-06
0.00292401427074903
0.00272247244718124
0.00248942160984706
0.0022252241541479
0.00193394218784673
0.00162217014031725
0.00129647575396156
0.000962709823532032
0.000629621232124303
0.000318717139979551
8.18299656939527e-05
1.46890448481026e-06
0.00309479110624431
0.00291261852134964
0.00269947136901799
0.00245489205503092
0.0021817813935746
0.00188581810441026
0.00157334778446309
0.00125021380243843
0.000922114695884389
0.000597789300900347
0.000297999696404809
7.32240076279883e-05
1.16018281172588e-06
2.3640347167126e-06
9.85667676915741e-05
2.60529372787118e-06
0.000357416021182465
0.0001029694150987
2.90735131597275e-06
0.00069134598696749
0.000365361777796297
0.00010813247854037
3.11908801440886e-06
0.00104284685868809
0.000699594562873274
0.00037386346085401
0.000111629997490996
3.13895914793933e-06
0.00138481298967337
0.00104954212929289
0.000706820154240459
0.000379198454376245
0.000111981389081883
3.00738543988069e-06
0.00170527184603463
0.00138917555572688
0.00105292088596767
0.000709726453685883
0.000378886267543544
0.000109640511999862
2.80982315823052e-06
0.00199992176566404
0.00170740212767945
0.00138778010878619
0.00105046347993779
0.000705882429971146
0.000373217239478518
0.000105789645891789
2.58689441101605e-06
0.00226819519449025
0.00200013734062709
0.00170148672439439
0.00137875669364031
0.00104033237197209
0.000695146102481452
0.000363765127075709
0.000101112679619099
2.34226751775752e-06
0.00251096435360257
0.00226656140848527
0.00199031949928018
0.001685990901467
0.0013608483580701
0.00102220695311614
0.000678602344527064
0.000351597219086027
9.57117584904048e-05
2.073518301129e-06
0.00272944640096546
0.00250727486147964
0.00225319624844979
0.00196888630100419
0.00165997506015383
0.00133374253850957
0.000996576611605345
0.000657062204575975
0.000336949785395715
8.94783284927416e-05
1.78411045459917e-06
0.00292484014733073
0.00272336036017188
0.00249036119605494
0.00222619975694232
0.00193494303409866
0.00162319637850287
0.0012975363976005
0.000963808396399207
0.000630715175546531
0.000319647904371678
8.230613949467e-05
1.48226484988935e-06
0.00309825810661632
0.00291597217879978
0.0027026712866337
0.00245788587125773
0.00218453212513744
0.00188831004526369
0.00157558488920993
0.00125221503265015
0.000923905646775314
0.000599384388636468
0.000299344649867165
7.39547155361166e-05
1.17586904251382e-06
0.00325064011745674
0.00308611702011932
0.00289109097018945
0.00266452009268205
0.00240850527782047
0.0021279884847469
0.00182884670387719
0.00151681720790797
0.00119746844870286
0.000876605898594685
0.000562861521379665
0.000275982691722947
6.45562914656144e-05
8.82448116405006e-07
2.2821836855948e-06
9.70008206434985e-05
2.52526382959216e-06
0.000353845652133777
0.000101542629769822
2.82896102351087e-06
0.000686073051468378
0.000362215076894961
0.000106842269988995
3.04589389175159e-06
0.00103634004009332
0.000695046611057599
0.000371126566789159
0.000110499286131552
3.07556765694206e-06
0.00137759714181856
0.00104404676628376
0.000702977847117953
0.000376878833637876
0.000111028597671369
2.95597925175934e-06
0.00169787152372943
0.00138323036862896
0.00104841527186449
0.000706585062910677
0.000376997795233614
0.000108870460617404
2.77016594645172e-06
0.00199283319425396
0.00170150057034576
0.00138308291409476
0.00104693419141692
0.000703442682734663
0.000371762009445248
0.00010519806770997
2.55771164604972e-06
0.00226187723025369
0.00199474837678883
0.0016970604173519
0.00137528701791464
0.00103776939705794
0.000693403433913203
0.000362727856709941
0.000100678626622203
2.32216423142963e-06
0.00250583976046922
0.00226212321128538
0.001986603507031
0.00168301000261009
0.00135858249683325
0.00102059809311965
0.000677549190676275
0.00035096429146711
9.54226237410149e-05
2.06151237570272e-06
0.00272590949534562
0.00250419850199048
0.00225060763302922
0.00196680207518203
0.00165839549850395
0.0013326457161863
0.000995906510118325
0.000656707457674342
0.000336744761122405
8.93395445633541e-05
1.77941164384034e-06
0.00292326538672705
0.0027220385331066
0.00248930342804928
0.00222541183157321
0.00193442663617877
0.001622949972924
0.00129755028635939
0.000964046787564749
0.000631075876974622
0.000319925715568769
8.23532062065885e-05
1.48438984408162e-06
0.00309901857644646
0.00291679916328849
0.00270355407520675
0.00245880716491048
0.0021854775566965
0.00188927449491603
0.00157657354223084
0.00125323925406076
0.000924968757206421
0.000600442312586952
0.000300247385895882
7.44121491199729e-05
1.1871118159442e-06
0.0032542127666773
0.00308959590224252
0.00289443375138214
0.00266766976194004
0.00241141876320787
0.0021306425588105
0.00183123648298585
0.00151895313617028
0.00119937286253536
0.000878307003816348
0.000564380505803864
0.000277290371885919
6.52730810457127e-05
8.95850813592553e-07
0.00338972189636324
0.003241372822081
0.00306293852756511
0.00285290020104243
0.00261276832861381
0.00234692498104033
0.00206080637449109
0.00175982923834368
0.00144943750623745
0.00113530190849078
0.000823445296106008
0.000522406369224874
0.000250844866247792
5.50214339869359e-05
6.24065458094018e-07
2.19415234454785e-06
9.52529744872723e-05
2.43797489161633e-06
0.000349794853669649
9.99315837483604e-05
2.7421800514815e-06
0.000680021793438432
0.000358600375854293
0.000105369410103983
2.96368845475217e-06
0.00102877902670306
0.000689747340378561
0.000367932967439071
0.000109183137679611
3.00316286423786e-06
0.00136907703830627
0.00103753250578097
0.000698408170937813
0.000374119223201626
0.000109897270694228
2.8959945342783e-06
0.00168894344856239
0.00137602239273418
0.00104292406908111
0.000702741102963506
0.0003746880467579
0.000107936047196051
2.72256190763735e-06
0.00198401804665536
0.00169411647704951
0.00137716254701237
0.0010424510081641
0.000700324774120409
0.0003699030948848
0.000104453682509395
2.52132480450998e-06
0.00225365319553576
0.00198767832784162
0.00169119479637108
0.00137063091108132
0.00103428023504594
0.00069100326707185
0.000361306738563814
0.000100108753582781
2.29554476486251e-06
0.00249864273838938
0.00225582208334581
0.00198125171697509
0.00167863222694624
0.00135516343328915
0.00101808282442651
0.000675846531501198
0.000349952619912521
9.50035997637119e-05
2.04346488593156e-06
0.0027201398277702
0.00249908694850194
0.00224620045778105
0.00196312988272727
0.0016554634618873
0.00133042740148151
0.000994339041576711
0.000655684152094075
0.000336127523542424
8.90585553609487e-05
1.76882500565901e-06
0.00291929571504498
0.00271850957061054
0.00248624708013842
0.0022228521640827
0.001932375485258
0.00162140338979028
0.0012964831601127
0.00096339964261256
0.000630733527161612
0.000319720150411206
8.22090694425438e-05
1.48022809440983e-06
0.00309720249973021
0.00291522728888033
0.00270223883682349
0.00245775596425605
0.00218469390251495
0.00188875981814664
0.00157632660546253
0.00125324960894347
0.000925198220350196
0.000600783817820821
0.000300496663044704
7.44370300984871e-05
1.18869508425194e-06
0.00325490307197664
0.00309035734727005
0.00289525471313908
0.00266853126399646
0.00241230366740913
0.00213154169692494
0.00183214996774313
0.00151988913341407
0.00120034317240938
0.000879313343194509
0.000565379994842734
0.000278152107893893
6.57070023109583e-05
9.05289286094665e-07
0.00339337924132796
0.00324495721893165
0.00306640476334129
0.00285618675888488
0.00261582625258913
0.0023497248763655
0.0020633363787794
0.00176209178716312
0.00145144714337201
0.00113708323924057
0.000825029603246232
0.000523827704974429
0.00025210895708741
5.57195911014825e-05
6.3506746206149e-07
0.00351343182252083
0.00337990137259118
0.00321664583497066
0.00302171825771503
0.00279615177338378
0.00254389065487391
0.00226999677837619
0.0019795563945739
0.00167771898045282
0.0013700242830292
0.00106243300398681
0.000761292491005012
0.000475215011789894
0.000221827560328428
4.44350798359302e-05
3.89018839149543e-07
2.10044711195374e-06
9.33232883394959e-05
2.34418669683557e-06
0.000345249584650712
9.81350738564492e-05
2.6476851923888e-06
0.000673160806646773
0.000354499972992884
0.00010370688395991
2.87288249741337e-06
0.00102012219938231
0.000683665729031219
0.000364266186211029
0.000107681415497575
2.92191352281683e-06
0.00135920523340381
0.00102996260276016
0.000693082761066657
0.000370898487472562
0.000108586654943868
2.82746911236069e-06
0.00167843827190572
0.00136751130833426
0.0010364150712304
0.000698169480857498
0.000371936714646685
0.000106830988481549
2.66694228304888e-06
0.00197342732966555
0.00168520808095549
0.00136998489525485
0.00103698762822417
0.000696509398940273
0.00036762706414099
0.000103548946339993
2.47767609017624e-06
0.00224347706431679
0.00197888635956726
0.00168385544314201
0.00136476192703838
0.00102984728590175
0.000687934274234903
0.000359490959423547
9.93909568794953e-05
2.26247583409021e-06
0.00248933313713943
0.00224762030261232
0.00197423027274576
0.00167283006098858
0.00135057347125878
0.0010146560992873
0.000673499769237031
0.000348568762733242
9.44516317825815e-05
2.01965710019876e-06
0.00271210652959314
0.0024919089411314
0.00223994389598497
0.00195784112225238
0.00165115606452362
0.00132707674140764
0.000991883667526104
0.000654025740863788
0.000335142000145988
8.86531836602506e-05
1.75313805732855e-06
0.00291291447184006
0.0027127542572069
0.00248117075624793
0.00221849702118719
0.00192876418558097
0.00161853284510744
0.00129432069729314
0.000961876796895116
0.00062973858724722
0.000319116274106698
8.19348880051125e-05
1.47126528581888e-06
0.0030928223725794
0.00291126638692306
0.00269873210695605
0.00245473238243396
0.00218217258069356
0.00188674757923621
0.00157481559572725
0.00125221116614528
0.000924568774117775
0.000600443904126259
0.00030027909498384
7.42841445830896e-05
1.18520107588452e-06
0.00325285487110199
0.00308854447984255
0.00289369008385969
0.00266722311777764
0.00241125654592087
0.00213075832491494
0.00183163181686755
0.00151963436529285
0.00120033929884511
0.000879518162990728
0.000565683547962829
0.00027835803120757
6.57055880137885e-05
9.06438618663183e-07
0.00339399394487165
0.00324564844890586
0.00306715954670898
0.00285698401592647
0.00261664623465827
0.00235055524685089
0.00206417326269255
0.00176293865017957
0.0014523132441776
0.00113797938873232
0.000825956020064412
0.000524747791590881
0.000252917466851665
5.61290235653339e-05
6.42729622871996e-07
0.00351715196275382
0.00338357057739767
0.00322021592007856
0.00302512285662633
0.00279933606037053
0.00254681940598463
0.00227265233210939
0.00198193484460642
0.00167982755069515
0.00137188027568071
0.00106406328627055
0.00076273430296346
0.000476523330020792
0.000223043948498913
4.51047314532277e-05
3.97298278239058e-07
0.00362304435783026
0.0035031054332079
0.00335374550919457
0.00317261905154164
0.00296034081205405
0.00272049152318417
0.00245780707350298
0.00217705714382274
0.00188307777191046
0.00158111072437425
0.00127698668531711
0.000977060600243489
0.000688182090759696
0.000419389498314929
0.00018758209235487
3.24880992850434e-05
1.91767215577386e-07
2.00144845616368e-06
9.12108476038577e-05
2.24431627558713e-06
0.000340197485047489
9.61530203721487e-05
2.54618886621062e-06
0.00066545898270838
0.000349899943321016
0.000101853794753792
2.77420223300673e-06
0.00101032404381049
0.000676770235449121
0.00036010870617823
0.000105988358688848
2.83238903716039e-06
0.00134792845541789
0.00102129548051943
0.000686971629876657
0.000367201960146644
0.000107090109654562
2.75079504897739e-06
0.00166629854230387
0.00135765007961515
0.00102885105688062
0.000692841071296753
0.000368727750955876
0.000105548329727762
2.6035942387597e-06
0.00196100284172633
0.0016747261308032
0.00136150951577433
0.00103051151257756
0.000691970161820607
0.000364917030377282
0.00010247885327303
2.42680616217932e-06
0.00223129311339689
0.00196832363500237
0.00167500094497311
0.00135764652049314
0.00102444466623404
0.000684176838528293
0.000357266558450742
9.8519803791717e-05
2.22304920815439e-06
0.00247786072387477
0.00223747204999313
0.00196549874190005
0.00166556983421627
0.00134478723027214
0.00101030118099228
0.000670497886043998
0.000346801921100677
9.37608467554285e-05
1.99031959348805e-06
0.00270176803231358
0.0024826245607126
0.00223180060850756
0.00195090259272094
0.00164544680193088
0.001322577410823
0.000988537037905238
0.000651739941155677
0.00033379538233383
8.81221949215619e-05
1.73262628039555e-06
0.00290409189743762
0.00270474208286336
0.00247404369821503
0.00221231617874349
0.00192356478660674
0.00161431636161434
0.00129105344642621
0.00095948960052834
0.000628126553691424
0.00031815702851912
8.15469647921291e-05
1.45812732825002e-06
0.00308586549968609
0.00290490100983904
0.00269301616087544
0.00244971592072291
0.00217789013916455
0.00188321252269357
0.00157201713350914
0.00125011037016003
0.000923091271826814
0.00059947442419399
0.00029968396267636
7.40178489148987e-05
1.17786775474507e-06
0.00324808747999447
0.00308417413665663
0.00288975387089131
0.0026637533334325
0.0024082771776651
0.00212828297283044
0.00182966274849659
0.00151815978278265
0.00119932625353914
0.000878898314876339
0.000565334508655641
0.000278118676446958
6.55424339035419e-05
9.03572345363962e-07
0.00339172272661638
0.00324360397620977
0.0030653548602992
0.0028554275235118
0.00261534288749857
0.00234950840795621
0.00206338544545309
0.0017624107165861
0.00145204161724567
0.00113794832086037
0.000826119564806049
0.000524997464071689
0.000253068573921732
5.61014678804991e-05
6.4358031528223e-07
0.0035176845305767
0.00338418622484957
0.00322090009587554
0.00302585198699261
0.00280008754818083
0.00254757797560267
0.00227341098931304
0.001982693346249
0.00168059093896201
0.00137265766888402
0.00106486432436597
0.000763560085824066
0.000477350872402861
0.000223798220698271
4.54884538134083e-05
4.03124629696096e-07
0.00362680393322059
0.00350683753853679
0.00335739902860344
0.00317612253398849
0.00296363361525026
0.00272353231557444
0.00246057278285733
0.00217953859978782
0.00188527649162098
0.00158303726929345
0.0012786609166122
0.000978513698955848
0.000689463206846344
0.000420583612875936
0.000188767860567531
3.30974669988015e-05
1.9681625813833e-07
0.00371970303324263
0.0036122620648785
0.00347564992887891
0.00330714856743766
0.00310698884674832
0.00287842988423492
0.00262591443583378
0.00235390354594908
0.00206691184956812
0.00176985338982732
0.00146823586908314
0.00116825069640937
0.000876742170540575
0.000601315944444114
0.000352052882617045
0.000146055756392553
1.9322784930478e-05
6.21771653027121e-08
1.89766227331263e-06
8.89097613885793e-05
2.1386001815333e-06
0.000334627380782056
9.39846674768683e-05
2.43799928415812e-06
0.000656888001233142
0.000344788143960121
9.98093424986786e-05
2.6681781199144e-06
0.000999337449026164
0.000669030645272714
0.000355446941535501
0.000104103561413409
2.73525405466433e-06
0.00133518627913967
0.00101148609007451
0.000680044128222382
0.000363013496285572
0.000105405023326836
2.66653583900052e-06
0.00165245681581369
0.00134638523103936
0.00102019079510203
0.000686727183941225
0.000365045493734689
0.000104084925107335
2.53293663556742e-06
0.0019466753490999
0.00166261302992787
0.00135168951609467
0.00102298530678053
0.000686679304123238
0.000361755798961722
0.000101238014738086
2.36909821605583e-06
0.00221703431857283
0.00195593202993814
0.00166458227854655
0.00134924444693348
0.00101803979315949
0.000679705797015617
0.000354618275019392
9.74903041532317e-05
2.17736286664669e-06
0.00246416353870641
0.00222532179335989
0.00195500867550088
0.00165681074959337
0.00133777188095055
0.00100499263653675
0.000666821663135346
0.00034463958755715
9.2926860000405e-05
1.95555923377519e-06
0.00268907054363154
0.00247118379756165
0.00222172518624776
0.00194227452878291
0.00163830297167145
0.00131690512112494
0.000984283390639227
0.000648817288551426
0.000332081593759654
8.74636731783556e-05
1.70741181818635e-06
0.00289278543632006
0.00269443168149638
0.00246482636854544
0.00220427288969394
0.00191674491998877
0.00160872856227686
0.0012866665305721
0.000956236560076481
0.000625907284428353
0.000316851690274781
8.10444683177187e-05
1.44101592597398e-06
0.00307630301414364
0.00289610181568589
0.00268506109278586
0.00244267642447828
0.00217181692851487
0.00187812738764119
0.00156791023432383
0.00124693916555116
0.000920778654329919
0.000597911363852805
0.00029875335646828
7.36488899168154e-05
1.16718794173054e-06
0.00324059128159543
0.0030772346632783
0.00288343218041446
0.00265810513585012
0.00240334535713058
0.00212409226039932
0.00182621771939056
0.0015154425123872
0.001197291332966
0.000877465835104268
0.000564387321842482
0.000277530131719463
6.52827584526356e-05
8.97716329605196e-07
0.00338659052755457
0.00323884732438475
0.00306101189681376
0.00285153281702775
0.00261192380950592
0.00234658314060545
0.00206096253683004
0.0017604881086889
0.00145060308771374
0.00113695605321675
0.000825501087732159
0.000524631213796261
0.000252802163563533
5.59300737646764e-05
6.41318896732526e-07
0.00351519777836591
0.00338191911187788
0.00321886495893874
0.0030240569163747
0.00279853732482242
0.00254627610166114
0.00227236044817683
0.00198189603341932
0.00168004617883939
0.00137235930771766
0.00106479332293388
0.000763669304421385
0.000477538698926006
0.000223900088338923
4.54401397017284e-05
4.03700360754785e-07
0.00362724589115719
0.00350737107161196
0.00335800745342249
0.00317677960726063
0.00296431351082811
0.00272421667291098
0.00246125175985059
0.00218020909572874
0.00188594027234411
0.00158369985027983
0.00127933122716136
0.000979202173525363
0.000690177570335055
0.000421324043769444
0.000189488194188693
3.34391801915232e-05
2.00636083283906e-07
0.00372347696858236
0.00361603370896904
0.00347936527152224
0.00331073113255798
0.00311037204154325
0.00288156611301294
0.00262877504012572
0.00235647441544409
0.00206918983743108
0.00177184400288792
0.00146995259290106
0.00116971774457693
0.000878000467011786
0.000602435868130279
0.00035315661382407
0.000147219777185996
1.98072088329842e-05
6.43376410771312e-08
0.00380441774165955
0.00370851471131194
0.00358363859205478
0.00342672532510274
0.00323764740686282
0.00301936692089101
0.00277605534392608
0.0025118737380797
0.00223100593836669
0.00193802154313774
0.00163806332905602
0.0013369404386359
0.0010412298655864
0.000758367678912813
0.000497111508247012
0.000269755096072158
9.54983112526527e-05
7.11231116126462e-06
1.07814578499281e-08
1.78973565561166e-06
8.63807420188453e-05
2.02703522337062e-06
0.000328502148788144
9.16307533633839e-05
2.32352289131638e-06
0.000647420384708019
0.000339156655086336
9.75734492133408e-05
2.55510568592346e-06
0.000987111886300373
0.000660418621512795
0.000350269505678095
0.000102025131988587
2.63082480534828e-06
0.00132091203152916
0.00100048703028403
0.000672271225678203
0.000358320505378888
0.000103529522057296
2.57510764147672e-06
0.00163683667258652
0.00133365670918378
0.00101038991039635
0.00067979886362741
0.000360875890111145
0.000102438752680874
2.45540488150928e-06
0.00193036448487632
0.00164880192100522
0.00134047171310049
0.0010143685912998
0.000680609452296225
0.000358129400613355
9.9823713706104e-05
2.30487817313735e-06
0.00220062052676593
0.00194164275154626
0.00165254212428329
0.00133950917883187
0.00101059607967585
0.000674494463822753
0.000351530091551991
9.62988372213372e-05
2.12567265172333e-06
0.0024481661035544
0.00221110267857262
0.00194270233586345
0.00164650431842733
0.0013294877509921
0.000998698823161744
0.000662447504697501
0.000342066586598117
9.19443657844759e-05
1.9154497082556e-06
0.00267394636979699
0.00245752490549508
0.00220966254303671
0.00193190917904851
0.00162968467313928
0.00131002797197229
0.000979098260633345
0.000645240015254202
0.000329989454726664
8.66727186484954e-05
1.67760369717657e-06
0.00287893823257468
0.00268176948555943
0.00245346919739253
0.00219432242846026
0.00190826576388634
0.00160173790421415
0.00128113693455136
0.000952103618417717
0.000623074442426162
0.000315198095394132
8.0423535917068e-05
1.41998329257177e-06
0.00306409194571147
0.00288482646466166
0.0026748259407188
0.00243357495534585
0.00216391699275483
0.00187146080932367
0.00156247080325447
0.00124268427453143
0.000917631407652688
0.000595766602488959
0.000297497304806258
7.31763353487568e-05
1.1533388094138e-06
0.00323033938713935
0.00306769800507881
0.00287469635530951
0.0026502492687702