/*--------------------------------*- C++ -*----------------------------------*\
  =========                 |
  \\      /  F ield         | OpenFOAM: The Open Source CFD Toolbox
   \\    /   O peration     | Website:  https://openfoam.org
    \\  /    A nd           | Version:  12
     \\/     M anipulation  |
\*---------------------------------------------------------------------------*/
/*   Windows 32 and 64 bit porting by blueCAPE: http://www.bluecape.com.pt   *\
|  Based on Windows porting (2.0.x v4) by Symscape: http://www.symscape.com   |
\*---------------------------------------------------------------------------*/
FoamFile
{
    format      ascii;
    class       volScalarField;
    location    "600";
    object      omega;
}
// * * * * * * * * * * * * * * * * * * * * * * * * * * * * * * * * * * * * * //

dimensions      [0 0 -1 0 0 0 0];

internalField   nonuniform List<scalar> 
10068
(
2.46683683998502
2.46683818538162
0.552564582485161
2.38166593315721
2.46684523249578
0.551682385051726
2.3816771757778
0.278830471451171
0.538276395144076
2.28698514551086
2.46684443991464
0.550952802320133
2.38168113103689
0.278554697092986
0.537398803683094
2.2869956207504
0.194550654458527
0.275011940978718
0.521171918950255
2.21611134704557
2.46684094122156
0.550565512840141
2.38168004091763
0.278190236090573
0.536690849388353
2.28699532346001
0.194444637888859
0.274738875553986
0.520274591055918
2.21610975363103
0.157070615384135
0.193244905739305
0.26960392176645
0.507575638215723
2.18722197064603
2.46684043373594
0.550058551463919
2.38167794855079
0.277809082645182
0.536337643817442
2.28699493440643
0.194227796646027
0.27437810959711
0.519576078428806
2.2161087422714
0.157018092374654
0.193140188718373
0.269328103525784
0.506651199083197
2.18721968060057
0.137037163353294
0.156569302507916
0.191070711806973
0.264467231273667
0.49983931068465
2.18619544350155
2.46684337501648
0.549343089468346
2.38167798706467
0.277334060846601
0.535860250110551
2.2869944390832
0.193930125496065
0.274002299212732
0.519252086444378
2.21610834368018
0.156866574806702
0.192923758513571
0.268972091775127
0.505930602511884
2.18721873502843
0.137004033589656
0.156517923678763
0.190965087101533
0.26418204696877
0.498881386308796
2.18619397466643
0.125166281963389
0.13683109127397
0.155556332961006
0.188594951331844
0.260494124510126
0.495834865802044
2.19192955382687
2.46684015814959
0.548400341375488
2.38167985509075
0.276727096973141
0.535180774453114
2.28699401889327
0.193540848116878
0.273533973102017
0.518820322342154
2.21610824685199
0.156627250033265
0.192627363455709
0.268605502315184
0.505639304543832
2.1872182804528
0.136883441108369
0.156366549406478
0.19074931102819
0.263823116137734
0.498134231311743
2.1861930674093
0.12514059379868
0.13679919127879
0.155504731834727
0.188485461668957
0.260194398522861
0.494828739257364
2.19193189178483
0.117687472635221
0.125064175927139
0.136291878649647
0.154198367576421
0.186212636136966
0.257342764120809
0.492407926901783
2.19485294959253
2.4668373554342
0.547242980039604
2.38168875067277
0.275972224438678
0.53427429111893
2.28699246124887
0.193047331187093
0.272936739081679
0.518180325531622
2.21610790901664
0.156299855634059
0.192240293789416
0.268149684894688
0.505242467106176
2.18721838962744
0.136679425425483
0.156127636217806
0.190455377415094
0.263464166846228
0.497858119044567
2.18619244192416
0.125035794738892
0.136678797438955
0.155353250021046
0.188268164993542
0.259827034143208
0.494054195568198
2.19192870397235
0.117664444999834
0.125039812149932
0.136260294798294
0.15414504136555
0.186096905079954
0.2570239459694
0.491334189324794
2.19485741541291
0.112808128155359
0.117618787097304
0.124723090546209
0.13546067886364
0.152668311292814
0.18394245384259
0.254246381747369
0.487955221911668
2.1951261809074
2.46683786431622
0.545876344882339
2.38167581369062
0.275065874185746
0.533151543251832
2.28700209006612
0.192441685955098
0.272192581231368
0.517308685743577
2.21610621533224
0.155880892822903
0.191749952060384
0.267566838072494
0.504634741494354
2.18721847560258
0.136392654324281
0.155801033238153
0.190072436820245
0.263019318735921
0.497482038902482
2.18619276355117
0.124853252606019
0.13647495025633
0.155115047213166
0.187975940874595
0.259470208300148
0.493787633722143
2.19192570555882
0.117568316078523
0.1249353056684
0.136139954192839
0.153992652407607
0.185875786489231
0.256644853997043
0.49052752014834
2.19485159244767
0.112785611736281
0.117597148046625
0.124699444926578
0.135428558044718
0.152612186624958
0.183818937411735
0.253905554326485
0.486806816194082
2.19513057495491
0.109580990116695
0.112752270184586
0.117363781464648
0.124153999929659
0.134421426160027
0.151046399287752
0.181605057994452
0.250720148882659
0.482308872236531
2.19480463381858
2.466841259577
0.544311253539627
2.38167868737284
0.27400917487395
0.531820362262182
2.28697915840407
0.191720709236057
0.271298041341381
0.516220265141092
2.21610195710443
0.155367346570921
0.191148180142653
0.266838417991087
0.503791937630372
2.18721625131301
0.13602250075629
0.155383266196077
0.189587766794489
0.262449536549312
0.496896441083654
2.18619352947123
0.124593314025181
0.136188495505322
0.154790077995004
0.187597094699076
0.259031942985329
0.493427446973383
2.19192822382158
0.117399381837348
0.124752914646756
0.135936474419129
0.153754966689693
0.185583607818608
0.256287139917596
0.49027486243069
2.19484598445933
0.112694471282344
0.117501393111391
0.12459526884478
0.135307997174912
0.152458113483127
0.183592648657289
0.253512975791096
0.485962050055124
2.19512417386355
0.109557853490941
0.112731179813269
0.117343124474978
0.124130566035816
0.134388292499578
0.150986980184848
0.181473344779643
0.250356994581013
0.481071071011723
2.19480689705106
0.107462488183552
0.109534439266745
0.11254291669863
0.116937482746955
0.123412771763796
0.133256493896488
0.149331808184467
0.179054528534333
0.246623686644135
0.475670480168466
2.19480229569329
2.46684321754498
0.542542084106596
2.38168069544908
0.272801879441321
0.530290118205832
2.28699600402422
0.190883589623899
0.27025356020487
0.514925308624359
2.21609414455545
0.154757644867662
0.190431749077303
0.265961323602594
0.502732148723523
2.18721434933317
0.135568069323349
0.154871283986725
0.188992982664149
0.261736082346647
0.496074609518753
2.18619226598453
0.124256041758699
0.135818813459663
0.154374823554855
0.187118534661473
0.25847165224191
0.49285745753405
2.19192979258896
0.117157603323225
0.124493143245014
0.135650848980821
0.153431936702679
0.185207788526994
0.255853245244968
0.489934413498468
2.19485080486594
0.112534471848954
0.117332642145715
0.124413275125594
0.135104975681512
0.152220565026694
0.183299583877815
0.253154147422741
0.485722976895669
2.19511812299403
0.109469549301161
0.112640465830833
0.117247912556695
0.12402670680173
0.13426732647889
0.150830900485046
0.181241657355974
0.249950779765218
0.480188489784238
2.19479832163044
0.107438021880676
0.109512755169661
0.112522975002481
0.116917510446113
0.123389367810514
0.133222245106455
0.149269179696632
0.178915210201392
0.246237494688688
0.474320743932851
2.19480464668431
0.106117132287646
0.107425620057492
0.10935806154477
0.112208358057849
0.116392770898305
0.122576015164303
0.13202087928668
0.147510859600737
0.176240545633062
0.241960328586341
0.468130943158497
2.19513011128507
2.46684006920216
0.540560606166773
2.38167915310776
0.271442457549778
0.528555931938175
2.2869973901579
0.189929809793642
0.26905957811578
0.513433666887426
2.21611020680488
0.15405101560529
0.18959971355292
0.264935859614112
0.501472372693712
2.18721773344657
0.135028695784998
0.154263431826253
0.188284708583301
0.260876022301828
0.495038179106629
2.18619302824926
0.123841338036265
0.135365001817001
0.153866115535232
0.1865315867677
0.257769751272577
0.492050167819501
2.19193255131371
0.116843171861143
0.124156098054987
0.135282439374183
0.15301989367626
0.184734610412746
0.255300440798709
0.48938203737223
2.19485314578327
0.112305331169308
0.117091019972471
0.124154098192582
0.134820572313814
0.151899447714236
0.182926274898495
0.252725334374515
0.485403044487128
2.19512323872234
0.109315535484299
0.112480692636757
0.117079652569421
0.123845338666559
0.134064834118576
0.150593409679405
0.180947857510792
0.249591367212691
0.479961177778966
2.19479230096309
0.107351141038271
0.109424913535988
0.112432940020635
0.116822968848386
0.123285880955214
0.13310092727248
0.149111326789441
0.178678931254236
0.245819909534397
0.473398194313176
2.19480258600432
0.106090814503951
0.107402628426292
0.109337639230207
0.11218940524871
0.116373472978829
0.122552717978624
0.131985737760868
0.147445613882766
0.17609472043964
0.241550628103895
0.46664829635364
2.19512597727103
0.105324012002419
0.106090273376923
0.107278149866898
0.109093278665641
0.111807243083602
0.11580265324775
0.121713836258486
0.130756619954666
0.145599973237207
0.173184283920277
0.236760720652731
0.459643041267153
2.19485513046577
2.46683949517432
0.538371995236966
2.38167602918766
0.269929347304503
0.526615341769776
2.28699441993872
0.188858646326074
0.267714742110757
0.511735032712767
2.216110871224
0.153246982064637
0.188651579247193
0.263762426299813
0.500015451263246
2.18721976470029
0.1344039647911
0.153558923589586
0.187461787396678
0.259870067212385
0.493800430416539
2.18619246702189
0.123349023754896
0.134826382821998
0.15326217113619
0.185832632414388
0.256923584059611
0.491026774767355
2.19192973869256
0.116456229407083
0.123741672399816
0.134830284543387
0.152515472949193
0.18415491399905
0.254607824915048
0.488591716369578
2.19485851733039
0.112007180472533
0.116776747931876
0.12381785304053
0.13445408606341
0.151490841391767
0.182458105884031
0.25218064934041
0.484873122903944
2.19512811962
0.109095329149542
0.112251719229717
0.116838585866513
0.12358716360459
0.133781945931307
0.150274340710381
0.180577537408028
0.24916883240297
0.47966701584416
2.19479756934893
0.10720107736449
0.109271148171337
0.112273735610689
0.116655493962087
0.123105365151257
0.132899170972077
0.148874292171954
0.178385370517318
0.245462406748869
0.473197824645347
2.19479693971644
0.106004324859252
0.107316233763595
0.109250561607392
0.112100260221437
0.116279771265261
0.122449789994969
0.131864400558678
0.147286762989383
0.175855852697254
0.24112609152253
0.465664954972609
2.19512400803879
0.105295419929653
0.10606545241244
0.107256502542982
0.109074055477878
0.111789387121697
0.115784215623808
0.121690925652718
0.130721106651997
0.145533127772028
0.173033793679262
0.236328365303392
0.457968881504718
2.19485278168063
0.1049297050628
0.105306826542408
0.105969405347646
0.107072168377134
0.108806538081547
0.111412074322817
0.11523998390147
0.120891904024659
0.129521960230384
0.143663331041318
0.169963027296814
0.231069651057478
0.450019481743537
2.19192953800729
2.46684120423287
0.535975478592626
2.38167932534217
0.268263765084063
0.524477642070746
2.28699279764478
0.187669409921551
0.266218732111791
0.509849984382799
2.21610787293245
0.1523450747105
0.187586699506365
0.262440028945561
0.498353546849917
2.18722121319523
0.13369356929223
0.152757271416889
0.186523664616343
0.258717692665558
0.492358386592094
2.18619256197444
0.122778926902477
0.134202517619587
0.15256210254738
0.185020337373066
0.255933098352402
0.489805498551648
2.1919279405079
0.115996823430055
0.1232496823454
0.134293647744441
0.15191670562795
0.183464818763591
0.253772530553769
0.487584013039477
2.19485350026034
0.111640227783827
0.116389974355315
0.12340440620978
0.134004451728145
0.150991104495852
0.181885270022526
0.25149859975128
0.484110759778567
2.1951298275127
0.108808994738966
0.111953715976515
0.116524946822311
0.123252273464035
0.133417858315016
0.149869431856276
0.18011505426568
0.248635116792056
0.479165019848519
2.19480250903702
0.106987202093396
0.109051121915815
0.112045322280893
0.116415372950959
0.122848553869436
0.13261813588046
0.148557808527923
0.178019269444014
0.245049370768981
0.47293789646055
2.1948022990897
0.105856717651314
0.107166432366516
0.1090974103271
0.111941946126419
0.116113355816387
0.122270405069423
0.131663806777649
0.147051063112215
0.17556469605004
0.240778044658317
0.465507968998073
2.1951186532329
0.105208520104285
0.105979466814013
0.107170926841274
0.10898800573713
0.111701366551982
0.115691596593969
0.121588893611025
0.130600374573465
0.145374641267714
0.172795675588446
0.235900675254734
0.456899621378213
2.19485091981598
0.104898479427666
0.105279753036811
0.105945995141165
0.107051879534571
0.108788711232701
0.111395584901378
0.115222732841367
0.120869853947375
0.129486884215141
0.143596380565333
0.169810544743096
0.230611212787773
0.448107446973399
2.19192921999986
0.104823221826291
0.104921412164964
0.105210211486736
0.105814986463303
0.10688149669605
0.108571878300424
0.111095954552068
0.114780719362009
0.12019361167907
0.128417565764381
0.141830864034951
0.166731583735929
0.224991382818135
0.439135214934591
2.18619138570763
2.46684000030144
0.533362446642481
2.38167743508778
0.266446314489115
0.52213222117223
2.2869933173867
0.186362154103218
0.264572938282085
0.507757498727819
2.21610643245199
0.151344846155486
0.186404661821781
0.260970567611161
0.496509010986483
2.18721790135656
0.132897186119177
0.15185802627531
0.185469889234241
0.257419030835505
0.490735986756912
2.18619566097493
0.122130903957184
0.133493080040414
0.151765381956537
0.18409400050233
0.254797824556974
0.48838917390493
2.19192506051579
0.115464959556195
0.122679947782599
0.133672039924559
0.151222570878993
0.182662747024813
0.252795321514081
0.486376481848606
2.19485112906194
0.111204629087115
0.115930745947385
0.122913547338022
0.13347083429707
0.150398056116726
0.18120358769191
0.250675476655777
0.483119148793153
2.19512677461546
0.108456739517691
0.111586898047517
0.116138875445558
0.122840484303634
0.132971364534677
0.14937470809978
0.179549956148638
0.247967514198762
0.478425727854065
2.19480620983895
0.106709498432909
0.108764928330402
0.111747886287151
0.116102829253648
0.122515492932213
0.132256884165162
0.148157237919092
0.177564120614137
0.244530354218432
0.472466610566623
2.19480496633137
0.105647235779854
0.106952736771057
0.108877945635444
0.1117144564341
0.115874522631438
0.122015312101445
0.131385123104327
0.146738131887511
0.175205034272862
0.240380394350747
0.465301078582833
2.19512401637889
0.105062213135083
0.105832127674621
0.107021761757736
0.108835802129146
0.111544227114201
0.115526521038292
0.121411019354594
0.130401625740115
0.145141737109725
0.172510874456059
0.235570712780709
0.456818107012272
2.19484773371416
0.104810520202344
0.105193370044033
0.105860868644718
0.10696742342847
0.10870396763808
0.111308964398089
0.115131526179927
0.120769226216097
0.129367697966373
0.143440247478186
0.169577225040077
0.230183578644064
0.446956034861977
2.1919279559253
0.10478904932789
0.104891725923927
0.105184604916679
0.105793060422125
0.106862835635431
0.108555788355623
0.111081205322334
0.114765119602692
0.120173106130762
0.1283840466521
0.141765695875778
0.166579177640788
0.224500478430425
0.436970424393476
2.18619278453803
0.104921821168634
0.104822865973822
0.10484648020504
0.105101330838456
0.105707112385746
0.106782600534658
0.108462824114426
0.110940025764632
0.114523538649475
0.119746333388246
0.127616055023663
0.140340084271735
0.163799148005589
0.218846608995867
0.427590519125118
2.18721550682668
2.46683894233312
0.530534532062044
2.38167675438085
0.264474193010846
0.519573925669945
2.28699348150497
0.18493651549806
0.262776852826565
0.505462670357697
2.21610707480946
0.150245972166131
0.185105440950638
0.259353048663414
0.494458643366336
2.18721562907691
0.132014602072648
0.150860792123581
0.184300421037161
0.255976543143735
0.488911340674641
2.18619244981568
0.121404858732347
0.132697776136309
0.150871605178002
0.18305349633961
0.253520628006491
0.486777154148363
2.19193097897411
0.114860662522537
0.122032318304808
0.132965109285439
0.150432486245723
0.18174807363697
0.251676623583497
0.484977288811939
2.19484581107146
0.110700519014561
0.115399063283531
0.122345075054768
0.132852673069281
0.149710539199039
0.180411539129137
0.249712620650056
0.481933296247341
2.19512425108949
0.108038779307866
0.111151422640509
0.115680407776659
0.122351538446233
0.13244150727916
0.148787769811509
0.178877673403745
0.247160632905395
0.477470202540625
2.19480495026294
0.106368164079368
0.108412786733395
0.111381641161649
0.115717978467057
0.12210592677145
0.131814041080199
0.147668251680951
0.177008784607034
0.243881044654576
0.471764771162506
2.19480815871563
0.105375792753879
0.10667516265684
0.108592274592772
0.111417969220408
0.115563465834986
0.121684493432291
0.131027256983684
0.146342976812231
0.174759586343387
0.239880376989712
0.464877774707835
2.19512648022011
0.104855628646356
0.105622819375797
0.106808615042935
0.108617232425421
0.11131795766912
0.115289279236338
0.121158052110796
0.130126004568791
0.144833809608007
0.172161069014879
0.235196806098058
0.456698755601515
2.19485076709353
0.104664584841451
0.1050473326369
0.105714173672817
0.106819231384085
0.108552993078409
0.111153261995027
0.114968113085684
0.120593377681028
0.129171764226804
0.143212260917671
0.16930335922953
0.229881302228179
0.44699613905622
2.19192713703308
0.104699489505434
0.10480429335301
0.10509910892419
0.105709119001701
0.106779809500863
0.108472650619823
0.110996311230094
0.114675761545652
0.120074576449
0.12826764995949
0.141614263484333
0.16635450638388
0.224076132299005
0.435746509764155
2.18619261248582
0.104884425113707
0.104790252726725
0.104818308525651
0.105077313453225
0.105687004595865
0.106765968067344
0.108448891856518
0.110927493891014
0.114510212964664
0.119728276967819
0.127585440091523
0.140278379647254
0.163646778272734
0.21831240214163
0.425140559096413
2.18721754078353
0.105162447991363
0.10492843169839
0.104767012800185
0.104777651881069
0.105065493439298
0.10572480784257
0.10684988944568
0.108563838493964
0.111052762163643
0.114614663397203
0.119754656500194
0.12741428630926
0.139632641604791
0.161825550637509
0.213624808551846
0.418314829459383
2.21610560966242
2.46684328790383
0.527492617317944
2.38167735990941
0.262343416742408
0.516805406141401
2.28699337777883
0.183391332204314
0.260827588419935
0.502964269569273
2.21610737353675
0.149048090917854
0.183688608489255
0.257586973035471
0.492209994310468
2.18721741858098
0.131045642797233
0.149765240479979
0.183014988478092
0.254388259419846
0.486889660397419
2.18619090758736
0.120600781923709
0.131816378109689
0.149880449968859
0.181898988881773
0.252100916764377
0.484972099925052
2.19192846762193
0.114184034182771
0.121306694183407
0.132172572914392
0.149546112723597
0.180721061721356
0.250417408509001
0.483382936547119
2.19485249161929
0.110128077307282
0.11479494501246
0.121698824698643
0.132149580014065
0.148927953714823
0.179508687025153
0.248610979603759
0.48055420235288
2.19511872030849
0.107555349084519
0.110647420549501
0.115149533459293
0.121785196711473
0.131827642048243
0.148107379959805
0.17809673937976
0.24621627465818
0.476315855862978
2.19480220474518
0.105963453210395
0.107994914204299
0.110946739791997
0.115260832684922
0.12161953037591
0.131288514593379
0.147088214926804
0.176348193444796
0.243096215339343
0.47085307840018
2.194800143637
0.105042570202956
0.106333917151182
0.10824061758333
0.111052683803399
0.115180260678799
0.121277604001277
0.130588649468036
0.145860914027737
0.174216561967419
0.239254021744394
0.464222878480077
2.19513152157042
0.104588616640171
0.105351488202784
0.106531516145436
0.108332395692929
0.111022711838636
0.114980023597247
0.120829893939442
0.129772250439632
0.144445518314387
0.171728137960726
0.234722058715977
0.456344061345455
2.19485284636983
0.104459706294113
0.104840911481471
0.105505391389279
0.106606937528317
0.108335566293371
0.11092844916727
0.114732766737922
0.120343036550901
0.128900140336189
0.142911253917036
0.168967418846892
0.229540399368086
0.447006299051512
2.19192752941128
0.104553165145621
0.104658627027467
0.104953714825806
0.105563403038388
0.106632864574268
0.108323146357152
0.110842316894749
0.114514402314104
0.119901414584061
0.128075761609307
0.141393555863747
0.166095839589746
0.223812357835768
0.435963891914568
2.18619390161759
0.10479280615939
0.104701227391898
0.104731782515816
0.104993053808483
0.105604583625467
0.106684691318979
0.108367687297899
0.110844720290639
0.114423258042607
0.119632707228227
0.127473220137537
0.140133722141499
0.163432477608043
0.21788935853539
0.423852777015247
2.18721857164121
0.105121585746496
0.10489261339696
0.104735954906679
0.104751157565511
0.105043452396653
0.105706971690536
0.106835750827908
0.108552563949634
0.111043048022659
0.114604409213357
0.119740130313774
0.127387817369442
0.139574719416145
0.161667451383243
0.213014249991075
0.415568231157366
2.21610688980994
0.105496266497126
0.105175111796965
0.104889182041385
0.104733174889639
0.104804570892485
0.105184037216346
0.105943578394841
0.107170376138328
0.108990146780326
0.111593708034509
0.115282020599792
0.120557745047685
0.128341284312364
0.140578819519455
0.162339824027824
0.212279633102853
0.419526842383198
2.2870039387159
2.46684219337824
0.524263097670922
2.38167967557201
0.260049287941935
0.51381985490455
2.2870064975705
0.181724272197937
0.258721061894247
0.500263779854128
2.21610716929442
0.147750577405557
0.182152772809423
0.255669276100216
0.489761730935815
2.18721751437057
0.129990248111604
0.148570951792896
0.18161290004341
0.252652992381543
0.484674769141925
2.18619230875787
0.119718838379303
0.130848721683731
0.148791554843995
0.180629927105551
0.250537734436238
0.482977159848073
2.19192892028298
0.113435333077044
0.12050307086073
0.131294206709527
0.148563174407476
0.17958160646183
0.249018169963296
0.48160143214942
2.19485207413089
0.109487601449793
0.114118489554508
0.120974690664904
0.131361271977022
0.148050010915224
0.178495102964488
0.247370915285618
0.478987892383757
2.19512372056358
0.107006768595883
0.110075065221602
0.11454626082261
0.121141268413814
0.131129339996483
0.147332930403055
0.177206748786604
0.245134892840767
0.474969353689666
2.19479661756823
0.105495684043721
0.107511542427781
0.110443305687102
0.114731359028357
0.121056011386091
0.130679574504967
0.146415798879353
0.17558062395316
0.242175334373906
0.469739499050523
2.19479707530322
0.104647852177581
0.105929256565518
0.107823189639958
0.110618738376684
0.114724878514799
0.120794235249978
0.130068058773876
0.145289040817258
0.173570422289006
0.238495218505912
0.463357507997193
2.19512552922416
0.104261345036683
0.10501832490603
0.106190673412989
0.107981501537736
0.110658660573545
0.11459877395584
0.120426094498086
0.129338609549041
0.143971840175771
0.171199973452082
0.234122797283957
0.455760439261484
2.19485588205261
0.104195677941382
0.104573991017275
0.105234482526457
0.106330563952177
0.108051762884133
0.110634644690272
0.114425585598428
0.120018005214044
0.128551376562444
0.142531473877501
0.16855004768233
0.229097477895252
0.446759395223034
2.1919287875397
0.104349026217742
0.104453900295292
0.104747790845081
0.105355421576878
0.106421625661169
0.108107033087114
0.110619168877677
0.11428128291097
0.119654288357998
0.127809228648439
0.14110149223404
0.165777343343394
0.223514403700364
0.436145817691868
2.18619245461413
0.10464546284032
0.104555169452432
0.104586754912279
0.104848633144971
0.105460111411776
0.106539213899862
0.108219881175369
0.110692734819846
0.114264414357277
0.119462992755345
0.127286645734963
0.139922260218408
0.163191856264535
0.217669412196084
0.424307063109309
2.18722093687263
0.105027515692063
0.10480153492232
0.104647850466056
0.104665903813157
0.104960782382054
0.105626406496119
0.106756553766058
0.108473661760874
0.110962866039123
0.114520513601047
0.119648437852143
0.127280878279962
0.139437273299058
0.161459299649676
0.212575311117929
0.414284198591467
2.21610874385065
0.105451723858944
0.105135843784674
0.104854954640188
0.104703867681933
0.104780187292775
0.105164476301474
0.105928518535204
0.107159257755092
0.108982128543714
0.111587556220235
0.115275792641607
0.120547797756415
0.128319276646045
0.140521018725306
0.162156146705833
0.211526025890845
0.416258612764652
2.28699341886412
0.105885012628155
0.105514153246655
0.105150200809361
0.104885721793539
0.104814662285049
0.105010555616323
0.10553353867267
0.106452535265371
0.107864255360583
0.10991091625742
0.112807780821889
0.116895033277999
0.122743622193202
0.131398852024731
0.145046339802592
0.169234036652981
0.224098503765306
0.459796119153171
2.38169009876714
2.46684129943592
0.520986666963008
2.38167825306219
0.257603714782511
0.51060062013822
2.28699528408552
0.179932379013926
0.256450374857168
0.497346727018817
2.21611929462718
0.146352724317644
0.180495559315243
0.253595467971364
0.4871129904656
2.18721712726033
0.128848457007547
0.14727729134317
0.180092444543933
0.250767258260117
0.482268861150115
2.18619201784897
0.118759378982061
0.129794722970702
0.147604411158301
0.179245194943546
0.248828940299845
0.480795407363775
2.19192866619306
0.112615029462792
0.119621595557922
0.130329834557979
0.147483225079807
0.178328900377853
0.247477365302372
0.479637537403804
2.19485299997024
0.108779595360329
0.113369945236617
0.120172662033247
0.130487516325955
0.147076373960524
0.177370522710539
0.245992732508053
0.477240113570888
2.19512564186184
0.106393520268859
0.109434649190958
0.113870678536484
0.120419630665985
0.13034629582908
0.146464065430184
0.176207520374499
0.243917309376545
0.473440406405295
2.19480182119916
0.104965302942339
0.106962984772446
0.109871502594556
0.114129544471302
0.120415137856274
0.129986738306234
0.145650327030089
0.174705461418179
0.241118671986541
0.468436751323766
2.19479140115805
0.104192029288566
0.105461496017917
0.107340216228657
0.110116239864682
0.114197248580326
0.12023402569618
0.12946465380445
0.144625831999543
0.172818800790626
0.2376017866763
0.462299845376287
2.19512246750347
0.103874122023232
0.104623615863741
0.105786341492705
0.107564753862705
0.110225913051499
0.114145444018378
0.119946145026413
0.128823669772001
0.143409574859967
0.170570563559498
0.233392877344136
0.454969818302046
2.19485247127043
0.103872651880908
0.104246746599905
0.104901638978364
0.105990309347895
0.107701768973113
0.110271977655596
0.114046518649705
0.119617711972963
0.12812351421109
0.142067618608166
0.168038976601645
0.228531791846253
0.446275919784553
2.19192962612906
0.104086812989404
0.104189941359703
0.104481236897687
0.105085129048529
0.106146092861324
0.10782435436917
0.11032694072536
0.113976431588871
0.119332877644415
0.127466367718592
0.140731799825709
0.165378197742094
0.223111787764602
0.43604276195666
2.18619251269182
0.104441268181203
0.104351169769621
0.104382494078723
0.1046434524198
0.105253090390081
0.106329140746395
0.108005204669912
0.110471448307739
0.114033868020933
0.119219691942268
0.127026233013659
0.139640713438776
0.16289334023634
0.217420740002199
0.424728624854038
2.18721956662607
0.104878624153072
0.104654453941431
0.104502423590913
0.104521836952393
0.104817589234
0.105483378720662
0.106612735294623
0.10832778546701
0.110813215859824
0.114364674366644
0.119482883169145
0.127100506135835
0.139235650069665
0.161235213407748
0.212402740265182
0.415055084888364
2.21611060402013
0.105354865242094
0.105042318633505
0.104764807444065
0.104617060718918
0.10469657830993
0.105083743617909
0.105850142514057
0.107082493836238
0.108905947174229
0.111510500889232
0.115195636110084
0.120460656009041
0.128217475563966
0.140386699230143
0.161936549642875
0.211044310332909
0.41496124008776
2.2869949506994
0.105836600667306
0.10547121982032
0.105112553195544
0.104853305625109
0.104787578607028
0.104988828087236
0.105516997361888
0.106440804574729
0.107856764343487
0.10990687498658
0.112806079464193
0.116893809579155
0.122738653193203
0.131378703862741
0.144974531694158
0.168966300568954
0.223093150412024
0.456584778613227
2.38167839879971
0.106298477120494
0.105907378043327
0.105501550940046
0.105172970769614
0.105014502807455
0.105096436762894
0.105473096438095
0.10620485110897
0.107375709346952
0.109107869270575
0.111583613336301
0.115086366086283
0.120082613469735
0.127398917207968
0.138655637423595
0.15749758705098
0.193745071141208
0.289757702672186
0.766864375967714
3.68517097144455
0.51747634551178
2.38166679421881
0.255011900978154
0.507303456214273
2.2869951238892
0.178016314557003
0.254020988942224
0.494173670452863
2.21610777521966
0.144853822784276
0.17871363245854
0.251358812631027
0.484258172644925
2.18721681852282
0.12762055594459
0.145883488824882
0.178451046064316
0.248725681291327
0.479667962748012
2.18619178594854
0.117723078680549
0.128654414735141
0.146318290776588
0.177742743273815
0.246970937520202
0.478421372839652
2.19192789519596
0.111723933537934
0.118662619199976
0.129279339615879
0.146305615332726
0.176961369772608
0.245792091734706
0.477485970090149
2.19485476217458
0.108004862073108
0.112549783602426
0.119292868692065
0.129528096366367
0.146006455913507
0.176133725098616
0.244474393945403
0.475311203211389
2.1951289591526
0.105716347651637
0.108726669374964
0.113123022259714
0.119620250630598
0.129478229910651
0.145500316738867
0.175098419220005
0.242563043287031
0.471732850471892
2.19480406508422
0.104372965983634
0.106349718094585
0.109231611897959
0.113455455929011
0.119696749993549
0.129209636046757
0.14479130022613
0.173722276290541
0.239927237033612
0.466952604273115
2.1947967792038
0.103675662619878
0.104931075378144
0.106792000793635
0.109545332137921
0.113597320207835
0.119596684766912
0.128777865011817
0.143870450714346
0.171960691893627
0.236574035080608
0.461060511148443
2.19511687630462
0.103427402520229
0.104167748743296
0.105318829737675
0.10708236320487
0.109724544202069
0.113619907739667
0.119389597000549
0.128226458280035
0.142756906211262
0.169836990402833
0.232531157371125
0.453995520684045
2.19484997655282
0.103490960085147
0.103859489690729
0.104507145772868
0.105586418336701
0.107285763740363
0.109840511309651
0.113595405149506
0.119141529255469
0.127614949798103