/*--------------------------------*- C++ -*----------------------------------*\
  =========                 |
  \\      /  F ield         | OpenFOAM: The Open Source CFD Toolbox
   \\    /   O peration     | Website:  https://openfoam.org
    \\  /    A nd           | Version:  12
     \\/     M anipulation  |
\*---------------------------------------------------------------------------*/
/*   Windows 32 and 64 bit porting by blueCAPE: http://www.bluecape.com.pt   *\
|  Based on Windows porting (2.0.x v4) by Symscape: http://www.symscape.com   |
\*---------------------------------------------------------------------------*/
FoamFile
{
    format      ascii;
    class       volScalarField;
    location    "600";
    object      p;
}
// * * * * * * * * * * * * * * * * * * * * * * * * * * * * * * * * * * * * * //

dimensions      [0 2 -2 0 0 0 0];

internalField   nonuniform List<scalar> 
10068
(
83333.3296217322
83333.3296197075
83333.3296218228
83333.3296217308
83333.3296177485
83333.3296198009
83333.3296197025
83333.3296220542
83333.3296218235
83333.3296217199
83333.3296158616
83333.3296178578
83333.329617737
83333.3296200387
83333.3296197962
83333.3296196887
83333.3296222186
83333.3296220452
83333.3296218119
83333.3296216974
83333.3296140017
83333.329615955
83333.3296158517
83333.3296180751
83333.3296178489
83333.3296177208
83333.3296202003
83333.3296200312
83333.3296197833
83333.3296196655
83333.329622198
83333.329622202
83333.3296220244
83333.3296217887
83333.3296216608
83333.3296121845
83333.3296140835
83333.3296139939
83333.3296161422
83333.329615948
83333.3296158371
83333.3296182126
83333.3296180621
83333.3296178344
83333.3296176956
83333.329620169
83333.3296201889
83333.3296200129
83333.3296197598
83333.3296196282
83333.3296219752
83333.3296221764
83333.3296221709
83333.3296219904
83333.3296217497
83333.3296216088
83333.3296104121
83333.3296122571
83333.3296121771
83333.3296142471
83333.3296140761
83333.3296139796
83333.3296162498
83333.329616128
83333.3296159332
83333.3296158125
83333.3296181527
83333.3296181976
83333.3296180422
83333.3296178092
83333.3296176569
83333.3296199253
83333.3296201543
83333.3296201627
83333.3296199797
83333.3296197204
83333.3296195755
83333.3296215396
83333.329621949
83333.3296221298
83333.3296221198
83333.3296219382
83333.3296216926
83333.3296215406
83333.3296086847
83333.3296104757
83333.3296104045
83333.3296123998
83333.3296122489
83333.3296121622
83333.3296143283
83333.3296142316
83333.3296140608
83333.3296139551
83333.3296161598
83333.3296162319
83333.3296161065
83333.3296159082
83333.3296157743
83333.3296178794
83333.3296181368
83333.3296181709
83333.3296180077
83333.3296177691
83333.3296176035
83333.3296194612
83333.3296199065
83333.3296201144
83333.3296201148
83333.3296199276
83333.3296196629
83333.3296195067
83333.3296208953
83333.3296215085
83333.3296218885
83333.3296220592
83333.3296220469
83333.3296218656
83333.3296216174
83333.3296214563
83333.3296070023
83333.3296087396
83333.3296086768
83333.3296105979
83333.3296104667
83333.3296103891
83333.3296124538
83333.3296123839
83333.3296122327
83333.329612137
83333.3296142101
83333.3296143079
83333.3296142084
83333.3296140352
83333.3296139171
83333.3296158562
83333.3296161411
83333.3296162034
83333.3296160725
83333.3296158689
83333.3296157213
83333.3296173836
83333.3296178608
83333.3296180983
83333.3296181238
83333.3296179556
83333.3296177117
83333.3296175345
83333.3296187837
83333.3296194378
83333.3296198535
83333.3296200496
83333.3296200443
83333.3296198547
83333.3296195875
83333.3296194214
83333.3296200486
83333.3296208591
83333.3296214393
83333.3296217993
83333.3296219624
83333.3296219513
83333.3296217728
83333.3296215249
83333.3296213554
83333.3296053649
83333.3296070489
83333.3296069941
83333.3296088418
83333.3296087298
83333.3296086606
83333.3296106257
83333.3296105819
83333.3296104498
83333.3296103629
83333.329612307
83333.3296124324
83333.3296123597
83333.3296122061
83333.3296120983
83333.329613877
83333.3296141886
83333.3296142773
83333.3296141732
83333.3296139953
83333.3296138639
83333.3296153291
83333.329615835
83333.3296161008
83333.3296161563
83333.3296160211
83333.3296158119
83333.3296156524
83333.3296166728
83333.3296173612
83333.32961781
83333.3296180364
83333.329618055
83333.3296178833
83333.3296176362
83333.3296174492
83333.3296179011
83333.3296187549
83333.3296193769
83333.3296197718
83333.3296199577
83333.3296199504
83333.3296197615
83333.3296194946
83333.3296193193
83333.329619006
83333.3296200082
83333.3296207829
83333.3296213332
83333.3296216773
83333.3296218382
83333.3296218319
83333.329621659
83333.3296214151
83333.3296212378
83333.3296037723
83333.3296054034
83333.3296053564
83333.3296071315
83333.3296070385
83333.3296069773
83333.3296088443
83333.3296088254
83333.3296087121
83333.3296086336
83333.3296104517
83333.329610604
83333.3296105569
83333.3296104221
83333.3296103233
83333.3296119444
83333.3296122843
83333.3296124006
83333.3296123233
83333.3296121649
83333.3296120443
83333.3296133201
83333.3296138531
83333.3296141461
83333.3296142287
83333.3296141212
83333.3296139381
83333.3296137946
83333.329614587
83333.3296153048
83333.3296157831
83333.3296160391
83333.329616088
83333.3296159499
83333.3296157368
83333.3296155667
83333.3296157566
83333.3296166454
83333.3296173035
83333.3296177327
83333.329617948
83333.3296179628
83333.3296177906
83333.3296175433
83333.3296173466
83333.3296168214
83333.3296178679
83333.329618688
83333.3296192797
83333.3296196566
83333.3296198373
83333.3296198324
83333.3296196483
83333.329619384
83333.3296191998
83333.3296177738
83333.3296189621
83333.3296199238
83333.3296206604
83333.3296211857
83333.3296215206
83333.3296216847
83333.329621687
83333.3296215257
83333.3296212871
83333.3296211031
83333.3296022245
83333.329603803
83333.3296037636
83333.3296054669
83333.3296053928
83333.3296053389
83333.3296071092
83333.3296071148
83333.3296070202
83333.3296069491
83333.3296086447
83333.3296088223
83333.3296087999
83333.3296086833
83333.3296085926
83333.3296100617
83333.3296104285
83333.3296105714
83333.3296105197
83333.3296103796
83333.329610268
83333.3296113594
83333.3296119197
83333.3296122406
83333.329612351
83333.3296122703
83333.3296121066
83333.3296119737
83333.3296125492
83333.3296132937
83333.3296137995
83333.3296140834
83333.3296141599
83333.32961405
83333.3296138627
83333.3296137079
83333.32961364
83333.3296145581
83333.3296152466
83333.3296157067
83333.3296159519
83333.329615997
83333.3296158584
83333.3296156437
83333.3296154634
83333.3296146436
83333.3296157249
83333.3296165826
83333.3296172118
83333.3296176226
83333.3296178307
83333.3296178464
83333.3296176778
83333.3296174325
83333.3296172262
83333.329615552
83333.3296167845
83333.3296177936
83333.3296185757
83333.3296191407
83333.3296195056
83333.3296196868
83333.3296196895
83333.3296195147
83333.3296192546
83333.3296190625
83333.3296163561
83333.329617726
83333.329618869
83333.329619785
83333.329620487
83333.3296209945
83333.3296213272
83333.3296214999
83333.3296215158
83333.3296213709
83333.3296211402
83333.3296209513
83333.3296007211
83333.3296022475
83333.3296022156
83333.3296038474
83333.329603792
83333.3296037457
83333.3296054203
83333.3296054499
83333.3296053739
83333.3296053099
83333.3296068855
83333.3296070871
83333.3296070887
83333.3296069908
83333.3296069069
83333.3296082293
83333.3296086212
83333.3296087891
83333.3296087619
83333.3296086401
83333.3296085359
83333.3296094509
83333.3296100366
83333.3296103842
83333.3296105211
83333.3296104658
83333.3296103201
83333.3296101958
83333.3296105624
83333.3296113326
83333.3296118655
83333.3296121773
83333.3296122816
83333.3296121985
83333.3296120304
83333.3296118857
83333.3296115747
83333.3296125186
83333.3296132345
83333.3296137229
83333.3296139963
83333.3296140692
83333.3296139588
83333.3296137688
83333.3296136034
83333.3296124977
83333.3296136074
83333.3296144957
83333.3296151569
83333.329615599
83333.3296158367
83333.3296158821
83333.3296157458
83333.329615532
83333.3296153419
83333.3296133426
83333.3296146087
83333.3296156557
83333.3296164773
83333.3296170796
83333.3296174765
83333.3296176833
83333.3296177052
83333.3296175444
83333.3296173022
83333.3296170877
83333.3296140988
83333.3296155116
83333.3296167025
83333.3296176665
83333.3296184127
83333.3296189574
83333.3296193173
83333.3296195049
83333.3296195206
83333.3296193587
83333.3296191057
83333.3296189073
83333.3296147552
83333.3296163043
83333.3296176241
83333.3296187136
83333.3296195856
83333.3296202603
83333.3296207582
83333.3296210956
83333.3296212826
83333.3296213171
83333.3296211937
83333.3296209737
83333.3296207833
83333.3295992617
83333.3296007364
83333.3296007119
83333.3296022724
83333.3296022361
83333.3296021972
83333.3296037772
83333.3296038302
83333.3296037726
83333.3296037159
83333.3296051735
83333.329605398
83333.3296054234
83333.3296053436
83333.3296052667
83333.3296064468
83333.329606862
83333.3296070532
83333.3296070504
83333.3296069463
83333.3296068489
83333.3296075954
83333.3296082044
83333.3296085766
83333.3296087385
83333.3296087076
83333.3296085792
83333.3296084622
83333.3296086307
83333.3296094243
83333.3296099824
83333.3296103207
83333.3296104515
83333.3296103932
83333.3296102427
83333.3296101059
83333.3296095644
83333.3296105318
83333.3296112734
83333.329611789
83333.3296120903
83333.3296121909
83333.3296121071
83333.3296119353
83333.3296117794
83333.3296104079
83333.3296115414
83333.329612456
83333.3296131454
83333.3296136164
83333.3296138822
83333.329613955
83333.3296138463
83333.3296136559
83333.3296134804
83333.3296111705
83333.3296124627
83333.3296135393
83333.3296143934
83333.3296150285
83333.3296154564
83333.3296156917
83333.329615742
83333.3296156114
83333.3296154008
83333.3296152022
83333.3296118608
83333.3296133046
83333.3296145324
83333.3296155369
83333.3296163227
83333.3296169031
83333.3296172929
83333.3296175044
83333.3296175386
83333.3296173883
83333.3296171519
83333.3296169308
83333.3296124657
83333.329614055
83333.3296154218
83333.3296165604
83333.3296174794
83333.3296181961
83333.3296187283
83333.3296190902
83333.3296192902
83333.3296193234
83333.3296191795
83333.3296189363
83333.3296187344
83333.3296129722
83333.3296146997
83333.3296161935
83333.3296174523
83333.3296184885
83333.3296193237
83333.3296199802
83333.3296204761
83333.3296208243
83333.329621031
83333.3296210894
83333.3296209929
83333.3296207868
83333.3296206002
83333.3295978462
83333.3295992694
83333.3295992522
83333.3296007424
83333.3296007248
83333.3296006931
83333.3296021798
83333.3296022555
83333.3296022163
83333.3296021666
83333.3296035086
83333.3296037551
83333.3296038035
83333.3296037415
83333.3296036715
83333.3296047137
83333.3296051504
83333.3296053635
83333.3296053846
83333.3296052979
83333.3296052073
83333.3296057926
83333.3296064223
83333.3296068172
83333.3296070025
83333.3296069956
83333.3296068841
83333.3296067736
83333.3296067553
83333.3296075693
83333.3296081505
83333.3296085133
83333.329608669
83333.3296086342
83333.3296085003
83333.3296083703
83333.3296076129
83333.3296086007
83333.3296093655
83333.3296099066
83333.3296102341
83333.3296103609
83333.3296103014
83333.3296101464
83333.3296099975
83333.3296083773
83333.3296095314
83333.3296104699
83333.3296111854
83333.3296116837
83333.3296119772
83333.3296120773
83333.3296119944
83333.3296118209
83333.3296116543
83333.3296090594
83333.3296103725
83333.3296114737
83333.3296123553
83333.3296130196
83333.3296134763
83333.3296137392
83333.329613816
83333.329613711
83333.3296135235
83333.3296133386
83333.329609666
83333.3296111327
83333.3296123883
83333.3296134247
83333.3296142442
83333.3296148573
83333.329615277
83333.3296155156
83333.3296155757
83333.3296154553
83333.3296152493
83333.3296150436
83333.3296102033
83333.3296118197
83333.3296132214
83333.3296144
83333.32961536
83333.3296161151
83333.329616681
83333.3296170707
83333.3296172929
83333.3296173436
83333.3296172082
83333.3296169804
83333.3296167552
83333.3296106551
83333.3296124187
83333.3296139574
83333.329615265
83333.3296163497
83333.32961723
83333.3296179257
83333.3296184531
83333.3296188233
83333.3296190407
83333.3296190961
83333.3296189752
83333.3296187457
83333.3296185446
83333.3296110068
83333.3296129133
83333.3296145805
83333.3296160061
83333.3296172025
83333.3296181925
83333.3296190005
83333.3296196471
83333.3296201478
83333.3296205122
83333.3296207432
83333.329620831
83333.3296207669
83333.3296205802
83333.3296204052
83333.3295964742
83333.3295978465
83333.3295978365
83333.3295992572
83333.3295992577
83333.3295992331
83333.3296006279
83333.3296007259
83333.3296007045
83333.3296006618
83333.3296018905
83333.329602158
83333.3296022288
83333.3296021844
83333.3296021214
83333.3296030293
83333.329603486
83333.3296037202
83333.3296037643
83333.3296036949
83333.329603611
83333.3296040416
83333.3296046896
83333.3296051055
83333.3296053126
83333.3296053292
83333.3296052346
83333.3296051304
83333.3296049355
83333.329605767
83333.3296063691
83333.3296067543
83333.3296069332
83333.3296069216
83333.3296068036
83333.3296066798
83333.3296057213
83333.3296067261
83333.3296075114
83333.3296080756
83333.3296084276
83333.3296085786
83333.3296085417
83333.3296084025
83333.3296082598
83333.3296064098
83333.3296075808
83333.3296085399
83333.3296092791
83333.3296098027
83333.3296101223
83333.3296102478
83333.3296101884
83333.3296100303
83333.3296098702
83333.3296070126
83333.3296083427
83333.3296094652
83333.3296103713
83333.329611062
83333.3296115461
83333.3296118361
83333.3296119391
83333.329611859
83333.3296116867
83333.3296115099
83333.3296075378
83333.3296090215
83333.3296102991
83333.3296113618
83333.3296122101
83333.3296128525
83333.3296133006
83333.3296135656
83333.3296136502
83333.3296135544
83333.3296133704
83333.3296131774
83333.3296079903
83333.3296096253
83333.3296110519
83333.3296122612
83333.329613255
83333.3296140439
83333.3296146415
83333.3296150595
83333.3296153067
83333.3296153816
83333.329615275
83333.3296150761
83333.3296148663
83333.3296083735
83333.3296101592
83333.3296117296
83333.3296130757
83333.3296142016
83333.329615122
83333.3296158543
83333.3296164131
83333.3296168087
83333.3296170463
83333.3296171169
83333.3296170023
83333.3296167867
83333.3296165623
83333.3296086683
83333.3296106052
83333.3296123138
83333.3296137865
83333.3296150318
83333.3296160688
83333.3296169194
83333.3296176023
83333.3296181315
83333.329618515
83333.3296187543
83333.3296188361
83333.3296187439
83333.3296185337
83333.3296183417
83333.329608858
83333.3296109449
83333.3296127863
83333.3296143783
83333.3296157331
83333.3296168743
83333.3296178283
83333.3296186181
83333.3296192621
83333.3296197731
83333.329620158
83333.3296204171
83333.3296205397
83333.3296205152
83333.329620357
83333.3296202074
83333.3295951451
83333.3295964675
83333.3295964641
83333.3295978161
83333.3295978345
83333.3295978169
83333.3295991211
83333.3295992406
83333.3295992368
83333.3295992013
83333.3296003184
83333.3296006063
83333.3296006989
83333.3296006719
83333.3296006158
83333.3296013929
83333.3296018681
83333.3296021229
83333.3296021891
83333.3296021368
83333.3296020596
83333.3296023413
83333.3296030057
83333.3296034411
83333.3296036691
83333.3296037082
83333.3296036303
83333.3296035326
83333.3296031701
83333.3296040165
83333.3296046371
83333.329605043
83333.3296052435
83333.3296052547
83333.3296051526
83333.3296050349
83333.3296038887
83333.3296049071
83333.3296057101
83333.3296062951
83333.3296066696
83333.3296068433
83333.3296068281
83333.3296067043
83333.3296065672
83333.3296045061
83333.3296056901
83333.3296066667
83333.3296074267
83333.3296079734
83333.329608317
83333.329608466
83333.3296084282
83333.329608285
83333.32960813
83333.3296050335
83333.3296063764
83333.3296075164
83333.3296084438
83333.3296091583
83333.3296096675
83333.3296099829
83333.3296101103
83333.329610053
83333.3296098942
83333.3296097232
83333.3296054794
83333.3296069758
83333.3296082714
83333.3296093564
83333.3296102299
83333.329610899
83333.3296113738
83333.3296116649
83333.3296117742
83333.3296117011
83333.3296115316
83333.3296113461
83333.3296058502
83333.3296074974
83333.3296089425
83333.329610176
83333.3296111976
83333.3296120161
83333.3296126426
83333.3296130876
83333.3296133594
83333.3296134565
83333.3296133741
83333.3296131953
83333.329612997
83333.3296061482
83333.329607947
83333.3296095384
83333.3296109128
83333.3296120718
83333.3296130266
83333.3296137919
83333.3296143808
83333.3296148024
83333.329615063
83333.3296151559
83333.3296150688
83333.3296148807
83333.3296146713
83333.3296063741
83333.3296083269
83333.3296100626
83333.3296115713
83333.329612857
83333.3296139348
83333.3296148238
83333.329615541
83333.3296160989
83333.3296165053
83333.329616762
83333.3296168567
83333.3296167692
83333.3296165714
83333.3296163566
83333.3296065054
83333.3296086159
83333.3296104937
83333.3296121299
83333.3296135326
83333.3296147216
83333.3296157204
83333.3296165499
83333.329617227
83333.3296177632
83333.3296181641
83333.3296184284
83333.3296185412
83333.3296184855
83333.329618303
83333.3296181353
83333.3296065238
83333.3296087936
83333.3296108111
83333.3296125707
83333.329614084
83333.3296153752
83333.3296164721
83333.3296173999
83333.3296181796
83333.3296188273
83333.329619353
83333.3296197615
83333.3296200518
83333.3296202154
83333.3296202414
83333.3296201259
83333.3296200179
83333.3295938588
83333.3295951323
83333.3295951342
83333.3295964194
83333.3295964552
83333.3295964441
83333.3295976589
83333.3295977991
83333.3295978131
83333.3295977845
83333.3295987917
83333.3295990992
83333.3295992133
83333.3295992033
83333.3295991545
83333.3295998035
83333.3296002962
83333.3296005709
83333.3296006586
83333.3296006232
83333.3296005531
83333.3296006905
83333.3296013697
83333.3296018234
83333.3296020717
83333.3296021323
83333.329602071
83333.32960198
83333.3296014579
83333.3296023168
83333.329602954
83333.329603379
83333.3296036
83333.329603633
83333.329603547
83333.3296034356
83333.3296021135
83333.3296031426
83333.3296039607
83333.3296045643
83333.3296049592
83333.3296051539
83333.3296051604
83333.3296050517
83333.3296049203
83333.329602665
83333.3296038585
83333.3296048493
83333.3296056274
83333.3296061949
83333.3296065604
83333.3296067309
83333.3296067139
83333.3296065852
83333.3296064351
83333.3296031225
83333.329604474
83333.3296056278
83333.3296065732
83333.3296073088
83333.3296078408
83333.3296081793
83333.3296083288
83333.3296082927
83333.329608147
83333.3296079805
83333.3296034937
83333.3296049982
83333.3296063076
83333.329607411
83333.3296083064
83333.3296089993
83333.3296094987
83333.3296098139
83333.3296099462
83333.3296098946
83333.329609737
83333.3296095565
83333.3296037855
83333.3296054404
83333.3296068996
83333.3296081525
83333.3296091976
83333.3296100417
83333.3296106945
83333.3296111652
83333.3296114615
83333.3296115811
83333.3296115205
83333.3296113545
83333.3296111626
83333.329604002
83333.3296058073
83333.3296074129
83333.3296088086
83333.3296099938
83333.3296109775
83333.3296117721
83333.3296123887
83333.3296128356
83333.3296131187
83333.3296132323
83333.3296131679
83333.3296129979
83333.3296127984
83333.3296041432
83333.3296061025
83333.3296078543
83333.3296093882
83333.3296107052
83333.329611817
83333.3296127399
83333.3296134886
83333.3296140742
83333.3296145043
83333.3296147815
83333.3296148966
83333.3296148355
83333.3296146634
83333.3296144636
83333.3296042065
83333.3296063252
83333.3296082245
83333.3296098929
83333.3296113342
83333.3296125637
83333.3296136018
83333.3296144676
83333.3296151761
83333.3296157381
83333.3296161587
83333.3296164376
83333.3296165612
83333.3296165092
83333.3296163367
83333.3296161475
83333.3296041661
83333.329606451
83333.3296084985
83333.3296102982
83333.3296118572
83333.3296131958
83333.3296143385
83333.3296153083
83333.3296161245
83333.3296168017
83333.329617349
83333.3296177699
83333.3296180616
83333.3296182114
83333.3296182025
83333.3296180614
83333.329617938
83333.329604002
83333.3296064573
83333.3296086538
83333.3296105835
83333.3296122573
83333.3296136991
83333.3296149381
83333.3296160015
83333.3296169126
83333.3296176898
83333.3296183466
83333.3296188909
83333.3296193255
83333.3296196508
83333.3296198649
83333.3296199549
83333.3296199031
83333.3296198531
83333.3295926287
83333.3295938399
83333.3295938472
83333.3295950673
83333.329595119
83333.3295951135
83333.3295962415
83333.329596402
83333.3295964332
83333.3295964112
83333.3295973099
83333.3295976362
83333.3295977715
83333.3295977787
83333.3295977371
83333.3295982604
83333.3295987693
83333.3295990634
83333.3295991722
83333.3295991537
83333.3295990909
83333.3295990884
83333.3295997806
83333.3296002515
83333.3296005196
83333.3296006012
83333.3296005565
83333.3296004723
83333.3295997974
83333.3296006667
83333.3296013188
83333.3296017617
83333.3296020027
83333.3296020567
83333.3296019866
83333.3296018815
83333.3296003942
83333.3296014313
83333.329602262
83333.3296028822
83333.3296032961
83333.3296035105
83333.3296035384
83333.3296034446
83333.3296033192
83333.3296008849
83333.3296020845
83333.3296030864
83333.32960388
83333.329604466
83333.3296048515
83333.3296050418
83333.3296050455
83333.329604931
83333.3296047861
83333.3296012781
83333.3296026344
83333.3296037984
83333.3296047586
83333.3296055125
83333.3296060649
83333.3296064245
83333.329606594
83333.329606578
83333.3296064454
83333.3296062833
83333.3296015807
83333.3296030889
83333.329604408
83333.3296055261
83333.32960644
83333.3296071538
83333.3296076753
83333.3296080125
83333.3296081654
83333.3296081343
83333.3296079876
83333.3296078111
83333.3296017988
83333.3296034565
83333.3296049251
83333.3296061932
83333.3296072577
83333.3296081239
83333.3296088001
83333.3296092943
83333.3296096133
83333.3296097542
83333.3296097131
83333.3296095578
83333.32960937
83333.3296019372
83333.3296037443
83333.3296053592
83333.3296067709
83333.3296079773
83333.3296089853
83333.3296098055
83333.3296104473
83333.3296109184
83333.329611224
83333.3296113585
83333.3296113139
83333.3296111551
83333.3296109606
83333.3296019978
83333.3296039571
83333.3296057178
83333.329607269
83333.32960861
83333.3296097496
83333.3296107016
83333.3296114784
83333.32961209
83333.3296125431
83333.3296128408
83333.3296129747
83333.3296129346
83333.3296127781
83333.3296125867
83333.3296019778
83333.3296040956
83333.3296060048
83333.3296076941
83333.3296091641
83333.3296104265
83333.3296114986
83333.3296123967
83333.3296131345
83333.3296137216
83333.3296141631
83333.3296144598
83333.3296146023
83333.3296145752
83333.3296144263
83333.3296142537
83333.3296018715
83333.3296041558
83333.3296062179
83333.3296080448
83333.3296096393
83333.3296110171
83333.3296121993
83333.3296132065
83333.329614056
83333.3296147614
83333.3296153311
83333.3296157684
83333.3296160717
83333.3296162303
83333.3296162248
83333.32961609
83333.3296159496
83333.3296016494
83333.32960411
83333.3296063287
83333.3296082928
83333.3296100088
83333.3296114964
83333.3296127814
83333.3296138881
83333.3296148378
83333.3296156476
83333.3296163299
83333.3296168915
83333.3296173344
83333.3296176565
83333.3296178518
83333.3296179031
83333.3296178273
83333.3296177666
83333.3296012902
83333.3296039338
83333.3296063125
83333.3296084158
83333.329610253
83333.3296118479
83333.3296132305
83333.3296144296
83333.3296154704
83333.3296163739
83333.329617156
83333.3296178276
83333.3296183945
83333.3296188601
83333.3296192289
83333.3296195071
83333.3296196729
83333.3296197129
83333.3296197314
83333.3295914582
83333.3295926004
83333.3295926188
83333.3295937579
83333.3295938252
83333.3295938257
83333.329594869
83333.3295950493
83333.329595096
83333.32959508
83333.3295958738
83333.3295962176
83333.329596374
83333.329596398
83333.3295963632
83333.3295967631
83333.3295972868
83333.3295975997
83333.3295977296
83333.3295977284
83333.3295976727
83333.3295975338
83333.3295982375
83333.3295987243
83333.3295990116
83333.3295991142
83333.3295990863
83333.329599009
83333.3295981875
83333.3295990651
83333.3295997302
83333.32960019
83333.3296004503
83333.3296005253
83333.3296004711
83333.3296003724
83333.3295987291
83333.3295997717
83333.329600613
83333.329601248
83333.3296016796
83333.3296019134
83333.3296019617
83333.3296018829
83333.3296017636
83333.3295991638
83333.3296003662
83333.3296013766
83333.3296021833
83333.3296027858
83333.3296031897
83333.3296033988
83333.329603423
83333.3296033223
83333.329603183
83333.3295994983
83333.3296008556
83333.3296020265
83333.3296029986
83333.3296037681
83333.3296043387
83333.3296047175
83333.3296049054
83333.3296049089
83333.3296047895
83333.3296046319
83333.3295997385
83333.3296012462
83333.3296025711
83333.3296037004
83333.3296046296
83333.3296053616
83333.3296059029
83333.3296062598
83333.3296064314
83333.3296064191
83333.329606284
83333.3296061112
83333.3295998895
83333.3296015454
83333.3296030191
83333.3296042982
83333.3296053783
83333.3296062632
83333.3296069599
83333.3296074752
83333.3296078145
83333.3296079748
83333.3296079516
83333.3296078063
83333.3296076218
83333.3295999557
83333.3296017597
83333.3296033791
83333.329604802
83333.329606025
83333.3296070531
83333.3296078951
83333.3296085595
83333.3296090527
83333.329609379
83333.3296095331
83333.3296095061
83333.3296093562
83333.3296091653
83333.3295999398
83333.3296018942
83333.3296036588
83333.3296052219
83333.329606581
83333.3296077431
83333.3296087195
83333.3296095211
83333.3296101564
83333.3296106318
83333.3296109499
83333.3296111029
83333.3296110803
83333.3296109335
83333.3296107456
83333.3295998411
83333.3296019512
83333.3296038632
83333.3296055652
83333.3296070559
83333.3296083444
83333.3296094447
83333.329610371
83333.3296111352
83333.3296117459
83333.3296122082
83333.329612523
83333.3296126823
83333.329612674
83333.3296125382
83333.3296123734
83333.329599654
83333.3296019287
83333.3296039936
83333.329605836
83333.3296074556
83333.3296088644
83333.3296100798
83333.3296111197
83333.3296119994
83333.3296127312
83333.3296133229
83333.3296137781
83333.3296140969
83333.3296142724
83333.3296142904
83333.3296141778
83333.329614055
83333.3295993692
83333.3296018194
83333.3296040443
83333.3296060295
83333.3296077768
83333.3296093013
83333.329610625
83333.3296117694
83333.3296127536
83333.3296135933
83333.3296143001
83333.3296148802
83333.3296153359
83333.3296156669
83333.3296158693
83333.3296159244
83333.3296158504
83333.3296157784
83333.3295989544
83333.329601592
83333.3296039836
83333.3296061142
83333.3296079888
83333.3296096269
83333.3296110544
83333.329612297
83333.3296133778
83333.3296143159
83333.3296151262
83333.3296158185
83333.3296163979
83333.3296168664
83333.3296172262
83333.3296174792
83333.3296176046
83333.3296176277
83333.3296176416
83333.3295983866
83333.3296012208
83333.3296037848
83333.3296060656
83333.3296080703
83333.3296098221
83333.3296113513
83333.329612688
83333.3296138594
83333.3296148889
83333.3296157946
83333.3296165899
83333.3296172835
83333.329617881
83333.3296183896
83333.3296188187
83333.3296191783
83333.329619436
83333.3296195883
83333.329619653
83333.3295914249
83333.3295914502
83333.329592504
83333.329592587
83333.3295925985
83333.3295935415
83333.3295937397
83333.3295938011
83333.3295937921
83333.3295944842
83333.3295948437
83333.3295950199
83333.3295950599
83333.3295950316
83333.3295953128
83333.3295958493
83333.3295961799
83333.3295963311
83333.329596347
83333.3295962981
83333.3295960265
83333.3295967398
83333.3295972412
83333.3295975472
83333.3295976711
83333.3295976603
83333.3295975898
83333.3295966268
83333.3295975106
83333.3295981873
83333.3295986628
83333.3295989421
83333.329599038
83333.329599
83333.3295989078
83333.3295971167
83333.3295981625
83333.3295990122
83333.3295996604
83333.3296001086
83333.3296003612
83333.3296004299
83333.3296003662
83333.3296002529
83333.3295974996
83333.3295987023
83333.3295997184
83333.3296005361
83333.3296011534
83333.3296015745
83333.3296018022
83333.3296018459
83333.329601759
83333.3296016255
83333.3295977806
83333.3295991357
83333.3296003104
83333.3296012915
83333.3296020743
83333.3296026611
83333.3296030574
83333.3296032633
83333.3296032857
83333.3296031792
83333.3296030267
83333.3295979644
83333.329599468
83333.3296007951
83333.3296019322
83333.3296028737
83333.3296036213
83333.3296041801
83333.3296045549
83333.3296047437
83333.3296047494
83333.3296046263
83333.3296044575
83333.3295980553
83333.3295997052
83333.3296011798
83333.329602466
83333.3296035581
83333.3296044585
83333.3296051729
83333.3296057069
83333.3296060645
83333.329606242
83333.329606236
83333.3296061007
83333.3296059193
83333.3295980563
83333.3295998526
83333.329601472
83333.3296029017
83333.3296041369
83333.3296051812
83333.3296060418
83333.3296067257
83333.3296072386
83333.3296075837
83333.329607755
83333.329607744
83333.3296076026
83333.3296074146
83333.3295979703
83333.329599915
83333.3296016785
83333.3296032483
83333.3296046207
83333.3296058004
83333.329606797
83333.3296076198
83333.3296082763
83333.329608772
83333.3296091091
83333.3296092796
83333.3296092722
83333.3296091328
83333.3296089479
83333.3295977975
83333.3295998954
83333.329601805
83333.3296035138
83333.3296050191
83333.3296063276
83333.3296074509
83333.3296084011
83333.3296091885
83333.3296098211
83333.3296103035
83333.3296106369
83333.3296108127
83333.32961082
83333.3296106919
83333.329610529
83333.3295975346
83333.3295997933
83333.3296018538
83333.3296037032
83333.3296053396
83333.3296067717
83333.329608014
83333.3296090816
83333.3296099878
83333.3296107436
83333.3296113564
83333.3296118298
83333.3296121644
83333.3296123546
83333.329612389
83333.3296122871
83333.3296121706
83333.3295971729
83333.3295996037
83333.3296018233
83333.3296038176
83333.3296055853
83333.3296071378
83333.3296084931
83333.3296096698
83333.3296106846
83333.3296115517
83333.3296122816
83333.3296128805
83333.329613351
83333.3296136951
83333.3296139129
83333.3296139908
83333.3296139388
83333.3296138838
83333.3295967
83333.3295993161
83333.3296017045
83333.3296038488
83333.3296057493
83333.3296074207
83333.329608885
83333.3296101649
83333.3296112806
83333.3296122497
83333.3296130859
83333.3296137985
83333.3296143923