/*--------------------------------*- C++ -*----------------------------------*\
  =========                 |
  \\      /  F ield         | OpenFOAM: The Open Source CFD Toolbox
   \\    /   O peration     | Website:  https://openfoam.org
    \\  /    A nd           | Version:  12
     \\/     M anipulation  |
\*---------------------------------------------------------------------------*/
/*   Windows 32 and 64 bit porting by blueCAPE: http://www.bluecape.com.pt   *\
|  Based on Windows porting (2.0.x v4) by Symscape: http://www.symscape.com   |
\*---------------------------------------------------------------------------*/
FoamFile
{
    format      ascii;
    class       surfaceScalarField;
    location    "600";
    object      phi;
}
// * * * * * * * * * * * * * * * * * * * * * * * * * * * * * * * * * * * * * //

dimensions      [0 3 -1 0 0 0 0];

internalField   nonuniform List<scalar> 
28770
(
6.92351852260214e-07
5.24288011305364e-08
-5.35520263369043e-09
6.52142078129307e-07
4.30164163575022e-08
-2.81634663494036e-09
-9.46884435664445e-08
9.76464017011368e-08
-1.02623863087788e-08
9.63511029684012e-07
5.40734516091208e-08
-6.99930172253676e-09
6.16592190433209e-07
3.63105464047029e-08
-7.50941803492488e-10
-1.30303243661254e-07
8.7773566662164e-08
-9.14116942973267e-09
9.20689432558009e-07
4.3828076082419e-08
-3.82785384288914e-09
-1.7203001916873e-07
1.33857276767928e-07
-4.65922806394858e-09
-5.54000466018469e-08
1.05446334814802e-07
-2.15181973296553e-08
1.08691705453864e-06
5.92532802990182e-08
-6.88095696728256e-09
5.82898916640488e-07
3.49215386944061e-08
-1.23573358977179e-09
-1.65938228059765e-07
7.99431461677943e-08
-7.99688828517173e-09
8.84556785741787e-07
3.66170212439458e-08
-1.23487741424266e-09
-2.04633630732091e-07
1.25057240101616e-07
-4.67980543067677e-09
-9.56607924049967e-08
9.50912584020088e-08
-2.01465701354309e-08
1.0398485275885e-06
4.71418922233817e-08
-3.90035935917078e-09
-1.60004696730034e-07
1.6755923334632e-07
-1.98923122768922e-09
-1.85087712715818e-07
1.48517196678175e-07
-1.19007645715068e-08
-8.46102378927671e-08
1.18151205505609e-07
-3.51898169026009e-08
1.22934521138605e-06
6.40515903496095e-08
-5.02426907270722e-09
5.51029194196182e-07
3.36697856539185e-08
-1.79407447453946e-09
-1.97857759150175e-07
7.47307606956311e-08
-7.88683836260463e-09
8.48894110195361e-07
3.54804341039013e-08
-1.05952382604219e-09
-2.36951909681132e-07
1.16772937046679e-07
-4.51049975985142e-09
-1.34970177268041e-07
8.67746387429913e-08
-1.88478121360569e-08
1.00093967416037e-06
3.88364920658933e-08
-1.14834255952471e-09
-1.91654036495443e-07
1.59078021918724e-07
-2.37195004247792e-09
-2.21819984466411e-07
1.39164902662975e-07
-1.20212685149126e-08
-1.2980541963877e-07
1.06210501779667e-07
-3.40092382120844e-08
1.17767736638898e-06
5.02183498281807e-08
-2.42925476265357e-09
-1.34359438751618e-07
1.99797639043501e-07
-5.12316772693814e-10
-1.77269223163862e-07
1.87670202378637e-07
-5.77610208039828e-09
-2.35708165413636e-07
1.68558470056905e-07
-2.17687075266959e-08
-1.11134753301908e-07
1.28954327435898e-07
-5.05722372050078e-08
1.34612334752465e-06
6.66456335076437e-08
-1.56922382405447e-09
5.20354359403116e-07
3.19872308419981e-08
-1.31953206522649e-09
-2.26074492579032e-07
6.98708627820964e-08
-7.98391767771353e-09
8.13623822004388e-07
3.44460289826232e-08
-9.60447352041104e-10
-2.66923525944491e-07
1.09284747462114e-07
-4.58338173496841e-09
-1.70032076786784e-07
8.11144071526454e-08
-1.8466498101365e-08
9.62441746160573e-07
3.77848517861885e-08
-3.35493397148944e-10
-2.22376570123019e-07
1.50057248475382e-07
-2.56174346676482e-09
-2.57692633786497e-07
1.30024994257384e-07
-1.18893287695404e-08
-1.73468393583784e-07
9.65726359059176e-08
-3.29161975591425e-08
1.1358674775151e-06
4.04464151584099e-08
2.12835182019929e-10
-1.65184581194684e-07
1.90914272472878e-07
-1.01128515777659e-09
-2.12446906961662e-07
1.78493975549295e-07
-6.5237256373527e-09
-2.77253843405785e-07
1.57879084381907e-07
-2.21432519784605e-08
-1.60194286620227e-07
1.15200373655204e-07
-4.99343003259666e-08
1.29135077868967e-06
5.16622736526872e-08
6.4840315985309e-10
-1.06442094921223e-07
2.30325497989589e-07
6.31763162468143e-10
-1.49806840851684e-07
2.24069567207297e-07
-1.99137936120953e-09
-2.24336681613216e-07
2.13899882574812e-07
-1.12481396274303e-08
-2.89136062980912e-07
1.84550261400321e-07
-3.35299865588183e-08
-1.36379202115557e-07
1.34156873114892e-07
-6.61558058591438e-08
1.42185350639194e-06
6.69438217347782e-08
3.4454832263952e-09
4.91159460377085e-07
2.9851261637027e-08
-6.4786879889909e-10
-2.51268909827758e-07
6.50343900953525e-08
-7.84778620497485e-09
7.79183384653107e-07
3.30397874167979e-08
8.76059693946621e-11
-2.942012036595e-07
1.01852045053893e-07
-4.70393663838779e-09
-2.01106638302811e-07
7.59423478626562e-08
-1.84047500063842e-08
9.2405905583698e-07
3.70832087793658e-08
3.31726570789514e-10
-2.51168455261154e-07
1.40856202358047e-07
-2.77957009336768e-09
-2.90889898891334e-07
1.2174212074041e-07
-1.20138203157837e-08
-2.11994495755761e-07
9.0151019580817e-08
-3.2310635054563e-08
1.09409617529301e-06
3.97487423843008e-08
1.68995586028754e-09
-1.94666779886903e-07
1.80926012353011e-07
-1.38665126437067e-09
-2.46503868347657e-07
1.68498695893381e-07
-6.9787644808525e-09
-3.17628722511597e-07
1.47268253968682e-07
-2.22112417710972e-08
-2.07673234910704e-07
1.04035172536695e-07
-4.90182458442478e-08
1.24742997184493e-06
4.08609830452999e-08
3.27804826283554e-09
-1.3625154806389e-07
2.20654083850971e-07
6.98494748717598e-11
-1.83675400501763e-07
2.14369784308552e-07
-3.01758147333752e-09
-2.64031658188838e-07
2.03446561621138e-07
-1.23937441692557e-08
-3.34084402442643e-07
1.72407845927101e-07
-3.43991288212897e-08
-1.87600585900263e-07
1.1906022883558e-07
-6.61146284632008e-08
1.36582706718748e-06
5.12151250734467e-08
5.46835257870719e-09
-8.0195776706457e-08
2.58985200008342e-07
1.65259330590857e-09
-1.19690390228194e-07
2.57866835962028e-07
9.97169824388104e-10
-1.89599722067205e-07
2.55228776093152e-07
-4.15425862133193e-09
-2.7602759479188e-07
2.34011782720381e-07
-1.78121288547003e-08
-3.38665405768753e-07
1.91370979540739e-07
-4.585013273703e-08
-1.56943131840803e-07
1.34597880067941e-07
-8.11425904396763e-08
1.46588102665986e-06
6.5924330268597e-08
9.83762601618463e-09
4.63676308712656e-07
2.74250230896471e-08
4.64475963496681e-11
-2.73697088479681e-07
5.98948193512591e-08
-7.61913322006828e-09
7.45989916476192e-07
3.1095589202028e-08
1.44235689852769e-09
-3.18747720771897e-07
9.43735582142414e-08
-4.79228092591435e-09
-2.2881612231636e-07
7.09374475770055e-08
-1.8037118890735e-08
8.86276919376035e-07
3.5813507258877e-08
2.04640282118842e-09
-2.777176889786e-07
1.31372232269072e-07
-2.97073456017049e-09
-3.21091347045735e-07
1.13618415668647e-07
-1.21809032078041e-08
-2.45928710081041e-07
8.44267922899791e-08
-3.18129720894184e-08
1.05204223105263e-06
3.93298076622064e-08
3.07010506481431e-09
-2.22329669199513e-07
1.70220723710527e-07
-1.70198986466281e-09
-2.78432052465949e-07
1.58311257137933e-07
-7.41869308717387e-09
-3.548582106204e-07
1.37753133517342e-07
-2.23897040276405e-08
-2.49382137662483e-07
9.71251679458302e-08
-4.79848161867307e-08
1.20339432209632e-06
4.03105023391448e-08
5.41502110266259e-09
-1.64501001872063e-07
2.09561389539882e-07
-3.85896565728462e-10
-2.16096284962518e-07
2.03321226307453e-07
-3.78814818687575e-09
-3.02449593874862e-07
1.91913984289953e-07
-1.32072215497578e-08
-3.77912754884216e-07
1.60382204715203e-07
-3.47298997567642e-08
-2.37303669811998e-07
1.06812957982541e-07
-6.5259656734313e-08
1.32110301254657e-06
3.98752095447917e-08
8.13851431136923e-09
-1.08918905841229e-07
2.48330864528644e-07
1.04634060576016e-09
-1.52343041186643e-07
2.4727153390428e-07
-1.79024664550946e-10
-2.2762246038125e-07
2.44182362452027e-07
-5.73233807455717e-09
-3.18834163588518e-07
2.22368900457371e-07
-1.9548813730305e-08
-3.84959489575226e-07
1.78270632156563e-07
-4.73169131089654e-08
-2.08891421545284e-07
1.18561155777492e-07
-8.15214844506798e-08
1.40983960622589e-06
4.9470229437786e-08
1.20244254863061e-08
-5.68679426600242e-08
2.8584282411153e-07
2.60606052422379e-09
-9.14934709430285e-08
2.89296924796723e-07
3.54241989228752e-09
-1.52883708481629e-07
2.93194609941455e-07
1.28196571475609e-09
-2.3466796993681e-07
2.78714535728437e-07
-6.78804708332594e-09
-3.24252009785576e-07
2.42143944940125e-07
-2.48250287724014e-08
-3.80344504099334e-07
1.91109963175022e-07
-5.79627770341653e-08
-1.72906493417113e-07
1.32436746331335e-07
-9.52632184640982e-08
1.49468892104274e-06
6.40740797889445e-08
1.77987441108604e-08
4.38056704345903e-07
2.48227295359202e-08
8.08534119845052e-10
-2.93489047143175e-07
5.45094636425303e-08
-7.29234116653221e-09
7.14378138767304e-07
2.87860315538684e-08
2.89690831253918e-09
-3.40701589044379e-07
8.66791098253331e-08
-4.82927914995015e-09
-2.5348695300159e-07
6.55778975780305e-08
-1.74245559650891e-08
8.49762703533197e-07
3.38258461444283e-08
4.13722871647503e-09
-3.01862713725546e-07
1.21651123023275e-07
-3.1324940783399e-09
-3.48212582407981e-07
1.05500099059258e-07
-1.22365990444152e-08
-2.76120821789119e-07
7.89466938134848e-08
-3.09707549690148e-08
1.01037996892945e-06
3.82117741866936e-08
5.51860764593833e-09
-2.47963275108894e-07
1.58954877701288e-07
-1.94916785404042e-09
-3.0785518487726e-07
1.47846433310271e-07
-7.77522720521586e-09
-3.88655625407386e-07
1.28509205278164e-07
-2.24660250604363e-08
-2.85993504941663e-07
9.0974388462301e-08
-4.68510225949018e-08
1.15866772183604e-06
4.00638459980432e-08
7.70117013117534e-09
-1.90971188284162e-07
1.97444290600898e-07
-7.53097543935119e-10
-2.4653928779894e-07
1.91468770897477e-07
-4.41681404679707e-09
-3.38445844059607e-07
1.80212268912666e-07
-1.38824353619268e-08
-4.1822809153568e-07
1.49847479794069e-07
-3.47945174410938e-08
-2.80773874026703e-07
9.95179218853002e-08
-6.37216424774345e-08
1.27603587067578e-06
3.94242134772733e-08
1.10428025701097e-08
-1.3596493871909e-07
2.3606453473904e-07
5.43003866336833e-10
-1.83315316190692e-07
2.35018814330326e-07
-1.11129083510463e-09
-2.64034938510363e-07
2.31507257503556e-07
-6.96818189522402e-09
-3.6039059294235e-07
2.09479298249664e-07
-2.07468749504208e-08
-4.302817856327e-07
1.65271503711504e-07
-4.786382718391e-08
-2.59346019185004e-07
1.05671947371423e-07
-8.06122116651105e-08
1.3652299475471e-06
3.78109620030687e-08
1.49461452144517e-08
-8.45954123674733e-08
2.74098388882059e-07
1.96024636062166e-09
-1.23050791336993e-07
2.77615905594055e-07
2.25969344333424e-09
-1.89482320583231e-07
2.81149163310635e-07
-5.47043899275878e-10
-2.75545676877753e-07
2.66525231879806e-07
-9.01080871604861e-09
-3.68052854649646e-07
2.29706092506015e-07
-2.71870263704533e-08
-4.26487282351646e-07
1.77330082722571e-07
-5.99417457773795e-08
-2.24737889227302e-07
1.15656741469552e-07
-9.58711112452556e-08
1.4391921555183e-06
4.70286287585027e-08
2.04854573273165e-08
-3.65391593387476e-08
3.11137411107233e-07
3.45810931025792e-09
-6.61927652997678e-08
3.18724448025053e-07
5.71649984651186e-09
-1.19382781902687e-07
3.28455575825092e-07
5.67945355885382e-09
-1.9166089246182e-07
3.1968269276435e-07
1.43543840219402e-09
-2.77786179036336e-07
2.87979866671486e-07
-9.74755351329595e-09
-3.65647429407748e-07
2.41193287045962e-07
-3.1808802889032e-08
-4.16061048123286e-07
1.87285139605775e-07
-6.96878663034346e-08
-1.85565726585104e-07
1.28793783747797e-07
-1.08421898542185e-07
1.52044075195155e-06
6.16318331037403e-08
2.78429239189092e-08
4.14310188011562e-07
2.21414898353001e-08
1.59854532024895e-09
-3.10712610617766e-07
4.89443437581265e-08
-6.89732644100722e-09
6.84480578003053e-07
2.62413667873378e-08
4.44164512011399e-09
-3.60178414839996e-07
7.87728469158289e-08
-4.78865472110928e-09
-2.75259680735685e-07
5.98979058958797e-08
-1.66260766502675e-08
8.14874808246235e-07
3.13602373757183e-08
6.41946816576063e-09
-3.2361939559862e-07
1.11680009515494e-07
-3.24411463262657e-09
-3.72445516995776e-07
9.71279146736917e-08
-1.21453964657715e-08
-3.02957519933526e-07
7.30191418230161e-08
-2.97833057333488e-08
9.69924799067813e-07
3.61798129413819e-08
8.40917568908426e-09
-2.71430382572181e-07
1.47269526107025e-07
-2.15127206274609e-09
-3.34588031696413e-07
1.37128325057046e-07
-8.02858870070882e-09
-4.1893948762083e-07
1.19312036771025e-07
-2.2320222923369e-08
-3.18523769859668e-07
8.50920883453286e-08
-4.53252804567955e-08
1.11412861347485e-06
3.90624113799545e-08
1.10051499352132e-08
-2.15535975681252e-07
1.84562413127893e-07
-1.0421835178129e-09
-2.74733216381637e-07
1.78994426487323e-07
-4.90336669297669e-09
-3.71592966461676e-07
1.68231368871612e-07
-1.43518801620496e-08
-4.54794620543938e-07
1.39675809095147e-07
-3.4600336019595e-08
-3.18808178516359e-07
9.30935321524527e-08
-6.18522902105188e-08
1.22998189957101e-06
3.93107233685529e-08
1.4462393333314e-08
-1.61247242785912e-07
2.22590088925758e-07
1.36668003388116e-10
-2.12350018241757e-07
2.21612885888247e-07
-1.86274558894905e-09
-2.98221811805373e-07
2.17930308189684e-07
-7.94690406146543e-09
-3.99352888324534e-07
1.96508538203802e-07
-2.15817311176572e-08
-4.71890102623734e-07
1.54087285036182e-07
-4.77568738199869e-08
-3.03284661220038e-07
9.81616103980977e-08
-7.85138486070466e-08
1.31995167979769e-06
3.75702909366325e-08
1.87533995797231e-08
-1.10572223422045e-07
2.60622993587993e-07
1.41820335182275e-09
-1.52788069149552e-07
2.64082954324881e-07
1.21549487367226e-09
-2.24202504423778e-07
2.6715019447463e-07
-2.03452395687141e-09
-3.14788506917622e-07
2.52487970961256e-07
-1.07343783157975e-08
-4.10736416481023e-07
2.1595976291223e-07
-2.875306386316e-08
-4.71830205335598e-07
1.63781850929493e-07
-6.06245270013918e-08
-2.75108739700387e-07
1.02322689519423e-07
-9.47595285969284e-08
1.39507854791952e-06
3.50983476470806e-08
2.39701291044725e-08
-6.34407735914006e-08
2.98227296956849e-07
2.77284323992965e-09
-9.68027541978609e-08
3.05843816509675e-07
4.34209374109337e-09
-1.54838591377616e-07
3.15197872413016e-07
3.66635203131018e-09
-2.31029107420913e-07
3.06460880252802e-07
-1.11341788457402e-09
-3.19536131989975e-07
2.75095509882454e-07
-1.26507795213362e-08
-4.09034572680627e-07
2.28293232788806e-07
-3.47658317150885e-08
-4.61334908904407e-07
1.73031416533502e-07
-7.20426931593848e-08
-2.36815120094764e-07
1.11415471014365e-07
-1.09011928172323e-07
1.46576240437842e-06
4.39363270221157e-08
3.12393533407127e-08
-1.89202080514985e-08
3.35169240900257e-07
4.16995270308341e-09
-4.37997665021597e-08
3.46547036668134e-07
7.51445660857509e-09
-8.95667995628153e-08
3.61576915969171e-07
9.25880353992638e-09
-1.52985530753637e-07
3.57863953360009e-07
7.83625688787713e-09
-2.30034075600222e-07
3.3013686465026e-07
1.28426015548898e-09
-3.16005642691423e-07
2.86622898094217e-07
-1.29082412412583e-08
-4.02481922525062e-07
2.35957544061721e-07
-3.86752635273748e-08
-4.49143921074353e-07
1.81724619871318e-07
-8.108712723892e-08
-1.94807149600645e-07
1.23939695394061e-07
-1.20150334922212e-07
1.54969169510931e-06
5.86074727879459e-08
4.06248861862614e-08
3.92517376462148e-07
1.93842848724525e-08
2.40553800649197e-09
-3.25413173048324e-07
4.32800015591394e-08
-6.4380535913727e-09
6.56441217750793e-07
2.35677308782832e-08
6.07287201604868e-09
-3.77251599099636e-07
7.07008491102522e-08
-4.68262380743964e-09
-2.94195092939509e-07
5.39751044851028e-08
-1.5687360129542e-08
7.81812613672787e-07
2.86120993147446e-08
8.87691458422665e-09
-3.430460010288e-07
1.01495095601116e-07
-3.29520926052278e-09
-3.9392413180559e-07
8.84900115067308e-08
-1.19046167388455e-08
-3.26592626287802e-07
6.66814332986502e-08
-2.83079867936677e-08
9.31163214191157e-07
3.35949987148571e-08
1.16014361796894e-08
-2.92706868032077e-07
1.35255380705979e-07
-2.29882647151395e-09
-3.58661563654575e-07
1.2611195888675e-07
-8.15328418233611e-09
-4.45953676141597e-07
1.09813902148486e-07
-2.19303144244433e-08
-3.4743064727697e-07
7.86659342973291e-08
-4.33628672224984e-08
1.07065949985016e-06
3.70639157674949e-08
1.48126369340347e-08
-2.38102532229131e-07
1.71116333296626e-07
-1.28045060821872e-09
-3.00531440450769e-07
1.66044957521341e-07
-5.26988522933349e-09
-4.01672672266425e-07
1.55972819045385e-07
-1.4607915768031e-08
-4.87510054391553e-07
1.29576081515522e-07
-3.40886674421712e-08
-3.52537618350291e-07
8.69744280294661e-08
-5.94998521535008e-08
1.18384393854133e-06
3.83934372260339e-08
1.87575453258213e-08
-1.84705234804167e-07
2.08206858164285e-07
-1.86341362008719e-10
-2.39284035429941e-07
2.0734201947443e-07
-2.45539795788101e-09
-3.29867679922554e-07
2.0365041001368e-07
-8.67552540384588e-09
-4.35228888638838e-07
1.83275163490235e-07
-2.20752365816566e-08
-5.09571866954312e-07
1.4337515243147e-07
-4.71979379763855e-08
-3.41576394379897e-07
9.15778020268788e-08
-7.58357967813216e-08
1.27345538256999e-06
3.76524932003096e-08
2.331229998069e-08
-1.34783645138371e-07
2.45823801557545e-07
9.77603654847438e-10
-1.80592296896733e-07
2.49186671181476e-07
3.67225350432325e-10
-2.56741234264119e-07
2.5183144343883e-07
-3.22518685184701e-09
-3.51676867481798e-07
2.37493336247637e-07
-1.20430961239794e-08
-4.50779932460745e-07
2.02247454960486e-07
-2.96992592912216e-08
-5.13393157573188e-07
1.52279505888278e-07
-6.03088138170181e-08
-3.1877658432512e-07
9.47276867325709e-08
-9.20057392103773e-08
1.35000559839759e-06
3.50482029939835e-08
2.87468102391024e-08
-8.85259283768035e-08
2.83512125370651e-07
2.19605707324395e-09
-1.254958476748e-07
2.90986072903204e-07
3.20867143935753e-09
-1.8824544874553e-07
2.99775987278555e-07
1.99706253098298e-09
-2.68439267610082e-07
2.91042821719051e-07
-3.17809675506476e-09
-3.59724921053149e-07
2.60263124811135e-07
-1.48491067977211e-08
-4.51464970086831e-07
2.14114307078939e-07
-3.66550996844661e-08
-5.06030377775013e-07
1.59143583090502e-07
-7.27489499122956e-08
-2.86731439458048e-07
9.77236462873588e-08
-1.07461841663312e-07
1.42226352753085e-06
3.18662477994696e-08
3.56011155037534e-08
-4.51596719405026e-08
3.21021563008373e-07
3.44517418889984e-09
-7.36171219930536e-08
3.32379624923933e-07
6.05429998238942e-09
-1.24090886009032e-07
3.4697368784195e-07
7.09047118446702e-09
-1.9124540986066e-07
3.43354946667662e-07
5.03225420174558e-09
-2.70303655042435e-07
3.16252622282081e-07
-2.00103298388691e-09
-3.57309995539654e-07
2.73397455604002e-07
-1.6450829992336e-08
-4.44861402792609e-07
2.22767588897675e-07
-4.21260410450884e-08
-4.9326239240037e-07
1.67110939458516e-07
-8.36155754685385e-08
-2.45365706797921e-07
1.05987420391189e-07
-1.20506557399977e-07
1.49588012688975e-06
4.00727783074859e-08
4.49713996991339e-08
-3.73373577044994e-09
3.58220754996696e-07
4.72168515142182e-09
-2.41273695567224e-08
3.73120738744145e-07
8.94855377320015e-09
-6.31264205546817e-08
3.93022954149682e-07
1.21178876838985e-08
-1.18706125573336e-07
3.93913572216391e-07
1.29060752995868e-08
-1.87427561311923e-07
3.69613785152628e-07
9.71088482033789e-09
-2.65171212975661e-07
3.28629962745514e-07
7.98650514298975e-10
-3.51111254321619e-07
2.80318897032925e-07
-1.61836296625206e-08
-4.37893810711148e-07
2.28792855611394e-07
-4.54337752127884e-08
-4.81607886776097e-07
1.74720377708179e-07
-9.20838165384707e-08
-1.99567448005739e-07
1.1773200059047e-07
-1.29669070655508e-07
1.58484343523701e-06
5.50265522890853e-08
5.68307868060653e-08
3.72733100826535e-07
1.6501927708039e-08
3.28244605481047e-09
-3.37613965449886e-07
3.75201237687489e-08
-5.93368478616743e-09
6.30358763670367e-07
2.08005098150308e-08
7.6919069040254e-09
-3.91973304785599e-07
6.25162301938925e-08
-4.51483263889415e-09
-3.10345854438132e-07
4.78939185350248e-08
-1.46291120789458e-08
7.50746424782608e-07
2.57004810195274e-08
1.14253264257254e-08
-3.60203547906434e-07
9.11503188937049e-08
-3.29149461023839e-09
-4.12728573004541e-07
7.96370362230115e-08
-1.15382007983825e-08
-3.47084808363005e-07
6.00386196855596e-08
-2.66182998309882e-08
8.94329526564766e-07
3.06979169177876e-08
1.49944141453838e-08
-3.11814864500454e-07
1.22996306572369e-07
-2.39363273347001e-09
-3.8014515442341e-07
1.14827618557942e-07
-8.14856219478718e-09
-4.69851337703905e-07
9.99870943319205e-08
-2.13131068018928e-08
-3.72884360349931e-07
7.17707655852832e-08
-4.10347696018128e-08
1.02885271276063e-06
3.44352679390392e-08
1.89907838136824e-08
-2.58644894788328e-07
1.57256841374224e-07
-1.45878289960585e-09
-3.23910822799324e-07
1.52703706465747e-07
-5.51074625056079e-09
-4.28725944166039e-07
1.43362450219966e-07
-1.46482817863752e-08
-5.16660510210222e-07
1.19131253737537e-07
-3.32441870895496e-08
-3.82493684394337e-07
8.02744720901499e-08
-5.66243132632856e-08
1.13864201594525e-06
3.64054808479924e-08
2.36386934881847e-08
-2.0629072995129e-07
1.93154811894732e-07
-4.52689595113146e-10
-2.64022283794668e-07
1.92425954948841e-07
-2.92294761444931e-09
-3.58801339349103e-07
1.88821820062449e-07
-9.18605536630375e-09
-4.67761194438515e-07
1.69748908800433e-07
-2.22509595051455e-08
-5.43222748941418e-07
1.3277367359766e-07
-4.62348459205635e-08
-3.75505308247672e-07
8.54510159806151e-08
-7.26222822061218e-08
1.2266261266717e-06
3.68554098008429e-08
2.87211785238166e-08
-1.572199315611e-07
2.30021637065033e-07
6.21549024103901e-10
-2.06380671771637e-07
2.3326046042754e-07
-3.1642281692681e-10
-2.86910654815232e-07
2.35518892258294e-07
-4.15449136092325e-09
-3.85832284519615e-07
2.21741935457439e-07
-1.29861126194139e-08
-4.87644154886846e-07
1.88320462563597e-07
-3.01568615347712e-08
-5.50988598060963e-07
1.41349805225278e-07
-5.93743525395378e-08
-3.56735886088952e-07
8.82324215931179e-08
-8.84644082405514e-08
1.30349563896721e-06
3.53015589294354e-08
3.45147175176618e-08
-1.11831288338299e-07
2.67407004195157e-07
1.72213410289492e-09
-1.52243747763756e-07
2.7463463171863e-07
2.27741110349688e-09
-2.19469285574918e-07
2.82784549212948e-07
6.37821586825126e-10
-3.03533807768993e-07
2.74176441809787e-07
-4.81338320219343e-09
-3.97546381513675e-07
2.44480542704397e-07
-1.64539457339128e-08
-4.91295081472863e-07
2.00084736197286e-07
-3.7671574927281e-08
-5.46968400457454e-07
1.47498448013304e-07
-7.21381065403048e-08
-3.29849356226565e-07
9.00620529070754e-08
-1.03901751975519e-07
1.3776237368215e-06
3.19009994024938e-08
4.1479993778282e-08
-6.95142001962056e-08
3.05031177224878e-07
2.83557798316012e-09
-1.01433798155392e-07
3.16156201754664e-07
4.84253059392413e-09
-1.56445645837091e-07
3.3006604965886e-07
5.27343941750517e-09
-2.27336526867158e-07
3.2641862942071e-07
2.71147167432186e-09
-3.0864290911449e-07
3.00049154966086e-07
-4.6255973938416e-09
-3.97177722188033e-07
2.58214995226431e-07
-1.90825724083609e-08
-4.86473862923265e-07
2.08358547360384e-07
-4.42567469846367e-08
-5.37074164298621e-07
1.52973645373231e-07
-8.41855176860497e-08
-2.94713376316814e-07
9.20262551486792e-08
-1.18273295585512e-07
1.45315334481968e-06
2.7926216306225e-08
5.03832587709156e-08
-2.94277934087463e-08
3.42758257993374e-07
3.95747462180544e-09
-5.32892591296897e-08
3.57581303628465e-07
7.40555286043831e-09
-9.68734982952747e-08
3.76966497019109e-07
9.80815907315844e-09
-1.56097147660146e-07
3.77952802619349e-07
9.88344450342589e-09
-2.26686707662266e-07
3.54432771915201e-07
6.11174331122253e-09
-3.05071450085748e-07
3.14469542375909e-07
-3.17231682269765e-09
-3.91441295079936e-07
2.66916736838437e-07
-2.02716280466156e-08
-4.79073424614821e-07
2.15389362400867e-07
-4.92262369783346e-08
-5.24451206691127e-07
1.59796130639042e-07
-9.45796248933868e-08
-2.49462039417194e-07
9.90931086995388e-08
-1.29607580478894e-07
1.53198522737339e-06
3.56340383135605e-08
6.21876796858779e-08
9.16925743479403e-09
3.80517898325794e-07
5.1159352162902e-09
-7.01043841939662e-09
3.98729051773866e-07
1.00425218119109e-08
-3.97923025001489e-08
4.23170923359404e-07
1.43474874438325e-08
-8.82630722293936e-08
4.28287061812659e-07
1.68986114294181e-08
-1.49692454774263e-07
4.07036751074149e-07
1.63098733546855e-08
-2.19912712810727e-07
3.68133572911492e-07
1.1206523440008e-08
-2.98226313263881e-07
3.21521044665413e-07
6.82614304956329e-11
-3.85589930569114e-07
2.7185926937287e-07
-1.95146813341682e-08
-4.7367324311771e-07
2.20032348011483e-07
-5.20375726794969e-08
-5.14401647624472e-07
1.66021568108993e-07
-1.0247009329741e-07
-1.98092271383113e-07
1.09948389888475e-07
-1.35874720359855e-07
1.62570907103237e-06
5.10686689948156e-08
7.68746653182985e-08
3.54979684703079e-07
1.3581067086064e-08
4.15823962087178e-09
-3.47366512840148e-07
3.16546633591332e-08
-5.39815907885924e-09
6.06270293805277e-07
1.78926305112553e-08
9.47055132091777e-09
-4.0439880465729e-07
5.42521182288591e-08
-4.30655273387452e-09
-3.2376079203333e-07
4.17128520954275e-08
-1.34322274041647e-08
7.21899562543285e-07
2.25376464054442e-08
1.40106658381387e-08
-3.75150193717321e-07
8.07020412592526e-08
-3.24003646956936e-09
-4.2891916884364e-07
7.06303293805047e-08
-1.10609061388009e-08
-3.64445970786879e-07
5.31875418275066e-08
-2.47476186806727e-08
8.596480625283e-07
2.76142302825744e-08
1.84649842840824e-08
-3.28797595341612e-07
1.10562378716646e-07
-2.42921095192615e-09
-3.99108023750256e-07
1.03333465377461e-07
-8.02540529988571e-09
-4.90724035444222e-07
8.98798367705284e-08
-2.05107880845328e-08
-3.94929575955495e-07
6.45406764871889e-08
-3.84134761851223e-08
9.8899989022775e-07
3.14535681753552e-08
2.3398737581648e-08
-2.77184092254331e-07
1.43105094692874e-07
-1.56995079056725e-09
-3.44900695628932e-07
1.39057737362082e-07
-5.63292925090125e-09
-4.52829728058734e-07
1.30426883802076e-07
-1.44839821490224e-08
-5.4241394738718e-07
1.08308315863905e-07
-3.20981349514226e-08
-4.0886481332832e-07
7.30801319060792e-08
-5.33180645559583e-08
1.09499820889512e-06
3.37426462701886e-08
2.8895754097732e-08
-2.25992413550411e-07
1.77620419168027e-07
-6.62042993229742e-10
-2.86538955044961e-07
1.77026243130948e-07
-3.26514160404162e-09
-3.84994255800143e-07
1.73533168992606e-07
-9.48896527945077e-09
-4.96987355792243e-07
1.55829113847674e-07
-2.21206716513922e-08
-5.73167763139672e-07
1.21815400960117e-07
-4.48426882564588e-08
-4.05605826792146e-07
7.86589196699201e-08
-6.87825662331453e-08
1.18054148006085e-06
3.49426329766995e-08
3.47959317214345e-08
-1.7786626133477e-07
2.13476761759174e-07
3.24252145612717e-10
-2.30103989513056e-07
2.16566945949831e-07
-8.70224084303127e-10
-3.14602603469719e-07
2.18455479399011e-07
-4.86566878094854e-09
-4.1704476497858e-07
2.05387089847782e-07
-1.3611543979436e-08
-5.21038964555685e-07
1.74112020713212e-07
-3.01917844976753e-08
-5.84470948140393e-07
1.30585664824462e-07
-5.78879921210464e-08
-3.90320044510518e-07
8.21034293332127e-08
-8.42937640359075e-08
1.25637374231582e-06
3.4652165952412e-08
4.11869103748797e-08
-1.33382059743475e-07
2.50239097018808e-07
1.33336920456963e-09
-1.77020366420057e-07
2.57145137233815e-07
1.51371719832464e-09
-2.48414820829536e-07
2.64604180842322e-07
-4.56602716512932e-10
-3.36080759187774e-07
2.56215934007708e-07
-6.08109465429297e-09
-4.32575504270949e-07
2.27936217654136e-07
-1.75731281097899e-08
-5.27952327988437e-07
1.85902136867854e-07
-3.80531142724979e-08
-5.8390874347671e-07
1.36528274915442e-07
-7.07321642438001e-08
-3.67246930293046e-07
8.36142109804939e-08
-9.93783389768051e-08
1.33119922200961e-06
3.23515187930836e-08
4.85832296519945e-08
-9.20567458796933e-08
2.87617665155884e-07
2.33176457671137e-09
-1.27277974534611e-07
2.98361811086418e-07
3.83918115804653e-09
-1.86594162554296e-07
3.11435567816415e-07
3.77518442962782e-09
-2.61094420852965e-07
3.07745482636006e-07
8.26417999734943e-10
-3.44647601171794e-07
2.82348781920461e-07
-6.67604777529822e-09
-4.34739748177917e-07
2.42131104999688e-07
-2.09379759346124e-08
-5.2557835596418e-07
1.94207907623365e-07
-4.52771397378005e-08
-5.77198830480651e-07
1.41228085858501e-07
-8.31775317940165e-08
-3.37219878071772e-07
8.42828428591222e-08
-1.13770035540681e-07
1.40897672060455e-06
2.82678533820904e-08
5.73982766834638e-08
-5.31605388418541e-08
3.25446150030032e-07
3.31766963749088e-09
-8.03650190808047e-08
3.39944465143206e-07
6.12286510701781e-09
-1.28346689565517e-07
3.58516855768774e-07
7.86508952245092e-09
-1.91168974720312e-07
3.59410187609779e-07
7.35418771350736e-09
-2.63770259276469e-07
3.36684693163607e-07
3.16028580342256e-09
-3.43134418140258e-07
2.97961647761904e-07
-6.30934728770186e-09
-4.3049084562026e-07
2.51587456236489e-07
-2.32625549850262e-08
-5.19704429082666e-07
2.00829534577995e-07
-5.14803446429555e-08
-5.67288522719754e-07
1.45493447887322e-07
-9.48179035797501e-08
-2.98260892674847e-07
8.48870053187413e-08
-1.26440441919749e-07
1.49039720047705e-06
2.32196517714881e-08
6.87564143449084e-08
-1.60413774487766e-08
3.63655141032334e-07
4.31377884216013e-09
-3.56150124892898e-08
3.81725886568669e-07
8.41761428661634e-09
-7.28811244237233e-08
4.05556543001648e-07
1.19038650095684e-08
-1.24922554284202e-07
4.10743085652451e-07
1.36776889477447e-08
-1.88175952051302e-07
3.90364747762538e-07
1.24344363182093e-08
-2.58905059457826e-07
3.52705140757028e-07
6.86963902883171e-09
-3.37240060348955e-07
3.07253540390899e-07
-4.49467038104792e-09
-4.2479480577424e-07
2.58342149524906e-07
-2.40201429903621e-08
-5.13571502772194e-07
2.06456469277823e-07
-5.59880225134712e-08
-5.55917777396961e-07
1.5075083072944e-07
-1.04717765998825e-07
-2.47423176157333e-07
9.04595650169694e-08
-1.35100300035972e-07
1.57409100438346e-06
3.03095901958836e-08
8.34864831636928e-08
1.98359491273614e-08
4.0221931426739e-07
5.36980684101574e-09
7.63113283502045e-09
4.23582619604153e-07
1.08268530023701e-08
-1.93973772386063e-08
4.52311862347012e-07
1.6029545559119e-08
-6.13160859572782e-08
4.61341699140391e-07
1.99886869638058e-08
-1.16110935617961e-07
4.42827301094413e-07
2.14756139732397e-08
-1.79759745105534e-07
4.05695978348091e-07
1.93270566517666e-08
-2.51036946451031e-07
3.60411952221382e-07
1.23788636179759e-08
-3.31116375894418e-07
3.12011007726604e-07
-8.27095589493625e-10
-4.20843759115044e-07
2.61653492650424e-07
-2.28358115995361e-08
-5.10711135503648e-07
2.09341717402197e-07
-5.83707372406195e-08
-5.47960495465942e-07
1.55267878620584e-07
-1.11934409455752e-07
-1.87635501781335e-07