/*--------------------------------*- C++ -*----------------------------------*\
  =========                 |
  \\      /  F ield         | OpenFOAM: The Open Source CFD Toolbox
   \\    /   O peration     | Website:  https://openfoam.org
    \\  /    A nd           | Version:  12
     \\/     M anipulation  |
\*---------------------------------------------------------------------------*/
/*   Windows 32 and 64 bit porting by blueCAPE: http://www.bluecape.com.pt   *\
|  Based on Windows porting (2.0.x v4) by Symscape: http://www.symscape.com   |
\*---------------------------------------------------------------------------*/
FoamFile
{
    format      ascii;
    class       volScalarField;
    location    "300";
    object      k;
}
// * * * * * * * * * * * * * * * * * * * * * * * * * * * * * * * * * * * * * //

dimensions      [0 2 -2 0 0 0 0];

internalField   nonuniform List<scalar> 
10123
(
9.18178028379725e-05
9.61666706098726e-05
0.000303909918382849
9.40061547159764e-05
0.000100176073602492
0.000313174665844077
9.84359613469439e-05
0.000458498870634052
0.000304481604264138
9.67675631799292e-05
0.000103864992893928
0.000321610874935794
0.000102518272106345
0.000471167440380098
0.000313758454398638
0.000101297429350284
0.000582124358414257
0.000458215788726538
0.00030459842262631
9.74946852570625e-05
0.000107247018303728
0.00032928155339434
0.000106273318399533
0.000482688120424082
0.000322207893241462
0.00010547242107262
0.00059756135126341
0.000470880230222977
0.000313867843544514
0.000102045565201842
0.000688935727274609
0.000581402729511125
0.000455983782652197
0.000302219073274776
9.50198071649792e-05
0.00011033629280873
0.00033623949876971
0.000109715278510522
0.00049315036738099
0.000329888461957771
0.000109311082067359
0.000611601320595356
0.000482394837909817
0.000322315950718805
0.000106240549744819
0.000706752752823848
0.000596829672687118
0.000468592600745351
0.000311412771433368
9.94656248230745e-05
0.000784809620221877
0.000687713337270358
0.000577635631789474
0.000450664164033879
0.000296060101645208
9.01028709000642e-05
0.000113145956955423
0.000342533411785777
0.000112858359089506
0.000502623850668343
0.000336854151583183
0.00011282790720301
0.000624348410368427
0.000492850297530344
0.000329995000452517
0.00011009722442268
0.000722965634338557
0.000610855289796434
0.000480059106017881
0.000319797257404063
0.000103564336671426
0.000804727422802984
0.000705512353620062
0.000592978892790079
0.000463136988426744
0.000305077345125998
9.43405855259947e-05
0.000872642694588832
0.000782988886103288
0.000682643049626626
0.000569993813821763
0.000441428735712994
0.000286411447026453
8.40019105572042e-05
0.000115690914666904
0.000348208105044964
0.000115716454557785
0.000511174191489306
0.00034315443183576
0.000116038297674209
0.000635884878965827
0.00050231703702081
0.000336957421187519
0.000113630073227399
0.000737687807499129
0.000623587748709045
0.000490471361906212
0.000327419572578529
0.000107333681956852
0.000822862543267037
0.000721701455609715
0.000606928942270273
0.000474484666741877
0.000313305803321868
9.82496186975276e-05
0.000894443976451067
0.000802878812742446
0.000700334834404628
0.0005851562195089
0.000453664832525539
0.000295155882332398
8.79759131103353e-05
0.000954133727159436
0.000870303185888507
0.000776663149037659
0.000672992344671197
0.000558043208583582
0.000428404008242478
0.000274238889257824
7.73565974885853e-05
0.00011798507033162
0.000353306569384652
0.000118303930032807
0.000518864269921274
0.000348834735698087
0.000118957643603161
0.0006462887453997
0.000510861005113458
0.000343254258772718
0.000116855083112999
0.000751010473643113
0.000635110414054818
0.00049989918734717
0.00033433020908074
0.000110787699269941
0.0008393361990335
0.000736400198348026
0.000619592986714473
0.00048479109358712
0.000320787739599609
0.000101846085180921
0.000914306427484731
0.000820979632273982
0.000716425586259266
0.000598946034826161
0.000464802241505037
0.000303140119937138
9.16445035762943e-05
0.000977643123481486
0.000892068430584447
0.000796423673427705
0.000690465349266214
0.000572916432790362
0.000440304502913469
0.000282636838771151
8.10383544367652e-05
0.00103041710691558
0.000951439352981482
0.000862892356909823
0.000765199356877574
0.000658590464712684
0.000542008659896424
0.000412200523439521
0.000260208308636331
7.02673739494405e-05
0.000120041186612634
0.000357868746143486
0.00012063766714366
0.000525754167011341
0.000353938000865789
0.000121600306621968
0.000655635353085393
0.000518545334735017
0.000348932318884831
0.000119788245789516
0.000763021240000835
0.000645501543237334
0.000508408502264719
0.000340580500788429
0.000113941653328822
0.000854246133984914
0.000749701035836318
0.000631054451150797
0.000494124331043247
0.000327571999626263
0.000105143843901609
0.000932357011399672
0.000837419440978482
0.000731034775656033
0.000611466806664971
0.000474920558496468
0.000310401668233213
9.50217475190597e-05
0.000999074554771124
0.000911887948505681
0.000814405078656538
0.000706361028532834
0.000586448197147882
0.000451141267986523
0.000290310042071126
8.44409666514316e-05
0.00105548960722638
0.000974908392109266
0.000884510055760235
0.000784708138098699
0.000675728089765442
0.000556489033488529
0.000423680383593657
0.000268203947395543
7.36344557662059e-05
0.00110224478351202
0.00102749743048035
0.000943190979841474
0.000849880323125807
0.000748603791760724
0.000639809810588964
0.000522378166909997
0.00039329617146838
0.00024454037637553
6.27277911537892e-05
0.000121872521266333
0.000361931072351317
0.000122729280332023
0.000531900716125372
0.000358504768793705
0.000123983154272729
0.000663997954924799
0.000525430145368385
0.000354034270318258
0.00012244448670959
0.000773805986131661
0.000654836922715219
0.000516062439225635
0.000346217951399962
0.000116811605686173
0.000867687464194021
0.000761691906405132
0.000641391270159424
0.000502549505278838
0.000333709273505549
0.0001081565907981
0.000948698625815015
0.000852298023807664
0.000744255585333198
0.000622800472711762
0.000484085468176454
0.000316987903806489
9.8120508829981e-05
0.0010185598764889
0.000929896434768521
0.000830735756452727
0.000720795142607783
0.000598737930505576
0.000460989563609431
0.00029729072538881
8.75746656907384e-05
0.00107835843668768
0.000996291867355784
0.000904192996151221
0.000802464554674513
0.000691323634872856
0.000569667955592196
0.000434138930968223
0.000275516185311823
7.67498460869854e-05
0.0011287570983321
0.00105252813291213
0.000966500269032656
0.00087122037046039
0.000767737667699562
0.000656503474202961
0.000536372991833241
0.000404281890507444
0.000252085141566865
6.57574442361801e-05
0.00117006781535199
0.0010991683742224
0.00101861434160178
0.000928919577858855
0.000831386929556053
0.000727358323243521
0.000617122404639993
0.000499511209817064
0.000371918192195469
0.000227268217224131
5.48044037489294e-05
0.000123491199072014
0.000365526942112457
0.000124592808662793
0.000537357096764191
0.000362571817743924
0.000126118310889932
0.000671446266965512
0.000531572200204026
0.000358600200324113
0.000124838602044485
0.000783448384183575
0.000663189615611794
0.000522920844420235
0.000351284820269653
0.000119411383206886
0.000879754258798869
0.000772458800668091
0.000650678837392449
0.000510129184113118
0.000339246584936219
0.000110899271770977
0.000963432329995187
0.000865710874846423
0.000756175355465335
0.000633023845264315
0.000492360518161052
0.000322947759919893
0.000100953026402185
0.00103620603280898
0.000946199055600739
0.000845516267285227
0.000733859648200538
0.000609865046790937
0.000469912285101958
0.000303623990061983
9.0451186189193e-05
0.00109915973647647
0.00101573013835827
0.000922076410084788
0.000818592792025791
0.000705488606594128
0.000581640734978807
0.000443646651883529
0.000282169465756457
7.96200577996753e-05
0.00115295063534621
0.00107534663190697
0.000987735466750338
0.000890654231953872
0.000785158002225307
0.000671699495277363
0.000549114230355138
0.000414295408976293
0.000258992215910519
6.85640126838187e-05
0.00119791063316814
0.00112563884642036
0.00104347776654539
0.000951932148139974
0.000852320571511427
0.000746004478584494
0.000633273870061017
0.000512935942208109
0.000382342199297321
0.000234314755501005
5.74759787733834e-05
0.00123411677700997
0.00116686223805501
0.00108977403740804
0.00100331110331915
0.000908811943519369
0.000807966143157327
0.00070194568528689
0.000590834882353055
0.000473604812397553
0.000348165244731237
0.000208413288872932
4.66339522526036e-05
0.000124907996345837
0.000368688386500852
0.000126238122304477
0.000542172390371516
0.000366172514231284
0.000128021083303558
0.000678046091174
0.000537024569254702
0.000362666929228883
0.00012698414453457
0.000792028845314469
0.000670629078530661
0.000529040068536697
0.000355820131232827
0.000121755457914747
0.000890538964743965
0.000782085288332071
0.000658989828634842
0.0005169224355912
0.000344225048492092
0.000113385024100134
0.000976659098740605
0.000877752134374998
0.000766879540954699
0.000642211202209356
0.000499806976357994
0.00032832652394141
0.000103532347484623
0.00105211900920328
0.000960897356340408
0.000858841841092299
0.00074564075589378
0.000619904439992586
0.000477970742583442
0.000309356239294667
9.30821703406464e-05
0.00111800387814452
0.00103333267738053
0.000938266362171733
0.000833192120779054
0.000718312248453807
0.000592483732955926
0.000452263111272601
0.000288206569257049
8.22555667855971e-05
0.00117496567076125
0.00109609836406768
0.00100703768099384
0.000908313161866571
0.000800984568102889
0.000685505216968581
0.000560692790624699
0.000423401345754931
0.000265277338109322
7.1150789676742e-05
0.00122332826788667
0.00114978100052456
0.00106614053520491
0.000972900676973884
0.000871389406819773
0.000762985164717495
0.000647980254003058
0.000525162316949437
0.000391849192486972
0.000240773852129737
5.99554693838056e-05
0.00126318847897764
0.00119466370661242
0.00111607245144449
0.00102786415975666
0.000931393456187814
0.00082837625929714
0.000720001421902607
0.000606352444841694
0.000486379411087402
0.000357962641912857
0.000214914227708851
4.89314214396544e-05
0.00129448297676823
0.00123079116773421
0.00115702175118095
0.00107358858425176
0.000981811927904127
0.000883478193064301
0.000780125971158117
0.000672652886376692
0.000561120340144649
0.000444780326193014
0.000322098950006967
0.000188033296363568
3.84032944760153e-05
0.000126130826419231
0.000371441380795474
0.000127678333815374
0.00054638950233902
0.00036933717423373
0.000129701717637718
0.000683858512863606
0.000541836013624419
0.00036626814161026
0.000128896066427967
0.000799623653977785
0.000677221068897577
0.000534472764484806
0.000359860129727901
0.000123857255237636
0.000900131049551506
0.000790651621584653
0.000666393102843724
0.000522984769841126
0.000348682372763289
0.000115627438907543
0.000988478628702484
0.00088851405568571
0.000776451065991164
0.000650434020843891
0.000506482515434969
0.000333163996257271
0.000105871307304071
0.00106640549449993
0.000974092290322714
0.000870805996555013
0.000756222329116509
0.000628928611354842
0.000485224146282237
0.000314530804671536
9.5478754169083e-05
0.00113500102826009
0.00104920601884671
0.000952864214301087
0.000846356524988895
0.000729878887076134
0.000602269232574319
0.000460046926046615
0.000293672604767528
8.4667311087619e-05
0.00119491570723829
0.00111489648368643
0.00102451746334252
0.000924301895203308
0.000815313643069569
0.000698006670447749
0.000571181537382701
0.000431655778267432
0.000270980491656628
7.35266359265694e-05
0.0012464654034911
0.00117174517619343
0.00108674908847515
0.000991962178746857
0.00088872000416372
0.000778416088280011
0.000661344502587398
0.000536276189978528
0.000400497287962524
0.000246651149078157
6.22417323192983e-05
0.00128973626215818
0.0012200294089305
0.00114005391380314
0.00105024759955943
0.000951974355831342
0.000846972556779868
0.000736448171757153
0.000620485217643742
0.000498017957569501
0.000366904310598297
0.00022088434007842
5.10706783913315e-05
0.00132468370590339
0.0012598221073111
0.00118464776567686
0.00109956648189138
0.00100591481539552
0.000905506825914216
0.000799905373785562
0.000690021267014461
0.000575915720224441
0.000456827512301315
0.00033120650567842
0.000193941607530631
4.03195975380021e-05
0.00135118332898686
0.00129104096701967
0.00122053929487719
0.00114004704326664
0.0010508569121482
0.000954777556560453
0.00085346422465966
0.000748156474692104
0.000639640516018521
0.000528103865696209
0.000413130201479015
0.000293775062589137
0.000166204084495857
3.03228881198998e-05
0.000127166798801483
0.000373806945556547
0.000128921098998606
0.000550049326614081
0.000372092772839251
0.000131172681358395
0.000688939443502682
0.000546050483864454
0.00036943376709142
0.000130587110050164
0.000806304186153437
0.000683026600458287
0.000539267321943947
0.000363438371325971
0.000125730891611126
0.000908615685941934
0.000798233958357134
0.000672953743321607
0.000528367924292925
0.000352654072559137
0.000117639751078213
0.000998987959869081
0.000898085860230266
0.00078496947288551
0.000657760387256518
0.000512441236331167
0.000337496744985689
0.000107982710066978
0.00107917145519918
0.000985883397972245
0.000881500181553195
0.000765685983313401
0.000637007265984461
0.000491728372831695
0.000319186304667954
9.76528386101806e-05
0.00115026276844089
0.0010634568420334
0.000965970243342382
0.00085817806697374
0.000740270291853023
0.000611067410722805
0.000467055020890644
0.000298607966215903
8.68653950419309e-05
0.00121291455147358
0.00113185177494087
0.00104028122048014
0.000938720491659859
0.000828237026718389
0.000709285275652623
0.00058064972194396
0.000439114674340025
0.000276145813638002
7.5701721767164e-05
0.00126743858878129
0.00119164789982214
0.00110541786446775
0.00100922592070179
0.000904414324587548
0.000792390134560928
0.000673449167893236
0.000546346608796528
0.000408338643497106
0.000251984179299246
6.43419597787002e-05
0.00131390997309216
0.00124311485940502
0.00116187005627495
0.00107060366827196
0.000970686723767449
0.000863877166632097
0.000751397062675305
0.00063333134012677
0.000508600648580645
0.000375040913871671
0.000226316548923814
5.30447431980475e-05
0.00135227024790204
0.00128631756355778
0.0012098490909155
0.00112325912560821
0.00102789302873211
0.000925588163125691
0.000817930851707197
0.000705845074085761
0.000589394247110137
0.000467807943383024
0.000339526091519045
0.000199382911410795
4.21102535780736e-05
0.00138240801305083
0.0013212016056731
0.00124939209634791
0.0011673445235076
0.00107636944943931
0.00097830377294847
0.000874828989192591
0.000767203810639912
0.000656227327289414
0.000542091123984949
0.000424374820338158
0.0003021308539648
0.000171476659886435
3.18582090003044e-05
0.00140420156423216
0.00134762822479907
0.00128040088499861
0.00120283628655423
0.00111619560837406
0.00102228610029955
0.000922798401965092
0.000819079136334169
0.000712216832680191
0.000603033410473685
0.000491893946935976
0.000378728979531191
0.000263238387448935
0.000142988137359576
2.25823292020738e-05
0.00012801875444109
0.000375806324369592
0.000129972862389579
0.00055318770646277
0.000374461711699208
0.000132441474912041
0.000693339470517624
0.000549708030074023
0.000372190353430647
0.000132067044121099
0.000812136286840483
0.000688101527489935
0.000543467599472503
0.00036658494083723
0.000127388762112305
0.000916073099384762
0.000804903556948617
0.000678732251589824
0.000533119660507824
0.000356173023814575
0.000119434432611195
0.00100828014247686
0.000906552613882367
0.000792510219248752
0.00066425415366422
0.00051773379790481
0.000341359120429135
0.000109878914317396
0.00109052042174033
0.000996367496681922
0.000891012770502896
0.000774110017807732
0.000644206790154345
0.000497535932836608
0.000323357978444895
9.96172866482533e-05
0.00116390044722073
0.00107619093194953
0.000977683131621365
0.000868746704652805
0.000749565937784892
0.000618945746511307
0.000473341130438518
0.000303049754952311
8.88603041830836e-05
0.001229078167688
0.00114707583164705
0.00105443494190052
0.00095166773788651
0.000839844623834085
0.00071942053522896
0.000589164772301711
0.000445832088617215
0.000280811335001391
7.76854380942377e-05
0.00128636489694624
0.00120960369158451
0.00112225759028588
0.00102479700966153
0.000918570110903576
0.000804996004400515
0.000684372381034716
0.000555439569663976
0.000415426289630421
0.000256815378876386
6.62652171565486e-05
0.00133582910451866
0.00126403985948725
0.00118163890449619
0.00108904560386641
0.000987637070925597
0.000879188756051093
0.000764937748318798
0.000644969469205031
0.000518192318502422
0.000382420554558154
0.000231245365181542
5.48583019515279e-05
0.00137739818561971
0.00131043891311414
0.0012327828199367
0.00114481388659077
0.00104788372082527
0.000943849654173851
0.000834319572642523
0.000720230709790145
0.00060164870296455
0.000477795464089704
0.000347099774270981
0.000204336044328155
4.37662204897459e-05
0.00141094133966875
0.00134873547111162
0.00127572016805423
0.00119224948500933
0.00109964282412095
0.000999760407236082
0.000894308374950946
0.000784564896770348
0.000671341962116468
0.000554837079695627
0.000434629056753319
0.000309773176328745
0.000176356934412482
3.33046382041347e-05
0.00143632935661278
0.00137881369647613
0.00131038124915501
0.00123135391485328
0.0011430152592691
0.00104720240438781
0.000945632931190267
0.000839674616447974
0.000730433029702168
0.000618746290696403
0.000504989181376287
0.000389097634355993
0.000270782685890086
0.000147587079732927
2.37512560721279e-05
0.0014534775845041
0.0014005369013535
0.00133662054957808
0.00126201588466042
0.00117794937784848
0.0010862155872832
0.000988510356674687
0.000886209480456195
0.000780489314806571
0.000672432848506536
0.000562947432111076
0.000452581414784366
0.000341625727743859
0.000230498137920813
0.000118417069874258
1.53155154874018e-05
0.000128687837061724
0.000377452177814977
0.000130836667619981
0.000555831389257968
0.000376462675940514
0.000133514290655663
0.000697103544601567
0.00055284352804678
0.000374560077004137
0.000133343538154576
0.000817179923264268
0.000692496406996053
0.000547113001058219
0.000369325746438306
0.000128839984156902
0.00092257765744243
0.000810726162914901
0.000683784053072409
0.000537283358803919
0.000359268490400694
0.000121022916558182
0.00101644302659154
0.000913994353026017
0.000799143918315946
0.000669974776384819
0.000522406881967016
0.000344782560265817
0.000111571767333388
0.00110055236797131
0.00100563740386868
0.000899428045419643
0.000781568618241605
0.000650589797868799
0.000502695860928778
0.000327078762668105
0.000101383191614688
0.00117602344972328
0.00108751166626641
0.000988098783791413
0.000878149336951581
0.0007578422766797
0.00062596856956801
0.000478955773133918
0.000307032231727668
9.06639965107633e-05
0.00124352244342706
0.0011606798399497
0.00106708352886306
0.000963240732899049
0.000850224232278617
0.000728489261164032
0.000596791630117071
0.000451859279499397
0.000285011487918038
7.94872056175599e-05
0.00130336390761688
0.00122572845015396
0.00113737917957271
0.00103877993641798
0.000931283889997328
0.000816320928836138
0.000694190499955823
0.000563619284730435
0.000421811160000604
0.000261180939812169
6.80203386847622e-05
0.00135561350634716
0.00128292226042989
0.00119947500104451
0.00110568286913816
0.00100292818523849
0.000893002057001161
0.000777155354077391
0.000655474203523469
0.000526855303780747
0.000389092605815253
0.000235710601201848
5.6519316175298e-05
0.00140018936492736
0.00133230912650741
0.00125357046179015
0.00116434768034779
0.00106599737540416
0.000960394531758107
0.00084916667260513
0.000733263789862689
0.000612753461334801
0.000486850355839364
0.000353970930064155
0.000208829733850158
4.52884056274372e-05
0.00143694321507644
0.00137381045619003
0.00129968673068926
0.00121491470222103
0.00112081917272891
0.00101927988169282
0.000912025340952988
0.000800352502045599
0.000685085547315181
0.000566428558830795
0.000443959593264161
0.000316734781187885
0.000180801932419545
3.46457100992782e-05
0.00146571712272051
0.00140729421931282
0.00133774520915906
0.00125737935285284
0.00116748939941708
0.00106993601789194
0.000966461668932455
0.000858454963955585
0.000747038907278771
0.000633067413332474
0.000516926283923386
0.000398559447657151
0.000277695202970899
0.000151872326558314
2.48627008212633e-05
0.00148638054646474
0.00143262750863458
0.00136762428285769
0.00129165553681235
0.00120597870155923
0.0011124226349686
0.00101271157882205
0.000908243003981271
0.000800211878339951
0.000689720250366642
0.000577695663496392
0.000464702495433492
0.000351046794796128
0.000237175223711893
0.000122307026738734
1.61339338668507e-05
0.00149873117876464
0.00144970509958388
0.00138918215532961
0.00131759478220629
0.00123616243571585
0.00114666249899549
0.00105078034336122
0.000949890213335958
0.000845187314615604
0.000737823107650805
0.000628922570066433
0.000519480359286802
0.000410222860445208
0.000301823087102344
0.000195526292051196
9.24823530546935e-05
8.80499889426649e-06
0.000129183068714616
0.000378755585583095
0.000131513509555516
0.000558006921720218
0.000378109549330172
0.000134394174277337
0.000700270583831608
0.000555485612791693
0.000376560993487855
0.000134422154890874
0.000821488415472679
0.000696256029567954
0.000550237812680105
0.000371681950951838
0.000130092113732589
0.000928197232927495
0.000815761535953041
0.00068815921194741
0.000540897561489318
0.000361965357110376
0.000122414532228394
0.00102355834547413
0.000920485275234259
0.000804935717407597
0.00067497683898105
0.000526502722201241
0.00034779518306218
0.000113070870967673
0.00110936175524022
0.00101378076540436
0.000906825283972809
0.000788131206674651
0.000656214259819071
0.000507253276182422
0.00033037860654229
0.000102960895718252
0.00118673752432988
0.00109751863248903
0.000997309112522574
0.000886468823398385
0.000765171778810329
0.00063219648515635
0.000483946040483689
0.0003105863442272
9.22874987703237e-05
0.00125636192669043
0.00117277295304238
0.00107832941625727
0.000973533784185193
0.000859460685293489
0.000736565464361966
0.000603592129653389
0.000457244508131243
0.000288778993182224
8.11173675846205e-05
0.00131855582204327
0.00124013805601311
0.0011508929263545
0.00105127795530642
0.000942650513231845
0.000826450036123625
0.000702977777567067
0.000570947700257542
0.000427541696880259
0.00026511293186018
6.96161424158921e-05
0.00137338588727953
0.00129988167614407
0.00121549356491713
0.00112062485765593
0.00101666222364497
0.000905410749919003
0.000788133780685716
0.000664918385570391
0.000534650241307086
0.000395104771817543
0.000239746653354667
5.80355717684623e-05
0.00142076554520529
0.00135204890392415
0.00127232997384817
0.00118197383713281
0.00108234111647751
0.000975322532613809
0.000862563481985313
0.000745026043962304
0.000622779116928414
0.000495030691719109
0.000360184642347985
0.00021290048105938
4.66824207830212e-05
0.00146053502178237
0.00139655204780868
0.0013214166639682
0.00123546066850101
0.00114001267700515
0.00103696935108537
0.000928079459053711
0.000814657408663355
0.000697539464822524
0.000576935173327822
0.000452421602851302
0.000323052921747018
0.000184833297132618
3.58783280317599e-05
0.00149251565047916
0.00143324257090316
0.00136266277407859
0.00128107143377415
0.00118976543482998
0.00109062426646446
0.000985412508975411
0.000875538381818959
0.000762141924116455
0.000646092078132576
0.000527785461927675
0.000407173249027983
0.000283998309289725
0.000155786957603011
2.58958875008333e-05
0.00151654234443365
0.00146196259390439
0.00139593289657074
0.00131871158836229
0.0012315636100376
0.00113634176936514
0.00103479541864427
0.000928342974472966
0.000818198283745764
0.000705481505684343
0.000591140667559415
0.000475756271470404
0.000359651977101072
0.000243308772719413
0.000125965769128931
1.69259678557962e-05
0.00153245154011047
0.00148257667478516
0.00142109105113395
0.00134825337147758
0.00126530494175692
0.00117406533877496
0.0010762524527681
0.000973263358443632
0.000866312408650101
0.0007565703491503
0.000645184582368054
0.000533174595450475
0.000421289243890169
0.000310226327761474
0.000201278005730982
9.56308238775667e-05
9.30121563071865e-06
0.00146092615941121
0.00153995885029009
0.00149486363730299
0.00143802290076206
0.00136955555928215
0.00129083653223094
0.00120365582787651
0.00110968242547543
0.00101027231523497
0.000906612063573484
0.000799862053528582
0.000691196803342592
0.000581780399127357
0.000472684332109684
0.000364808284466037
0.000259271011547376
0.000158371349374225
6.54028404573797e-05
3.67395141262349e-06
0.000129538050590416
0.000379734375310616
0.000132014448060243
0.000559737563151571
0.000379415244287673
0.000135082415235048
0.000702874158171303
0.000557659599328675
0.000378206870815015
0.000135305353488767
0.000825108560302045
0.000699419219796542
0.000552871019222218
0.00037367083198481
0.000131149886020378
0.000932992515691141
0.000820062969019938
0.000691902049945125
0.000543995643227968
0.000364284263164268
0.00012361546187401
0.00102970087941257
0.000926093072117804
0.000809944799371843
0.000679309498196406
0.000530058711399971
0.000350420867530041
0.000114384931401092
0.00111703683625528
0.00102087911635891
0.000913277973912365
0.000793861834904441
0.0006611332853419
0.000511248932290194
0.00033328389054711
0.000104359397656191
0.00119614318801833
0.00110630614233654
0.00100540092384306
0.00089378309700388
0.000771622188717461
0.000637685801492685
0.000488355150740263
0.000313740101592166
9.37391867324206e-05
0.00126770759194783
0.00118346064532994
0.00108827118967548
0.000982637250651709
0.000867634873896262
0.000743719404352217
0.000609624515564009
0.000462032610741318
0.000292143536554238
8.25861076515075e-05
0.00133205951501828
0.00125294674484726
0.00116290699210777
0.00106239183155329
0.000952762085522171
0.000835465581711121
0.0007108052463284
0.000577483906394933
0.000432663597951594
0.000268641364913593
7.10617401631746e-05
0.00138927003945058
0.00131503817265103
0.00122980961488149
0.00113398020350159
0.00102894013215614
0.000916506902551453
0.000797955136209639
0.00067337288759727
0.000541635760300007
0.000400502503037476
0.000243384269174355
5.94150573025604e-05
0.00143925180232781
0.00136978101344292
0.00128918033203591
0.00119780606410197
0.00109702201330646
0.000988732912495668
0.000874600352982221
0.00075559756445303
0.000631794702250728
0.000502393212709244
0.000365785192307837
0.000216580224665676
4.79550565960295e-05
0.00148183896221198
0.00141708293817126
0.00134103086009588
0.00125400418840957
0.0011573343501115
0.00105293293160499
0.000942567071246139
0.000827567278868327
0.000708781238147498
0.000586423056261828
0.000460068320544089
0.000328767596577006
0.000188483453482808
3.70061112469954e-05
0.00151683991873502
0.00145678421229581
0.00138526154262102
0.0013025541136435
0.00120996114621059
0.00110937800591861
0.0010025890343371
0.000891020574774277
0.00077582901729163
0.000657896923005708
0.000537630997579588
0.00041498815425149
0.00028972070208303
0.000159336040574225
2.68455213394222e-05
0.00154406880767944
0.00148870720057512
0.001421721570871
0.00134334958478181
0.00125485742008969
0.00115811549566569
0.00105489465113041
0.000946632602749099
0.000834561174190492
0.000719818380477829
0.000603371270184362
0.000485815610021088
0.000367491303055312
0.000248908641557901
0.00012931592931686
1.7666239659218e-05
0.00156335478774099
0.00151268650515673
0.00145025286187567
0.00137624970666175
0.00129191225408057
0.0011990823095057
0.00109950320582392
0.000994593007249624
0.000885584815470868
0.000773668590181442
0.000660013201353399
0.000545662288435808
0.000431386707083321
0.000317912588169997
0.000206584939443891
9.86350313886698e-05
9.79744678676166e-06
0.0015745175759395
0.00152855358947385
0.00147071628839399
0.00140111645814055
0.00132099067374471
0.00123216004654298
0.0011363333208928
0.00103489306249712
0.000929045879883156
0.0008199719497996
0.000708866899199866
0.000596921502129191
0.000485235698779928
0.000374738349084082
0.000266586570006331
0.000163147056583377
6.77788279957826e-05
3.90489002589242e-06
0.00150110599446998
0.0014571479310363
0.00157736598377327
0.00153601043207209
0.00148288421401949
0.00141783510612821
0.00134195129197378
0.00125718888137825
0.00116523101120416
0.00106740911951382
0.000964885296444994
0.000858806399853036
0.000750344995278268
0.000640693364951342
0.000531039320285731
0.000422512690760103
0.000316226071349124
0.000213967722092375
0.000119334450896541
3.79600022185307e-05
7.66398012214702e-07
0.000380426652545806
0.00013237178116213
0.000561046427167476
0.000380394571944454
0.000135590315502822
0.000704944331723433
0.000559388544166814
0.000379513311109531
0.000135994717070997
0.000828081076289455
0.000702019692202303
0.000555037338646005
0.000375305570313363
0.000132014257430304
0.000937017035913342
0.000823677240739388
0.00069505113079304
0.000546606011740784
0.000366241454314068
0.000124629538025454
0.0010349379331304
0.000930878378150708
0.000814223989493903
0.000683016231102352
0.000533107177711283
0.000352678890844587
0.000115519161207033
0.00112365847724036
0.00102700706626359
0.000918853153923296
0.000798818663348481
0.000665394751969942
0.000514718776328238
0.000335816863880973
0.000105585578501678
0.00120433430825639
0.00111396219598494
0.00101245496779319
0.000900164395207812
0.00077725597349178
0.000642487854842875
0.000492222019387481
0.000316518242828033
9.50273188685025e-05
0.00127766524882251
0.00119284316968475
0.00109700227286334
0.00099063647283014
0.000874822869606281
0.000750016770963114
0.000614942838442867
0.000466264601034552
0.000295131154424119
8.39012771566047e-05
0.00134399065906599
0.00126426523599634
0.00117352584187469
0.00107221850531757
0.000961706844579001
0.000843446021650707
0.000717740481881359
0.00058328345709383
0.000437219258145472
0.000271794455761529
7.23654207713873e-05
0.00140338872661306
0.00132851042232874
0.00124253636431567
0.00114585535227093
0.00103986038660395
0.000926379915294015
0.000806698680457482
0.00068090586944542
0.000547867811420052