/*--------------------------------*- C++ -*----------------------------------*\
  =========                 |
  \\      /  F ield         | OpenFOAM: The Open Source CFD Toolbox
   \\    /   O peration     | Website:  https://openfoam.org
    \\  /    A nd           | Version:  12
     \\/     M anipulation  |
\*---------------------------------------------------------------------------*/
/*   Windows 32 and 64 bit porting by blueCAPE: http://www.bluecape.com.pt   *\
|  Based on Windows porting (2.0.x v4) by Symscape: http://www.symscape.com   |
\*---------------------------------------------------------------------------*/
FoamFile
{
    format      ascii;
    class       volScalarField;
    location    "300";
    object      nut;
}
// * * * * * * * * * * * * * * * * * * * * * * * * * * * * * * * * * * * * * //

dimensions      [0 2 -1 0 0 0 0];

internalField   nonuniform List<scalar> 
10123
(
3.72207417883858e-05
3.89837139814384e-05
0.000385199539009892
3.94704757349595e-05
4.06090794233712e-05
0.000394203481154009
4.13304873398937e-05
0.000978460479097089
0.000394143865300209
4.23120378683468e-05
4.2104482545702e-05
0.000402373461599435
4.30446058717411e-05
0.000996302363892945
0.000403318200951722
4.42925878578293e-05
0.00165400867954379
0.000988794647379926
0.000405521026151121
4.39935891853151e-05
4.34754205204157e-05
0.000409749247475433
4.46212209512074e-05
0.00101239866660398
0.00041166027280284
4.6118443028604e-05
0.0016814704683335
0.00100678355254914
0.000414913484847394
4.60469791798424e-05
0.00232851826755252
0.00166141373656603
0.00100101060832951
0.000412326268403903
4.34431874288769e-05
4.47277728506033e-05
0.000416408883876914
4.60663046772666e-05
0.00102690068916291
0.000419179453444555
4.77968694792696e-05
0.00170610139319091
0.00102301730267269
0.000423479241732453
4.79403028398846e-05
0.00236587882301165
0.00168897425106236
0.00101916920618932
0.000421850204738591
4.54758982527179e-05
0.00296311674312996
0.00233103532705678
0.00166755218228119
0.00100707033293661
0.000410294429831985
4.12144871496479e-05
4.58667624712048e-05
0.000422420083980518
4.73860314078522e-05
0.0010399546894562
0.000425962507063912
4.93345246144907e-05
0.00172822576512987
0.00103763801813564
0.000431194099136133
4.96804803247634e-05
0.00239923944987983
0.00171369316321702
0.0010355741947289
0.000430554096642427
4.7349965196577e-05
0.00301029834459693
0.00236842655835977
0.0016951843337542
0.00102530128257697
0.00041977825091063
4.31529303895981e-05
0.00354281744712986
0.00296054480551284
0.00232824157164246
0.00166597988066034
0.00100134835059705
0.000400706208061065
3.83232220850079e-05
4.68984451588495e-05
0.000427834882984488
4.85861034524044e-05
0.00105169442570691
0.000432083115483256
5.07382856281468e-05
0.00174808464534194
0.0010507952347558
0.000438141284769981
5.1274493181313e-05
0.00242910007886145
0.00173589348486532
0.00105034810357774
0.000438391641744071
4.90731803757307e-05
0.00305228147174
0.00240181106458545
0.00171997693295396
0.00104179203131602
0.000428458487991066
4.49410733516384e-05
0.00359951827221844
0.00300768114565705
0.00236557895953396
0.00169355647891299
0.00101946224270308
0.000409994783410516
4.01363011269154e-05
0.00406497304862516
0.00353645304559471
0.00294861807622755
0.00231538363471411
0.00165177858756989
0.000984241604147636
0.000386991794225585
3.52444605869616e-05
4.78284394712202e-05
0.000432702392656967
4.96722940807026e-05
0.00106223670787066
0.000437596629846442
5.20148462472383e-05
0.00176588952727962
0.00106262597890688
0.000444406062070088
5.2729812126252e-05
0.00245581851507316
0.00175581796419162
0.00106363721590605
0.000445442482712155
5.0652235984623e-05
0.00308973648377235
0.00243168965917071
0.00174224383948414
0.00105664525710459
0.000436273100911564
4.65860671390878e-05
0.00364983119813244
0.00304961841939641
0.00239891985553848
0.00171831489200546
0.00103586566228036
0.000418508495233307
4.18100716150884e-05
0.00413075683880958
0.00359304522688411
0.00299556286652347
0.00235249233821882
0.00167909467511157
0.00100204543636917
0.000395994281354016
3.692200365807e-05
0.00453261857866464
0.00405634989224201
0.00351710174948945
0.00292386345971422
0.00228896452740968
0.00162448710469269
0.000959117009715695
0.000371146607463655
3.20105782778516e-05
4.86618979344805e-05
0.000437065500839961
5.06524242421314e-05
0.00107168592329001
0.000442551845533572
5.3170151417489e-05
0.0017818290849966
0.00107324971717992
0.00045005235563521
5.40534480281911e-05
0.00247969954866477
0.00177367990924022
0.00107558425453055
0.000451798251113376
5.20942601644038e-05
0.00312314611018735
0.00245842201785978
0.00176222679312292
0.00107000249898158
0.000443300172317561
4.80944805150183e-05
0.00369458870123193
0.00308702776873248
0.00242875964509353
0.00174055551672252
0.00105064351670183
0.000426171222134283
4.33507524004202e-05
0.00418899930128132
0.00364325441083708
0.00303733180611465
0.00238564246125543
0.00170363586216517
0.00101818630652776
0.000404260176030375
3.84723674643222e-05
0.0046069754822823
0.00412198223265785
0.00357337772040993
0.00297038639622773
0.00232561118126648
0.00165132397680827
0.000976466229258689
0.000379815678206365
3.35445268291745e-05
0.00495055886346147
0.00452267610353717
0.0040317068051562
0.00348192995534005
0.00288394969073555
0.00224828407697037
0.00158615743871967
0.000928353110747169
0.000353491249116183
2.85800835626478e-05
4.94042803629415e-05
0.000440959949687757
5.15305496354158e-05
0.00108013402226644
0.000446995121965886
5.42123386239318e-05
0.00179607169534196
0.00108277170680009
0.000455129159678988
5.52521205560714e-05
0.00250101238564406
0.00178966996911734
0.00108631398851655
0.000457529605887335
5.34065294608325e-05
0.00315291802535519
0.00248231415491683
0.00178014069901258
0.001082009957128
0.000449634801962618
4.94725409331045e-05
0.00373440000819205
0.00312039502724145
0.00245545811294709
0.00176051603766185
0.00106393310353814
0.000433062235937988
4.47644073942853e-05
0.00424068807273776
0.00368791460974109
0.00307459117375099
0.00241531726495581
0.00172568848983192
0.00103273197097256
0.000411698728707751
3.99000294539203e-05
0.00467269390579854
0.00418008183674173
0.00362330716712002
0.00301179347782637
0.00235836471817498
0.00167545171088243
0.000992216122272816
0.000387795822033283
3.49638461789111e-05
0.00503293876082718
0.00459685288880002
0.00409692375979509
0.00353759838205494
0.00292977565062138
0.00228422109399966
0.00161232446007803
0.000945143869404658
0.000361791000569965
2.99605127219572e-05
0.00532361218875575
0.00493966394284682
0.00449422443637753
0.00398813162334003
0.00342917514849752
0.00282820765674938
0.00219414536002399
0.00153840423152605
0.00089260582105254
0.000333769870584653
2.49700602327152e-05
5.00604543782542e-05
0.000444418095227986
5.23132246614051e-05
0.00108766046154662
0.000450963276889599
5.51458377616573e-05
0.0018087653758307
0.0010912853810731
0.000459681927685827
5.63324984272612e-05
0.00251999536503368
0.00180395731991212
0.00109593269244678
0.000462686933091919
5.45951566684264e-05
0.00317940772825318
0.00250363618433969
0.00179617819634155
0.00109279683081632
0.000455350729009088
5.07271852571799e-05
0.00376977825549978
0.00315012833972751
0.00247932094526801
0.00177841133160762
0.00107588138879602
0.000439275445467364
4.60567144853023e-05
0.00428655425586186
0.0037276378874515
0.00310782664446304
0.00244187211110771
0.00174548420254018
0.00104581567412039
0.000418388359834601
4.1210510311048e-05
0.00473090665013404
0.00423163810318026
0.00366771912242055
0.0030487371672345
0.00238769432518525
0.00169714188166585
0.00100641487236987
0.000394969910368549
3.62713007428829e-05
0.0051056523094959
0.00466240186159222
0.00415465548696203
0.00358700270610174
0.00297057987514521
0.00231635746349979
0.00163586925013671
0.000960413616869573
0.00036945373137855
3.12393239843216e-05
0.00541343807305816
0.00502184040516649
0.00456790632891472
0.00405257506479657
0.0034839048256333
0.00287305002755871
0.00222913799727257
0.0015637378870576
0.000908750137119249
0.000341658164687417
2.61873606678312e-05
0.00565611937762144
0.00531184636020703
0.00490815246514762
0.0044437903204243
0.00392389897816808
0.00335823435533386
0.0027565972116309
0.00212708380783526
0.00148163048506835
0.000851642529040124
0.000311735628782501
2.12442795826989e-05
5.06348139484098e-05
0.000447473001821589
5.30037908031336e-05
0.00109433560032598
0.000454489028136298
5.59780275798994e-05
0.00182003913524268
0.00109887106674669
0.000463748562613701
5.73004727973659e-05
0.00253685825944048
0.00181669072108986
0.00110453400953628
0.000467312516038099
5.56669158935596e-05
0.00320292908387895
0.00252262692224004
0.00181050924515154
0.00110247032720814
0.000460497102601432
5.18641819935256e-05
0.00380116970938816
0.00317658374494346
0.00250061837036108
0.00179443486255148
0.00108661907875892
0.000444883129988662
4.72335184948202e-05
0.00432721505935093
0.00376293766319398
0.00313744512932236
0.00246561033755365
0.00176323546736885
0.00105758173757117
0.000424419344834761
4.2409315178343e-05
0.00478245991522789
0.00427738528293656
0.00370722485082656
0.00308169726996653
0.00241394715028882
0.00171661844925949
0.00101918880880303
0.000401417310268645
3.74718290494573e-05
0.00516996573817175
0.00472045800205886
0.0042058859999848
0.00363095639106991
0.0030069982358307
0.00234514675294294
0.00165704596254179
0.000974180692053486
0.000376331950837357
3.24178369935854e-05
0.00549264833981149
0.00509436285392781
0.0046330168628173
0.00410963706377186
0.00353249533645245
0.00291299701097067
0.00226044865678479
0.00158655589131513
0.000923462391635074
0.000348968249075338
2.73171397130812e-05
0.005752796575181
0.00540144645366138
0.00498976427207364
0.00451654991041501
0.00398716777631617
0.00341168451334717
0.00280017248297382
0.00216091037091899
0.00150597935135543
0.000867049984697098
0.000319159225548907
2.2290962589281e-05
0.00595195030873667
0.00564348505264103
0.00527760015417873
0.00485181001631723
0.00436935793526973
0.00383844750763825
0.00326865207540445
0.00266872178237291
0.00204681535585624
0.00141537625537674
0.000804929514998686
0.000287251007807915
1.74969609754079e-05
5.11304932929233e-05
0.000450146036041668
5.36085609074145e-05
0.00110021339188452
0.000457599739622985
5.67126495573711e-05
0.00183000477051353
0.00110559804244043
0.000467363501475628
5.81630446458687e-05
0.00255178430474562
0.0018280000170921
0.00111219912200281
0.000471443899743016
5.6627712548241e-05
0.00322375790124197
0.00253949648099697
0.00182328296734152
0.00111112250849651
0.000465113607825698
5.2889871000554e-05
0.00382896531060335
0.00320007455268941
0.0025195888954551
0.00180875643301635
0.00109625201667843
0.000449933442512776
4.83005432529013e-05
0.00436320632583636
0.00379425963287402
0.00316380129449619
0.00248680017221484
0.00177913436302763
0.00106815813974787
0.000429862254150679
4.35013323895198e-05
0.00482807015705544
0.00431794058632979
0.00374233540550784
0.00311107619915286
0.00243742143479948
0.00173408849958585
0.00103067767486306
0.000407233445639767
3.85706040018793e-05
0.00522683178515612
0.00477187103189251
0.00425134829715325
0.00367006293497163
0.00303949941790124
0.00237092511082248
0.00167606777367664
0.000986565601650033
0.000382505710460881
3.35002407606325e-05
0.00556262916520509
0.00515850002317232
0.00469068522414345
0.0041602834422128
0.00357573983378214
0.0029486657470083
0.00228851212685699
0.00160708869084916
0.000936726212956355
0.000355513638668964
2.83587425681425e-05
0.00583799293987644
0.00548044476338279
0.00506178634267306
0.00458086144267469
0.00404321149476209
0.00345916015010533
0.00283901112514057
0.00219119900330962
0.00152793666351271
0.000881127477510609
0.000326080725834135
2.3265567884191e-05
0.00605487540122178
0.00573991349630714
0.00536656932234013
0.00493236113945385
0.00444071618749371
0.00390013232442357
0.00332048093981905
0.00271074856052399
0.0020792579871398
0.00143858782805591
0.000819499265251114
0.000294144982201118
1.83700823596926e-05
0.00621459441738682
0.00593845698372308
0.00560667266523236
0.00521592797247539
0.00476818388894606
0.00427036536261306
0.00373121074113178
0.00315941954413332
0.00256352282906886
0.00195229765874597
0.00133860559659817
0.000751770366794634
0.000260191893033938
1.38338743366703e-05
5.15504911910859e-05
0.000452450526753129
5.41303423662492e-05
0.001105348162214
0.000460320966441216
5.73559216271748e-05
0.00183875781389603
0.00111152388982064
0.000470553913975775
5.89262245221281e-05
0.00256493261952703
0.00183799723838166
0.00111899762261142
0.000475116148289033
5.74842108468564e-05
0.00324213419101308
0.0025544284172709
0.00183462949203919
0.00111883345480981
0.000469238064001228
5.38102942189743e-05
0.00385350771274081
0.00322087594083881
0.0025364421838236
0.00182152434020301
0.00110486960136028
0.000454466208813698
4.92637706840422e-05
0.00439499636261394
0.00382199396215548
0.00318720670453168
0.00250567850522825
0.00179334839413126
0.00107764896369889
0.000434766271504298
4.44917711772147e-05
0.00486835935921665
0.00435383888530032
0.00377349362719378
0.00313722473554419
0.00245838126122301
0.00174973984474448
0.00104100714402501
0.000412482346142859
3.95720511419114e-05
0.00527705924667264
0.00481735727182204
0.00429165625265245
0.00370482677714897
0.00306847773185106
0.00239398248214119
0.00169313461794379
0.000997709035177495
0.000388078347595348
3.44913409252664e-05
0.00562442991918571
0.00521520848815421
0.00474175955877071
0.00420523762282766
0.00361422810931805
0.00298051038889196
0.00231365089968644
0.00162553754534606
0.000948655734594858
0.000361380929706021
2.93155798129932e-05
0.00591320034881267
0.00555023041978695
0.00512548124360562
0.00463783332089797
0.00409297129521222
0.0035014306379632
0.00287370731608994
0.00221836136668996
0.00154770467716623
0.000893814801044334
0.00033225991416774
2.41648039030517e-05
0.00614554182556309
0.00582487667664426
0.0054450083419198
0.00500346397052741
0.00450381325869857
0.00395479726079535
0.00336654018187861
0.00274822977724718
0.00210833172203642
0.00145955009531628
0.000832861777086068
0.000300631567446313
1.91859532859398e-05
0.00632316677292486
0.00604111052422741
0.00570240541216662
0.00530370420278176
0.00484711523437423
0.00433983578556595
0.00379090308961617
0.00320928171114096
0.00260371526475939
0.00198313356646672
0.00136051779887211
0.000765385852719976
0.000266495950005535
1.45343283312282e-05
0.00644722112254961
0.00620027740350637
0.00589922562681183
0.00554008862695499
0.00512391275621707
0.00465666833596948
0.0041462835524756
0.00360086796486262
0.00302884049834332
0.0024392558113272
0.00184176587637641
0.00124971331298518
0.000691135772907163
0.000230316333242926
1.03295151728366e-05
5.18959119142585e-05
0.000454407350293349
5.45719746362885e-05
0.00110978332137248
0.000462670352191243
5.79107108382015e-05
0.00184637929808335
0.00111670026314152
0.000473344988460044
5.95941242527611e-05
0.00257644002881321
0.00184677794924825
0.00112498800829768
0.000478360363269605
5.82422879218571e-05
0.00325826735590542
0.00256758199920648
0.0018446608601854
0.0011256735999142
0.00047290581320195
5.46311924788911e-05
0.00387509639230996
0.00323922820750132
0.00255136139430601
0.0018328675072757
0.00111255189681311
0.000458518879421279
5.01287995060663e-05
0.0044229941573963
0.0038464825077767
0.00320793483658115
0.00252245320415122
0.00180602338577019
0.00108614317853532
0.000439171116315909
4.53867182395776e-05
0.00490387037614282
0.00438554719746221
0.00380108679058491
0.00316045085627256
0.00247705962356365
0.00176373669974487
0.00105027991798977
0.000417212814143857
4.0480745811778e-05
0.00532135165779677
0.00485753748309839
0.00432734075403115
0.00373568477437935
0.00309427727418474
0.00241457672165837
0.00170842939326112
0.00100773052444098
0.0003931109518931
3.53952545608366e-05
0.00567894388816912
0.00526529693891306
0.00478695208974927
0.00424510495707659
0.00364845350830507
0.00300891354005488
0.00233614427730297
0.00164209625015239
0.000959393615149913
0.000366678063592361
3.01919324463958e-05
0.00597955393439034
0.00561185686864739
0.00518180369833395
0.00468830244322275
0.00413715378331741
0.00353906764670468
0.00290469793830986
0.00224270360494921
0.00156547118526142
0.000905223828898625
0.000337789954119075
2.49909178923669e-05
0.00622553140144748
0.00589986972383594
0.00551429983814332
0.00506635788070835
0.00455972866496852
0.00400335421349933
0.0034075701783413
0.00278173243624633
0.00213442064309526
0.00147843161857924
0.000844900753305899
0.000306416079463167
1.99404035668004e-05
0.00641878926231343
0.00613152235635779
0.00578675161710812
0.00538110885501946
0.00491681451703533
0.00440129106090286
0.00384382895521025
0.00325361929401183
0.00263958642263604
0.00201079517002842
0.00138034437874677
0.000777941001949761
0.000272519215482449
1.51942238423694e-05
0.00656084886628762
0.00630855654510729
0.00600112089502064
0.00563450130268675
0.0052098587808126
0.00473341346652487
0.00421338440484573
0.00365815394779864
0.00307638025339902
0.00247731767326293
0.00187075989573786
0.0012701467705266
0.000703675237178029
0.000235992051003156
1.08642166094353e-05
0.00665264847374449
0.0064321327478853
0.00615879571468789
0.00582810588594769
0.0054403861276468
0.00500087617597291
0.00451681760756565
0.00399567587344432
0.0034452952940988
0.00287455532812379
0.00229341343846606
0.00171260797441538
0.00114626121898546
0.000621281640159023
0.000197020775810202
7.00227712442623e-06
5.21670680634403e-05
0.000456020655223287
5.49347478764974e-05
0.00111353396921759
0.000464662740267196
5.83798163564535e-05
0.00185293510760773
0.00112116686075756
0.000475754628176836
6.01701404226801e-05
0.00258642344879971
0.00185442351490603
0.00113022076684497
0.000481200642239675
5.89058519111656e-05
0.00327233797884424
0.00257909412708432
0.00185347265367362
0.00113170365667963
0.000476147266287791
5.53577703499431e-05
0.00389399164721161
0.00325534039850007
0.00256450526352798
0.00184289789817117
0.00111936935142636
0.000462124629275729
5.09011754013068e-05
0.00444755855249166
0.00386802403871497
0.00322622472268817
0.00253730580309861
0.0018172872983163
0.00109371946019884
0.000443113278353675
4.61912915920078e-05
0.00493507770641424
0.00441347385769867
0.00382545405029584
0.00318102472884497
0.00249366111845442
0.0017762225338446
0.00105858359529735
0.000421466810701653
4.13023173022026e-05
0.00536032134412635
0.00489295305837422
0.0043588649374325
0.00376301876210498
0.00311720016225582
0.00243293522975912
0.00172211241574515
0.00101673015441257
0.000397646709931059
3.6216090942816e-05
0.0057269485019712
0.00530946692591681
0.0048268787205742
0.00428040852319552
0.00367884342946124
0.0030342098816644
0.00235624177397231
0.00165694053134691
0.000969054329533059
0.000371466598376832
3.09916830919614e-05
0.00603802265238345
0.00566621714026822
0.00523155765390625
0.00473297079732349
0.00417635040209113
0.00357254938065446
0.00293235082847324
0.00226449302717519
0.00158142310764836
0.000915495070232713
0.000342779467496559
2.57476632709318e-05
0.00629605407611095
0.00596603205876051
0.00557549511838515
0.00512198472964921
0.00460927934808198
0.004046487499286
0.00344412023652092
0.00281167199007716
0.00215781183767068
0.00149540667899675
0.000855723683563905
0.00031158390229965
2.06339014247286e-05
0.00650311935243405
0.00621127846408977
0.00586119963143196
0.00544949914632701
0.00497848815104124
0.00445577594797052
0.00389086575266867
0.00329313912484604
0.00267167071441275
0.00203563422677389
0.00139821351423766
0.000789260142152727
0.000277890609282874
1.58060426477972e-05
0.00666092425102059
0.00640390429160268
0.00609085975352025
0.00571770215146685
0.00528567742389707
0.00480121259577714
0.00427277407237911
0.00370897672151249
0.00311868265151486
0.00251131683396651
0.00189680147564387
0.00128868270615985
0.00071533216806373
0.000241500742812658
1.13726071646516e-05
0.00677079775261732
0.00654545073254863
0.00626625764431865
0.00592856018479547
0.00553276741703436
0.00508434705329623
0.00459081983724421
0.00405992230656369
0.00349974846857277
0.00291940264995793
0.00232903252279932
0.00173950500704866
0.00116501775387966
0.000632644894846129
0.000202007168139584
7.3764693652168e-06
0.00683346075512965
0.00663683433664361
0.00638858873906318
0.00608351969218848
0.00572137742904806
0.00530680651119327
0.00484645902199712
0.00434718221389497
0.00381617641843363
0.00326169677668669
0.0026934685791271
0.00212255671182364
0.00156107733932401
0.00102448256572157
0.000539234600452152
0.000158913745335027
3.97318143409751e-06
5.23676894219698e-05
0.000457293792511825
5.52185875259102e-05
0.0011166233231488
0.000466306311474343
5.87646435021324e-05
0.00185847349402332
0.00112494779356113
0.000477797032511381
6.06568712696086e-05
0.00259497818220907
0.00186099923526205
0.00113473424603405
0.000483652986647086
5.94783408192905e-05
0.00328450013975479
0.00258908102089901
0.00186114548581352
0.00113697274248165
0.000478985336839352
5.59943793465372e-05
0.00391041827466956
0.0032693927769005
0.00257601000729694
0.00185171118555999
0.00112538173828012
0.000465312376444456
5.15850780019167e-05
0.0044689997604209
0.00388687828151991
0.00324228408291785
0.00255039371886124
0.00182725090999194
0.00110044604065892
0.000446624889518298
4.69101919673277e-05
0.00496239567582441
0.00443797583371584
0.00384689175441275
0.00319918249034967
0.00250836451866479
0.00178732271646612
0.00106599501079372
0.000425278146759483
4.20420021377933e-05
0.00539450495730435
0.00492407711142027
0.00438663364158698
0.00378716299132539
0.00313751140248195
0.0024492579018989
0.0017343235640398
0.0010247946223846
0.000401727151315997
3.69587286979403e-05
0.00576912242384448
0.00534832994760192
0.00486207617918138
0.00431160430133395
0.0037057714578515
0.00305669350315505
0.00237416424759777
0.00167022553990955
0.000977732840918917
0.000375786417074141
3.17186885752516e-05
0.00608945127072826
0.00571408691012091
0.00527543894915088
0.00477244476679035
0.00421107203478851
0.0036022904327139
0.00295698862029436
0.00228396886298852
0.00159572841013364
0.000924740140059079
0.000347291803641774
2.64384664906076e-05
0.00635814547478955
0.00602433228170772
0.00562948186972646
0.00517113665330462
0.00465315051281037
0.00408476952676992
0.00347664982645025
0.00283839946156407
0.00217875851566965
0.0015106521012273
0.000865465428438964
0.000316242357066037
2.12690635101068e-05
0.00657742908711568
0.00628159295504938
0.00592688645930532
0.00550991201441323
0.00503305502045548
0.00450408056795077
0.00393266992303726
0.00332836306008239
0.00270035886357677
0.00205791597621993
0.00141428327019269
0.000799434321449488
0.000282676541309796
1.63683851675449e-05
0.00674916030292745
0.00648798216361451
0.00617002135755469
0.00579115215846112
0.00535268920237698
0.00486123204264488
0.00432545583395929
0.00375417176631591
0.00315641389087648
0.00254174945081821
0.00192020470198607
0.00130540541088592
0.000725864595820995
0.000246446972387902
1.18452015701397e-05
0.00687484503451836
0.00664523298307234
0.00636087942957091
0.00601704774625058
0.0056142073760677
0.00515801506211013
0.00465623003894114
0.00411682058857871
0.00354809339476454
0.00295934317499555
0.00236088332230024
0.001763700949549
0.00118209435068955
0.000643299945677277
0.000206965027204235
7.73858632748402e-06
0.00695561450375303
0.0067546780474109
0.00650103759096035
0.00618942758485406
0.0058196105000699
0.00539643696448787
0.00492682489187223
0.00441788622425871
0.00387707259219325
0.00331287554767506
0.00273523536198567
0.00215539896722164
0.00158559577047753
0.00104134920565243
0.000549248839409694
0.000163117609228794
4.19709700898564e-06
0.00669623391300078
0.00699206499038328
0.00681701559557037
0.00659140869356987
0.00630954275022156
0.00597041134183118
0.00557820978239552
0.00513907062418734
0.0046592486396835
0.00414528734257644
0.00360473485626371
0.00304660601453465
0.00248161770563454
0.00192210503298762
0.00138191932791499
0.000878770454102771
0.000440315118771311
0.0001144916524266
1.60645482329018e-06
5.25116999918882e-05
0.000458239272984254
5.54291310451442e-05
0.00111907097184173
0.000467613061283175
5.90653098958189e-05
0.00186303055749784
0.00112806106135409
0.000479480289197357
6.10555110295099e-05
0.00260218080229224
0.00186655346373716
0.00113855429613927
0.000485730508101298
5.99619779219522e-05
0.00329488207907751
0.00259763826171354
0.00186774360983846
0.00114151689915193
0.000481437368497421
5.65437095420548e-05
0.00392456837638077
0.00328153892966689
0.00258599081445772
0.00185938645353624
0.00113063655338196
0.000468104945311281
5.2184607685707e-05
0.00448758649621223
0.00390326948283805
0.00325629184117605
0.00256185174537277
0.00183600823064433
0.00110638085269312
0.00044973186053369
4.7547434427703e-05
0.00498618406400052
0.00445936299487201
0.00386565754191469
0.00321512924528923
0.00252132469045388
0.00179714549780532
0.00107258007319628
0.000428675992293494
4.27033705561138e-05
0.00542437017296998
0.00495132256782557
0.0044110003588314
0.00380840945562057
0.00315544258622585
0.00246371936589282
0.00174518473705737
0.00103199779739906
0.000405387864708154
3.76280014237601e-05
0.00580605889178719
0.00538242054723105
0.00489301321218502
0.00433909074151396
0.00372956458843187
0.00307662240021991
0.00239010536617976
0.00168208722597936
0.000985513339217869
0.000379673278516133
3.23772462873076e-05
0.00613457823763502
0.00575614307462092
0.0053140539059997
0.00480725244856189
0.00424176403931431
0.00362865338401424
0.00297889535250803
0.00230134360433119
0.00160853585386134
0.00093304980419569
0.00035136990085413
2.70668307208676e-05
0.00641271034777812
0.00607561321020993
0.00567702945751113
0.00521449843612867
0.00469193386008915
0.00411869494831143
0.00350555760395901
0.00286222286562162
0.00219748828604757
0.00152432813448983
0.000874235663787877
0.000320453845851647
2.18489433298501e-05
0.00664281297536553
0.00634350105675183
0.00598477479479512
0.00556322186670075
0.00508128779338731
0.00454686736985699
0.00396979046265656
0.0033597282368694
0.00272598158753696
0.00207787693332429
0.00142871736578435
0.000808587905367925
0.000286980212655899
1.68829138497096e-05
0.00682688157103628
0.00656206746869175
0.00623981714969155
0.00585597258451557
0.00541190523171523
0.00491435956322764
0.00437218667456054
0.00379436255339306
0.00319006471392954
0.00256897737808268
0.00194120931773861
0.00132044939448202
0.000735325155147756
0.000250844522660624
1.22795801052686e-05
0.00696656477481192
0.00673319958425545
0.0064443156749996
0.00609511870603983
0.00568612694186731
0.00522315562833803
0.00471416641979988
0.00416732427422496
0.00359111541631039
0.00299499567788132
0.00238941744353783
0.00178546680012576
0.00119752520941035
0.000652960337416228
0.000211421703410827
8.0770379701884e-06
0.00706316485273857
0.00685841803934674
0.00660004520571564
0.00628269860014371
0.00590617164761653
0.00547548679356909
0.00499779006534665
0.00448042065920875
0.00393104431409103
0.00335835351266909
0.00277247137203101
0.00218480470871661
0.00160769650461951
0.00105677147783683
0.000558770185585197
0.000167450989892734
4.42101784964642e-06
0.00711762777042066
0.00693884960055643
0.00670835347268926
0.00642033474496158
0.00607392148144707
0.00567343294503004
0.00522525118969307
0.00473588658577135
0.00421213042363759
0.00366177221046908
0.00309405295427639
0.00251989706688793
0.00195180730967472
0.0014037412753606
0.000893477515123883
0.000448781866137632
0.000117789210328861
1.70743403894798e-06
0.00685151426814117
0.00668027834683787
0.00713033588796937
0.00697508819382245
0.00676992572383786
0.00650896742107016
0.00619068655229699
0.0058185842409364
0.0053983997572168
0.00493582635280864
0.00443674596810501
0.00390797550309168
0.00335771822476401
0.00279584376628891
0.00223411051723709
0.00168624170983589
0.00116838043880663
0.000702150385799986
0.000319012978217649
6.38761177216232e-05
3.21789184819452e-07
0.000458919889279049
5.55791461463584e-05
0.00112091123624157
0.000468583708977843
5.92875891254213e-05
0.00186664474811791
0.00113052789971657
0.000480833675060595
6.13667007316404e-05
0.00260809507843108
0.00187112333687725
0.00114169782695938
0.000487440279772821
6.03572524822333e-05
0.00330359075261827
0.0026048427927441
0.00187331528382842
0.00114536058834654
0.000483515031588119
5.7007585306974e-05
0.00393660481772156
0.00329190734203351
0.00259454249456063
0.0018659860085158
0.00113516878763551
0.000470517949463123
5.27020464381677e-05
0.0045035482844125
0.00391738933887389
0.00326840024483849
0.00257179318926981
0.00184363624214884
0.00111156970892884
0.000452454104226284
4.81060302140568e-05
0.00500675290775588
0.00447790309811851
0.00388197377112227
0.0032290414284848
0.00253267384546864
0.00180578224188933
0.00107839331875118
0.000431685054256699
4.32902901859259e-05
0.00545032319807346
0.00497504809506201
0.00443227230500552
0.00382701196982498
0.00317119474150517
0.0024764706190112
0.00175480063431771
0.00103840217769612
0.000408655898765334
3.82272644286766e-05
0.00583827568414259
0.00541220494225098
0.00492009876923513
0.00436321562496135
0.00375050842926171
0.0030942219798098
0.00240423429416568
0.00169264306514765
0.000992468148029302
0.000383163739556605
3.29713048663137e-05
0.00617404915145763
0.00579297709673552
0.00534793194774213
0.00483785483769667
0.00426881553063966
0.00365195565726546
0.00299832029085129
0.00231680410984206
0.00161997629009019
0.000940503111959027
0.000355046583986885
2.76367504374921e-05
0.00646054144806719
0.00612061126181584
0.00571880877806597
0.00525266643199033
0.00472614458897492
0.00414869507068149
0.00353119251532988
0.00288341412564942
0.0022142039775036
0.00153657689509091
0.000882124979939744
0.00032426063042477
2.23766125058623e-05
0.00670022863518138
0.00639790548336646
0.00603570050169411
0.00561018562100909
0.00512385415632608
0.00458470839465091
0.00400270190812507
0.00338761430095067
0.00274883053985035
0.00209573163245053
0.00144166798327588
0.000816826128012995
0.000290866196040706
1.73524437297117e-05
0.00689523177150669