/*--------------------------------*- C++ -*----------------------------------*\
  =========                 |
  \\      /  F ield         | OpenFOAM: The Open Source CFD Toolbox
   \\    /   O peration     | Website:  https://openfoam.org
    \\  /    A nd           | Version:  12
     \\/     M anipulation  |
\*---------------------------------------------------------------------------*/
/*   Windows 32 and 64 bit porting by blueCAPE: http://www.bluecape.com.pt   *\
|  Based on Windows porting (2.0.x v4) by Symscape: http://www.symscape.com   |
\*---------------------------------------------------------------------------*/
FoamFile
{
    format      ascii;
    class       volScalarField;
    location    "300";
    object      p;
}
// * * * * * * * * * * * * * * * * * * * * * * * * * * * * * * * * * * * * * //

dimensions      [0 2 -2 0 0 0 0];

internalField   nonuniform List<scalar> 
10123
(
83333.332741589
83333.3327482
83333.3327421971
83333.3327416179
83333.3327550702
83333.3327488365
83333.3327482118
83333.3327429509
83333.3327422172
83333.3327416539
83333.3327622135
83333.3327557174
83333.3327550706
83333.3327496638
83333.3327488449
83333.3327482318
83333.3327431182
83333.3327429388
83333.3327422538
83333.3327417054
83333.3327696129
83333.3327628658
83333.332762216
83333.3327565726
83333.3327557202
83333.3327550808
83333.3327499313
83333.3327496515
83333.3327488705
83333.3327482709
83333.332742615
83333.3327431135
83333.3327429508
83333.3327423004
83333.3327417749
83333.3327772552
83333.3327702702
83333.3327696179
83333.3327637287
83333.3327628695
83333.3327622267
83333.3327569059
83333.3327565616
83333.3327557357
83333.3327551094
83333.3327495378
83333.3327499284
83333.3327496602
83333.3327489101
83333.3327483298
83333.3327414566
83333.3327426103
83333.3327431145
83333.3327429631
83333.3327423503
83333.3327418627
83333.3327851228
83333.3327779145
83333.3327772607
83333.33277114
83333.3327702755
83333.3327696281
83333.332764102
83333.3327637202
83333.332762881
83333.3327622522
83333.3327566093
83333.332756908
83333.3327565671
83333.3327557659
83333.3327551574
83333.3327484971
83333.3327495408
83333.332749931
83333.3327496707
83333.3327489528
83333.3327484074
83333.3327396808
83333.3327414503
83333.332742602
83333.3327430993
83333.3327429733
83333.3327424036
83333.3327419679
83333.3327932014
83333.332785779
83333.3327851291
83333.3327787875
83333.3327779221
83333.3327772705
83333.3327715388
83333.3327711333
83333.3327702876
83333.3327696524
83333.3327638809
83333.3327641089
83333.3327637224
83333.332762905
83333.3327622954
83333.3327556834
83333.3327566202
83333.3327569105
83333.3327565719
83333.3327557996
83333.3327552243
83333.3327468499
83333.3327485034
83333.3327495406
83333.332749917
83333.3327496782
83333.3327489974
83333.3327485024
83333.3327373474
83333.3327396732
83333.3327414415
83333.332742574
83333.3327430793
83333.3327429804
83333.3327424631
83333.332742088
83333.3328014792
83333.3327938468
83333.3327932076
83333.3327866479
83333.3327857884
83333.332785139
83333.3327792028
83333.3327787831
83333.3327779366
83333.3327772937
83333.3327713719
83333.3327715476
83333.3327711347
83333.3327703097
83333.332769694
83333.3327630572
83333.3327638972
83333.3327641098
83333.3327637207
83333.3327629334
83333.3327623566
83333.332754165
83333.3327556992
83333.3327566228
83333.3327568938
83333.332756572
83333.3327558352
83333.3327553084
83333.3327446596
83333.332746858
83333.3327485032
83333.3327495083
83333.3327498955
83333.3327496798
83333.3327490477
83333.3327486109
83333.3327345102
83333.3327373418
83333.3327396669
83333.3327414114
83333.3327425278
83333.3327430519
83333.3327429853
83333.3327425293
83333.3327422152
83333.3328099457
83333.3328021094
83333.3328014848
83333.3327947078
83333.3327938593
83333.3327932174
83333.3327870738
83333.3327866453
83333.3327858036
83333.332785161
83333.332779076
83333.332779212
83333.3327787857
83333.3327779591
83333.3327773333
83333.332770631
83333.3327713911
83333.3327715487
83333.3327711299
83333.3327703347
83333.3327697521
83333.3327616564
83333.3327630756
83333.3327638996
83333.332764089
83333.3327637136
83333.3327629631
83333.3327624329
83333.3327521118
83333.3327541805
83333.3327557041
83333.3327565869
83333.3327568654
83333.3327565648
83333.3327558759
83333.3327554029
83333.3327419761
83333.3327446679
83333.3327468648
83333.3327484702
83333.3327494651
83333.332749862
83333.3327496758
83333.3327491026
83333.3327487234
83333.3327312167
83333.3327345057
83333.3327373332
83333.3327396402
83333.3327413524
83333.3327424694
83333.3327430138
83333.3327429858
83333.3327425965
83333.3327423402
83333.3328185905
83333.3328105596
83333.3328099511
83333.3328029585
83333.3328021234
83333.3328014936
83333.3327951396
83333.3327947065
83333.3327938747
83333.3327932378
83333.332786979
83333.3327870837
83333.3327866485
83333.3327858264
83333.3327851977
83333.3327784022
83333.3327790971
83333.3327792152
83333.3327787809
83333.3327779821
83333.3327773873
83333.3327693325
83333.3327706505
83333.3327713933
83333.3327715254
83333.3327711177
83333.3327703588
83333.3327698219
83333.3327597322
83333.3327616738
83333.332763083
83333.3327638607
83333.3327640531
83333.3327636985
83333.3327629951
83333.3327625163
83333.3327495754
83333.3327521271
83333.3327541942
83333.332755664
83333.3327565393
83333.3327568223
83333.3327565501
83333.3327559189
83333.3327554987
83333.3327388466
83333.332741984
83333.3327446743
83333.3327468305
83333.3327484137
83333.3327494026
83333.332749814
83333.3327496635
83333.3327491559
83333.3327488328
83333.3327275078
83333.3327312114
83333.3327344975
83333.3327373107
83333.3327395797
83333.3327412752
83333.3327423939
83333.3327429598
83333.3327429761
83333.3327426581
83333.3327424591
83333.3328274034
83333.3328191867
83333.3328185955
83333.3328113908
83333.3328105707
83333.3328099578
83333.3328033915
83333.332802957
83333.33280214
83333.3328015127
83333.3327950711
83333.3327951503
83333.3327947095
83333.3327938967
83333.332793272
83333.3327863624
83333.332787002
83333.3327870874
83333.3327866443
83333.3327858486
83333.3327852472
83333.332777193
83333.3327784236
83333.3327790998
83333.3327791911
83333.3327787663
83333.3327780021
83333.3327774518
83333.3327675263
83333.3327693513
83333.3327706595
83333.3327713525
83333.3327714833
83333.3327710949
83333.3327703827
83333.332769897
83333.3327573355
83333.3327597492
83333.3327616903
83333.3327630379
83333.3327638062
83333.3327640002
83333.3327636737
83333.3327630275
83333.3327626008
83333.3327466006
83333.3327495898
83333.3327521419
83333.3327541535
83333.3327556052
83333.3327564689
83333.3327567614
83333.3327565243
83333.3327559581
83333.3327555921
83333.3327353088
83333.3327388489
83333.3327419868
83333.3327446424
83333.3327467726
83333.3327483328
83333.3327493188
83333.3327497469
83333.3327496391
83333.3327492022
83333.3327489379
83333.3327234195
83333.3327275024
83333.3327312036
83333.3327344758
83333.3327372551
83333.3327394962
83333.3327411742
83333.3327422972
83333.3327428888
83333.3327429529
83333.3327427111
83333.3327425713
83333.3328363764
83333.3328279804
83333.3328274075
83333.3328199951
83333.3328191946
83333.3328186006
83333.3328118206
83333.3328113877
83333.3328105898
83333.3328099754
83333.3328033445
83333.3328034025
83333.3328029597
83333.3328021611
83333.3328015445
83333.3327945045
83333.3327950959
83333.3327951528
83333.3327947044
83333.332793918
83333.3327933182
83333.3327852331
83333.3327863867
83333.3327870055
83333.3327870632
83333.3327866289
83333.3327858662
83333.332785307
83333.3327754941
83333.3327772141
83333.3327784338
83333.3327790589
83333.3327791453
83333.3327787385
83333.3327780204
83333.3327775224
83333.3327652608
83333.3327675448
83333.3327693691
83333.3327706116
83333.3327712923
83333.3327714217
83333.3327710606
83333.3327704059
83333.3327699741
83333.3327545098
83333.3327573514
83333.3327597673
83333.3327616449
83333.3327629737
83333.332763727
83333.3327639272
83333.3327636374
83333.3327630556
83333.3327626836
83333.3327432262
83333.3327466118
83333.3327495996
83333.3327521044
83333.332754093
83333.332755518
83333.3327563744
83333.332756679
83333.332756485
83333.3327559892
83333.3327556805
83333.3327313966
83333.332735306
83333.3327388499
83333.3327419592
83333.3327445885
83333.3327466843
83333.3327482248
83333.332749211
83333.3327496603
83333.3327496011
83333.3327492415
83333.3327490372
83333.3327189862
83333.3327234134
83333.3327274953
83333.3327311862
83333.3327344289
83333.3327371742
83333.3327393834
83333.3327410475
83333.332742178
83333.3327428
83333.3327429203
83333.3327427563
83333.3327426779
83333.332845503
83333.3328369318
83333.3328363796
83333.3328287621
83333.3328279865
83333.3328274118
83333.3328204179
83333.3328199905
83333.3328192136
83333.3328186166
83333.3328117904
83333.3328118312
83333.3328113898
83333.3328106108
83333.332810005
83333.3328028217
83333.3328033707
83333.3328034026
83333.332802953
83333.3328021807
83333.3328015879
83333.3327934473
83333.3327945321
83333.3327951001
83333.3327951279
83333.332794688
83333.332793934
83333.3327933742
83333.3327836323
83333.3327852574
83333.332786398
83333.3327869656
83333.3327870155
83333.3327865992
83333.3327858822
83333.3327853744
83333.3327733509
83333.332775515
83333.3327772327
83333.3327783854
83333.3327789955
83333.3327790785
83333.3327786989
83333.3327780374
83333.3327775955
83333.3327625772
83333.3327652779
83333.3327675642
83333.3327693216
83333.3327705428
83333.3327712064
83333.3327713406
83333.3327710164
83333.3327704257
83333.3327700501
83333.3327512911
83333.3327545237
83333.3327573648
83333.3327597267
83333.3327615793
83333.3327628789
83333.3327636229
83333.3327638339
83333.3327635865
83333.3327630751
83333.3327627616
83333.3327394839
83333.3327432325
83333.3327466159
83333.3327495684
83333.3327520468
83333.3327539981
83333.3327554012
83333.3327562543
83333.3327565758
83333.3327564301
83333.3327560118
83333.3327557622
83333.3327271404
83333.3327313911
83333.3327353044
83333.3327388276
83333.332741911
83333.3327445015
83333.3327465639
83333.3327480882
83333.3327490789
83333.3327495553
83333.332749554
83333.332749274
83333.3327491321
83333.3327142367
83333.3327189799
83333.3327234091
83333.3327274825
83333.3327311498
83333.3327343574
83333.3327370618
83333.3327392412
83333.3327408937
83333.3327420358
83333.3327426945
83333.3327428786
83333.3327427949
83333.33274278
83333.3328547809
83333.3328460346
83333.3328455048
83333.3328376838
83333.3328369364
83333.3328363824
83333.3328291743
83333.332828757
83333.3328280026
83333.3328274258
83333.3328204004
83333.3328204283
83333.3328199909
83333.332819234
83333.3328186435
83333.3328113062
83333.332811818
83333.3328118285
83333.3328113824
83333.3328106282
83333.3328100457
83333.3328018299
83333.3328028527
83333.3328033754
83333.332803377
83333.3328029355
83333.3328021953
83333.332801641
83333.3327919373
83333.3327934755
83333.3327945447
83333.3327950617
83333.3327950797
83333.3327946586
83333.3327939489
83333.332793438
83333.3327816036
83333.3327836566
83333.332785277
83333.3327863512
83333.3327869011
83333.3327869479
83333.3327865587
83333.3327858971
83333.3327854458
83333.3327708018
83333.3327733703
83333.3327755354
83333.3327771855
83333.3327783142
83333.3327789061
83333.3327789948
83333.33277865
83333.3327780514
83333.3327776677
83333.3327595098
83333.3327625925
83333.3327652929
83333.3327675223
83333.3327692512
83333.3327704419
83333.3327710962
83333.3327712429
83333.3327709587
83333.3327704378
83333.3327701218
83333.3327477123
83333.3327513014
83333.3327545284
83333.3327573303
83333.3327596629
83333.332761477
83333.3327627537
83333.3327634938
83333.3327637209
83333.3327635203
83333.3327630851
83333.3327628319
83333.3327354027
83333.3327394832
83333.3327432303
83333.3327465906
83333.332749515
83333.3327519519
83333.3327538687
83333.3327552543
83333.3327561091
83333.3327564539
83333.3327563644
83333.3327560268
83333.3327558371
83333.3327225706
83333.3327271339
83333.3327313871
83333.3327352892
83333.3327387876
83333.3327418315
83333.3327443794
83333.3327464112
83333.3327479228
83333.3327489235
83333.3327494358
83333.3327494996
83333.3327492992
83333.3327492229
83333.3327091911
83333.332714231
83333.3327189809
83333.3327234066
83333.3327274612
83333.3327310933
83333.3327342559
83333.3327369182
83333.3327390685
83333.3327407119
83333.3327418703
83333.3327425689
83333.3327428283
83333.3327428311
83333.33274288
83333.3328642083
83333.3328552868
83333.3328547806
83333.3328467532
83333.3328460372
83333.3328455057
83333.3328380819
83333.3328376778
83333.3328369487
83333.3328363938
83333.3328291662
83333.3328291847
83333.3328287553
83333.3328280219
83333.33282745
83333.3328199501
83333.3328204295
83333.3328204237
83333.3328199837
83333.3328192504
83333.3328186811
83333.3328103741
83333.3328113405
83333.3328118235
83333.3328118039
83333.3328113644
83333.3328106414
83333.3328100959
83333.3328004041
83333.3328018622
83333.3328028668
83333.3328033393
83333.3328033304
83333.3328029073
83333.3328022097
83333.3328017018
83333.3327900156
83333.3327919653
83333.3327934965
83333.3327945005
83333.3327949979
83333.3327950144
83333.3327946203
83333.3327939636
83333.3327935073
83333.3327791813
83333.3327816268
83333.3327836782
83333.3327852315
83333.332786279
83333.3327868112
83333.3327868648
83333.3327865089
83333.3327859078
83333.3327855169
83333.3327678793
83333.3327708192
83333.3327733856
83333.3327754934
83333.3327771119
83333.3327782098
83333.3327787933
83333.3327788948
83333.3327785877
83333.3327780589
83333.3327777363
83333.3327560891
83333.3327595199
83333.3327625972
83333.3327652563
83333.3327674529
83333.3327691427
83333.3327703105
83333.3327709623
83333.3327711264
83333.332770886
83333.3327704405
83333.3327701865
83333.332743802
83333.3327477154
83333.3327512987
83333.3327545
83333.3327572701
83333.3327595596
83333.3327613391
83333.3327625984
83333.3327633402
83333.3327635912
83333.3327634432
83333.3327630863
83333.3327628939
83333.3327310123
83333.3327354003
83333.3327394815
83333.332743212
83333.3327465436
83333.3327494259
83333.3327518197
83333.3327537057
83333.3327550778
83333.3327559411
83333.3327563185
83333.3327562947
83333.3327560342
83333.3327559064
83333.3327177088
83333.332722565
83333.3327271338
83333.3327313817
83333.3327352609
83333.3327387209
83333.3327417176
83333.3327442229
83333.3327462261
83333.332747729
83333.3327487467
83333.3327493042
83333.332749438
83333.33274932
83333.3327493119
83333.3327038666
83333.3327091866
83333.3327142383
83333.3327189914
83333.3327234036
83333.3327274259
83333.3327310115
83333.3327341237
83333.3327367423
83333.3327388639
83333.3327405012
83333.3327416805
83333.3327424263
83333.3327427775
83333.3327428753
83333.332742989
83333.3328737679
83333.3328646929
83333.3328642038
83333.3328559692
83333.3328552866
83333.3328547796
83333.3328471346
83333.3328467456
83333.332846045
83333.3328455147
83333.3328380808
83333.3328380924
83333.3328376739
83333.3328369661
83333.3328364151
83333.3328287461
83333.3328291968
83333.3328291805
83333.3328287474
83333.3328280373
83333.3328274846
83333.3328190726
83333.3328199874
83333.3328204366
83333.3328204012
83333.3328199665
83333.332819263
83333.3328187288
83333.3328090267
83333.3328104103
83333.3328113564
83333.3328117904
83333.3328117599
83333.3328113375
83333.3328106551
83333.3328101542
83333.3327985826
83333.3328004359
83333.3328018848
83333.3328028256
83333.3328032775
83333.3328032683
83333.3328028722
83333.332802224
83333.3328017682
83333.3327877134
83333.3327900426
83333.3327919886
83333.3327934533
83333.3327944287
83333.3327949096
83333.3327949339
83333.3327945718
83333.3327939738
83333.3327935785
83333.3327763967
83333.3327792019
83333.3327816411
83333.3327836372
83333.3327851564
83333.3327861737
83333.3327866984
83333.3327867648
83333.3327864446
83333.3327859126
83333.332785585
83333.3327646106
83333.33276789
83333.332770823
83333.3327733484
83333.3327754202
83333.3327769993
83333.3327780748
83333.332778657
83333.3327787761
83333.3327785117
83333.3327780584
83333.332777799
83333.3327523431
83333.3327560923
83333.3327595173
83333.3327625659
83333.33276519
83333.3327673426
83333.332768998
83333.3327701493
83333.332770804
83333.3327709923
83333.3327708027
83333.3327704344
83333.3327702423
83333.3327395878
83333.3327438017
83333.3327477128
83333.3327512764
83333.3327544454
83333.3327571712
83333.3327594178
83333.3327611668
83333.3327624134
83333.3327631639
83333.3327634486
83333.3327633634
83333.3327630808
83333.3327629492
83333.3327263371
83333.3327310103
83333.3327353998
83333.3327394705
83333.3327431753
83333.3327464656
83333.3327492997
83333.3327516514
83333.3327535093
83333.3327548728
83333.3327557526
83333.3327561779
83333.3327562207
83333.3327560358
83333.3327559673
83333.3327125717
83333.3327177047
83333.3327225702
83333.3327271396
83333.3327313698
83333.3327352127
83333.3327386238
83333.3327415697
83333.3327440324
83333.3327460085
83333.3327475074
83333.33274855
83333.3327491622
83333.3327493718
83333.3327493442
83333.3327494026
83333.3326982766
83333.3327038637
83333.3327092014
83333.3327142644
83333.3327190108
83333.3327233952
83333.3327273722
83333.3327309026
83333.3327339597
83333.3327365329
83333.3327386268
83333.3327402617
83333.3327414684
83333.3327422797
83333.3327427363
83333.3327429299
83333.3327431053
83333.3328834854
83333.3328742374
83333.3328737612
83333.3328653405
83333.3328646888
83333.3328642009
83333.3328563316
83333.3328559599
83333.3328552912
83333.3328547871
83333.3328471392
83333.3328471448
83333.3328467385
83333.3328460588
83333.3328455335
83333.3328376879
83333.3328381124
83333.3328380884
83333.3328376641
83333.3328369804
83333.3328364473
83333.3328279186
83333.3328287857
83333.3328292061
83333.3328291589
83333.3328287315
83333.3328280494
83333.3328275294
83333.3328177984
83333.3328191122
83333.3328200056
83333.3328204065
83333.3328203593
83333.3328199413
83333.3328192754
83333.3328187845
83333.3328072992
83333.3328090625
83333.3328104348
83333.3328113188
83333.3328117313
83333.332811701
83333.3328113046
83333.3328106687
83333.3328102182
83333.332796395
83333.3327986136
83333.332800461
83333.3328018447
83333.3328027556
83333.332803192
83333.3328031915
83333.3328028257
83333.3328022346
83333.3328018383
83333.3327850596
83333.332787737
83333.3327900568
83333.3327919493
83333.3327933784
83333.3327943243
83333.3327947985
83333.3327948361
83333.3327945082
83333.3327939775
83333.3327936477
83333.332773274
83333.3327764088
83333.3327792043
83333.3327816048
83333.3327835621
83333.3327850421
83333.3327860376
83333.332786562
83333.332786646
83333.3327863676
83333.3327859111
83333.3327856481
83333.3327610244
83333.3327646144
83333.3327678863
83333.3327707905
83333.3327732778
83333.3327753051
83333.3327768503
83333.3327779102
83333.3327784965
83333.3327786404
83333.3327784268
83333.33277805
83333.3327778532
83333.3327483013
83333.3327523436
83333.3327560883
83333.3327594911
83333.3327625049
83333.3327650829
83333.3327671929
83333.3327688187
83333.3327699586
83333.3327706227
83333.3327708446
83333.3327707161
83333.3327704212
83333.3327702896
83333.3327350964
83333.3327395877
83333.3327438001
83333.3327476963
83333.3327512305
83333.332754356
83333.3327570338
83333.3327592391
83333.3327609612
83333.3327621997
83333.332762967
83333.3327632999
83333.3327632779
83333.3327630679
83333.3327629922
83333.3327213965
83333.3327263365
83333.3327310143
83333.3327353992
83333.3327394479
83333.3327431135
83333.3327463538
83333.3327491376
83333.3327514477
83333.3327532802
83333.3327546404
83333.3327555464
83333.3327560295
83333.3327561363
83333.3327560311
83333.3327560215
83333.3327071774
83333.3327125709
83333.3327177168
83333.3327225898
83333.3327271479
83333.3327313459
83333.3327351405
83333.3327384957
83333.3327413877
83333.3327438075
83333.332745759
83333.3327472589
83333.3327483334
83333.3327490073
83333.3327493079
83333.3327493735
83333.3327494915
83333.3326894701
83333.3326924373
83333.3326982766
83333.3327038871
83333.3327092453
83333.3327143105
83333.3327190353
83333.3327233771
83333.3327272971
83333.3327307647
83333.3327337627
83333.3327362894
83333.332738358
83333.3327399957
83333.3327412413
83333.3327421385
83333.3327427098
83333.3327429933
83333.3327432341
83333.3328933617
83333.3328839267
83333.3328835021
83333.3328748517
83333.3328742326
83333.3328737611
83333.3328656805
83333.3328653293
83333.3328646926
83333.3328642085
83333.3328563413
83333.3328563412
83333.3328559501
83333.3328553011
83333.3328548048
83333.332846772
83333.3328471712
83333.3328471405
83333.3328467269
83333.332846072
83333.3328455633
83333.3328369066
83333.3328377289
83333.332838124
83333.3328380673
83333.3328376495
83333.3328369912
83333.3328364892
83333.3328267125
83333.3328279607
83333.3328288065
83333.3328291787
83333.3328291189
83333.332828708
83333.332828061
83333.3328275824
83333.3328161588
83333.3328178383
83333.332819139
83333.3328199716
83333.3328203501
83333.3328203033
83333.3328199089
83333.3328192879
83333.332818846
83333.3328052194
83333.332807334
83333.3328090885
83333.3328103981
83333.3328112511
83333.332811649
83333.3328116278
83333.3328112604
83333.3328106792
83333.3328102862
83333.3327938646
83333.3327964201
83333.3327986277
83333.3328004241
83333.3328017711
83333.3328026533
83333.3328030836
83333.3328030972
83333.3328027648
83333.3328022391
83333.3328019093
83333.332782077
83333.3327850733
83333.3327877387
83333.3327900221
83333.3327918739
83333.3327932643
83333.3327941892
83333.3327946637
83333.3327947194
83333.332794432
83333.3327939758
83333.3327937126
83333.3327698425
83333.332773279
83333.3327764043
83333.332779172
83333.3327815318
83333.3327834444
83333.3327848912
83333.3327858719
83333.3327864015
83333.3327865111
83333.3327862841
83333.3327859035
83333.3327857038
83333.33275715
83333.3327610252
83333.3327646091
83333.3327678576
83333.3327707244
83333.3327731649
83333.3327751499
83333.3327766666
83333.3327777164
83333.3327783131
83333.3327784919
83333.332778338
83333.3327780344
83333.3327778984
83333.3327439894
83333.3327483016
83333.3327523405
83333.3327560675
83333.3327594375
83333.3327624058
83333.3327649361
83333.3327670059
83333.3327686061
83333.3327697393
83333.3327704203
83333.3327706874
83333.3327706228
83333.3327703989
83333.3327703242
83333.3327303487
83333.3327350973
83333.3327395897
83333.3327437925
83333.3327476628
83333.3327511555
83333.3327542307
83333.3327568591
83333.3327590245
83333.3327607227
83333.3327619588
83333.3327627516
83333.3327631374
83333.332763177
83333.3327630453
83333.3327630225
83333.3327162092
83333.3327213982
83333.3327263466
83333.3327310259
83333.3327353947
83333.3327394078
83333.3327430236
83333.3327462083
83333.3327489399
83333.3327512093
83333.3327530192
83333.3327543822
83333.3327553205
83333.3327558623
83333.3327560434
83333.3327560261
83333.332756062
83333.3327015506
83333.3327071818
83333.3327125915
83333.3327177526
83333.3327226223
83333.3327271538
83333.3327313058
83333.3327350422
83333.3327383359
83333.3327411716
83333.3327435487
83333.3327454789
83333.3327469849
83333.3327480967
83333.3327488458
83333.3327492506
83333.3327494026
83333.332749584
83333.3326834202
83333.332689475
83333.3326863689
83333.3326924412
83333.3326983097
83333.3327039506
83333.332709322
83333.3327143735
83333.3327190601
83333.3327233452
83333.3327271978
83333.3327305962
83333.3327335326
83333.3327360138
83333.3327380613
83333.3327397096
83333.332741011
83333.3327420109
83333.3327426972
83333.3327430734
83333.3327433046
83333.3328937986
83333.3328934002
83333.3328845065
83333.3328839392
83333.332883522
83333.332875172
83333.3328748435
83333.3328742354
83333.332873773
83333.332865691
83333.3328656891
83333.3328653187
83333.332864701
83333.3328642269
83333.3328559979
83333.3328563716
83333.3328563368
83333.3328559374
83333.3328553126
83333.3328548336
83333.3328460338
83333.3328468128
83333.3328471847
83333.3328471195
83333.3328467124
83333.3328460824
83333.3328456033
83333.3328357641
83333.3328369502
83333.3328377523
83333.3328380987
83333.3328380293
83333.3328376268
83333.332837002
83333.3328365396
83333.3328251558
83333.3328267553
83333.3328279902
83333.3328287758
83333.3328291247
83333.3328290657
83333.3328286758
83333.3328280721
83333.3328276417
83333.332814181
83333.3328161973
83333.3328178642
83333.3328191058
83333.3328199065
83333.3328202712
83333.3328202336
83333.3328198667
83333.3328192983
83333.3328189124
83333.3328028068
83333.3328052466
83333.3328073482
83333.3328090548
83333.3328103266
83333.3328111517
83333.3328115442
83333.3328115378
83333.3328112033
83333.3328106852
83333.3328103575
83333.332791016
83333.3327938799
83333.3327964221
83333.3327985954
83333.3328003495
83333.3328016587
83333.3328025206
83333.3328029519
83333.3328029847
83333.3328026916
83333.3328022379
83333.3328019763
83333.3327787945
83333.3327820834
83333.3327850693
83333.3327877074
83333.3327899482
83333.3327917556
83333.3327931136
83333.3327940245
83333.3327945053
83333.3327945873
83333.3327943505
83333.3327939703
83333.3327937713
83333.3327661303
83333.3327698441
83333.3327732734
83333.3327763748
83333.3327791027
83333.3327814153
83333.3327832863
83333.3327847057
83333.3327856775
83333.3327862186
83333.3327863648
83333.3327861969
83333.3327858895
83333.3327857512
83333.3327530129
83333.3327571504
83333.3327610209
83333.3327645847
83333.3327677982
83333.3327706181
83333.3327730111
83333.3327749573
83333.3327764499
83333.3327774946
83333.3327781091
83333.3327783312
83333.3327782426
83333.33277801
83333.3327779315
83333.3327394296
83333.3327439905
83333.3327483013
83333.3327523268
83333.3327560245
83333.332759351
83333.332762269
83333.3327647513
83333.332766783
83333.3327683612
83333.332769493
83333.3327701983
83333.3327705153
83333.3327705134
83333.3327703687
83333.3327703424
83333.3327253644
83333.3327303515
83333.3327351046
83333.3327395928
83333.3327437749
83333.3327476071
83333.3327510494
83333.3327540701
83333.3327566483
83333.3327587751
83333.3327604528
83333.3327616922
83333.332762515
83333.3327629546
83333.3327630638
83333.3327630179
83333.3327630328
83333.3327107969
83333.3327162143
83333.3327214157
83333.3327263728
83333.3327310431
83333.3327353815
83333.3327393468
83333.3327429045
83333.3327460293
83333.3327487073
83333.3327509373
83333.3327527283
83333.3327540982
83333.3327550708
83333.3327556774
83333.3327559523
83333.3327560183
83333.3327561091
83333.3326957068
83333.3327015591
83333.3327072124
83333.3327126457
83333.332717813
83333.3327226634
83333.3327271528
83333.3327312466
83333.3327349167
83333.332738144
83333.3327409224
83333.3327432586
83333.3327451714
83333.3327466883
83333.3327478482
83333.3327486879
83333.3327491959
83333.3327494448
83333.3327496201
83333.3326771234
83333.3326834274
83333.3326895135
83333.3326800737
83333.3326863761
83333.3326924851
83333.3326983948
83333.3327040609
83333.3327094284
83333.3327144477
83333.3327190799
83333.3327232955
83333.332727072
83333.3327303969
83333.3327332717
83333.3327357115
83333.3327377452
83333.3327394203
83333.3327408019
83333.3327419129
83333.3327426683
83333.3327431419
83333.3327433234
83333.3328943603
83333.3328938322
83333.3328934399
83333.3328848047
83333.3328845179
83333.3328839524
83333.3328835514
83333.3328751794
83333.3328751816
83333.3328748348
83333.3328742468
83333.3328737964
83333.3328653656
83333.3328657171
83333.3328656854
83333.3328653067
83333.3328647128
83333.3328642567
83333.3328552994
83333.3328560364
83333.3328563879
83333.3328563163
83333.3328559228
83333.332855324
83333.3328548728
83333.3328449508
83333.3328460774
83333.3328468387
83333.3328471609
83333.3328470834
83333.332846691
83333.3328460923
83333.3328456517
83333.3328342857
83333.3328358089
83333.3328369825
83333.3328377245
83333.3328380468
83333.3328379788
83333.3328375959
83333.3328370126
83333.3328365967
83333.3328232746
83333.3328251973
83333.3328267823
83333.3328279602
83333.3328287132
83333.3328290489
83333.3328289994
83333.3328286355
83333.3328280823
83333.3328277061
83333.3328118809
83333.3328142101
83333.3328162118
83333.3328178343
83333.3328190368
83333.3328198104
83333.33282017
83333.3328201483
83333.3328198138
83333.3328193053
83333.3328189819
83333.3328000867
83333.3328028238
83333.332805249
83333.3328073186
83333.3328089822
83333.3328102168
83333.3328110223
83333.3328114162
83333.3328114312
83333.3328111344
83333.3328106854
83333.3328104262
83333.3327878767
83333.332791024
83333.332793877
83333.3327963924
83333.332798522
83333.3328002324
83333.3328015098
83333.3328023586
83333.3328027971
83333.3328028572
83333.332802612
83333.3328022341
83333.332802038
83333.3327752391
83333.3327787971
83333.3327820781
83333.3327850395
83333.3327876366
83333.3327898303
83333.3327915969
83333.3327929286
83333.3327938316
83333.3327943251
83333.3327944435
83333.3327942664
83333.3327939597
83333.3327938229
83333.332762163
83333.3327661312
83333.3327698389
83333.3327732465
83333.3327763111
83333.3327789916
83333.3327812574
83333.3327830908
83333.3327844876
83333.332785456
83333.332786016
83333.3327862051
83333.3327861035
83333.332785868
83333.3327857882
83333.3327486358
83333.332753014
83333.3327571482
83333.3327610023
83333.3327645344
83333.3327677029
83333.3327704727
83333.3327728191
83333.3327747291
83333.3327762016
83333.3327772467
83333.3327778853
83333.3327781574
83333.332778133
83333.3327779794
83333.3327779485
83333.3327346421
83333.3327394322
83333.3327439947
83333.3327482969
83333.3327522979
83333.3327559553
83333.3327592312
83333.332762096
83333.3327645302
83333.3327665256
83333.3327680855
83333.3327692214
83333.3327699561
83333.3327703263
83333.3327703932
83333.3327703322
83333.3327703387
83333.3327201629
83333.3327253696
83333.3327303653
83333.3327351208
83333.3327395949
83333.3327437436
83333.332747527
83333.3327509121
83333.332753875
83333.3327564023
83333.3327584925
83333.3327601532
83333.3327613999
83333.332762255
83333.3327627552
83333.3327629541
83333.3327629918
83333.3327630603
83333.3327051753
83333.3327108056
83333.3327162405
83333.3327214583
83333.3327264153
83333.332731062
83333.332735356
83333.332739263
83333.3327427559