/*--------------------------------*- C++ -*----------------------------------*\
  =========                 |
  \\      /  F ield         | OpenFOAM: The Open Source CFD Toolbox
   \\    /   O peration     | Website:  https://openfoam.org
    \\  /    A nd           | Version:  12
     \\/     M anipulation  |
\*---------------------------------------------------------------------------*/
/*   Windows 32 and 64 bit porting by blueCAPE: http://www.bluecape.com.pt   *\
|  Based on Windows porting (2.0.x v4) by Symscape: http://www.symscape.com   |
\*---------------------------------------------------------------------------*/
FoamFile
{
    format      ascii;
    class       volScalarField;
    location    "300";
    object      nut;
}
// * * * * * * * * * * * * * * * * * * * * * * * * * * * * * * * * * * * * * //

dimensions      [0 2 -1 0 0 0 0];

internalField   nonuniform List<scalar> 
10116
(
4.01497062371415e-05
4.20094801780442e-05
4.2550347697502e-05
0.000403305963154586
4.37089410858092e-05
4.45072812595132e-05
0.000412477381199056
4.55928842784919e-05
0.000412636311259835
0.0010140489023838
4.52657956257512e-05
4.62958534426817e-05
0.000420701782018953
4.76688925839475e-05
0.000421963690456553
0.00103218631631137
4.74086754508343e-05
0.000424522752190437
0.00102464415750494
0.00170587990105239
4.66897226159979e-05
4.79355084763784e-05
0.00042810287476516
4.95686840879307e-05
0.000430335360768985
0.00104837548541231
4.95543463307978e-05
0.000434049584828479
0.00104291764415174
0.00173364122096192
4.68498150174325e-05
0.000431684538895292
0.00103718706509954
0.00171337119277012
0.00239420686011329
4.79891966254749e-05
4.94361180958168e-05
0.000434764560541415
5.13104822777246e-05
0.00043787244110519
0.00106288344030712
5.15206086766045e-05
0.0004426135124069
0.00105923606078182
0.00175836805005445
4.89712028592202e-05
0.000441328294628342
0.00105561212432491
0.00174123653615671
0.00243173098409883
4.44981028717175e-05
0.000429699324059581
0.00104340017929241
0.00171953415541996
0.00239661913443696
0.00303984657250398
4.9171976797909e-05
5.08056169353867e-05
0.000440754669229362
5.2906307499616e-05
0.000444659007328145
0.0010758881159277
5.33241507013823e-05
0.000450329193723883
0.00107386419946013
0.00178046630834632
5.09160490178009e-05
0.00045000820270182
0.00107208484678424
0.00176604709225098
0.00246508975785161
4.65213276550893e-05
0.000439293249205245
0.00106188731440976
0.00174745911157847
0.00243419819866077
0.00308691484829592
4.14316092985509e-05
0.000419883464136471
0.00103749329589133
0.00171775192427118
0.00239355997139689
0.00303700017955707
0.00362807423488644
5.02453838848528e-05
5.205194315545e-05
0.000446134398601226
5.43627349896158e-05
0.000450763938479236
0.00108753838274804
5.49773156198571e-05
0.000457280390932367
0.00108697700043408
0.00180022096457503
5.27016366638334e-05
0.000457834535130575
0.00108686147350548
0.00178822161329462
0.00249482954375136
4.8376769246632e-05
0.000447933498242883
0.00107842954584101
0.00177233893694245
0.00246757922399442
0.00312868231062348
4.33249318889425e-05
0.000429275577686491
0.00105586135751545
0.00174561123694215
0.00243107825344954
0.00308406767906627
0.00368425728855812
3.81556668146274e-05
0.000405772852304911
0.00101985303342824
0.00170297817650356
0.00238012499036805
0.0030245582150551
0.00362131252731514
0.00415667194027323
5.1217020872823e-05
5.31831175907956e-05
0.000450960891930662
5.56884368674102e-05
0.000456249550620828
0.00109796609682143
5.64865098105827e-05
0.00046353661705476
0.00109872504065355
0.00181787134538801
5.43384620128181e-05
0.000464889355725136
0.00110011471476526
0.001808045038355
0.00252134789899756
5.0081405208734e-05
0.000455728752403887
0.00109327987431807
0.00179458294759471
0.0024973371478038
0.0031658362459758
4.50620641202854e-05
0.000437736908706938
0.00107230540288854
0.0017704544028597
0.00246441615390439
0.00312579154458939
0.00373403134612604
3.99086179095786e-05
0.000414874010596962
0.00103791350533458
0.00173057387201089
0.00241741051061783
0.00307143652174494
0.00367745250923212
0.00422143256653019
3.47018934077452e-05
0.000389423564036028
0.000993906603419656
0.00167472223588317
0.00235271983044914
0.00299890862185285
0.00360125775659558
0.004147568949922
0.00462910755674196
5.20947439131307e-05
5.42072168640882e-05
0.000455284794607665
5.68916393271894e-05
0.000461172844442357
0.00110729030295704
5.78611045472037e-05
0.0004691607883506
0.0011092414149171
0.00183362843846753
5.58343777435724e-05
0.000471241403117669
0.00111199108332139
0.00182575731316837
0.00254498125686636
5.16454706556277e-05
0.000462759135315514
0.00110660877338372
0.001814473694974
0.00252387155899437
0.0031988878537388
4.6658934669954e-05
0.000445374057749452
0.00108707517042344
0.00179267742695998
0.00249414096520027
0.0031629021016281
0.00377822160822941
4.1517735558824e-05
0.000423075369045214
0.00105408771192868
0.00175519744956805
0.00245056136129979
0.00311299868114086
0.00372713057311857
0.00427872449923319
3.63061782495104e-05
0.000398185289165792
0.00101151770547694
0.00170183905527146
0.00238954337025271
0.00304536774532927
0.00365709692873045
0.00421226300594177
0.00470185798232205
3.10233205364517e-05
0.000371154243206305
0.000962070932980151
0.00163505277559292
0.00231061685203403
0.00295763430323552
0.00356494105763232
0.00412209058741283
0.00461862464151377
0.00505056709367705
5.2886140867169e-05
5.51325596209762e-05
0.000459151731653137
5.7981027647566e-05
0.000465585040452559
0.00111561759312204
5.91094923508526e-05
0.000474210511757004
0.00111864587777703
0.00184768078617492
5.71975230018986e-05
0.000476955354725825
0.00112262489082893
0.00184157011632123
0.00256602560558082
5.30761740567833e-05
0.000469093334007268
0.00111856109206007
0.00183224961510437
0.00254751932050815
0.00322827279242563
4.81254285866204e-05
0.000452265379863968
0.00110034067543114
0.00181255777777697
0.00252065046257939
0.00319591430781681
0.0038174516032379
4.29974523945509e-05
0.000430480320804585
0.00106862158415727
0.0017772394118175
0.00248013096381328
0.00314996872153904
0.00377122869206955
0.00432950785947875
3.77792781199505e-05
0.000406082263660217
0.0010272936860386
0.00172604704179035
0.00242230370538406
0.0030865782855174
0.00370651046442367
0.00426942564718421
0.00476614706777451
3.24683668002096e-05
0.000379536432403066
0.000979128398509495
0.00166150133910844
0.00234672913921929
0.00300340270744434
0.00362018553671105
0.0041863985226636
0.00469129757606879
0.00513069546354324
2.71361338155847e-05
0.0003506840488707
0.000924998251691233
0.00158559271189691
0.00225461495506176
0.00290004205998125
0.00351051627987364
0.00407718324498356
0.00458924065318354
0.0050390807893242
0.00542618390784926
5.35981909044671e-05
5.59667251536044e-05
0.000462605094074062
5.89654199715649e-05
0.000469529341388366
0.00112304394728533
6.02400854097039e-05
0.000478738292717114
0.00112704584554195
0.00186019745236223
5.84366503238322e-05
0.000482088376172237
0.00113213666265816
0.00185567256707051
0.00258474385326806
5.43808321784431e-05
0.000474793559077889
0.00112926569692057
0.00184812219386412
0.00256857665758894
0.00325437425473939
4.94677809905911e-05
0.000458478097750343
0.00111224501874485
0.0018303311447094
0.0025442799277831
0.00322526416713818
0.00385225399296577
4.43574676480495e-05
0.000437165076678542
0.00108168093328768
0.00179696780101596
0.0025065110245627
0.00318286036760005
0.00381037503746408
0.00437451117606212
3.91341108372281e-05
0.000413213840443068
0.00104147480824012
0.00174773023620045
0.00245153991722535
0.00312324733422607
0.00375037524287529
0.00432008421685658
0.00482305820647032
3.37956164399859e-05
0.000387092285870186
0.000994411663363266
0.0016851234656781
0.00237887761246084
0.00304402233870379
0.0036690934681397
0.00424321758058632
0.00475543557562332
0.00520144738408221
2.84116853015823e-05
0.000358641829042429
0.000941409919614772
0.0016112076747176
0.00228977944649812
0.00294482954800177
0.00356483567872905
0.0041407429780258
0.00466146185730268
0.00511912488958471
0.00551306357211446
2.31093338416e-05
0.00032775078098717
0.000882428278962112
0.00152673350563528
0.0021852404139191
0.00282608315038958
0.00343735879224937
0.0040110335743835
0.0045373299823262
0.00500655774047461
0.00541378146944502
0.00576055288827242
5.42376024056476e-05
5.67174089155861e-05
0.000465685129695361
5.98533765124966e-05
0.000473050799987979
0.00112965721964934
6.12618783184225e-05
0.000482790841910817
0.00113453706825266
0.0018713304481442
5.95598373512002e-05
0.000486693337681136
0.00114063488445824
0.00186823428394394
0.00260137068044818
5.5567188271673e-05
0.000479917820924297
0.00113884369477794
0.00186228052416909
0.00258730665860709
0.003277531367781
5.06930467729105e-05
0.000464072013022866
0.00112291555621516
0.00184620633160947
0.00256532440278603
0.00325133462039434
0.00388309798526873
4.56030633720352e-05
0.000443193927996829
0.00109340839267966
0.00181461355124638
0.00253003251364427
0.00321210751179231
0.00384510320911474
0.00441436131588311
4.03803948476569e-05
0.000419654049858752
0.00105422250784577
0.00176715103165497
0.0024776343637695
0.00315588113027559
0.00378931867650868
0.00436497478489228
0.00487341990129979
3.50165251623162e-05
0.00039391617108751
0.00100815397228904
0.00170629159011412
0.00240758437671252
0.00308018251278342
0.00371252147374773
0.00429357098201834
0.00481220056166104
0.00526401790701
2.95838949772824e-05
0.000365815506423772
0.000956117038618576
0.00163409539759557
0.00232110177467418
0.00298460198284211
0.00361294941902202
0.00419692211484177
0.0047251944765934
0.00518970887342637
0.00558973756953275
2.42073382696188e-05
0.000335235147339832
0.000898099548636638
0.00155135714626656
0.00221923051052947
0.00286959878319341
0.00349040581112606
0.00407344311434576
0.00460866809220287
0.00508609439083077
0.00550056981710232
0.00585354852829975
1.90444807224991e-05
0.000302201486193441
0.000833801380793654
0.00145799214281886
0.00210219124179135
0.00273534510327783
0.00334500344978727
0.0039230600236467
0.00446078208180724
0.00494861999587978
0.00537845389853786
0.00574724084305435
0.00605773848198656
5.48109651902917e-05
5.73920289841495e-05
0.000468428060472593
6.06525493048716e-05
0.00047619119102372
0.00113553744992407
6.21837150657985e-05
0.0004864076604455
0.0011412079868167
0.00188121659584815
6.05753459070155e-05
0.000490818648142651
0.00114821669347606
0.00187940751046696
0.002616116172888
5.66437577902929e-05
0.000484517675159995
0.00114740405394217
0.00187489434456739
0.002603944119014
0.00329804458136868
5.18076797281754e-05
0.000469102135661367
0.00113246540361438
0.00186037111293607
0.00258404600340142
0.00327446435678474
0.00391039767658888
4.67409621923369e-05
0.000448625404782186
0.00110392810322496
0.00183038198225105
0.0025509870029922
0.00323809087099274
0.00387588174756578
0.00444960964804667
4.15225606235446e-05
0.000425464106317573
0.00106567397940973
0.00178453002866281
0.00250091092489735
0.00318490764146857
0.00382387186003064
0.0044047247619154
0.00491794619721937
3.61403245139336e-05
0.000400080199685561
0.00102051109827772
0.00172526300227261
0.00243321996902872
0.0031123774347336
0.00375108797736263
0.00433819512127743
0.00486242985152638
0.00531932569654651
3.06621488421944e-05
0.000372294231690372
0.000969344410424294
0.00165461457207296
0.0023490901016806
0.00302002768908348
0.00365569142629327
0.00424672046416264
0.00478159794487342
0.0052521161066838
0.00565749819814808
2.52173769300242e-05
0.000341981915786285
0.000912144693730335
0.00157336929757584
0.00224952394315829
0.00290826822618606
0.00353742024908159
0.00412863338614027
0.00467164252621445
0.00515621980096248
0.00557705984166191
0.005935600325268
1.99614678674821e-05
0.000309158821572196
0.000848630514339654
0.00148146229676358
0.00213478005307924
0.00277729931565379
0.00339642949594018
0.00398390181572943
0.00453075707317126
0.00502715078259143
0.00546468296124473
0.00584013706929577
0.00615621645560233
1.5058699840272e-05
0.00027393443981857
0.000778397720526412
0.00137831215080865
0.00200440600915333
0.00262674842116877
0.00323242808497593
0.00381269237084389
0.0043590160254972
0.0048627134495143
0.00531508336171378
0.00570928366826403
0.00604353095426224
0.0063213707987382
5.53240778654734e-05
5.79972438854949e-05
0.000470866399590029
6.13703982161174e-05
0.000478988154549901
0.00114075609358475
6.30140083613719e-05
0.000489632811083632
0.00114713921759892
0.00188997837247109
6.14919102566364e-05
0.000494507067820116
0.00115496910880904
0.00188932940419677
0.00262916778057525
5.76179072376792e-05
0.00048864125817755
0.00115504496348161
0.00188611604779733
0.00261869908495196
0.00331618232598575
5.28195563598358e-05
0.000473620958140369
0.00114100347569758
0.00187299432694572
0.0026006786735498
0.00329495394808326
0.00393451928273891
4.7776814451006e-05
0.000453511531936392
0.00111335157830385
0.00184445660319203
0.00256963386053903
0.00326114708784386
0.00390312390746693
0.00448074206791269
4.25664062038834e-05
0.000430700125487147
0.00107595315511502
0.0018000675662054
0.00252165544469028
0.00321070254233041
0.00385450023156015
0.00443988482007614
0.00495726533604253
3.71709587093882e-05
0.000405642374876264
0.0010316152913283
0.00174225184356255
0.00245609811978671
0.00314102533228004
0.00378531662505849
0.00437771447732112
0.00490683847044126
0.00536816432666128
3.165498921119e-05
0.000378147354298321
0.000981241487797921
0.00167301197268999
0.00237409823890719
0.00305158513133411
0.00369366491132815
0.0042908641542602
0.00483151064792983
0.00530727566424825
0.00571734342872976
2.61462860530318e-05
0.000348074086678816
0.000924779003612492
0.00159311217460878
0.00227660939343356
0.00294273296792475
0.00357920908601046
0.00417757646055668
0.00472738674076686
0.00521821663805388
0.00564464089304069
0.0060080818732469
2.08058870760563e-05
0.000315432119802648
0.000861921118859077
0.00150245387566706
0.00216384298149717
0.00281460755513441
0.00344203725297702
0.00403773771759527
0.00459255837009034
0.00509640982396929
0.00554066469360057
0.00592198866971379
0.00624310436961968
1.57966530798637e-05
0.000280312079196048
0.000792274246740951
0.00140045510409564
0.00203535749795887
0.0026668446753972
0.0032818770933265
0.00387154968335367
0.00442713303884962
0.00493968000029932
0.00540019180041218
0.00580157099842761
0.00614190062629616
0.00642471118066799
1.12321574864815e-05
0.000242746840107359
0.000715205346016809
0.00128608043105863
0.00189011015109281
0.00249853152599794
0.00309791575103589
0.00367859920360099
0.00423150490408988
0.00474821452119861
0.00522064610193937
0.00564090892328267
0.006003097423497
0.00630630844362165
0.00655470406639199
5.57816355270796e-05
5.85387909125876e-05
0.000473028100620077
6.20144328138729e-05
0.000481474902876407
0.00114537610489736
6.37600605785433e-05
0.000492504797437406
0.00115240307670581
0.00189772410748929
6.23177310254281e-05
0.000497793986593578
0.00116097307771918
0.00189812272609674
0.00264069155776617
5.84978582037212e-05
0.000492332446916198
0.00116185402762918
0.00189608226083253
0.00263175901709561
0.00333218277118404
5.37364814697709e-05
0.000477674644499041
0.00114862779149491
0.00188422776943192
0.0026154315638001
0.00331307100371603
0.00395578717745254
4.87177974790062e-05
0.000457902073778169
0.00112177847175185
0.0018570037803909
0.0025862046684
0.00328157494776196
0.00392719508388587
0.00450818691630143
4.35174209798699e-05
0.000435412636939933
0.00108516816629316
0.0018139428942964
0.00254012223987755
0.00323359813911623
0.00388161401001866
0.00447093974341972
0.00499193031914072
3.81134722577761e-05
0.000410655911272313
0.00104158523269131
0.00175744729655304
0.00247649669818586
0.00316649375386925
0.00381566616627382
0.00441267592624452
0.00494605392432314
0.00541123232625513
3.25662307934817e-05
0.000383429923091274
0.000991934586761706
0.00168949687020775
0.00239642845420001
0.00307967937281156
0.00372738100766853
0.00432996887563264
0.0048756446381235
0.00535598243264773
0.00577013747253951
2.70018831994193e-05
0.000353577713699124
0.000936144787337321
0.00161082030812387
0.00230082792707991
0.00297345210092154
0.00361635537221966
0.00422098004858921
0.00477672769080223
0.00527301596843538
0.00570432283292075
0.00607205865910472
2.15819544028426e-05
0.00032109494996357
0.000873877822841921
0.00152128988294239
0.00218984353802858
0.00284788356810126
0.00348260173630125
0.00408550670582099
0.00464728697720902
0.00515765161662036
0.00560778945508531
0.00599427429380365
0.00631984121231782
1.64779173484126e-05
0.000286061530808174
0.000804709008290789
0.0014202705934948
0.00206298036123072
0.00270252749102687
0.0033257655924542
0.00392366471781155
0.00448732921008999
0.00500759124913414
0.00547520543082688
0.00588286650695892
0.00622857224406031
0.00651590469604665
1.17966016179941e-05
0.000248491049212813
0.000728008596900411
0.00130670496891833
0.00191917177830747
0.00253645930951044
0.00314501980791855
0.00373504939219416
0.00429727460201296
0.00482304374905397
0.00530400105929638
0.00573196813058822
0.00610081120158619
0.00640953157600968
0.00666231276954634
7.59379429423658e-06
0.000207963382418416
0.0006425536467131
0.00117889053616144
0.00175670258167732
0.00234818424726712
0.00293909121417857
0.00351863929230106
0.0040768067513937
0.00460468547551205
0.00509444769993882
0.00553865973553436
0.00593010369637858
0.00626357358363456
0.00653884814740826
0.00676064080792178
5.61865132589083e-05
5.90205647799127e-05
0.000474935564445026
6.259043496752e-05
0.000483679476159304
0.00114945098236661
6.44291407535304e-05
0.000495057832165896
0.00115706314595806
0.00190454795541533
6.30606637941252e-05
0.000500719981050154
0.00116630132613313
0.00190589617537625
0.0026508330604826
5.92914989958784e-05
0.000495628739553731
0.00116790910043578
0.00190491555900551
0.00264329002225075
0.00334625455590464
5.45655701423727e-05
0.000481306399219707
0.00115542616715038
0.00189420732511837
0.00262849119711856
0.00332905289029812
0.00397448706359638
4.95709356003182e-05
0.000461844165901817
0.00112930621662065
0.00186817341240303
0.0026009064600967
0.00329964014113467
0.00394841872484183
0.00453232194650487
4.43821839553566e-05
0.000439649066898251
0.00109341716710249
0.00182631701341018
0.00255653870666161
0.00325388936358494
0.00390557570856978
0.00449831681233982
0.00502242749300112
3.89725995582876e-05
0.000415169322077823
0.00105052876533406
0.00177102369507533
0.00249466325915412
0.00318910802112166
0.00384254093650871
0.00444356044292745
0.0049806279337607
0.00544914423177545
3.34003890096387e-05
0.000388192232403899
0.00100153756385637
0.00170425227926692
0.00241634788756236
0.00310466692886247
0.0037572878746747
0.00436457331970096
0.00491462316247868
0.00539893420040756
0.00581664168229891
2.77876975678723e-05
0.000358545685451618
0.000946362044749904
0.00162669310542515
0.00232246503800556
0.00300081469510129
0.00364935335511359
0.00425944461037592
0.00482036739039726
0.00532140967971282
0.00575697147776241
0.00612845594956961
2.22967584082437e-05
0.00032620872804186
0.000884634909242392
0.00153819055738027
0.00221310564500959
0.00287756221094291
0.00351868142640081
0.00412789175363852
0.00469574845366466
0.0052117950263692
0.0056670700267178
0.00605807267847584
0.00638754801760776
1.71026416632206e-05
0.00029124814600076
0.000815895337138175
0.00143805919732521
0.00208770814366271
0.00273437841289814
0.00336482946209586
0.00396993739172701
0.00454066641331327
0.00506766497545522
0.00554148471581435
0.00595465156477226
0.00630509703408883
0.0065964407306606
1.23190504452171e-05
0.0002536695559667
0.000739475061705043
0.0013251726706966
0.00194512990671426
0.00257024166379859
0.00318686408235283
0.00378507214702851
0.00435543617426831
0.00488910783242615
0.0053775015526413
0.00581219953102863
0.00618688123888665
0.0065004934473078
0.00675730154407551
7.99113376201188e-06
0.000213011395042696
0.000654140408664925
0.00119778086235029
0.00178359814656249
0.00238361327545407
0.00298346677583782
0.00357224458926666
0.00413973728772381
0.00467681532173372
0.00517540122908025
0.00562778926891353
0.00602648990873961
0.00636609747915109
0.00664633119518177
0.00687195955301722
4.29181752307849e-06
0.00016815867655493
0.000557482175973675
0.0010530524370789
0.00160048137899525
0.00217228873066947
0.00275285925159636
0.00333000282688328
0.00389254136023134
0.00443067777411575
0.0049361429301494
0.00540176410659196
0.00582071772337492
0.00618634883866101
0.00649400925195791
0.0067440633435825
0.00694174539037874
5.65418674375279e-05
5.94435445667389e-05
0.000476606044419663
6.3100971239116e-05
0.000485623796525506
0.00115302362050982
6.50278042385585e-05
0.000497320804917893
0.00116117324053644
0.00191052894417623
6.37270496722617e-05
0.000503320236020063
0.00117101809024572
0.00191274418343458
0.00265971731725498
6.00057032054728e-05
0.000498560313028908
0.0011732824587843
0.00191272450319494
0.00265343769008663
0.00335858007443401
5.53139930489382e-05
0.0004845544887718
0.00116147580522309
0.00190305394139389
0.00264002294304786
0.00334310842330397
0.00399087028267838
5.03431514734594e-05
0.00046537879929399
0.00113602178279945
0.00187809981573006
0.00261392382346976
0.0033155782539082
0.00396708019747083
0.0045534798810701
4.51664161914984e-05
0.000443453761699307
0.00110078749945685
0.00183733647243591
0.0025711082394109
0.00327183835310719
0.00392670608618934
0.0045223927811745
0.0050491854930851
3.97544674032554e-05
0.000419228429902401
0.00105854149385861
0.00178313728066358
0.00251081901553524
0.00320915701890728
0.00386629815104191
0.00447079171986897
0.00501104570985144
0.00548243998663108
3.41612097526043e-05
0.000392479989753806
0.0010101534246096
0.00171744151090196
0.00243409558304681
0.00312686367928796
0.00378378068171349
0.00439515116858679
0.00494899354412932
0.00543674409511771
0.00585752582512071
2.85076344262374e-05
0.000363025392593018
0.000955538870531881
0.00164090822279787
0.00234177630944258
0.00302516351062364
0.0036786368958835
0.00429349591792
0.00485891976641394
0.00536409094031886
0.00580334745133728
0.00617809013372161
2.29536657865597e-05
0.000330824565050464
0.000894305980343005
0.00155334397649767
0.0022339029326517
0.0029040132322314
0.00355074988198237
0.00416547253978598
0.00473862700385758
0.00525962089242046
0.00571936925171769
0.00611431097098087
0.00644720135977741
1.76769318024395e-05
0.000295930515778609
0.000825958243938194
0.00145402531911056
0.00210984358015981
0.00276280769234438
0.00339959792076515
0.00401102047985814
0.0045879210656629
0.00512079598262668
0.00560002959895414
0.00601800875202102
0.00637261052663333
0.00666748445814367
1.27960789503905e-05
0.000258333421666341
0.000749787035312266
0.0013417582116721
0.00196838368282749
0.00260042022451028
0.00322414065665059
0.00382952098766535
0.00440700542075378
0.00494757988226619
0.00544246787528384
0.00588305333206796
0.00626286316977795
0.00658080207432029
0.00684119690535247
8.35978741765507e-06
0.00021755738195596
0.000664508785850268
0.00121470610010272
0.00180764507853711
0.00241520251811467
0.00302292674693541
0.00361979164634915
0.00419543275382397
0.00474053965730825
0.00524682447361569
0.00570635256934718
0.00611140630724195
0.00645641554529159
0.00674107423544669
0.00697026103877476
4.53281439169896e-06
0.000172427453952774
0.000567673343716372
0.00106995494519185
0.00162490288106176
0.00220486334426079
0.00279410335091113
0.00338030953705185
0.00395212914679103
0.00449954861671439
0.00501406344471057
0.00548824671994348
0.00591501280937276
0.00628745498390047
0.00660075422196963
0.00685524890500217
0.00705625819070682
1.73640815375128e-06
0.000121971786035961
0.000455361831804548
0.000903037116164934
0.00141625784689733
0.00196631307153085
0.00253528346896233
0.003109224939996
0.00367564902675597
0.00422370727076507
0.004744326820984
0.00522996323647806
0.00567409957535038
0.00607048445713425
0.00641294993294539
0.00669732857459381
0.00692452183966385
0.00710026139570953
5.98169333311313e-05
0.000478059888981026
6.35479085543936e-05
0.000487324340143929
0.001156129803191
6.5557243005583e-05
0.000499314965576031
0.00116477611537354
0.00191573017530485
6.43234440747056e-05
0.000505624288485646
0.00117517759550576
0.00191874596410563
0.0026674483663491
6.06473801801643e-05
0.000501164209125859
0.00117803838470753
0.0019196035271241
0.00266232705265935
0.00336931407475689
5.59881674913059e-05
0.00048744944856458
0.00116684452854982
0.00191087513094803
0.00265017172257909
0.00335541947134964
0.00400515377058587
5.10411184090169e-05
0.000468543477136665
0.00114200192038457
0.00188690214160943
0.00262542019755946
0.00332959674495249
0.00398342979651799
0.00457195046295007
4.58765874533603e-05
0.000446867857300003
0.00110736516273014
0.0018471328943977
0.00258401221203601
0.00328767755260163
0.00394528818715601
0.00454349897577039
0.00507257855846247
4.0463753124217e-05
0.000422875028832878
0.00106570929444493
0.00179392853251186
0.00252516215493177
0.00322689747768294
0.00388725371075437
0.00449474316971649
0.00503773406193276
0.00551159303275966
3.48538369854241e-05
0.000396336741477829
0.00101787618775754
0.00172921510155736
0.00244988535467627
0.00314655025167305
0.00380720868336833
0.00442211953733379
0.00497923684724742
0.00546995059888861
0.00589337809822503
2.9165007078781e-05
0.000367058938149328
0.000963773075789765
0.00165362383097832
0.00235898991223361
0.00304680267592948
0.00370458885356023
0.0043235963072476
0.00489292365024939
0.00540166800184654
0.00584411905719441
0.00622167912573396
2.3555791624531e-05
0.000334987156881736
0.00090299301202047
0.00156691846508338
0.0022524750672695
0.002927563251297
0.00357922325573458
0.00419875723324969
0.00477652136783503
0.00530181200800909
0.0057654428539201
0.00616380474448987
0.00649966452780978
1.82046265974768e-05
0.000300155668796975
0.000835004688632494
0.00146834425211304
0.00212964347913261
0.0027881611160026
0.00343051995492933
0.00404746809905784
0.00462975278158334
0.00516774509965044
0.00565169105672868
0.00607386231744929
0.00643209146509845
0.00673005446126109
1.32334098498825e-05
0.000262535702322732
0.000759059159905844
0.00135664838086906
0.00198921093183984
0.00262737696122424
0.00325734364631805
0.00386901292565978
0.00445272297030257
0.00499932141572461
0.00549987363726734
0.00594559885885933
0.0063298972963409
0.00665163826744668
0.00691519791721684
8.69327021555399e-06
0.000221638779202024
0.000673824971820211
0.00122991096840632
0.00182920314144823
0.00244344693256671
0.00305811329669199
0.00366207824031784
0.00424485442780734
0.00479697906091761
0.00530998849500182
0.00577575690672349
0.00618637653466875
0.00653614187315807
0.00682472805747556
0.00705709797638767
4.75643569269514e-06
0.000176256687977203
0.000576770924722632
0.00108510882818513
0.00164676248197797
0.00223394329186059
0.00283082248414957
0.00342498116482476
0.00400491722311916
0.00456044292974835
0.00508285654686845
0.00556451766223286
0.00599811800487799
0.00637653749647802
0.0066948152914214
0.00695329208021492
0.00715742259434062
1.84789308953461e-06
0.000125365974805226
0.000463930873016936
0.00091763475278254
0.00143785279739133
0.00199564684533492
0.00257297140300903
0.00315576443767604
0.00373137602309226
0.00428875215276028
0.00481859065641176
0.00531310297277343
0.00576552365687371
0.00616935417033208
0.00651819707277332
0.00680774211500438
0.00703889499828133
0.00721749715722243
3.51170902640989e-07
6.90518398058394e-05
0.000331218916105978
0.000721977607617253
0.00119732767232263
0.0017245008907304
0.00228152036373443
0.00285215358456838
0.00342250088009088
0.00398061005216065
0.00451649697547333
0.00502191973300005
0.00549007335205176
0.0059150895865334
0.00629125189750969
0.00661283101679316
0.00687609952154999
0.00708246615007981
0.00723812362599453
6.39432804833871e-05
0.000488804188385872
0.00115879746646699
6.60188943338239e-05
0.000501057256119837
0.00116790723078049
0.00192020522972168
6.48514283996522e-05
0.000507652834551756
0.00117882236204171
0.0019239645251051
0.00267410865009104
6.12217978184879e-05
0.000503470290671423
0.00118223119923262
0.00192563168465083
0.00267006203389675
0.00337858539268979
5.65947364614621e-05
0.000490018094742152
0.00117159539323179
0.00191776453211021
0.00265906201919458
0.0033661410006404
0.00401752261812843
5.1670781501777e-05
0.000471370650280067
0.00114731263386318
0.00189468517872018
0.00263553881049455
0.0033418761855491
0.00399768417394541
0.0045879836603521
4.65190962587769e-05
0.000449928062748471
0.00111322575359775
0.00185582310577633
0.00259541113200504
0.00330161161102296
0.00396157014229332
0.00456192458828739
0.00509293401742704
4.11067913720106e-05
0.000426147989605297
0.00107210841007048
0.0018035252745188
0.00253786952099616
0.00324255706911711
0.00390568639743709
0.00451574305463698
0.00506106687199531
0.00553701921761633
3.54828166114432e-05
0.00039980168618203
0.00102479086978766
0.0017397084264255
0.00246390852031594
0.00316397616561432
0.0038278806414848
0.00444584589749545
0.00500577589512597
0.00549902621326226
0.00592471417839482
2.97640456339836e-05
0.000370686675637537
0.000971154465258824
0.00166498105816392
0.00237431070786673
0.00306600260757254
0.00372754779607433
0.0043501530304787
0.00492285242280549
0.00543467471811671
0.00587987295475536
0.00625985494595891
2.41061497247078e-05
0.000338735704434513
0.000910787694791068
0.00157906490506516
0.0022690376242038
0.00294850234199526
0.00360446918088675
0.00422819295973617
0.00480995714447918
0.00533896709197679
0.00580595389062552
0.0062072708634906
0.00654569812463867
1.86883425119783e-05
0.000303964857083745
0.000843130397636392
0.00148117339017779
0.00214733605351522
0.00281074643643889
0.00345799076688266
0.00407976650315992
0.00466673943313406
0.00520917790510448
0.00569721353313793
0.00612302269921637
0.006484402404391
0.00678505331344055
1.36350952091793e-05
0.000266323744808943
0.000767391710897248
0.00137000435690884
0.00200784881719623
0.00265143559411575
0.00328689332901571
0.00390407185848756
0.00449321812334816
0.00504506529686919
0.00555054785569167