/*--------------------------------*- C++ -*----------------------------------*\
  =========                 |
  \\      /  F ield         | OpenFOAM: The Open Source CFD Toolbox
   \\    /   O peration     | Website:  https://openfoam.org
    \\  /    A nd           | Version:  12
     \\/     M anipulation  |
\*---------------------------------------------------------------------------*/
/*   Windows 32 and 64 bit porting by blueCAPE: http://www.bluecape.com.pt   *\
|  Based on Windows porting (2.0.x v4) by Symscape: http://www.symscape.com   |
\*---------------------------------------------------------------------------*/
FoamFile
{
    format      ascii;
    class       volScalarField;
    location    "300";
    object      omega;
}
// * * * * * * * * * * * * * * * * * * * * * * * * * * * * * * * * * * * * * //

dimensions      [0 0 -1 0 0 0 0];

internalField   nonuniform List<scalar> 
10116
(
2.46684080289412
2.46683937620765
2.38167915593664
0.789446909442989
2.46684296055528
2.38166561584907
0.79488002539433
2.28699598870675
0.773101644636227
0.469129288110036
2.46683873864376
2.38168115142711
0.799691631162726
2.28698408871966
0.778435907898049
0.473373586314815
2.21611155685982
0.751821481804505
0.464056376805009
0.352189840440078
2.46684018393712
2.3816768863936
0.803974115099289
2.28699529407819
0.783184812239482
0.477156879502273
2.21610866980698
0.757022013135863
0.468234168166867
0.355576137187467
2.18722004162014
0.733753058634341
0.456322876571222
0.350271557798041
0.295912152989899
2.46684036137273
2.38167831457462
0.807788931474
2.28700715071431
0.787416741832901
0.480536671036361
2.21610777623832
0.761667337092398
0.471978221094861
0.358610625510844
2.18721680669061
0.738827455673284
0.460415144593799
0.353610782059058
0.298750820644569
2.18619056140802
0.722447187820407
0.44846142405324
0.346855651857841
0.295141591817019
0.264777641625574
2.46684027355081
2.38167882394126
0.811185628298967
2.28699488805213
0.791187458225479
0.483556237654976
2.21611981621152
0.765814617973443
0.475327972556571
0.361334176137094
2.18721638577025
0.743368325220772
0.46409781454879
0.356622263036925
0.301309030486962
2.18618866139388
0.727427932684705
0.452470869891137
0.350137555420811
0.297944113403762
0.26724571022827
2.19192356688865
0.715688803968026
0.441956389904347
0.342748818678922
0.293432448690586
0.264461054933401
0.246144044759087
2.46683995439073
2.38167884349941
0.81420536806859
2.28699535625915
0.7945435848822
0.486250142634292
2.21610859319903
0.769511894966533
0.47832291058011
0.363776450711813
2.18721731502461
0.747428662319735
0.467398945962888
0.359330028847278
0.303617110774638
2.18619094853945
0.73189113953873
0.456088350516315
0.353111824189423
0.300487674646042
0.26948308687769
2.19192438861071
0.720604326032347
0.445899337879213
0.345976767652961
0.296193193676117
0.266898999905265
0.248344419872825
2.19484406644401
0.709614912132859
0.43655060100338
0.338617306414712
0.291031717042229
0.263491114416078
0.245991361500597
0.234483352866304
2.46683978504417
2.38167839094607
0.816882521876956
2.28699536226502
0.797524809372574
0.488648082686905
2.21610912826935
0.772803603282546
0.480995509199825
0.365961789158841
2.18721854171178
0.751051966678695
0.470352732973756
0.361759913806809
0.305696022450648
2.18619249795843
0.735886452622987
0.45933630878859
0.355792523251066
0.302787100345648
0.271512835689419
2.19192763990854
0.725013661700758
0.449461543017885
0.3489096072729
0.298712544861985
0.269126077196509
0.250351268153858
2.19484900882524
0.714474182975263
0.440442180704758
0.341801289717937
0.293754738813505
0.265895952904866
0.248164788042668
0.236479687807717
2.19511644958611
0.702117716989991
0.431239818692296
0.334593121438096
0.288247212084426
0.261929814744467
0.245338763874324
0.234381974095411
0.227036458629774
2.46683990677036
2.38167804636786
0.819250881102052
2.28699488697729
0.800166401997166
0.490776561279527
2.21610902010285
0.775727631123028
0.483374559334227
0.367911747083759
2.18721893297476
0.754280187983399
0.472990439826808
0.363934900786879
0.307563205018978
2.18619332334242
0.739455883913375
0.46224509601401
0.358201009079574
0.304859824789154
0.273349910979714
2.19192922591298
0.728964340808611
0.452663900287005
0.351558117180731
0.300996154699168
0.271150798327952
0.252182186451159
2.19485127197041
0.718836777482416
0.443960504205703
0.344697112778084
0.296246964235977
0.268105887486674
0.250163486772662
0.238311715184011
2.19512173051142
0.706915032967553
0.435086706981172
0.337742377914651
0.290940861555964
0.264306889677686
0.247483973902097
0.236353030706678
0.228870898296727
2.19479106206845
0.692870278802732
0.425324818168608
0.330464875144758
0.285263211602603
0.25994166524592
0.244203073534738
0.233866886261313
0.226953426172406
0.222295074781675
2.46684022002074
2.38167802958593
0.821342307540528
2.28699449508457
0.802501901952602
0.492660388728959
2.21610859564203
0.778318383627832
0.485486232713153
0.36964615638243
2.18721863028617
0.757148498315164
0.475339284412154
0.365875952547097
0.309234586722388
2.18619296407863
0.742637390093121
0.464843707488661
0.36035836803913
0.306722134647303
0.275006803263662
2.19192935559213
0.732496572983386
0.455534191698348
0.353940725307823
0.303057376702008
0.272984816836734
0.253847577635474
2.19485490421041
0.722748597562997
0.447125883939304
0.347314876178005
0.298510863872654
0.270120797596523
0.251991113035762
0.239992579381537
2.19512424883346
0.711225878520768
0.438566315274229
0.340607583684252
0.293408585298741
0.266498244107549
0.249469415006591
0.238177933603582
0.230564685549355
2.1947964491521
0.697594503490086
0.429126663329558
0.333585028685122
0.287935331019881
0.262299440274405
0.246326707234169
0.235812578999504
0.228763552491565
0.223997516562817
2.19479622405428
0.682069578445616
0.418580375517932
0.326030081218466
0.282121386203507
0.257701639551758
0.242702990726205
0.232963127740133
0.226509919662718
0.222225436448084
0.219371220230147
2.46684052630004
2.38167823826378
0.823183845495302
2.28699438130914
0.804566926689178
0.494322684948507
2.21610826886637
0.780608119126806
0.487355035451896
0.371183604027737
2.18721838558272
0.759690539879804
0.477424603639027
0.367602602787678
0.310725292351506
2.18619245882425
0.745466009894641
0.467159403862464
0.362284525405816
0.308389481091146
0.27649532733271
2.19193017652708
0.735646611413619
0.458099524296275
0.356076663353168
0.304910731960091
0.274639570081691
0.255356165790136
2.19485246846861
0.726248277837368
0.449965282150446
0.349672166041224
0.300557143579404
0.271948504368464
0.253654937672578
0.241529119633968
2.19512998790003
0.715094565676105
0.441698571937282
0.343198948905726
0.295652928501994
0.268500801673437
0.251290468660382
0.23985634215381
0.232127353274595
2.19479898194182
0.701844466131869
0.432567125018388
0.336423898377224
0.290383287296933
0.264475169300885
0.248298825004795
0.237626444847419
0.230450786684613
0.225578739527728
2.19480165421141
0.686709442353277
0.422333554418388
0.329123808049091
0.284777836230594
0.260047986548256
0.244814510610608
0.234891313881261
0.228296526590013
0.223904200478807
0.220964294911387
2.19511835084351
0.669792429731817
0.411011842433978
0.32122002621808
0.278824054233256
0.255332082076851
0.240999989767397
0.231784452157733
0.225753874745895
0.221833224642959
0.2193162617581
0.21770550076248
2.46684067564232
2.38167846466504
0.824798624420578
2.28699446389101
0.806386695741747
0.495784249653124
2.21610812657094
0.782628128699764
0.489004284663911
0.372541500914861
2.18721828147891
0.7619371364902
0.479270182890421
0.36913324507032
0.312049821327094
2.1861925995857
0.747973523930279
0.469216270063674
0.363998425260295
0.309876758990939
0.277827126081833
2.19192560145426
0.738448587944796
0.460385726702852
0.357984881132385
0.306570815254457
0.276126452436126
0.256716577913041
2.1948527181049
0.729371488948049
0.452504027124349
0.351787009969909
0.302398723015121
0.27359880982287
0.25516267587812
0.24292701714788
2.19512531012005
0.718557675590225
0.444509851200399
0.345533499855694
0.297683619723797
0.270319929484717
0.252950747411925
0.241392012372706
0.233562779578037
2.19480477306468
0.705662379452797
0.435665604658235
0.33899215358212
0.292610635541025
0.266465881694871
0.250112008316614
0.239300113428328
0.232011441728989
0.227045328773866
2.19480411277543
0.690889567048198
0.425731947182576
0.331938365646209
0.28721064112128
0.262212904230003
0.246777270007059
0.236695304395275
0.229974168561689
0.225479263015581
0.222452137570807
2.19512371954644
0.674336942087625
0.414712068482912
0.324288617822417
0.281469395944751
0.257673815127966
0.243108239553702
0.233705850593018
0.227525906454424
0.223489824353104
0.220886130555166
0.219207287293169
2.1948478584119
0.655915374861774
0.402684502133911
0.31608284192584
0.275414564262238
0.252923932485829
0.239238003134918
0.230484927980824
0.224808728314025
0.221188743003186
0.218969286684012
0.217666202318815
0.21692383476754
2.46684064221503
2.38167856149577
0.826207790920483
2.28699458411622
0.807983261243616
0.497063653997061
2.21610811195761
0.78441092291413
0.49045458753305
0.373735963845943
2.18721813548526
0.763917151103388
0.480898549488863
0.370485199911043
0.313222005429601
2.18619290281801
0.750190177479938
0.471037153208429
0.365518054763766
0.31119833521281
0.279013780369482
2.19192819025174
0.740934358822711
0.462417904411824
0.359683587846565
0.30805205983742
0.27745693213635
0.257937792884738
2.19484585270533
0.732150707417205
0.454767042018675
0.353677404360355
0.304049270918081
0.275082351105511
0.256522574711788
0.244192346265165
2.1951233359375
0.721650492062512
0.447025123926683
0.347629191498522
0.299512609498147
0.271963977398759
0.254456416515171
0.242789658599261
0.234874164460616
2.19480015470226
0.7090821711259
0.438447998595784
0.341306433919262
0.294627036842082
0.268276078246192
0.251767552298736
0.240833796068635
0.233446375512426
0.228398731245154
2.19480992350875
0.694648883468739
0.428794025524099
0.334484928433854
0.289423992514824
0.26419441247357
0.248584020833202
0.238364035951139
0.231531282005974
0.226944158891091
0.223838988405116
2.19512596666166
0.678438267989737
0.418065095430791
0.32707980216296
0.283890802890363
0.259833001912286
0.245067328652968
0.235505126240291
0.229196177592334
0.225056381802585
0.222368141311799
0.220616889450445
2.19485291589123
0.660350394324895
0.406327487267142
0.319127541624629
0.278053006356538
0.255267272673628
0.241350874652041
0.232409664463656
0.226578151501407
0.222833074363754
0.220518068946134
0.219145147160796
0.218349324530587
2.19192765331609
0.640139153531948
0.393695075131179
0.31076273026481
0.272014493674601
0.250590894971223
0.237546226821754
0.229211877368089
0.22382725705209
0.220428620710428
0.218418622554032
0.217361195034676
0.2168999050259
0.21676391265181
2.46684050039522
2.38167850858917
0.827430037319165
2.28699462096519
0.809376655271122
0.498177677259572
2.21610814042867
0.785976184053419
0.491724370634874
0.374781800794336
2.18721799056135
0.765658737739795
0.482330829961459
0.371674496305826
0.314254897494409
2.18619273279667
0.752143416754283
0.472643594712727
0.366860424598627
0.312367958562525
0.280066582751076
2.19193103762335
0.743132223553741
0.464217787613327
0.361190237420794
0.309368548330983
0.278642476489474
0.259029103407113
2.1948509122686
0.734617723978538
0.456778277337308
0.355361108880567
0.305522645512563
0.276410216324385
0.257743445555131
0.245331940822201
2.19511801965706
0.724404526071524
0.44926771303493
0.349503354283857
0.301152836186388
0.273442760506631
0.255815029429927
0.244054991026045
0.236065485271629
2.19479808419679
0.71213855705382
0.440938812146099
0.343384273771669
0.296444124181996
0.269913286174215
0.253270271595554
0.242230711977199
0.234757836397265
0.229640093796097
2.19480540488336
0.698018859172043
0.431545141976959
0.33678026062437
0.291428088027704
0.265997074630392
0.25023529365748
0.239895494078533
0.232965245905014
0.228297346275633
0.225124321362509
2.19513163075226
0.682131945506609
0.421087959274848
0.329605367512654
0.286093220994541
0.261808839778617
0.24687106976652
0.237171440484807
0.230750506836354
0.226518656829468
0.223753579861599
0.221936754109005
2.19485255486382
0.664364484634611
0.409632243381311
0.321896383753435
0.280466562915997
0.257425913297093
0.243312386540004
0.234211057704568
0.228247371401474
0.224394266645261
0.221992483641678
0.220549208501664
0.219693129713845
2.19193032253663
0.64444830830161
0.397276754753373
0.313785690826183
0.274650898737921
0.252942331256374
0.239671506474751
0.231149180270854
0.225605503180785
0.222073779431565
0.219957037980729
0.218819941639422
0.218302832345277
0.218125801473382
2.18619316583205
0.622104793891274
0.384240760157695
0.305529464485183
0.268853975805358
0.248516806682352
0.236081131806655
0.228111621968654
0.22295691022741
0.21970820966395
0.217813387967827
0.216892808933029
0.216633370803071
0.216754226576022
0.217035411857635
2.46684034403216
2.38167837977611
0.828482262273556
2.28699455104593
0.810585209135939
0.499141317469
2.21610812019581
0.787343206137451
0.49283014214486
0.375692546837793
2.18721795804653
0.76719149688052
0.483585179109303
0.372715873718064
0.315160730700337
2.18619237837851
0.753859021238811
0.47405597060716
0.368041459157037
0.313398633558965
0.280996435818387
2.19192892420189
0.745069237203761
0.465805996848467
0.36252140094899
0.310533842673746
0.279694338617213
0.259999907222344
2.19485649617563
0.736800602725113
0.458560912614888
0.356855056008427
0.306832554319109
0.27759364732916
0.258834504047561
0.24635328544701
2.19512317259869
0.726850613016705
0.451260911435708
0.35117317564041
0.302617667572059
0.274766892512345
0.257035066133766
0.245194690102297
0.237141809036969
2.1947923848653
0.714862541928579
0.443161024727693
0.345243247659259
0.298074416242259
0.271386719879988
0.254626973407543
0.243495913454736
0.235949446492449
0.230771653827663
2.19480323613488
0.701033036897719
0.434009397248157
0.338841366343298
0.293234516429647
0.267628187203631
0.251735183339293
0.241291628563096
0.234276856456719
0.229539030037368
0.226307597245234
2.19512717403219
0.685446598489231
0.423805381828295
0.33188216914094
0.288087058521218
0.263606383480674
0.248520157978957
0.238702093586207
0.232184108416974
0.227871673943063
0.225038947927301
0.223164795306539
2.19485558276338
0.66798618483973
0.412613780989952
0.324401805321095
0.282661004892771
0.259400049721214
0.245117545288051
0.235879393260326
0.229802475418138
0.225855498755216
0.22337609489594
0.221867921604041
0.220956395888218
2.19193053319912
0.648362063362687
0.40053119007104
0.31653422337871
0.277060744125113
0.255105976899931
0.241641833039394
0.232959946545636
0.227281663910973
0.223636968363696
0.221427777351764
0.220217196110445
0.219641351731371
0.21941430232021
2.18619326213848
0.626268986003783
0.387758197184969
0.308534820851899
0.271494839947743
0.250883960830247
0.238227245741476
0.230070684113182
0.224754523760474
0.221366825039557
0.219355525472263
0.218342787729032
0.218016831469821
0.218093759989495
0.218344539519967
2.1872225768608
0.60208327419759
0.374838638069875
0.300890345402639
0.266334501628571
0.24700371248795
0.235072721081867
0.227366968210061
0.222352895597587
0.219175758454865
0.217313188054764
0.216420787721439
0.216237689842344
0.216522205811955
0.217038501801828
0.217596963843677
2.46684022555632
2.38167825929687
0.829380174567425
2.28699443818413
0.811626012262406
0.499968140909817
2.21610802160031
0.788529529841932
0.493786693353728
0.376480497194923
2.18721794616756
0.768531999061597
0.484677857378768
0.373622779489409
0.315950865767422
2.18619237164844
0.755362903977258
0.475293343324278
0.369075750007594
0.314302554471136
0.281813782332256
2.19192635636024
0.746769857098199
0.467201996179123
0.363692689100084
0.311560830290232
0.280623399901022
0.260859535201804
2.19485263827251
0.738724434589562
0.460134551020634
0.358175368971189
0.307992292294113
0.278643775413173
0.25980511517751
0.247264264444019
2.19512727738939
0.729015884613732
0.453026807377152
0.352655412976906
0.303920443397336
0.275947324090697
0.258125557418533
0.246216171383539
0.238109134862404
2.19479722313122
0.717283722954952
0.445136481033312
0.346900046039592
0.299530916169227
0.272706587959627
0.25584573211937
0.244635771857352
0.237026125267476
0.231797006330479
2.19479727009853
0.703721622882626
0.43620925474435
0.34068538741642
0.294855718638041
0.269096681510216
0.253089988276169
0.242556792829813
0.235469101936128
0.230671097201057
0.22738961275565
2.19512508842636
0.688413502037978
0.426240933535316
0.333927240569358
0.289884339672235
0.265233066059716
0.250018557024151
0.240098389321451
0.233496546592846
0.229114209754352
0.22622276935665
0.22429911350194
2.1948532106827
0.671240043073206
0.41529599210795
0.326660819644554
0.284647218385118
0.261195488955376
0.24676763965567
0.237412219968994
0.231238053012326
0.227209677912639
0.224661996286415
0.223096234441566
0.22213584739251
2.19192744641621
0.651902572693984
0.403470503557698
0.319021369943094
0.27925076464603
0.257083067182634
0.243453492698788
0.23463574683728
0.22884300416067
0.225101656760203
0.222811843388688
0.221534791826439
0.220903703908051
0.220629678553605
2.18619471361911
0.630070656986987
0.390961925520113
0.311267100761295
0.273906617059439
0.25305915949914
0.240213550246006
0.231898475681369
0.226446027985034
0.222941067237784
0.220830859110124
0.219737823058083
0.219349227848014
0.219377191292506
0.219586701774343
2.18721940471083
0.606082130547876
0.378291240586418
0.30388617814468
0.268989314013845
0.249396346626854
0.237249544371874
0.22935788972825
0.224180439989944
0.220859586517157
0.218872737201707
0.217876940585617
0.217613723868139
0.217842864140137
0.218325420018601
0.218862598438836
2.2161134346418
0.582431290405074
0.366937206835196
0.297871584973745
0.265171398128956
0.246552021714844
0.234878400932486
0.227240944043186
0.22221520121937
0.218992366083243
0.217068000772873
0.216109241838185
0.215881372483294
0.216190473061014
0.216836918463562
0.21761131432318
0.218341806183463
2.46684015387546
2.38167818723332
0.830137816209854
2.28699435520286
0.81251475668521
0.500670810185797
2.21610791189308
0.789551529345555
0.494607472497072
0.377156854794951
2.18721777354698
0.769696363631781
0.485623306268406
0.374407413553928
0.316635764840594
2.18619245982691
0.756682495784798
0.476371736236549
0.369976606565288
0.315091045769007
0.282528429232896
2.19192844307735
0.748257520563955
0.468424291293519
0.364718629808561
0.312461600921939
0.281440059821985
0.261617036446753
2.19485008024361
0.740413375022761
0.461517828382804
0.359337269406946
0.309014556392665
0.27957140104779
0.260664577753402
0.24807291436483
2.19512818885931
0.730925247645235
0.454586724924839
0.353965809108475
0.305074179375837
0.276994994497977
0.259095768858575
0.247127289322802
0.238974088033055
2.19479932936694
0.71942813125787
0.446886428175637
0.348371024423762
0.300826703857241
0.273883567054028
0.256935346063765
0.245657545970771
0.237993806180839
0.232720906274113
2.19480176472533
0.70611359695496
0.438166151707925
0.342329329265272
0.296304494617776
0.270412520893316
0.254307448781545
0.24369699031034
0.236546608443803
0.231696998641984
0.228372735188646
2.19511913237263
0.691061794821949
0.428416611061387
0.335757196987997
0.291497498975603
0.266697812788297
0.251372382933798
0.241364246525315
0.234690155556748
0.230247532384162
0.227305493036024
0.225339325753752
2.19485171209349
0.674155644460379
0.41770157211526
0.328690495441289
0.28643725890566
0.262820059081123
0.248266890653927
0.238810791207758
0.232553073433366
0.228454378906807
0.225847296766764
0.224231312244114
0.223228515630829
2.19192862319553
0.655091955319376
0.406117348170388
0.321264454550776
0.2812324852719
0.258880135958665
0.245108595361666
0.236174821575892
0.230284435167133
0.226460164610578
0.22410023656222
0.222764278414127
0.222083646016802
0.221767787474874
2.18619094240793
0.633523154202995
0.39386040036297
0.313739929099822
0.276097292707659
0.255044924107566
0.242037656951878
0.233587930012209
0.228020051800714
0.224415619205223
0.222220696565879
0.221057189418494
0.220611094772413
0.220591862689861
0.220761608916381
2.18721884687694
0.609767175308513
0.381449174295808
0.306610234059933
0.27141158602343
0.251591658053793
0.239260394710556
0.23121126640569
0.225896134112869
0.222454339263829
0.220362664472729
0.219278807545977
0.218945154829402
0.219120754248037
0.219562689441089
0.220066132538107
2.21610968677025
0.586243176616287
0.370334503448943
0.300874007090313
0.267855150022585
0.248983583127345
0.237098359815806
0.229275554803377
0.224084237654301
0.220713217577227
0.218657790534754
0.217586172148841
0.217265648580026
0.217504814728142
0.218105428066419
0.218854834477397
0.219571916718006
2.2869972684867
0.569399473236738
0.364490006839186
0.298729283006134
0.266719069342374
0.24802224165387
0.23607193179047
0.228132272934886
0.222830488819151
0.219369985000309
0.217243542693746
0.216110254611941
0.215732599576386
0.215934779302558
0.216561035474243
0.217436278824867
0.218366005932083
0.219188154632494
2.38167816861927
0.830766159183956
2.28699432764512
0.813264892735965
0.501260920948286
2.2161078606209
0.790424736227991
0.495305073645375
0.377732048637107
2.18721759841153
0.770700041539076
0.486434679049579
0.375080917315406
0.3172250658455
2.18619214144988
0.75783070252916
0.477305252836849
0.370756076198465
0.315774521613369
0.283149564727965
2.19193069383333
0.749557506778237
0.469490062467027
0.365612385346868
0.313247386781108
0.282154114539846
0.262281089462775
2.19485224688886
0.741889712739872
0.462728403121847
0.360355026253901
0.309911307470029
0.280386845750682
0.261421936805154
0.248787238192667
2.19512591424171
0.732601861201525
0.455958369181748
0.355119221071424
0.306091353511997
0.277920585659132
0.25995493401301
0.247936072738608
0.239743685788947
2.19480698275924
0.721320426045026
0.448431144367691
0.349671905701258
0.301974560721963
0.274928402573413
0.25790493158254
0.246569007616068
0.238859098172711
0.233548949768305
2.19480358136484
0.708234076268467
0.439900255277997
0.343789222360246
0.297593725161499
0.271586195216236
0.255396164330313
0.244719280027523
0.237515166509547
0.232621428530105
0.229260676508462
2.1951233616461
0.693420333885167
0.430353416782119
0.337388502617924
0.292939343021462
0.268010516611571
0.252589218473763
0.242505384946049
0.235769221625616
0.231274810043012
0.228289343990803
0.226286784265219
2.19484823000087
0.67676048947037
0.419851952537799
0.330507323283172
0.288043886761017
0.264282864919654
0.249621511724724
0.240078926299467
0.233749475799866
0.229590241354259
0.226931835080111
0.225272425458953
0.224233070977593
2.1919282280851
0.657954319747359
0.408493334934397
0.323280443520324
0.283018304489911
0.260505647424419
0.246611875222418
0.237578780103191
0.231604936220403
0.227709514010039
0.225288883075155
0.223901412092157
0.223177273387887
0.222824849582937
2.18619182441514
0.636642647561412
0.39647439937112
0.31597102086215
0.278079079240028
0.256848650320358
0.24370270434737
0.235138222201905
0.229472279669873
0.225783163337366
0.223515473608106
0.222290352051163
0.221792789428991
0.221730657984692
0.221864521703205
2.18721766922195
0.613134017324114
0.384313675016615
0.309076681461443
0.27361077913936
0.253593681836599
0.241104357558242
0.23292157411311
0.227490071913457
0.223946126204519
0.221765517454176
0.220605966180959
0.220209946560872
0.220335491952342
0.220737069199228
0.221206941621892
2.21610871984906
0.589824132555146
0.373463392127354
0.303605907206369
0.270301833777349
0.251211132362018
0.239144675241411
0.231164744810108
0.225833980699373
0.22233841265056
0.220172714968066
0.219005688882562
0.218605833060471
0.218782805544259
0.219337638650193
0.220053612567569
0.220743508220344
2.28698419106163
0.572946016052219
0.36785759667328
0.301772143040322
0.269457278686271
0.250512729285923
0.238351723277995
0.230225249531996
0.224754526331103
0.221140756501601
0.218876492839228
0.217621725533221
0.217140500941125
0.21725908798163
0.217824130558165
0.218661746448279
0.219574051448596
0.220389867173784
2.38167969099607
0.587364089177587
0.378618632633603
0.308843005984837
0.27376075943062
0.252988429491733
0.239616849091081
0.230668843421206
0.224628024043682
0.220612519278501
0.218060636879182
0.216593364797664
0.215945469988541
0.215926731851039
0.216392646154571
0.21720886727312
0.218213998636245
0.219221015105242
0.220072109167282
2.28699435779735
0.813885149005618
0.501749573865665
2.21610786296679
0.791161356400499
0.495890906735169
0.3782154770529
2.18721763936476
0.771558130032055
0.487124364976526
0.375653667920153
0.31772770872823
2.18619183029496
0.758821605414156
0.478106669810881
0.371425159784667
0.316362585812095
0.283685681543425
2.19192815865758
0.750692804253456
0.470413226530014
0.366385846377801
0.313928534319729
0.282774713416375
0.262859875752445
2.19485451046682
0.743174594667595
0.463783177587781
0.361241807443508
0.31069365510516
0.281099848641274
0.262085853530221
0.249415023530876
2.19512590061767
0.734066471947855
0.457158609405969
0.356129588106699
0.306983763104752
0.278734320263798
0.260712052331774
0.248650509451753
0.240425047285293
2.19480490985426
0.722982813182646
0.449789974804972
0.350817240650856
0.302986765277483
0.275851633151923
0.25876363042118
0.247378137396141
0.239628994611044
0.234287255876468
2.1948049626262
0.710107397963893
0.441430632058652
0.345080477459603
0.298736054748208
0.272628305448929
0.256365111252957
0.245631319963277
0.238381315219011
0.233449956954835
0.230058145230742
2.1951248445159
0.695513877962895
0.432071016650268
0.338837320807972
0.294222659278426
0.26918158436665
0.253677548327528
0.243528704038006
0.23673935851942
0.232200602746662
0.22917797450954
0.227144319210218
2.19485011945575
0.679082217986507
0.421767818501895
0.332127470624155
0.289480007390225
0.265593886411248
0.250839116323789
0.241222253823356
0.234831311279008
0.230620113636376
0.227917560402024
0.226220782947502
0.225150031091184
2.19192921889522
0.660515107198048
0.410619039562934
0.32508576952065
0.284620931653048
0.26196904325345
0.247969853175314
0.238851626902615
0.23280639974775
0.228849981559833
0.226377009031732
0.224944857597581
0.224182909173263
0.2237987953138
2.18619271536672
0.639447966910034
0.398823812566948
0.317977073114755
0.279864810256099
0.258479310992855
0.245214130765998
0.236551584935383
0.230802129493308
0.227040784764054
0.224710589033429
0.223431893503854
0.222888998162136
0.22278885901457
0.222891076307623
2.18721426789469
0.616188889220816
0.386902782582405
0.311303416021542
0.275599823571325
0.255410851913379
0.242785682366814
0.234489122788384
0.228958969994634
0.225328460853494
0.223072123357909
0.221847326223404
0.221396368889596
0.221476551820177
0.221840837404803
0.222279910533648
2.21610684513456
0.593128679115685
0.376313044698764
0.306081750327706
0.272522361894228
0.253240336546944
0.241018175443711
0.232904704863875
0.227456168622999
0.223855610959456
0.221596781243568
0.220348613130335
0.219880177333319
0.220001467383772
0.220512553313075
0.221194037674307
0.22185570291514
2.28700717368183
0.576468987491719
0.371003438668183
0.304545020959438
0.271952270875504
0.252790867252477
0.240448450171982
0.232163161518799
0.226549972018875
0.222807418700118
0.220427316202666
0.219070122203256
0.218500961707321
0.218547467341732
0.219057331790228
0.219855850512765
0.220740977949881
0.221535454651451
2.38166628498341
0.590513356736526
0.381979214532996
0.311993978947093
0.276600584408841
0.255570076579588
0.241980529752553
0.232839551536682
0.226623668098324
0.22244816740609
0.219750824274503
0.218153269655683
0.217391564941834
0.217277051581397
0.217667127161284
0.218429638193121
0.219404245572915
0.220400646204731
0.221252814322497
3.68516441843931
0.851103004979833
0.451734898761547
0.342478434844213
0.292580239860605
0.264576558725301
0.247237608591116
0.235888361931859
0.228275775842516
0.223171984926291
0.21983606229148
0.217786236945847
0.216692678317186
0.216322132399531
0.216506158499556
0.217115954909503
0.218028471093467
0.219089038651543
0.220112905229136
0.220941270240659
2.21610790843142
0.791768560102706
0.49637556876727
0.378616167960544
2.18721771688427
0.772281678793257
0.487703232896788
0.376134946049855
0.31815155174156
2.18619206547132
0.759669406843767
0.478788056642598
0.371994086657469
0.316864138408482
0.284144669205316
2.19192566944164
0.751674704554534
0.471206239704304
0.367049845436832
0.314514558871539
0.283310350330271
0.263361092434862
2.19485167505948
0.744292756729363
0.464697291154524
0.362009397482634
0.311371845041681
0.281719507112186
0.262664511044318
0.249963708274889
2.19512581305032
0.735338528254127
0.458203381254306
0.357009895637811
0.307762406931509
0.27944585054692
0.261375746762871
0.249278374821375
0.241025237132315
2.19480438151785
0.724435293701266
0.450979225508805
0.351820652262988
0.303874945181871
0.276663389013485
0.259520375621446
0.248092887708105
0.240310614260842
0.234942229818121
2.19480280664187
0.711753895652588
0.44277563524852
0.34621761996534
0.299743602637952
0.273549270391176
0.257223337356447
0.24644102220685
0.23915200505592
0.234188699516216
0.230770521695435
2.1951262419407
0.697365415795472
0.433588065560365
0.340119143878516
0.295359973985936
0.270221545575332
0.254646277518186
0.244441767155953
0.237607012860376
0.233030415558893
0.22997607241099
0.227915892985372
2.19484918081457
0.681145404522927
0.423468537602802
0.333566417892489
0.29075841175724
0.26676355576505
0.251928190041764
0.242247615617739
0.235804066767943
0.231548395865321
0.228807997189695
0.227079161371225
0.225981499120079
2.19192707562473
0.66279932112553
0.412514593490819
0.326696444179667
0.286053367033423
0.263280510929254
0.249190335936478
0.239999107907164
0.233892840742498
0.22988421142842
0.227366257512817
0.225895551799558
0.225100929809121
0.224689475244177
2.18619628736204
0.641963097741799