/*--------------------------------*- C++ -*----------------------------------*\
  =========                 |
  \\      /  F ield         | OpenFOAM: The Open Source CFD Toolbox
   \\    /   O peration     | Website:  https://openfoam.org
    \\  /    A nd           | Version:  12
     \\/     M anipulation  |
\*---------------------------------------------------------------------------*/
/*   Windows 32 and 64 bit porting by blueCAPE: http://www.bluecape.com.pt   *\
|  Based on Windows porting (2.0.x v4) by Symscape: http://www.symscape.com   |
\*---------------------------------------------------------------------------*/
FoamFile
{
    format      ascii;
    class       volScalarField;
    location    "300";
    object      p;
}
// * * * * * * * * * * * * * * * * * * * * * * * * * * * * * * * * * * * * * //

dimensions      [0 2 -2 0 0 0 0];

internalField   nonuniform List<scalar> 
10116
(
83333.3318936573
83333.3318914358
83333.3318936679
83333.3318936114
83333.3318891177
83333.331891445
83333.3318913805
83333.3318936879
83333.3318936289
83333.3318936506
83333.3318866913
83333.3318891261
83333.3318890546
83333.3318914652
83333.3318913964
83333.3318914093
83333.3318937185
83333.3318936522
83333.3318936719
83333.3318939403
83333.3318841567
83333.3318867012
83333.3318866118
83333.3318891471
83333.3318890697
83333.3318890651
83333.3318914977
83333.3318914199
83333.3318914282
83333.3318916943
83333.3318937615
83333.3318936848
83333.3318937028
83333.3318939569
83333.3318945324
83333.3318815161
83333.3318841676
83333.3318840621
83333.3318867239
83333.3318866288
83333.3318865999
83333.3318891813
83333.3318890935
83333.3318890838
83333.3318893374
83333.3318915441
83333.3318914547
83333.3318914592
83333.3318917103
83333.3318922904
83333.3318938194
83333.3318937324
83333.3318937451
83333.3318939957
83333.3318945432
83333.3318954332
83333.3318787683
83333.3318815272
83333.3318814042
83333.3318841917
83333.3318840797
83333.3318840291
83333.3318867608
83333.3318866532
83333.3318866196
83333.33188686
83333.3318892306
83333.3318891299
83333.3318891157
83333.3318893519
83333.3318899329
83333.3318916063
83333.3318915051
83333.3318915048
83333.3318917512
83333.3318923019
83333.3318932058
83333.3318938942
83333.3318937987
83333.3318938039
83333.3318940495
83333.3318945831
83333.331895439
83333.3318966253
83333.3318759109
83333.3318787789
83333.3318786355
83333.3318815525
83333.3318814229
83333.3318813489
83333.3318842308
83333.3318841045
83333.3318840487
83333.3318842782
83333.3318868138
83333.331886691
83333.3318866519
83333.3318868735
83333.3318874563
83333.3318892967
83333.3318891837
83333.3318891634
83333.3318893937
83333.3318899423
83333.3318908626
83333.331891686
83333.331891575
83333.331891566
83333.3318918089
83333.3318923461
83333.3318932127
83333.3318944249
83333.3318939877
83333.3318938844
83333.3318938825
83333.3318941193
83333.331894647
83333.3318954774
83333.33189663
83333.3318980866
83333.3318729407
83333.3318759208
83333.3318757555
83333.3318788053
83333.3318786559
83333.3318785561
83333.3318815937
83333.3318814483
83333.3318813691
83333.3318815862
83333.3318842872
83333.3318841435
83333.3318840811
83333.3318842898
83333.3318848762
83333.3318868849
83333.3318867486
83333.3318867011
83333.3318869151
83333.3318874637
83333.3318884019
83333.3318893815
83333.3318892587
83333.3318892288
83333.331889454
83333.3318899888
83333.3318908677
83333.3318921102
83333.3318917851
83333.3318916659
83333.3318916485
83333.3318918828
83333.3318924147
83333.3318932573
83333.331894431
83333.3318959271
83333.3318941009
83333.3318939895
83333.3318939811
83333.3318942085
83333.3318947268
83333.3318955456
83333.331896669
83333.3318980942
83333.3318997967
83333.3318698556
83333.3318729509
83333.3318727627
83333.3318759482
83333.3318757774
83333.3318756495
83333.3318788484
83333.3318786822
83333.3318785771
83333.33187878
83333.3318816531
83333.3318814886
83333.331881402
83333.3318815968
83333.3318821861
83333.3318843628
83333.331884204
83333.3318841315
83333.3318843311
83333.3318848806
83333.331885839
83333.3318869755
83333.331886829
83333.3318867713
83333.3318869772
83333.3318875109
83333.3318884051
83333.3318896806
83333.3318894862
83333.3318893558
83333.3318893171
83333.3318895322
83333.3318900604
83333.3318909148
83333.3318921148
83333.3318936563
83333.3318919042
83333.3318917772
83333.3318917529
83333.3318919775
83333.3318924999
83333.3318933307
83333.3318944773
83333.3318959372
83333.3318976908
83333.3318942347
83333.3318941152
83333.3318941004
83333.3318943199
83333.3318948269
83333.3318956319
83333.3318967362
83333.3318981363
83333.331899811
83333.3319017325
83333.331866653
83333.3318698665
83333.3318696533
83333.331872979
83333.3318727852
83333.3318726263
83333.3318759931
83333.3318758049
83333.3318756709
83333.3318758574
83333.3318789106
83333.3318787237
83333.3318786107
83333.3318787899
83333.3318793816
83333.3318817326
83333.3318815515
83333.3318814538
83333.3318816384
83333.3318821884
83333.3318831675
83333.3318844587
83333.3318842886
83333.3318842053
83333.3318843947
83333.3318849286
83333.3318858396
83333.3318871508
83333.3318870869
83333.3318869326
83333.3318868659
83333.3318870601
83333.3318875845
83333.3318884528
83333.3318896835
83333.3318912734
83333.3318896118
83333.3318894742
83333.3318894287
83333.331889633
83333.3318901504
83333.3318909919
83333.3318921649
83333.3318936659
83333.3318954774
83333.3318920441
83333.3318919093
83333.3318918792
83333.3318920963
83333.3318926068
83333.3318934233
83333.3318945502
83333.3318959846
83333.3318977079
83333.3318996939
83333.33189439
83333.3318942625
83333.3318942431
83333.3318944556
83333.3318949518
83333.3318957413
83333.3318968256
83333.3318982001
83333.3318998505
83333.3319017507
83333.331903871
83333.3318633289
83333.3318666644
83333.3318664229
83333.3318698954
83333.3318696762
83333.3318694824
83333.3318730254
83333.3318728135
83333.3318726477
83333.3318728155
83333.3318760578
83333.331875847
83333.3318757052
83333.3318758665
83333.3318764598
83333.3318789937
83333.3318787889
83333.3318786641
83333.3318788321
83333.331879382
83333.3318803826
83333.3318818333
83333.3318816401
83333.3318815302
83333.3318817038
83333.3318822382
83333.3318831663
83333.3318845149
83333.3318845762
83333.3318843977
83333.3318843046
83333.3318844818
83333.3318850039
83333.3318858877
83333.331887151
83333.3318887932
83333.3318872198
83333.3318870588
83333.331886985
83333.3318871677
83333.3318876791
83333.3318885327
83333.3318897354
83333.3318912822
83333.3318931557
83333.3318897585
83333.3318896137
83333.3318895633
83333.3318897597
83333.3318902641
83333.33189109
83333.3318922417
83333.3318937158
83333.3318954949
83333.3318975517
83333.3318922055
83333.3318920637
83333.3318920297
83333.3318922409
83333.3318927406
83333.3318935407
83333.3318946466
83333.3318960548
83333.331897752
83333.3318997135
83333.3319019104
83333.3318945678
83333.3318944319
83333.3318944099
83333.3318946175
83333.3318951046
83333.3318958788
83333.3318969421
83333.3318982904
83333.3318999123
83333.3319017878
83333.331903889
83333.3319061873
83333.3318598789
83333.3318633407
83333.3318630683
83333.331866694
83333.3318664466
83333.3318662136
83333.3318699428
83333.3318697044
83333.331869504
83333.3318696501
83333.3318730923
83333.3318728564
83333.3318726824
83333.3318728238
83333.3318734173
83333.3318761441
83333.3318759139
83333.3318757598
83333.3318759093
83333.3318764582
83333.3318774805
83333.3318790986
83333.331878881
83333.3318787428
83333.3318788993
83333.3318794342
83333.3318803792
83333.3318817677
83333.3318819561
83333.3318817544
83333.3318816341
83333.3318817943
83333.3318823156
83333.3318832158
83333.3318845132
83333.3318862097
83333.3318847159
83333.3318845312
83333.3318844306
83333.3318845952
83333.3318851029
83333.3318859702
83333.3318872048
83333.3318888004
83333.3318907399
83333.3318873746
83333.3318872073
83333.3318871286
83333.3318873025
83333.3318877998
83333.331888636
83333.3318898152
83333.3318913336
83333.3318931735
83333.3318953058
83333.3318899269
83333.3318897764
83333.331889723
83333.331889914
83333.3318904068
83333.3318912151
83333.3318923442
83333.3318937908
83333.3318955413
83333.3318975715
83333.3318998516
83333.3318923889
83333.3318922411
83333.3318922056
83333.3318924131
83333.3318929041
83333.3318936884
83333.3318947722
83333.3318961531
83333.3318978204
83333.3318997548
83333.3319019294
83333.3319043153
83333.3318947681
83333.331894624
83333.3318946013
83333.3318948065
83333.3318952869
83333.3318960474
83333.33189709
83333.3318984118
83333.331900003
83333.3319018479
83333.3319039243
83333.3319062045
83333.3319086605
83333.3318562978
83333.3318598908
83333.3318595858
83333.3318633709
83333.3318630922
83333.3318628154
83333.3318667424
83333.331866474
83333.3318662352
83333.3318663567
83333.3318700115
83333.3318697482
83333.3318695386
83333.3318696577
83333.3318702495
83333.3318731814
83333.3318729246
83333.3318727381
83333.3318728669
83333.3318734141
83333.3318744572
83333.3318762526
83333.3318760093
83333.3318758405
83333.3318759782
83333.3318765128
83333.331877475
83333.3318789049
83333.3318792261
83333.3318790002
83333.3318788508
83333.3318789929
83333.3318795136
83333.3318804314
83333.3318817641
83333.3318835178
83333.3318821019
83333.3318818948
83333.3318817668
83333.3318819131
83333.3318824188
83333.3318833013
83333.3318845694
83333.331886216
83333.3318882246
83333.3318848783
83333.3318846881
83333.3318845829
83333.3318847377
83333.3318852304
83333.3318860784
83333.3318872873
83333.331888853
83333.3318907576
83333.33189297
83333.3318875517
83333.3318873792
83333.3318872983
83333.3318874666
83333.3318879517
83333.3318887689
83333.3318899234
83333.331891412
83333.3318932212
83333.331895326
83333.3318976945
83333.3318901171
83333.3318899627
83333.3318899094
83333.3318900975
83333.3318905813
83333.3318913729
83333.3318924784
83333.3318938959
83333.3318956145
83333.331897615
83333.3318998708
83333.3319023514
83333.3318925944
83333.3318924419
83333.3318924078
83333.331892614
83333.331893099
83333.3318938694
83333.3318949316
83333.3318962846
83333.3318979197
83333.3318998217
83333.3319019687
83333.3319043336
83333.3319068875
83333.3318949898
83333.3318948392
83333.3318948172
83333.3318950234
83333.3318954996
83333.3318962486
83333.3318972716
83333.3318985672
83333.3319001272
83333.3319019383
83333.331903983
83333.3319062383
83333.3319086771
83333.3319112725
83333.3318525795
83333.3318563087
83333.3318559699
83333.3318599212
83333.331859608
83333.3318592833
83333.3318634202
83333.3318631187
83333.3318628362
83333.33186293
83333.3318668125
83333.331866518
83333.3318662692
83333.3318663631
83333.3318669513
83333.3318701029
83333.3318698183
83333.3318695955
83333.3318697008
83333.3318702447
83333.3318713081
83333.3318732932
83333.3318730229
83333.3318728211
83333.3318729376
83333.3318734699
83333.3318744497
83333.3318759221
83333.3318763843
83333.3318761329
83333.3318759525
83333.3318760751
83333.3318765944
83333.3318775302
83333.3318788997
83333.3318807129
83333.3318793771
83333.3318791467
83333.3318789897
83333.3318791171
83333.331879621
83333.3318805197
83333.3318818231
83333.3318835234
83333.3318856044
83333.331882271
83333.3318820596
83333.3318819278
83333.3318820635
83333.331882553
83333.3318834146
83333.3318846551
83333.3318862706
83333.3318882429
83333.3318905392
83333.3318850634
83333.3318848688
83333.3318847625
83333.3318849116
83333.3318853915
83333.3318862192
83333.3318874011
83333.3318889348
83333.3318908065
83333.3318929902
83333.3318954523
83333.3318877511
83333.3318875755
83333.331887496
83333.3318876617
83333.3318881377
83333.3318889372
83333.3318900664
83333.3318915236
83333.3318932982
83333.331895371
83333.3318977142
83333.3319002951
83333.3318903288
83333.3318901732
83333.331890123
83333.3318903112
83333.3318907893
83333.3318915665
83333.3318926492
83333.331894037
83333.3318957213
83333.331897687
83333.3318999124
83333.3319023698
83333.331905029
83333.3318928196
83333.3318926652
83333.3318926368
83333.3318928445
83333.3318933261
83333.3318940851
83333.3318951271
83333.3318964527
83333.3318980549
83333.3318999211
83333.3319020342
83333.3319043713
83333.331906905
83333.3319096077
83333.3318952296
83333.3318950758
83333.3318950572
83333.3318952687
83333.3318957435
83333.3318964829
83333.3318974878
83333.3318987579
83333.3319002868
83333.3319020632
83333.331904072
83333.3319062951
83333.3319087092
83333.3319112882
83333.3319140064
83333.3318487256
83333.3318525874
83333.3318522115
83333.3318563386
83333.3318559882
83333.3318556116
83333.3318599711
83333.3318596337
83333.3318593016
83333.3318593656
83333.3318634914
83333.331863162
83333.3318628687
83333.3318629347
83333.3318635173
83333.3318669058
83333.3318665898
83333.3318663269
83333.3318664059
83333.3318669446
83333.3318680276
83333.3318702174
83333.3318699195
83333.3318696809
83333.3318697732
83333.3318703013
83333.3318712983
83333.3318728142
83333.3318734283
83333.3318731505
83333.3318729368
83333.3318730376
83333.331873554
83333.3318745077
83333.3318759154
83333.3318777905
83333.3318765397
83333.3318762847
83333.331876097
83333.3318762046
83333.3318767059
83333.3318776213
83333.3318789612
83333.3318807179
83333.3318828753
83333.331879552
83333.331879319
83333.3318791589
83333.3318792754
83333.3318797618
83333.3318806381
83333.3318819121
83333.3318835801
83333.3318856237
83333.3318880083
83333.3318824633
83333.3318822487
83333.3318821172
83333.3318822475
83333.3318827232
83333.3318835631
83333.3318847747
83333.3318863561
83333.3318882935
83333.33189056
83333.3318931203
83333.3318852712
83333.331885075
83333.3318849709
83333.3318851182
83333.3318855889
83333.331886398
83333.3318875529
83333.3318890527
83333.3318908872
83333.3318930366
83333.3318954722
83333.3318981592
83333.3318879725
83333.331887797
83333.3318877218
83333.3318878887
83333.3318883592
83333.3318891437
83333.3318902489
83333.3318916744
83333.3318934121
83333.3318954471
83333.3318977574
83333.3319003142
83333.3319030846
83333.3318905601
83333.3318904065
83333.3318903646
83333.3318905559
83333.3318910314
83333.3318917971
83333.3318928588
83333.3318942177
83333.331895867
83333.3318977945
83333.3318999831
83333.33190241
83333.3319050468
83333.3319078642
83333.3318930603
83333.3318929085
83333.3318928911
83333.331893105
83333.3318935861
83333.3318943361
83333.3318953597
83333.3318966587
83333.3318982281
83333.3319000575
83333.3319021325
83333.3319044348
83333.3319069411
83333.3319096244
83333.3319124582
83333.3318954782
83333.3318953316
83333.331895321
83333.3318955418
83333.3318960185
83333.3318967504
83333.3318977386
83333.331898984
83333.3319004821
83333.3319022235
83333.3319041953
83333.3319063816
83333.3319087636
83333.3319113186
83333.3319140211
83333.331916847
83333.3318447649
83333.3318487303
83333.3318483046
83333.3318526148
83333.3318522242
83333.3318517894
83333.3318563884
83333.3318560113
83333.3318556254
83333.3318556577
83333.3318600433
83333.3318596765
83333.331859332
83333.3318593674
83333.3318599423
83333.3318635863
83333.3318632349
83333.3318629268
83333.3318629767
83333.3318635083
83333.3318646102
83333.3318670226
83333.3318666941
83333.3318664149
83333.3318664799
83333.3318670018
83333.3318680153
83333.3318695756
83333.3318703556
83333.3318700508
83333.3318698006
83333.3318698766
83333.3318703881
83333.331871359
83333.331872806
83333.3318747452
83333.3318735873
83333.3318733069
83333.3318730867
83333.3318731723
83333.3318736698
83333.3318746017
83333.331875979
83333.3318777947
83333.3318800322
83333.3318767195
83333.3318764636
83333.3318762736
83333.3318763702
83333.3318768533
83333.3318777448
83333.3318790538
83333.3318807767
83333.3318828952
83333.3318853728
83333.3318797508
83333.3318795162
83333.3318793582
83333.3318794692
83333.3318799412
83333.3318807945
83333.3318820377
83333.3318836696
83333.3318856763
83333.3318880299
83333.3318906936
83333.3318826787
83333.3318824638
83333.331882336
83333.3318824657
83333.3318829322
83333.3318837525
83333.3318849354
83333.3318864806
83333.3318883783
83333.3318906085
83333.3318931408
83333.3318959392
83333.3318855016
83333.3318853071
83333.3318852088
83333.3318853585
83333.331885824
83333.3318866177
83333.3318877472
83333.3318892132
83333.331891008
83333.3318931167
83333.331895517
83333.3318981786
83333.3319010665
83333.3318882146
83333.3318880421
83333.3318879766
83333.3318881482
83333.3318886169
83333.3318893898
83333.331890473
83333.3318918679
83333.3318935682
83333.3318955621
83333.3318978325
83333.331900356
83333.3319031032
83333.3319060419
83333.3318908055
83333.3318906595
83333.3318906324
83333.331890832
83333.3318913081
83333.3318920652
83333.3318931081
83333.3318944391
83333.3318960538
83333.331897942
83333.3319000898
83333.3319024788
83333.3319050853
83333.3319078813
83333.3319108384
83333.3318933066
83333.3318931691
83333.331893168
83333.3318933945
83333.3318938789
83333.3318946223
83333.3318956292
83333.3318969028
83333.3318984399
83333.3319002322
83333.3319022676
83333.3319045306
83333.331907002
83333.3319096586
83333.3319124738
83333.3319154227
83333.3318957195
83333.3318955999
83333.3318956033
83333.3318958409
83333.3318963233
83333.3318970503
83333.3318980233
83333.331899245
83333.3319007127
83333.331902419
83333.3319043531
83333.331906501
83333.3319088463
83333.3319113699
83333.3319140495
83333.3319168607
83333.3319197809
83333.3318406639
83333.3318447738
83333.3318442934
83333.3318487549
83333.3318483153
83333.3318478062
83333.3318526642
83333.3318522428
83333.3318517953
83333.331851795
83333.3318564612
83333.3318560541
83333.3318556527
83333.3318556544
83333.3318562202
83333.3318601394
83333.33185975
83333.3318593901
83333.3318594078
83333.3318599301
83333.3318610501
83333.331863705
83333.3318633418
83333.3318630174
83333.3318630521
83333.3318635657
83333.3318645948
83333.3318662003
83333.3318671632
83333.3318668292
83333.3318665387
83333.3318665868
83333.3318670912
83333.3318680786
83333.3318695656
83333.3318715713
83333.3318705175
83333.3318702114
83333.3318699559
83333.3318700165
83333.3318705084
83333.3318714561
83333.3318728716
83333.3318747486
83333.3318770697
83333.331873771
83333.3318734916
83333.3318732701
83333.3318733451
83333.3318738238
83333.3318747305
83333.3318760754
83333.3318778558
83333.3318800526
83333.331882628
83333.3318769238
83333.3318766684
83333.3318764821
83333.3318765735
83333.3318770418
83333.3318779091
83333.3318791854
83333.3318808703
83333.33188295
83333.3318853952
83333.3318881678
83333.3318799729
83333.3318797392
83333.3318795874
83333.3318796991
83333.3318801618
83333.3318809945
83333.3318822074
83333.3318838008
83333.3318857654
83333.3318880806
83333.331890715
83333.3318936305
83333.3318829169
83333.3318827056
83333.3318825851
83333.3318827191
83333.331883181
83333.3318839855
83333.3318851417
83333.331886651
83333.3318885063
83333.331890693
83333.3318931879
83333.3318959594
83333.3318989707
83333.3318857535
83333.3318855641
83333.3318854767
83333.3318856328
83333.3318860974
83333.3318868794
83333.3318879861
83333.3318894197
83333.3318911745
83333.3318932391
83333.3318955963
83333.3318982222
83333.3319010855
83333.3319041522
83333.3318884714
83333.3318883076
83333.3318882584
83333.3318884405
83333.3318889111
83333.3318896756
83333.3318907394
83333.3318921052
83333.3318937688
83333.3318957206
83333.331897947
83333.3319004294
83333.3319031435
83333.3319060598
83333.3319091471
83333.3318910546
83333.3318909296
83333.3318909213
83333.3318911383
83333.3318916193
83333.3318923704
83333.3318933967
83333.3318947014
83333.331896282
83333.3318981309
83333.3319002364
83333.331902583
83333.3319051515
83333.3319079179
83333.3319108546
83333.3319139343
83333.3318935417
83333.3318934387
83333.3318934599
83333.3318937097
83333.3318942025
83333.3318949423
83333.3318959347
83333.3318971842
83333.3318986896
83333.331900445
83333.3319024402
83333.331904662
83333.3319070938
83333.3319097161
83333.3319125058
83333.3319154373
83333.3319184867
83333.3318959277
83333.3318958614
83333.3318958937
83333.3318961595
83333.3318966542
83333.3318973797
83333.3318983397
83333.331899539
83333.3319009771
83333.3319026486
83333.3319045447
83333.3319066535
83333.3319089601
83333.3319114477
83333.3319140972
83333.3319168868
83333.3319197933
83333.3319227957
83333.3318406813
83333.3318401446
83333.3318448033
83333.3318443104
83333.33184373
83333.3318488049
83333.3318483321
83333.3318478059
83333.3318477649
83333.3318527379
83333.3318522834
83333.3318518163
83333.3318517833
83333.3318523394
83333.3318565585
83333.3318561284
83333.3318557099
83333.3318556921
83333.3318562028
83333.3318573405
83333.3318602596
83333.3318598589
83333.3318594829
83333.3318594842
83333.3318599871
83333.3318610308
83333.3318626822
83333.3318638476
83333.3318634803
83333.3318631454
83333.3318631627
83333.3318636577
83333.3318646606
83333.3318661881
83333.3318682626
83333.3318673276
83333.3318669937
83333.3318666992
83333.3318667321
83333.3318672161
83333.3318681789
83333.3318696331
83333.3318715736
83333.331873982
83333.3318707042
83333.3318704011
83333.3318701458
83333.3318701964
83333.3318706691
83333.3318715903
83333.331872972
83333.3318748118
83333.3318770906
83333.3318797685
83333.3318739798
83333.3318737033
83333.3318734871
83333.3318735575
83333.3318740212
83333.3318749027
83333.3318762133
83333.3318779535
83333.3318801096
83333.3318826511
83333.3318855382
83333.331877152
83333.3318768992
83333.3318767222
83333.3318768148
83333.3318772737
83333.3318781197
83333.3318793642
83333.3318810084
83333.3318830435
83333.3318854483
83333.33188819
83333.3318912289
83333.331880218
83333.3318799901
83333.3318798471
83333.3318799654
83333.3318804243
83333.3318812408
83333.3318824257
83333.3318839812
83333.3318859008
83333.3318881698
83333.3318907645
83333.3318936516
83333.3318967927
83333.3318831773
83333.3318829737
83333.3318828654
83333.3318830079
83333.3318834701
83333.331884263
83333.3318853954
83333.3318868706
83333.3318886835
83333.331890823
83333.3318932719
83333.3318960053
83333.3318989905
83333.3319021913
83333.3318860211
83333.3318858423
83333.3318857729
83333.3318859414
83333.3318864092
83333.3318871832
83333.33188827
83333.3318896731
83333.331891389
83333.3318934086
83333.3318957185
83333.3318982999
83333.3319011277
83333.3319041705
83333.3319073951
83333.3318887325
83333.3318885907
83333.331888562
83333.3318887644
83333.3318892414
83333.3318900007
83333.3318910477
83333.3318923862
83333.331894014
83333.331895924
83333.3318981049
83333.3319005415
83333.3319032143
83333.3319060982
83333.3319091641
83333.331912382
83333.3318912905
83333.331891209
83333.3318912262
83333.3318914705
83333.3318919626
83333.3318927114
83333.3318937233
83333.3318950035
83333.3318965511
83333.3318983609
83333.3319004235
83333.3319027259
83333.3319052517
83333.3319079807
83333.3319108888
83333.3319139493
83333.3319171361
83333.3318937405
83333.3318936968
83333.3318937544
83333.3318940421
83333.3318945521
83333.3318952929
83333.3318962734
83333.3318975006
83333.3318989757
83333.3319006945
83333.3319026494
83333.3319048292
83333.3319072194
83333.3319098027
83333.3319125594
83333.3319154667
83333.3319185
83333.3319216367
83333.3318960943
83333.3318960687
83333.3318961674
83333.3318964814
83333.3318970011
83333.331897732
83333.331898683
83333.3318998625
83333.3319012725
83333.3319029101
83333.3319047685
83333.3319068377
83333.3319091048
83333.3319115544
83333.3319141692
83333.3319169304
83333.3319198171
83333.3319228072
83333.3319258809
83333.3318407234
83333.3318401721
83333.3318395032
83333.3318448584
83333.3318443322
83333.3318437322
83333.3318436283
83333.331848882
83333.3318483729
83333.3318478216
83333.331847747
83333.3318482874
83333.3318528369
83333.3318523577
83333.3318518707
83333.3318518157
83333.3318523138
83333.3318534697
83333.3318566801
83333.3318562391
83333.3318558038
83333.3318557687
83333.3318562584
83333.3318573157
83333.3318590139
83333.3318604037
83333.3318600004
83333.3318596152
83333.3318595983
83333.3318600815
83333.3318610985
83333.331862667
83333.3318648125
83333.3318640138
83333.3318636486
83333.3318633112
83333.3318633137
83333.3318637875
83333.331864764
83333.3318662575
83333.3318682634
83333.3318707626
83333.3318675164
83333.3318671881
83333.3318668957
83333.3318669192
83333.3318673838
83333.3318683186
83333.3318697376
83333.331871639
83333.3318740034
83333.3318767886
83333.3318709162
83333.3318706189
83333.3318703707
83333.3318704178
83333.3318708754
83333.3318717706
83333.3318731163
83333.3318749139
83333.3318771498
83333.3318797923
83333.3318827997
83333.3318742131
83333.3318739416
83333.3318737372
83333.3318738099
83333.3318742643
83333.331875124
83333.3318764013
83333.3318780987
83333.3318802077
83333.3318827066
83333.3318855612
83333.33188873
83333.331877403
83333.3318771583
83333.3318769926
83333.3318770941
83333.3318775497
83333.3318783793
83333.3318795946
83333.3318811989
83333.3318831863
83333.3318855423
83333.331888242
83333.331891251
83333.3318945287
83333.3318804859
83333.3318802686
83333.3318801391
83333.3318802683
83333.3318807289
83333.331881534
83333.3318826944
83333.3318842141
83333.3318860888
83333.3318883077
83333.3318908534
83333.3318937001
83333.3318968135
83333.3319001555
83333.3318834548
83333.3318832639
83333.331883176
83333.3318833325
83333.3318837994
83333.3318845848
83333.3318856969
83333.3318871402
83333.3318889121
83333.3318910038
83333.331893402
83333.3318960879
83333.3318990351
83333.3319022106
83333.3319055791
83333.3318862937
83333.3318861384
83333.3318860922
83333.331886283
83333.331886759
83333.3318875286
83333.3318885984
83333.3318899731
83333.3318916514
83333.3318936265
83333.3318958877
83333.3318984199
83333.3319012029
83333.3319042109
83333.3319074125
83333.3319107758
83333.3318889806
83333.3318888845
83333.3318888834
83333.3318891153
83333.3318896056
83333.3318903636
83333.3318913964
83333.3318927096
83333.3318943029
83333.3318961716
83333.3318983068
83333.3319006959
83333.3319033223
83333.3319061655
83333.3319092002
83333.3319123977
83333.3319157294
83333.3318914886
83333.3318914757
83333.3318915341
83333.3318918205
83333.3318923328
83333.3318930844
83333.3318940851
83333.3318953428
83333.3318968591
83333.3318986305
83333.3319006503
83333.3319029077
83333.3319053885
83333.3319080753
83333.3319109474
83333.3319139809
83333.3319171497
83333.3319204293
83333.3318939036
83333.3318938956
83333.3318940254
83333.3318943733
83333.3318949161
83333.3318956664
83333.3318966399
83333.3318978481
83333.3318992947
83333.3319009783
83333.3319028933
83333.3319050308
83333.3319073784
83333.3319099206
83333.3319126397
83333.3319155158
83333.3319185266
83333.3319216488
83333.331924861
83333.331896144
83333.3318962202
83333.3318963906
83333.331896775
83333.331897342
83333.3318980937
83333.3318990443
83333.3319002089
83333.3319015941
83333.3319031998
83333.3319050215
83333.3319070515
83333.3319092787
83333.3319116893
83333.3319142675
83333.331916996
83333.3319198564
83333.3319228287
83333.331925892
83333.3319290249
83333.3318407885
83333.3318402065
83333.3318395176
83333.3318393188
83333.3318449417
83333.3318443778
83333.3318437513
83333.3318436053
83333.3318441181
83333.3318489848
83333.3318484477
83333.3318478763
83333.3318477744
83333.3318482561
83333.331849426
83333.3318529604
83333.3318524708
83333.3318519649
83333.3318518909
83333.3318523659
83333.3318534374
83333.3318551839
83333.3318568255
83333.3318563837
83333.3318559396
83333.3318558859
83333.3318563546
83333.331857384
83333.3318589941
83333.3318612134
83333.3318605712
83333.3318601722
83333.3318597865
83333.3318597553
83333.3318602162
83333.331861205
83333.3318627379
83333.3318648114
83333.3318674051
83333.3318642042
83333.3318638473
83333.3318635141
83333.3318635082
83333.3318639625
83333.3318649097
83333.3318663661
83333.331868331
83333.3318707845
83333.3318736819
83333.3318677308
83333.3318674113
83333.3318671284
83333.3318671496
83333.3318675995
83333.3318685075
83333.3318698886
83333.3318717456
83333.3318740647
83333.3318768131
83333.3318799468
83333.3318711536
83333.3318708639
83333.3318706301
83333.331870681
83333.3318711299
83333.3318720029
83333.3318733138
83333.3318750663
83333.3318772526
83333.3318798502
83333.3318828236
83333.3318861291
83333.3318744694
83333.3318742079
83333.331874019
83333.331874102
83333.331874554
83333.331875397
83333.3318766441
83333.3318782996
83333.3318803582
83333.3318828054
83333.3318856158
83333.3318887531
83333.3318921748
83333.3318776773
83333.3318774463
83333.3318772953
83333.3318774111
83333.3318778699
83333.3318786883
83333.3318798784
83333.3318814453
83333.3318833853
83333.3318856881
83333.3318883359
83333.331891302
83333.3318945506
83333.3318980413
83333.3318807723
83333.33188057
83333.3318804638
83333.3318806084
83333.3318810756
83333.331881874
83333.3318830137
83333.3318845001
83333.3318863315
83333.3318884998
83333.3318909916
83333.3318937877
83333.3318968607
83333.3319001758
83333.3319036958
83333.3318837382
83333.3318835722
83333.331883511
83333.3318836917
83333.3318841686
83333.3318849505
83333.3318860455
83333.3318874594
83333.3318891917
83333.3318912363
83333.3318935828
83333.3318962159
83333.3318991151
83333.3319022533
83333.3319055974
83333.3319091133
83333.3318865534
83333.3318864453
83333.3318864296
83333.331886653
83333.3318871444
83333.3318879138
83333.3318889695
83333.3318903182
83333.3318919605
83333.331893892
83333.3318961045
83333.3318985856
83333.3319013186
83333.3319042824
83333.3319074505
83333.3319107921
83333.3319142762
83333.3318891904
83333.3318891662
83333.3318892087
83333.3318894852
83333.3318899978
83333.3318907601
83333.3318917822
83333.3318930727
83333.3318946334
83333.3318964618
83333.3318985515
83333.3319008924
83333.3319034704
83333.3319062677
83333.331909263
83333.3319124311
83333.3319157438
83333.3319191738
83333.3318916562
83333.3318916774
83333.331891817
83333.3318921689
83333.3318927179
83333.3318934811
83333.331894476
83333.3318957149
83333.3318972022
83333.3318989369
83333.3319009146
83333.3319031269
83333.3319055619
83333.3319082041
83333.3319110352
83333.3319140346
83333.3319171784
83333.3319204416
83333.3319238008
83333.3318939607
83333.3318940421