/*--------------------------------*- C++ -*----------------------------------*\
  =========                 |
  \\      /  F ield         | OpenFOAM: The Open Source CFD Toolbox
   \\    /   O peration     | Website:  https://openfoam.org
    \\  /    A nd           | Version:  12
     \\/     M anipulation  |
\*---------------------------------------------------------------------------*/
/*   Windows 32 and 64 bit porting by blueCAPE: http://www.bluecape.com.pt   *\
|  Based on Windows porting (2.0.x v4) by Symscape: http://www.symscape.com   |
\*---------------------------------------------------------------------------*/
FoamFile
{
    format      ascii;
    class       volScalarField;
    location    "400";
    object      nut;
}
// * * * * * * * * * * * * * * * * * * * * * * * * * * * * * * * * * * * * * //

dimensions      [0 2 -1 0 0 0 0];

internalField   nonuniform List<scalar> 
10140
(
2.25325803155056e-05
2.26385359962991e-05
2.39209807326886e-05
0.00030303464444155
2.27056709373868e-05
2.40346828956179e-05
0.000303642298172314
2.57170679257459e-05
0.000310429882839394
0.000814377776377781
2.27375126772127e-05
2.41047467680123e-05
0.000303999425204699
2.58393532722237e-05
0.000311055265530667
0.000815620619414427
2.67978388269518e-05
0.000319847516104894
0.000823358742180232
0.0014067927829608
2.27351452802919e-05
2.41363406700985e-05
0.000304115962920856
2.59135291579338e-05
0.000311419096627426
0.000816308821679707
2.69261113974888e-05
0.000320492146786832
0.000824622075673339
0.00140863398880021
2.64756276609828e-05
0.000325551190811363
0.000834031889502079
0.00141328458055312
0.00200298548574627
2.26965810431976e-05
2.41319722375229e-05
0.000303988935852735
2.59454077644509e-05
0.00031153523646306
0.000816474494057856
2.70030226235894e-05
0.000320864420291169
0.000825318721642233
0.00140958182066383
2.66045874228753e-05
0.000326208675522764
0.000835315272691625
0.00141514458987377
0.00200527516722748
2.5103451420425e-05
0.000324072507923561
0.000839414765275119
0.00141878822667482
0.00200513358978173
0.00256702663833667
2.26199530565656e-05
2.40891722840622e-05
0.000303609310693376
2.59390108522327e-05
0.000311402466769542
0.000816112019259982
2.70353263121838e-05
0.000320980022050952
0.000825485165062423
0.00140968885911486
2.66820662844303e-05
0.000326587266097588
0.000836020643884183
0.00141609916936577
0.00200632714157621
2.52291000741639e-05
0.000324731865738385
0.000840707759978212
0.00142066208498033
0.00200743942993397
0.00256958275280046
2.33236167011246e-05
0.000316486021286483
0.000834686080237731
0.00141754568107042
0.00200271826080044
0.00256458798204172
0.00308474982955534
2.25037518356274e-05
2.40065921111895e-05
0.000302965947972684
2.58923468793728e-05
0.000311011826782177
0.000815204111569323
2.70275265896888e-05
0.000320839314671219
0.0008251175041567
0.00140894772086202
2.67143275469786e-05
0.000326702673465569
0.000836186101785134
0.00141620584600521
0.0020062100360235
2.53057503300861e-05
0.000325111972926537
0.000841417362838512
0.00142162139037464
0.00200849579125208
0.00257056593560476
2.34444661473559e-05
0.000317138531160857
0.000835974361520528
0.0014194179659682
0.00200503094730499
0.00256715927897221
0.00308740405361062
2.14286528468708e-05
0.00030558395523069
0.000820230262630224
0.00140521044905015
0.00199138285469353
0.00255393146042607
0.00307883888653235
0.00355312396338676
2.23462343457732e-05
2.38826132689455e-05
0.000302045938117897
2.58027152263574e-05
0.000310352016192953
0.000813727399711417
2.6978012403339e-05
0.000320433642636627
0.000824198825144157
0.00140733232020149
2.67062007343782e-05
0.000326556511327772
0.000835809367207485
0.00141545934997832
0.00200491324328401
2.53377117780624e-05
0.000325227362327761
0.000841580665882454
0.00142172466387866
0.00200837719025386
0.00257005802428773
2.35186040313409e-05
0.000317516382992529
0.000836681035748872
0.00142037480108763
0.00200608780135679
0.00256814633915375
0.00308816610181613
2.15441182539668e-05
0.000306225312547276
0.000821501825554856
0.00140706442080782
0.00199368154025545
0.00255650548524812
0.00308151007939631
0.00355574010459119
1.94322549797274e-05
0.000292961674929311
0.000798939563776042
0.00138139638968382
0.00196794511700575
0.00253177244119039
0.00306136568428249
0.00354509019951221
0.00397428588805588
2.21454002152191e-05
2.37139570017059e-05
0.000300833974074704
2.56678034213926e-05
0.000309409520413034
0.000811653277561778
2.68839674178373e-05
0.000319751061480048
0.000822705665018184
0.00140480609977565
2.6656983274116e-05
0.000326140559418318
0.000834874105214629
0.0014138342078135
0.00200240091807457
2.53306347161299e-05
0.000325080350096274
0.000841196178574928
0.00142096868974601
0.00200707584538886
0.00256804412641653
2.35502440113067e-05
0.000317632666097529
0.000836841310429754
0.00142047221953414
0.00200596421642402
0.0025676381338583
0.00308713043427351
2.16152491396464e-05
0.000306598726683571
0.000822199710596304
0.00140800986874655
0.00199472909475162
0.00255749165171364
0.00308227778814033
0.00355616299247406
1.95417182434907e-05
0.000293589903860164
0.000800186508921621
0.00138321808912125
0.00197020991413811
0.00253432296794205
0.00306403906737631
0.00354772613160263
0.00397676024181607
1.73042045605925e-05
0.000278845787123171
0.000772819455434736
0.00134791158702908
0.00193177705360618
0.00249590877745521
0.0030295625310504
0.00352264861958812
0.00396496245776303
0.00435205278928076
2.18988747350134e-05
2.34990881646595e-05
0.00029931277804744
2.54847501496644e-05
0.000308168063561286
0.000808947754360861
2.67428656463184e-05
0.000318777497643053
0.000820609028865494
0.00140132322395599
2.65639375641887e-05
0.000325442427354355
0.000833356696863842
0.00141129396338621
0.00199862256694537
2.52842042329037e-05
0.00032466354066771
0.000840248115910495
0.00141932887406209
0.00200455679343943
0.00256447825982376
2.35448800262941e-05
0.000317489766671697
0.000836453773338551
0.00141970760136632
0.00200465523501858
0.00256562312258775
0.00308427661092626
2.1646334821228e-05
0.000306716577989272
0.000822357232632801
0.00140809975727447
0.0019945972839836
0.00255698000852003
0.00308124420021786
0.0035544986016215
1.96098244840253e-05
0.000293958173797278
0.000800871924516932
0.0013841447700257
0.00197123713690305
0.00253529604371109
0.00306480748015141
0.00354815691340952
0.00397675835991289
1.74075387380747e-05
0.000279459972092304
0.000774036445671183
0.0013496898974502
0.00193399165968686
0.00249841172458062
0.00303220670974514
0.00352528821121801
0.00396745945926156
0.00435431076769679
1.50533496173874e-05
0.000262997354661633
0.000742390346280269
0.00130615912886615
0.00188361667935551
0.00244572329159358
0.00298169984886033
0.00348291097095993
0.00393885111918244
0.00434176656829499
0.00469034012489797
2.16046604921561e-05
2.32351224372153e-05
0.000297463243237194
2.5251424855515e-05
0.000306609961296493
0.000805572019755468
2.65524187514536e-05
0.000317496194677574
0.000817874454671009
0.001396828889909
2.64241251426942e-05
0.00032444789259219
0.000831227794008298
0.00140779267692679
0.00199351453314355
2.51961187834782e-05
0.000323964569592106
0.000838712860535527
0.0014167690246393
0.0020007698485268
0.00255929543900552
2.35025709407369e-05
0.000317081163832415
0.00083550318646311
0.00141805701010692
0.00200212717382154
0.00256205624046725
0.00307954769563245
2.16431584468138e-05
0.000306581384916763
0.000821972616072831
0.00140733107911809
0.00199328198651226
0.0025549627390949
0.00307839338258235
0.00355072196337687
1.9640351222036e-05
0.000294078347835874
0.000801027373053869
0.00138422669645194
0.00197109449898125
0.00253477723623496
0.00306377424133876
0.00354649710854574
0.00397439800302783
1.74726014221219e-05
0.000279823459438657
0.000774707316920818
0.00135059218129884
0.00193498924914253
0.00249935801059403
0.00303296153620151
0.00352572257178825
0.0039674675995244
0.00435382487708531
1.51498480149542e-05
0.00026359798771872
0.000743573947624143
0.00130788432896476
0.00188576666736503
0.00244815903787982
0.00298428602837008
0.00348551838778174
0.00394135388618758
0.00434404976624344
0.00469233686223105
1.27195842508879e-05
0.000245193067350478
0.000707412568420437
0.00125647725302321
0.00182396843499374
0.0023812308923069
0.00291721703858217
0.00342415621194326
0.00389251029013808
0.00431264363734773
0.00467916586754528
0.00499272777194939
2.1261358460503e-05
2.2919816815633e-05
0.000295263695523986
2.49672980279736e-05
0.000304715172567723
0.000801482134322099
2.63090293470137e-05
0.000315888656798598
0.000814462437635666
0.00139125964127176
2.62351341613518e-05
0.000323140206315727
0.000828452512070371
0.00140327531926705
0.00198700054478601
2.5063597949811e-05
0.000322969154339175
0.00083656093715734
0.00141324323623163
0.00199565146517513
0.00255241401784818
2.34212437491042e-05
0.000316395023645165
0.000833966261053164
0.00141548465467351
0.00199833051092706
0.00255687331969037
0.0030728654366487
2.16056801232834e-05
0.00030618714387512
0.000821031165510155
0.00140568031558637
0.00199075044327053
0.00255139648232099
0.00307366994134618
0.00354476627072045
1.96394044453176e-05
0.000293953286085534
0.000800650761810874
0.00138346015648496
0.00196977740713001
0.00253276005077627
0.00306092824884518
0.00354272702860689
0.00396965088612823
1.75027705646153e-05
0.000279946954369554
0.000774861539837708
0.00135066613915696
0.00193483426163639
0.00249882830077129
0.00303192503510982
0.00352406749791661
0.00396511391872319
0.00435072876339839
1.52117879856402e-05
0.000263957894233945
0.000744229634838654
0.00130875756003243
0.00188672665557899
0.00244906672935812
0.0029850108938366
0.00348594073054937
0.00394136884706147
0.00434357584546044
0.00469132324225685
1.28080660264092e-05
0.000245782346041207
0.000708561855401523
0.00125814038303127
0.0018260394191835
0.00238358145663375
0.00291972180916847
0.00342669833495077
0.00389497955366334
0.00431493515662067
0.00468118880170963
0.00499437070912986
1.03676326228401e-05
0.000225291589137885
0.000667394299023654
0.00119845624072914
0.00175261739202019
0.00230215618043206
0.00283578666911396
0.00334586925533882
0.00382393850031468
0.00426052635124481
0.00464732043229997
0.00498067315769384
2.08659593472187e-05
2.25526607723525e-05
0.000292694853940121
2.46274350150853e-05
0.000302462202160129
0.000796630028612263
2.60085651440141e-05
0.000313934623602098
0.000810328456758962
0.00138454350549097
2.59943344050764e-05
0.000321499720246923
0.000824990667549036
0.00139767800765803
0.00197899166580153
2.48840981117714e-05
0.00032166078332487
0.000833757376281302
0.00140869638571681
0.00198912530026854
0.0025437368955518
2.32985466798073e-05
0.000315417230548331
0.000831813722269445
0.00141194490917161
0.00199320213132703
0.00254999326509604
0.00306413164040804
2.15317084705015e-05
0.000305522390394337
0.000819510189031272
0.00140311225242863
0.0019869539265595
0.00254621818358674
0.0030669963317006
0.00353654020672632
1.96067206307003e-05
0.000293577132735879
0.000799727776514411
0.00138182196355339
0.00196725360905482
0.0025292024495805
0.00305621640557374
0.00353678173769944
0.00396244100149326
1.75039710413669e-05
0.00027983378580861
0.000774496681077988
0.00134990733384897
0.00193352130193463
0.00249681577984041
0.00302908802335503
0.0035203090952976
0.00396037607388258
0.00434499195962573
1.52413949272349e-05
0.000264086306701543
0.000744383804693321
0.00130882342979635
0.00188655809883559
0.00244852323691536
0.00298396671336872
0.00348428774261739
0.00393902427805326
0.00434048835822605
0.00468747253207989
1.28667020996741e-05
0.00024614070473679
0.000709203764903122
0.00125898065363341
0.00182695400800299
0.00238444007789637
0.00292040246275796
0.00342709038863852
0.00389498540602998
0.00431447146775058
0.00468018965272962
0.00499283097479611
1.04454072243108e-05
0.000225872682935638
0.000668511635587242
0.00120004926834882
0.00175459417725618
0.00230440291634979
0.0028381886370574
0.00334831926978975
0.00382633783788845
0.00426278468785317
0.0046493533185017
0.00498232282751659
0.00526321691065938
8.07639894236753e-06
0.000203215707301684
0.000621713967587699
0.00113120061312393
0.00166869794757736
0.00220765308530179
0.00273663378521049
0.00324765814000909
0.00373263608161979
0.00418300348381384
0.00458993970904378
0.00494626472429188
2.04143112645897e-05
0.000289726012031587
2.21299751896263e-05
2.42307661006641e-05
0.000299829631435582
0.000790958812149223
2.56509516539858e-05
0.000311611318308293
0.00080542297795055
0.00137660003117441
2.56974695035583e-05
0.000319504620978624
0.000820797035763317
0.0013909282395525
0.00196938632170324
2.46552866646526e-05
0.000320019959668515
0.000830261580938301
0.00140306433582944
0.00198110233754271
0.00253315054802209
2.31317523385085e-05
0.000314131767791939
0.000829010929054037
0.00140738289449839
0.00198666593109489
0.00254131878529185
0.0030532282187122
2.14196524006476e-05
0.000304573540374219
0.000817380972869257
0.00139958186034211
0.00198183006309614
0.00253934757819083
0.00305827476156917
0.00352592934327607
1.95407555805517e-05
0.000292938802902218
0.000798236371543933
0.00137927764878229
0.00196347523966976
0.00252404258380827
0.00304956254127512
0.00352857075403649
0.00395266434420116
1.74763842250006e-05
0.000279478295033155
0.000773598743624709
0.00134829288434901
0.00193101848229976
0.00249327917338853
0.00302439915375524
0.00351438528701878
0.0039531801930122
0.00433652907129532
1.5244686790558e-05
0.00026398656294033
0.000744033609746873
0.0013080766290577
0.00188525479049335
0.00244652101997131
0.0029811442085726
0.00348054800183615
0.00393430441205578
0.00433476325768547
0.00468075007191071
1.2895578887694e-05
0.000246275650798118
0.000709360149592005
0.00125903826587432
0.00182677019946471
0.00238388031995298
0.00291934690008885
0.00342543553827518
0.0038926492938721
0.00431139762424723
0.00467635003045668
0.00498823876898517
1.04982077330038e-05
0.000226232026547792
0.000669143162570083
0.00120085379286886
0.00175545516392876
0.0023052018357197
0.00283881251677923
0.00334866518298143
0.00382631562038619
0.00426231591664951
0.00464836827122404
0.00498081314982749
0.00526149818365504
8.14060368694938e-06
0.000203778355052425
0.000622800444738635
0.00113271621362707
0.00167056423435356
0.00220977566720008
0.0027389108811742
0.00324999192263622
0.00373493630959933
0.00418519008275297
0.00459194034095513
0.00494790311875965
0.00525026854874964
0.00550266534562492
5.90689250391975e-06
0.000178855940296955
0.000569544944367595
0.00105335745906309
0.00157074523998727
0.00209629909478077
0.00261840061028263
0.00312851726509651
0.00361828462829471
0.00407955700532602
0.00450417941094474
0.00488400652161336
1.9901139421548e-05
0.000286327160906871
2.16460171456521e-05
0.000784410126109391
0.000296787730807407
2.37746696885873e-05
2.5236691849618e-05
0.000308896474390152
0.000799690727739798
0.00136733724240585
2.53401168539011e-05
0.000317133192695295
0.000815821341748293
0.00138294497439675
0.00195807055341615
2.43733016604453e-05
0.000318024185532021
0.000826027738036114
0.00139627414272216
0.00197148085007676
0.00252052325378563
2.29188641851592e-05
0.000312519695582085
0.000825517515318202
0.00140173465826376
0.00197863301801598
0.00253073611422392
0.00304001696162622
2.12668170222898e-05
0.00030332515914716
0.000814609506948551
0.00139503494963429
0.00197530344703225
0.00253068786030378
0.00304738743757609
0.00351279591193278
1.9439894724376e-05
0.000292025255583465
0.000796148645527815
0.00137578310670668
0.00195838097756207
0.00251720136677742
0.00304086992997519
0.00351798015691922
0.00394019136005384
1.74185791835481e-05
0.000278869936709958
0.000772146403216477
0.00134578917517528
0.00192727890812914
0.00248815784744917
0.0030177838634428
0.00350620718507246
0.00394342330870904
0.00432522361584239
1.5222205499164e-05
0.00026365389735579
0.000743165533573941
0.00130649460688414
0.00188278522687914
0.00244301936669548
0.00297649310469555
0.00347466170455594
0.00392713865355357
0.0043263174821777
0.00467105803890749
1.29006755402596e-05
0.000246191119238451
0.000709027524878851
0.00125830667637718
0.001825480838553
0.00238189393777365
0.00291654523971369
0.00342172249773644
0.00388795835943485
0.00430569676995086
0.00466964203046627
0.00498055757019989
1.05246694263746e-05
0.000226374904435375
0.000669305244519912
0.00120090346537386
0.00175525372280656
0.00230462286608901
0.00283774253380938
0.0033470052093844
0.00382398588694749
0.00425925792413391
0.00464454754756911
0.00497623888274872
0.00525626039755448
8.18416943659023e-06
0.000204133406157517
0.000623423423960511
0.00113348282094551
0.00167136292158276
0.00221050325689609
0.00273946548133124
0.00325027803704052
0.00373486985431218
0.00418469786931205
0.00459095515232679
0.00494642333306077
0.0052486069516741
0.00550044349312885
5.95584653510647e-06
0.000179386579732315
0.000570590080221624
0.00105478462181116
0.00157248308699388
0.00209827525840175
0.00262052901389891
0.00313071040283331
0.00362046004171474
0.0040816414056138
0.00450610868484012
0.00488560056630203
0.00521339261846561
0.00548890054076476
0.00571508214103005
3.90599793242847e-06
0.000151791484359033
0.000509592225581994
0.000962947981825028
0.0014566147312879
0.00196605145890687
0.00247918423185058
0.00298676448339489
0.0034798257381947
0.00394998796289055
0.00438948041515141
0.00479065326982416
1.93218094714778e-05
0.000282468590121271
2.1096786162045e-05
0.000776915042013971
0.000293302797012777
2.32518504683852e-05
0.00135665660071628
0.000793070871424881
0.00030575979473605
2.47589677400702e-05
2.49268176632996e-05
0.000314363099938248
0.000810008130644182
0.00137363701068878
0.00194491648540437
2.40347350072395e-05
0.000315650209563652
0.000821005565839096
0.00138824417680136
0.00196014659606572
0.00250570821622344
2.26567832454565e-05
0.000310558735237899
0.000821287617933135
0.00139492734878028
0.0019690019191256
0.00251811454792618
0.00302433940277234
2.10712192898753e-05
0.000301759194449893
0.000811156204081296
0.00138940831423864
0.00196728594789203
0.00252012587918192
0.00303419649837269
0.00349697818581312
1.93017911494044e-05
0.000290822005960109
0.00079343144630259
0.0013712852017444
0.00195189659393562
0.00250858309710325
0.00303002177123743
0.00350487254967017
0.00392486459261412
1.73293210720177e-05
0.00027799631265326
0.000770112710262779
0.00134235326367408
0.00192224259476267
0.0024813742478077
0.00300914703609473
0.0034956621636208
0.00393097605327538
0.00431093047605118
1.51727242292144e-05
0.000263078540191937
0.000741759164322732
0.00130404473208665
0.00187910361165029
0.00243795894033282
0.00296994042667714
0.00346654188860496
0.00391742587208924
0.0043150356267816
0.00465826670700351
1.28829429263648e-05
0.000245883445736257
0.000708193355531582
0.00125676376747373
0.0018230548468239
0.00237844082063246
0.00291194803282954
0.00341589293434886
0.00388084467483389
0.00429728942072289
0.0046599704571347
0.00496967870836451
1.05304060835762e-05
0.000226306828334655
0.000668993826807813
0.00120018990410586
0.00175398134228117
0.00230265699411845
0.00283496825549245
0.00334332759987889
0.00381933609501089
0.00425359715524453
0.00463787068923539
0.00496857622002498
0.00524767287603845
8.20458420716714e-06
0.000204281312042745
0.000623593364720225
0.00113352522589378
0.00167114091866049
0.00220990123031226
0.00273837792947497
0.00324861064008745
0.00373254519797701
0.00418165680742048
0.00458715889929575
0.00494187935983989
0.00524339712141312
0.00549452843134798
5.988521678851e-06
0.000179718882867223
0.000571195035592954
0.00105550792810813
0.00157320981939256
0.00209891874227593
0.00262100098263676
0.00313092365314157
0.00362033596317578
0.00408111062667762
0.00450510674917918
0.00488413187727864
0.00521178686460521
0.00548672776458895
0.00571233249461757
3.93837605483817e-06
0.000152281770951341
0.000510575885690212
0.000964264928627748
0.00145820234126075
0.00196785699395754
0.00248113842791026
0.00298879122703586
0.00348185101968538
0.00395194398372085
0.00439130793312395
0.00479217382972885
0.00514655589690938
0.00544977774072041
0.00570055403057972
0.00590282234998139
2.16186536996722e-06
0.000121085012843603
0.000439662676829942
0.000856995751237287
0.00132327030144291
0.00181412680133828
0.00231649788276277
0.00282017536940557
0.00331542092979871
0.00379328067361285
0.0042457690949465
0.00466560001519296
1.86880162335849e-05
0.000278121990894439
2.047611998802e-05
0.000768402259592348
0.000289347877852946
2.26595217442962e-05
0.00134444589289541
0.000785493536609342
0.000302165386407502
2.42122389321687e-05
0.00192978192308456
0.00136290401132962
0.000803293566189811
0.000311162468368113
2.44507946883145e-05
2.36380154707262e-05
0.000312876744077162
0.000815139419830574
0.00137888380343961
0.00194697174755339
0.00248854156462305
2.2341789035028e-05
0.000308225456693145
0.000816270879459104
0.00138687948947138
0.00195765861423929
0.00250330714596405
0.00300601629595474
2.08300779589505e-05
0.000299853973065692
0.000806975810886147
0.00138262983958211
0.00195767668359464
0.00250753200260915
0.00301854386633131
0.00347829203534882
1.91243758376547e-05
0.000289311592922661
0.000790046306498705
0.00136572198086679
0.00194393537527262
0.00249807605331782
0.00301688132316372
0.00348908709883635
0.0039065015077759
1.72065291391666e-05
0.000276843892548148
0.000767465619797042
0.00133793335646811
0.00191583688158258
0.00247283425845628
0.00299837361080299
0.00348261420080266
0.00391568222061651
0.00429347520993465
1.50953622152071e-05
0.000262248930466868
0.000739788758325307
0.00130068544106274
0.00187415153821424
0.00243126403487346
0.00296139309823212
0.00345607792945001
0.00390503815682519
0.00430077324396363
0.00464221642900556
1.2841292754459e-05
0.000245343766643361
0.000706838567652991
0.00125437813683628
0.00181944768332858
0.00237346308687619
0.00290548397542186
0.00340786190530932
0.00387120936824584
0.00428606222212332
0.00464720682480214
0.00495546056016526
1.05164869632974e-05
0.000226025285673177
0.000668197729295817
0.00119869164505881
0.00175160740344812
0.00229926478821847
0.00283044109670565
0.0033375752246102
0.00381230013631207
0.00424525708726946
0.00462824636537049
0.00495772179182087
0.00523566273206201
8.20736616530324e-06
0.000204227809329582
0.000623305385965927
0.0011328325030974
0.00166988767380107
0.00220795952274003
0.00273563726586413
0.00324497760121163
0.00372794946338945
0.00417605387256194
0.00458053454085057
0.00493425701104975
0.00523483330700339
0.00548506516293554
6.00125024510715e-06
0.000179853248178847
0.000571364913748182
0.00105554119249072
0.00157296368849798
0.00209828902989173
0.0026198922131749
0.0031292469402312
0.00361801634113455
0.00407808858023665
0.00450134014201381
0.00487962595408299
0.00520662299221643
0.00548084393476267
0.00570574035534234
3.9588732582396e-06
0.000152574675654801
0.000511138122364224
0.00096492847310946
0.00145884457603737
0.00196840261351964
0.00248151364018032
0.00298891832591517
0.00348165714818563
0.00395136284383485
0.00439027655523924
0.00479069796316081
0.00514497314108741
0.00544765624292175
0.00569785342421466
0.00589956643388282
2.18630792921842e-06
0.000121536726705713
0.000440564170384713
0.000858173301955794
0.00132467950939874
0.00181573537473842
0.00231825143102736
0.00282200909336915
0.00331727019259868
0.00379508323689345
0.00424746934254325
0.00466702345387097
0.00504616745458965
0.00537879289896312
0.00565937100211438
0.00588759894206427
0.00606803499603244
8.71291653617217e-07
8.56783630682682e-05
0.00035635267014071
0.000731128517384312
0.00116648032996509
0.00163683963639042
0.00212718248509353
0.00262601070454187
0.00312268905852235
0.00360756063693886
0.00407211889193604
0.00450889430350435
0.000273278963858697
1.97984357201093e-05
0.000758800227742772
0.000284896443177003
2.19901895487371e-05
0.00133058235330817
0.000776888238581533
0.000298086436425767
2.35920212676706e-05
0.00191250754119053
0.00135063365329162
0.000795608547355422
0.000307496064552324
2.39068345000496e-05
0.00246883729048998
0.00193181380814558
0.00136809152116917
0.000808364539594569
0.000309672366180308
2.31819810886077e-05
2.1971361381889e-05
0.000305496130518412
0.000810412222598642
0.00137750043546332
0.00194447577052289
0.00248614937607288
0.0029848461714756
2.05408554586913e-05
0.000297586118139081
0.000802018362804011
0.00137461896189844
0.00194636271219091
0.00249276005097465
0.0030002507107564
0.0034565270818169
1.89052173102113e-05
0.000287473053698814
0.00078594899134857
0.0013590226974915
0.00193439775772073
0.00248555223113916
0.00300129179181757
0.00347043956404806
0.00388489179699184
1.70481539353886e-05
0.000275395687519224
0.000764167835159251
0.00133246910456052
0.00190797696502518
0.00246242833987331
0.00298532884250164
0.00346690400694579
0.00389735944248088
0.00427265405066263
1.49884798398894e-05
0.000261152233172416
0.000737223553728677
0.00129636654501444
0.00186785824904149
0.00242284250272672
0.00295073844112179
0.00344313606432605
0.00388982112469986
0.0042833566456508
0.00462271614705071
1.27754173204738e-05
0.000244561650877484
0.000704938988645271
0.00125110990025409
0.00181460274659353
0.00236688713483486
0.00289706236994842
0.00339752131909063
0.00385892690380657
0.00427187249864032
0.00463119228847573
0.00493773034146975
1.04817971503234e-05
0.000225522626706499
0.000666899594494506
0.00119637892580565
0.00174808883960246
0.00229439000864075
0.00282409167678418
0.00332966531022306
0.00380278157676569
0.0042341269285092
0.0046155483837501
0.00494353595644851
0.00522008711242164
8.1939241066398e-06
0.000203971320893872
0.000622549680619493
0.00113138402824896
0.00166757306665597
0.00220463943004885
0.00273119585747169
0.00323932310995395
0.00372101811990371
0.00416781466737523
0.00457099390066155
0.00492345980237229
0.00522285213481466
0.00547197832319889
5.99901128097409e-06
0.000179796609786902
0.000571093464000234
0.00105487007502282
0.00157173126251868
0.00209637452427676
0.00261719106857039
0.00312566787779447
0.00361348811174624
0.00407256208268366
0.004494792509569
0.00487207106884151
0.00519811053191426
0.00547140847573849
0.00569543361657371
3.96341927349168e-06
0.00015267529771537
0.000511283657601803
0.000964941012428543
0.00145856886913493
0.00196774032115307
0.00248037986817086
0.00298723066018695
0.00347934347841519
0.00394836342959282
0.00438654622507165
0.00478623780609991
0.00513986350064802
0.00544182599531251
0.0056912955364181
0.0058923222405288
2.20181247986351e-06
0.000121785175489715
0.000441046607470832
0.000858748590846635
0.00132521895605815
0.00181616858964192
0.00231851594371971
0.00282203689684505
0.00331699492489118
0.00379444177906698
0.00424639961324925
0.00466552920850112
0.00504458161840979
0.00537669689869797
0.00565672361587971
0.00588439459172142
0.00606430143402612
8.85903161259301e-07
8.61220399181438e-05
0.000357175443917318
0.000732144609544889
0.00116768131926847
0.00163822329289414
0.00212870925232914
0.00262762559726217
0.00312433655179186
0.00360918488947274
0.00407366806803723
0.00451019939940945
0.00491158316904732
0.00527206424642788
0.00558461902952345
0.00584455516017091
0.00605218954458181
0.0062126295681822
1.91763833069871e-07
4.47332015851955e-05
0.000255786426982187
0.000580094323853903
0.000980849598631549
0.00142951846398386
0.00190736183955482
0.00240100428138152
0.00289882225404203
0.00339042228313287
0.00386669604715324
0.00431972043489947
0.000748033574243042
0.000279937710189065
2.12606684020435e-05
0.00131493553888392
0.000767184798100266
0.000293500074751437
2.28914204882465e-05
0.00189291617247208
0.00133670339702875
0.000786882992048715
0.000303334758967363
2.32892290651827e-05
0.00244638819491381
0.00191451358638024
0.00135575518087055
0.00080061047485761
0.000306003524085409
2.26616777155647e-05
0.00296060284398227
0.00246645641409728
0.00192931126100579
0.00136668899477292
0.000803647501500016
0.000302342103620416
2.15436876659275e-05
2.02003893011044e-05
0.000294930794864329
0.000796228969793073
0.00136528579970796
0.00193321788327838
0.00247564627599322
0.00297911607124055
0.00343144679877775
1.86422803379048e-05
0.000285284187624162
0.000781090353686546
0.00135110816745529
0.00192317255718159
0.00247086725453723
0.00298307577277148
0.00344872058042866
0.00385979687698332
1.68519687923005e-05
0.000273631698116022
0.000760176355469418
0.00132589153782427
0.00189856559366321
0.00245003087441822
0.00296985822177241
0.00344834878772287
0.00387579816750614
0.00424823323018532
1.484999409895e-05
0.000259772354918515
0.000734027449337098
0.00129102948546071
0.00186014126932176
0.00241258761089407
0.00293784454519183
0.0034275595546949
0.00387159406648761
0.00426258275257537
0.00459954258572911
1.26842600415833e-05
0.00024352512418831
0.000702465384020772
0.00124691073592762
0.00180845150800183
0.00235862316432015
0.00288657343813714
0.00338474045260944
0.00384384564731016
0.00425454849186519
0.00461173658249992
0.00491628150213472
1.04264361719979e-05
0.000224790103869378
0.000665077441999883
0.00119321398839604
0.00174337113847396
0.00228796132794594
0.00281583195988805
0.00331949273045437
0.00379065793505227
0.00422006676779542
0.00459961992145397
0.00492584697871352
0.00520076314661527
8.16353374896307e-06
0.000203504676495619
0.000621311536379024
0.00112915213040515
0.00166415581141511
0.00219988658261472
0.00272498660406065
0.00323156682877334
0.00371165741482953
0.0041568312427278
0.00455841363481098
0.00490935151281902
0.005207313912509
0.00545511799071885
5.98329574948494e-06
0.000179549676835595
0.000570373013751206
0.00105347476377679
0.00156948296786921
0.00209313731073041
0.00261285092287964
0.00312013220805393
0.00360668852916938
0.00406445870323459
0.00448537805067039
0.0048613755842232
0.00518619758549167
0.00545835517027489
0.00568132518429208
3.95593829736051e-06
0.000152594388085237
0.000511005894592072
0.00096428412768281
0.0014573580721749
0.00196585640374099
0.00247772444337771
0.00298371558114116
0.00347489697425703
0.00394293258692289
0.00438010069696
0.00477878110350551
0.00513143533389291
0.00543245149427561