/*--------------------------------*- C++ -*----------------------------------*\
  =========                 |
  \\      /  F ield         | OpenFOAM: The Open Source CFD Toolbox
   \\    /   O peration     | Website:  https://openfoam.org
    \\  /    A nd           | Version:  12
     \\/     M anipulation  |
\*---------------------------------------------------------------------------*/
/*   Windows 32 and 64 bit porting by blueCAPE: http://www.bluecape.com.pt   *\
|  Based on Windows porting (2.0.x v4) by Symscape: http://www.symscape.com   |
\*---------------------------------------------------------------------------*/
FoamFile
{
    format      ascii;
    class       volScalarField;
    location    "400";
    object      omega;
}
// * * * * * * * * * * * * * * * * * * * * * * * * * * * * * * * * * * * * * //

dimensions      [0 0 -1 0 0 0 0];

internalField   nonuniform List<scalar> 
10140
(
2.46684012185195
2.46684012027653
2.38167819932494
0.717956627934291
2.46684013438042
2.38167826054187
0.718023557230611
2.28699445272215
0.702289428004254
0.41021646122688
2.46684014660432
2.38167830681746
0.717965102232972
2.28699458698845
0.702361124603558
0.410205305080736
2.21610803716599
0.68231369937053
0.405503447093331
0.302041595034091
2.46684016062775
2.38167829536488
0.717748239897758
2.28699467467533
0.70230809661806
0.410093299158158
2.21610824383735
0.682385696229833
0.405496533571613
0.302004004242939
2.18721770423383
0.665619532940037
0.398483617977106
0.300279276901643
0.250684856543747
2.46684022608401
2.38167823682361
0.717357709189747
2.28699463699289
0.702098389442458
0.40985958951831
2.21610839766264
0.682335300453493
0.405386977399724
0.301880940763606
2.18721800819257
0.665689539123291
0.398478949075251
0.300245200618904
0.250640074117194
2.18619174524809
0.655401112643295
0.391482128923987
0.297246484397785
0.24996873806941
0.222296860448512
2.46684040399754
2.381678197238
0.716785143817126
2.28699449577394
0.701716913868347
0.409492772424304
2.21610835816873
0.682131417798443
0.405156139523922
0.301660079108798
2.1872183459305
0.665639726197024
0.398371903727621
0.300123553379259
0.250519430517974
2.1861921725092
0.655469573526093
0.39147833957437
0.297214695168864
0.249927024543674
0.222251497581835
2.19192529557702
0.649474070743904
0.385803472700159
0.293683275392902
0.248482672284299
0.221991568883763
0.205171916569935
2.46684060853353
2.38167823429883
0.716023294130893
2.28699436047023
0.701155468832348
0.408985508502803
2.21610814985818
0.681758815193044
0.404793090744117
0.30133331097899
2.18721838472963
0.665440009449704
0.398144740430365
0.299903981395042
0.250314792240782
2.18619289849398
0.655420557946977
0.391373289990859
0.297094829044112
0.249807429591884
0.222136638462839
2.19192786218321
0.649542527216484
0.385800331151362
0.293652944051937
0.248443004356322
0.221949011703181
0.205128243579583
2.19484646753061
0.644190431707455
0.381160233706548
0.29016989875593
0.246459330723286
0.221172234631782
0.205017330017548
0.194284572309021
2.46684039437156
2.38167833213517
0.715064530841409
2.2869943267126
0.700406900906903
0.408331621860808
2.21610794614919
0.681209119836694
0.404290628976141
0.300894839346591
2.187218095095
0.665074427758501
0.397786778118896
0.299578817717827
0.250020179389882
2.18619313583986
0.655224091354432
0.391149571190516
0.296877296257552
0.249603513452843
0.221946258179061
2.19193113251976
0.649495663732538
0.385697126559683
0.293534903956288
0.248324747156884
0.221835031891434
0.205019420023105
2.19485124577986
0.6442605014538
0.381158238179008
0.290140876890429
0.24642109810983
0.221131531503783
0.204976279554397
0.194243266607278
2.19511969829569
0.637593358013841
0.376616672610013
0.286795939273596
0.244162537470216
0.219905742280725
0.204487595701274
0.194179853604014
0.187157121924097
2.46683762068715
2.38167814435724
0.7139007457201
2.28699443330622
0.699463976807313
0.407525124608802
2.21610788714548
0.68047561698185
0.403642645846702
0.300339718053493
2.18721779875631
0.664534312436014
0.397290889155637
0.299142376679864
0.249631041156072
2.18619267951884
0.65486350758778
0.390796522408983
0.296554706961236
0.249309664908999
0.221675713348931
2.19192961654408
0.649302251207593
0.385476494093132
0.29331973358263
0.248122068685687
0.22164511934954
0.204840532270164
2.19485497839257
0.644217009903777
0.381057219901591
0.290024744867795
0.246304359995146
0.221018647604932
0.204868234715767
0.194139725019036
2.19512467647932
0.637665971928347
0.376616600931934
0.286768544091483
0.244125738497413
0.219866394244941
0.204448281374967
0.194141051536635
0.187118431115621
2.19479800717415
0.629397766975407
0.37153766935977
0.283354318050519
0.241736175145725
0.218329602468542
0.203608890164594
0.193779413944709
0.187071999664686
0.182446914313695
2.46683890081514
2.38167730318641
0.712522693256459
2.28699428172024
0.698319103315607
0.406559928457442
2.21610800963992
0.679551403400832
0.402843236951271
0.299663303704882
2.18721773004287
0.663813208444279
0.396651090902359
0.298589745575932
0.249143411764331
2.18619217794586
0.654330105383629
0.39030698467772
0.296121471174887
0.248921424534377
0.221321371388402
2.19192874745157
0.648945826227146
0.385127671134059
0.293000131703187
0.247829579923739
0.221374964029584
0.204587857509284
2.19485549888589
0.644027727969594
0.380839658314301
0.289812079881285
0.246103342374536
0.220829582029798
0.204689708494488
0.193969714820676
2.19512654388323
0.637627237844949
0.376518462886389
0.286654617922247
0.244010773475069
0.219754816151339
0.204341201296729
0.194038238512122
0.187019110708271
2.19480337290798
0.629473039448569
0.371540206393409
0.283329123814801
0.241701190097766
0.218291716747523
0.203570891335372
0.193742284323607
0.187035731237709
0.182411433347197
2.19479312669761
0.619800760745111
0.365724605748234
0.27965810663157
0.239202226473702
0.216581689574831
0.202478509889518
0.193116120231827
0.186741289369337
0.182376076051281
0.179368836872549
2.46684121378116
2.38167791954801
0.710920307918259
2.28699339051997
0.696963387331184
0.405429580005601
2.21610792389026
0.678429056177001
0.401886388002854
0.298861040544424
2.18721784342113
0.662904542833766
0.395861570205456
0.297916294552201
0.248553601482863
2.18619213716208
0.653617425977025
0.389675026653684
0.295572719188784
0.248434847065695
0.22088003684158
2.19192596129878
0.648417314139541
0.384643428775498
0.292570535780093
0.247442902301615
0.221021022321314
0.204258492974141
2.19485195183521
0.643675997321513
0.380494722670957
0.289495566092222
0.245812710435476
0.220560205417171
0.204437270630625
0.193730215742471
2.19513074634149
0.637443735381903
0.376304545153458
0.286444703585109
0.243811798669191
0.219567013458311
0.204163335642245
0.193868542549887
0.186855513411506
2.1948053915215
0.629440024892106
0.37144571115401
0.283217947976489
0.241588408328661
0.218181783918781
0.203464994239877
0.193640369708593
0.186937110800981
0.182315040236633
2.19479899199238
0.619877155912932
0.365729846058302
0.279635772311308
0.239169649357857
0.216545724690229
0.202442001528671
0.193080297551119
0.186706655271606
0.182342959433013
0.179339016700705
2.19511855608449
0.608883076331113
0.359188164708678
0.275644865092357
0.236555090151181
0.214756448922549
0.201223234153459
0.1922829673412
0.186217777818876
0.182095922213089
0.179312777617391
0.177429706484465
2.46683863087691
2.38169226993365
0.709084721476247
2.28699370251188
0.695387093643844
0.404127466357939
2.21610716667906
0.677099995147365
0.400765776953049
0.297928376807136
2.18721785969832
0.661800716892921
0.394916369010263
0.297117476691861
0.247858071110912
2.18619225169542
0.65271893289732
0.388894924612057
0.294903838141499
0.247846241311562
0.220348735470225
2.19192803365224
0.647710237804894
0.384017779907571
0.292026086829216
0.24695811138942
0.22058009954862
0.203849821279207
2.19484672207836
0.643152615414775
0.380015055941627
0.289069602781143
0.245428110337137
0.220207041152277
0.204108086401509
0.193418925782006
2.19512458989159
0.637098306564447
0.375963917620965
0.286131441665518
0.243523444656295
0.219298877572807
0.203911405451986
0.193629218864338
0.186625372681701
2.19480305404842
0.629264096716241
0.371236369422708
0.283011305318687
0.241391917914775
0.21799570912013
0.203288172331829
0.193471243399294
0.186773806017069
0.182155295563666
2.19480760589549
0.619850417150899
0.365639398134973
0.279528016325363
0.239059635093474
0.216437931277653
0.202337660970222
0.192979497955034
0.1866088943923
0.182247244835088
0.179243376226806
2.19512461210797
0.608955955527244
0.359194741353787
0.275625918147859
0.236525649469923
0.214723054065353
0.201188726273954
0.192248664471006
0.186184448622272
0.182064409586744
0.179285252830226
0.177416272933159
2.19484813698115
0.596535551543834
0.351994901097723
0.271357323528791
0.233828878380002
0.212925856257636
0.199956684684409
0.191400506131265
0.185602990747004
0.181678983214115
0.179076818992292
0.17738883600745
2.46683596259598
2.38167786656821
0.707000997106129
2.287007540379
0.69358101369178
0.402646740304379
2.21610500687094
0.675554456643326
0.399474835687268
0.29686081098408
2.18721621066109
0.660493716407034
0.39380925963262
0.296188765171314
0.247053431694123
2.18619222472061
0.65162683766506
0.387960696539965
0.29411028400056
0.247152066968253
0.219724632158263
2.19192833220119
0.646817917560524
0.383244984360893
0.291362169166965
0.24637151065675
0.220049202581239
0.203359394489991
2.19485126335814
0.642451185275563
0.379394552428616
0.288529282303692
0.244945614452285
0.219766903873164
0.203699548581114
0.19303372438988
2.19511905654044
0.636581818770424
0.375489092753146
0.285709151197693
0.243141324764303
0.218946945671985
0.203582628082887
0.193318029119554
0.186326983987241
2.19479872196384
0.628927035987093
0.370901113209816
0.282701790834316
0.241106291250149
0.217729327596253
0.203037150571077
0.193232298648015
0.186543814455462
0.181931108368986
2.19480538680966
0.619683193020052
0.365435532233133
0.279325395069777
0.238866223121227
0.216254121998619
0.202162356637392
0.192811289160918
0.186446107793054
0.182087777017705
0.179084281360604
2.19513112172946
0.608936125676859
0.35910769412992
0.27552215539065
0.236419129386489
0.214618039709221
0.201086475056783
0.192149358746154
0.186087754199428
0.181969520115423
0.179190280819157
0.177314148157287
2.19485185442383
0.596598684985188
0.351999025645912
0.271341877876112
0.233803382282757
0.212895822804683
0.19992486548518
0.191368258537021
0.185571196999144
0.181648763954302
0.179050829054834
0.177377711997547
0.176335662464635
2.19192791436318
0.582458421423369
0.34423947079417
0.266923888772399
0.231127193308976
0.211184360924159
0.198784006929106
0.19058529482419
0.185016362663964
0.181238412351992
0.178749593352108
0.177193320307105
2.46684226923058
0.704665568440429
2.38166213273328
2.2869940498939
0.691532209158293
0.400981639707809
2.21611184979431
0.673783351365058
0.398007050776216
0.295654022944921
2.18721583701112
0.658974296016408
0.392533742085216
0.295125691441036
0.246136529126768
2.18619105028048
0.650333277984768
0.386866166070291
0.293187536834198
0.246348918624351
0.219005111006038
2.19192993062515
0.645732600229905
0.382318993520587
0.290574206038419
0.245679545272969
0.219425500615243
0.202784941535156
2.19485400328955
0.641564560402503
0.378627349092078
0.287869933361028
0.244361500744365
0.219236786724847
0.203209202200286
0.192572600792797
2.19512419033057
0.635887839659128
0.374873829568388
0.28517282431871
0.242661464231968
0.218508022569412
0.203174405716285
0.192932861383667
0.185958664740332
2.19479328938157
0.628419881372215
0.370432298469267
0.28228362422224
0.240727071819605
0.217379138864898
0.20270915175861
0.192921343227686
0.186245491896932
0.181641436926441
2.19480318386555
0.619357103574286
0.365106992242317
0.279020475856207
0.238583929413438
0.21599005776475
0.201912747370363
0.192573061034077
0.186216422409723
0.181863719457528
0.178862706423856
2.19512681827939
0.608779653022369
0.358909615356746
0.275324356061237
0.23622956079112
0.2144371445727
0.200913249927197
0.191982516470932
0.185925794524924
0.181810528872034
0.179031451529391
0.177150719741189
2.19485570431745
0.596586694529303
0.351913355388558
0.271242304906448
0.233701167336895
0.212794371282478
0.19982537178431
0.1912709853168
0.185475934059732
0.181554888233652
0.178956649502132
0.177276175395911
0.176199432131189
2.19193055418302
0.582511261021452
0.344236750324989
0.26691147497435
0.231106491222424
0.211158626364155
0.198755705249583
0.190555809140185
0.184986647529171
0.181209717500471
0.178724834254778
0.177183890283967
0.176309934290679
0.175778729995417
2.18619294169925
0.566256026926158
0.336093482660448
0.262582962258368
0.228648403431893
0.209688013780452
0.197836204092651
0.189957013015795
0.184574366643332
0.180895787149952
0.178455304527898
0.176944482672465
2.4668438288431
0.702069614209106
2.3816914763307
0.399125973372199
0.689235006719842
2.28696637178866
2.21610824321158
0.671774656582131
0.396356118043106
0.294304447433685
2.18722221389308
0.657232479989226
0.391083324204775
0.293923921854271
0.245104570185793
2.18619348918741
0.648829849606268
0.385604882324693
0.292131141431754
0.245433632023986
0.21818795478596
2.1919261487796
0.644446028211177
0.381233572124509
0.289657639948547
0.244878808160513
0.218706380930969
0.202124449595899
2.1948531043604
0.640484983884295
0.377707307608397
0.287086902545906
0.243672173572047
0.218613837565463
0.202634765653483
0.192033712226079
2.19512936670949
0.635008909171797
0.374112053997602
0.284517680226793
0.24208008098991
0.217979072727606
0.202684269917266
0.192471697729708
0.185518747171661
2.19479882191684
0.627736269322905
0.369823509288806
0.281751666995372
0.240250199757373
0.216941902064514
0.202301565429746
0.192536273606122
0.185877162455578
0.181284954151727
2.19479800618548
0.618862358827795
0.364645886042995
0.27860735860205
0.23820820956077
0.215642168188551
0.201586017344843
0.192262622004391
0.185918236872061
0.181574088127284
0.178578176098512
2.19512477951573
0.608466819277755
0.358589000365031
0.275025098840891
0.235951420920458
0.214176056704279
0.200665626888497
0.191745457257687
0.185696689104198
0.181586718920499
0.178809985569916
0.176928368442145
2.19485330122245
0.596444137857245
0.351720527614802
0.27104993748621
0.233516342881186
0.212617184223801
0.199654886975323
0.191106052811737
0.185315205781924
0.181396638782717
0.178798260119102
0.177113001220362
0.176025315331701
2.19192988002277
0.582512392820916
0.344150342290134
0.266815851687889
0.23100941288466
0.211061670578575
0.198659776468669
0.190461237553188
0.184893337429648
0.181117193264094
0.178631602344999
0.177082971054546
0.176175738096001
0.175648689818698
2.18619500588245
0.566292288200642
0.336083730579863
0.262573420871555
0.228633422013631
0.209667683396202
0.197812407089741
0.189931133047514
0.184547438457388
0.180869150652242
0.178432006832368
0.176936405130092
0.176152005517951
0.175766069832458
0.175630000946092
2.18721907869173
0.548000085752203
0.327984841054672
0.258777295499939
0.226739824005433
0.208695435465802
0.197308561462389
0.189669132886968
0.18440411125562
0.180768021864488
0.178319106699625
0.176776005189876
2.46684253706441
0.69919985961938
2.38168167136367
0.397075683663064
0.686685221830431
2.28700507263454
0.292808931372916
0.394516154364519
0.669522299837306
2.21609060902104
2.18721879214926
0.655257047852749
0.389451628442387
0.292579732508737
0.243955428494336
2.18619594672053
0.647106785865336
0.384170224580098
0.290936824318997
0.244403407041957
0.217271372837384
2.19192946378825
0.64295018924689
0.379982281862504
0.288607964480441
0.243966066729821
0.217889571048729
0.201376306021497
2.19484674775684
0.639203429664516
0.376628007252425
0.286175533424874
0.242874180377129
0.217895420416496
0.201974211774808
0.191415508497336
2.19512418391961
0.633936718535683
0.37319749093813
0.28373894189269
0.241393495829745
0.217357194347971
0.202109914552478
0.191932685178259
0.185005735603607
2.19480428773884
0.626868156454741
0.369068424635041
0.281100979706965
0.239671791578035
0.21641452379859
0.201811890759644
0.192075058055851
0.185437157616717
0.180860242825143
2.19480374182143
0.618192391476279
0.364045571848157
0.278080742987184
0.237734890433085
0.215207133777235
0.201179506792172
0.19187785499335
0.185549882410257
0.181217563160308
0.178229495840207
2.1951198105926
0.607987374653605
0.358137482884484
0.274618325511277
0.235580063540556
0.213831118860202
0.200340722186761
0.191435944741862
0.185398834181826
0.181297144989341
0.178525464998025
0.176645954170036
2.19485167696793
0.596148145595321
0.351408448432076
0.270757426873232
0.233243378382592
0.212359883318102
0.199409903602714
0.190870693182729
0.185087058852337
0.181173284757089
0.178576984174364
0.17689073853537
0.175799711539453
2.19192784839133
0.582391669167638
0.343962270347723
0.266629253916524
0.230830303879634
0.210889146448656
0.198492822292968
0.190298854160626
0.184734338422129
0.180960032831287
0.178473866556655
0.176920154453115
0.176002093446982
0.175473116798879
2.18619346582451
0.566317771638329
0.335999305657751
0.262481858857241
0.22854236820419
0.209576310399105
0.197721010159383
0.189840064659526
0.184456727796957
0.180778465179631
0.178340019393015
0.17683625791353
0.17601897710665
0.175638243923374
0.175504357989144
2.18721905677796
0.548009182366252
0.327969149971421
0.258772637275911
0.226731936697345
0.20868183132778
0.197290445022189
0.18964785944741
0.18438080866702
0.180744137072329
0.178297792838447
0.176769402079905
0.175973228006179
0.175640474159298
0.175629192908723
0.175771931414112
2.2161092742595
0.529525398180399
0.321091548038491
0.256397162615478
0.226022407167583
0.208637695240273
0.19750693644187
0.189945187230971
0.184673668069008
0.180987085196384
0.178459166260831
0.176816853062535
2.46683911286069
0.696045064361665
2.3816796034234
0.394826941345826
0.683863752898072
2.28699776642828
0.29116593587109
0.392483258586053
0.667023695639058
2.21610696348779
0.242687918041287
0.291090109782707
0.387633717806628
0.653042153509613
2.18721371618764
2.18619328609255
0.645151952843766
0.382555765617448
0.289600593932068
0.243256073705208
0.216254299551546
2.19193396671431
0.64123548231881
0.378558408839455
0.287420895029339
0.242938495855326
0.216973268525066
0.200539479772162
2.19485240952263
0.637712124763313
0.375382907215639
0.285131206622652
0.241964200256538
0.21707920558453
0.201225903532501
0.190716858420939
2.19511928563004
0.632661880498903
0.37212343831713
0.282831796889996
0.24059815270543
0.2166396908445
0.201449278530837
0.191314249336861
0.184418415576595
2.19479898289547
0.625806559606508
0.368160515031844
0.280326624763644
0.238988047226728
0.215794018675437
0.201237771506336
0.19153581674655
0.184923959029029
0.180366031643775
2.1948092905844
0.617338695189222
0.363299363524904
0.277435488337079
0.237159954375599
0.214681769244155
0.200690653426899
0.191416694802302
0.185109677754882
0.180792721738986
0.177815325228131
2.19512548417959
0.607334541761368
0.357547997645065
0.274098520237776
0.235111179252369
0.21339890918405
0.199935796772094
0.191051814420714
0.185030546338003
0.180940493583804
0.178176703207252
0.17630184115887
2.19484905933732
0.595688372088964
0.350968081890127
0.270358489201359
0.232877515024036
0.212018715067401
0.199087453179103
0.190562595635776
0.184789841836388
0.180883874364249
0.178292438366727
0.17660829880635
0.175517304193585
2.1919284360264
0.582121491812975
0.343659579546181
0.266344458406152
0.230563684089144
0.21063662198512
0.198251251669162
0.19006580001599
0.184507606188921
0.180737428388203
0.178252920064032
0.176698012602992
0.175776588744832
0.17524585091908
2.18619093755697
0.56623279072762
0.335819947636553
0.262301702054845
0.228370027602045
0.209409564338765
0.197558532895356
0.189680986934734
0.184300047724334
0.180622827956682
0.17818321407976
0.176673950634149
0.175845787471459
0.175463181103254
0.175328900770126
2.18721821276561
0.548077688180691
0.327896622170634
0.258687773329762
0.226648193541101
0.208597316623883
0.197204725858032
0.189561248820479
0.184293466630538
0.180655895487664
0.178207489933841
0.176670326656479
0.175841024832514
0.175513976622173
0.175505737809098
0.175646751500194
2.21610890975852
0.529479742786975
0.321065451890432
0.256400618011959
0.226024064695082
0.208632506526287
0.197495898056534
0.189929708062923
0.184654976184219
0.180966768509949
0.178440507794991
0.176812158747871
0.175915216711198
0.175521860672237
0.175532124021995
0.175781477138405
0.176110033601386
2.28699538146645
0.516599915558743
0.31868742577875
0.257391539024188
0.227678708863918
0.210261505857415
0.198925768439714
0.191126678880539
0.18562687825018
0.181731238393723
0.179011251462866
0.177186792445033
0.692592705316031
2.38167615227496
0.392377336809035
0.680755026614849
2.28699604307766
0.289375612565444
0.390252978726729
0.664259291831079
2.21611090142735
0.241302337620762
0.289453426906575
0.385624576114285
0.65058296523869
2.18721700268632
0.215136879238923
0.241990424789968
0.288119547844072
0.380756690946678
0.642959983703007
2.18618954965512
2.19192944467223
0.639290867533692
0.376955282409133
0.286092278852885
0.241793839667603
0.215956409887017
0.199613798468124
2.19485809397211
0.636001618116279
0.373965177760262
0.28394943871027
0.240939317499876
0.216163340594123
0.200388782293662
0.189937321123186
2.19512523435617
0.631176427265497
0.370883152195029
0.281791460633305
0.23969063793803
0.215824145973778
0.200700676613269
0.190615248607301
0.183756072047565
2.19479380894899
0.624542222426268
0.367092813449419
0.279423585463018
0.238195258067768
0.21507758736072
0.200577081557086
0.190916938004283
0.184336341710781
0.179801381661355
2.19480393953053
0.616291786203464
0.362400401957042
0.276666449238848
0.236479451815134
0.21406297806428
0.200117019516884
0.19087721056236
0.184596074375773
0.180298277683949
0.177334516203153
2.19513090795769
0.606499441208042
0.356813383743979
0.273460278482963
0.234540585663614
0.212876121905118
0.199448196190365
0.190590938053713
0.18459011016865
0.180515328237115
0.177762354621898
0.175894528264582
2.19485431366289
0.595057608642906
0.35039180006083
0.269847289611748
0.232414274425905
0.211590135133908
0.19868469664849
0.190179516994127
0.18442182239678
0.180527077858158
0.1779434432093
0.176264057149562
0.175175330929516
2.19192840437474
0.581690558983277
0.343232456318003
0.265954872997587
0.230204661913156
0.210300239615652
0.197932001810202
0.189759672062372
0.184211411068392
0.180448376019597
0.177968366218655
0.17641545591398
0.175494120736866
0.174962764174707
2.18619035161078
0.566003159475389
0.335531748033643
0.262025948590677
0.228111040575585
0.209162979287484
0.19732129867438
0.189450944596811
0.184075256999576
0.18040133578166
0.177962795501199
0.176451990685404
0.175620360376847
0.175235994506941
0.175100395352419
2.18721384409991
0.548052104574505
0.327738699205067
0.258517093855663
0.226484019265492
0.208437635180721
0.197047838457102
0.18940637375897
0.18413979983701
0.180502300154952
0.178051969467221
0.176508742615757
0.175668284897615
0.175339368533807
0.175330765846801
0.175470258089629
2.21610749982241
0.529603867434051
0.32102034459341
0.256328608057662
0.225950069790622
0.208556441096782
0.1974171992151
0.189848681204996
0.184571911282444
0.180881686846736
0.178352437730717
0.176714563785457
0.175783954968946
0.175396195858243
0.175409951742428
0.175658449866875
0.175982749017395
2.28699558541227
0.516531277384024
0.318626930439277
0.257402784635279
0.227693094436805
0.210267038698645
0.198923497533129
0.191118389110771
0.18561395507835
0.181715442420585
0.17899603305091
0.177184627001474
0.176110585455445
0.175558363797863
0.175465892422663
0.175709099861521
0.17612849397691
0.176570646257199
2.38167955402928
0.542243626252504
0.330590071018633
0.266420317762515
0.234150298700367
0.214945361784684
0.202402303404923
0.193755394741363
0.187631774028871
0.18325916265593
0.180161185999846
0.178024735418702
0.389729742562588
0.677351194190386
2.28699263701049
0.287440327292137
0.387821775559227
0.661205282571376
2.21611216634959
0.239800943989038
0.287669650107799
0.38341939687099
0.64786358806119
2.18722095953295
0.213920791331126
0.240606690244253
0.286491869988025
0.378768282786847
0.640523420815097
2.18619082549136
0.198600335295251
0.214839059888373
0.240530814076599
0.284619070139433
0.375167714469846
0.637108670970462
2.19192394282371
2.19485348474157
0.634061757547798
0.372368029142814
0.282626155319588
0.239797139655652
0.215146697128854
0.199462642432883
0.189077401319226
2.19513150130458
0.629470254361368
0.369469621432498
0.280613240519034
0.238667840842782
0.214908603089028
0.199862990973977
0.189835205338442
0.183018713821929
2.19479968561379
0.623066208822674
0.365858272877311
0.278386859417895
0.237289889250232
0.21426268738314
0.199828050132944
0.190217236532596
0.183673566921413
0.179165892157111
2.19479860741361
0.615042192033408
0.361341464959974
0.275768384457273
0.235689495693219
0.213347818702336
0.199456375692896
0.190257723854143
0.184007812215058
0.179733275530441
0.176786322322991
2.19512558481951
0.605471903732969
0.355926326706134
0.272698196081627
0.23386415725134
0.212259529791805
0.198875370446505
0.190051302651068
0.184075924694297
0.180020334189499
0.177281256895738
0.175422887644383
2.19485531460617
0.594246533335772
0.349671750893238
0.269218067992181
0.231849274955581
0.211070692675318
0.198198862271441
0.189719236703678
0.183981220759356
0.180101423759162
0.177528640251261
0.175856508729918
0.174771999717167
2.19193125464139
0.581090737269005
0.342672317645071
0.265454232263141
0.22974854217922
0.209876312494779
0.197532116761578
0.189378126036599
0.183843939947761
0.180091494751796
0.177619008544344
0.176070862208314
0.175151966056783
0.174621294648561
2.18619245123398
0.565616721139063
0.335123518362847
0.26164762852433
0.227760356592711
0.208832582696537
0.197006144196014
0.189147429878967
0.183780528467154
0.180112901989873
0.177678308362434
0.176169240075929
0.175337679590071
0.174952803225624
0.174816016111188
2.18721386158079
0.547885799943426
0.327478822404771
0.258253866255654
0.226234250221212
0.208198306398712
0.196816016927376
0.189180172102963
0.18391756129513
0.180282345573611
0.177832333218095
0.176287061518168
0.17544290048087
0.175112189094536
0.17510230133096
0.175239834226384
2.21610229245698
0.529659015079989
0.32090603719598
0.256174888831499
0.225796507893542
0.208405357758058
0.197267178243212
0.189699054487904
0.184422072324836
0.180730742469521
0.17819863184604
0.176553980107718
0.175611745498686
0.175221941195703
0.175235364639296
0.175482404085935
0.175803713705604
2.28700593835545
0.516714878772597
0.318614187881397
0.25735113433003
0.227632775385389
0.210201583647983
0.198853398979089
0.19104425128733
0.185536229431096
0.18163435940878
0.178910840455667
0.177088995188329
0.175980572048154
0.175433491499853
0.175344441345267
0.175587275021151
0.176003331346443
0.176439671145635
2.38168145625283
0.543449438149432
0.330496078553337
0.266429420624431
0.234178342161889
0.214964405648086
0.202410926135796
0.193755936504303
0.187625972010249
0.183249000711955
0.180150318405507
0.17802585404574
0.176680847214308
0.175885482039626
0.17558413304332
0.175688040516577
0.176077239703339
0.176596704282267
0.177096343285274
3.68516517047986
0.87453412627653
0.401683603779253
0.296311223178752
0.250981043620235
0.225449107659456
0.209450043837387
0.198734445590213
0.191265428535126
0.185958727747794
0.182178773787859
0.179522347569529
0.285367686486664
0.385192810430184
0.657858997136993
2.21610428102563
0.23818848508916
0.285740794897112
0.381013115093673
0.644856551650099
2.18722160490384
0.21260976886388
0.239107017127781
0.284717188010828
0.376584548767088
0.637826478382593
2.18619347792412
0.197501868751148
0.213622826464681
0.239149502625655
0.28299926981621
0.373191263913993
0.634680662596853
2.19192630107263
0.188138956734713
0.198448507343966
0.214029228386343
0.238536209964285
0.281157795843304
0.370585643843497
0.631883457032268
2.19484951396594
2.19512709796093
0.627533758862408
0.367875904878292
0.279292864790592
0.237527196473625
0.213891797646661
0.198935939183421
0.188974590017982
0.182207408541407
2.19480800854518
0.621367539178138
0.36444954920672
0.277211507011569
0.23626857195559
0.213347196708216
0.198989451181066
0.189436171547269
0.182935620511342
0.178459970075347
2.19480421378859
0.613580137901799
0.360115129974342
0.274736034432999
0.234786357861042
0.212533583098961
0.198706822340382
0.189556964765946
0.183344106280302
0.179097297712539
0.176170614330408
2.19512025608535
0.604242036397665
0.354879318191889
0.271806789632521
0.233077807377251
0.211546018541575
0.19821495261808
0.189431126230749
0.183486662793458
0.179454519466814
0.176732648073438
0.174886312548691
2.19485207565669
0.593244403464004
0.348799958312059
0.268465091097303
0.231178187756922
0.210457024525208
0.197627263904977
0.189179628537334
0.183466352270168
0.179605544219859
0.177046839438377
0.175384511805981
0.174306177988187
2.19193118340958
0.580312620867674
0.341970322708892
0.264836288819869
0.229190696536621
0.209361226021603
0.197048688430792
0.188918824413605
0.1834033182097
0.179665246519767
0.177203453403071
0.175662715042862
0.174748334388309
0.174219737180443
2.18619365611158
0.565063592251358
0.334585391917689
0.26115986888603
0.227313003358035
0.208414519172692
0.19660997708178
0.188767980045093
0.183413944085413
0.179756061055382
0.177328501798367
0.17582405097183
0.174995043762592
0.174611094027834
0.174473760268784
2.18721698531951
0.547565326115677
0.327104079705303
0.25789054063157
0.225893636271294
0.207875221135918
0.196505989768992
0.188880018240699
0.183624811089999
0.179994841878167
0.177548036857723
0.176004064999068
0.175159829013735
0.174828675638412
0.174817766556067
0.174953293255678
2.21610342175294
0.529578530161951
0.320697361154706
0.255932116236617
0.225558417007186
0.208174766711834
0.197041973939148