/*--------------------------------*- C++ -*----------------------------------*\
  =========                 |
  \\      /  F ield         | OpenFOAM: The Open Source CFD Toolbox
   \\    /   O peration     | Website:  https://openfoam.org
    \\  /    A nd           | Version:  12
     \\/     M anipulation  |
\*---------------------------------------------------------------------------*/
/*   Windows 32 and 64 bit porting by blueCAPE: http://www.bluecape.com.pt   *\
|  Based on Windows porting (2.0.x v4) by Symscape: http://www.symscape.com   |
\*---------------------------------------------------------------------------*/
FoamFile
{
    format      ascii;
    class       volScalarField;
    location    "400";
    object      p;
}
// * * * * * * * * * * * * * * * * * * * * * * * * * * * * * * * * * * * * * //

dimensions      [0 2 -2 0 0 0 0];

internalField   nonuniform List<scalar> 
10140
(
83333.3280060172
83333.327998796
83333.3280061041
83333.328005731
83333.3279912155
83333.3279988859
83333.3279984815
83333.3280062782
83333.3280058423
83333.3280055911
83333.3279832697
83333.3279913086
83333.3279908507
83333.3279990702
83333.3279985962
83333.3279983144
83333.3280065565
83333.3280060368
83333.328005774
83333.3280064279
83333.3279749445
83333.3279833694
83333.3279828504
83333.3279915028
83333.3279909679
83333.3279905947
83333.3279993676
83333.3279988037
83333.327998508
83333.327999162
83333.3280069539
83333.3280063249
83333.3280060353
83333.3280066579
83333.3280084997
83333.3279662171
83333.3279750499
83333.3279744782
83333.3279835764
83333.3279829755
83333.3279825033
83333.3279918184
83333.3279911844
83333.3279907955
83333.3279914154
83333.3279997933
83333.3279991136
83333.3279987927
83333.3279994104
83333.3280013017
83333.3280074759
83333.3280067293
83333.3280063842
83333.3280069726
83333.3280087085
83333.3280117581
83333.3279570581
83333.3279663289
83333.3279657063
83333.3279752707
83333.3279746115
83333.3279740578
83333.3279839135
83333.327983202
83333.3279827148
83333.3279832963
83333.3279922729
83333.3279915129
83333.3279910955
83333.3279916778
83333.3279936195
83333.3280003523
83333.3279995481
83333.3279991725
83333.3279997539
83333.3280015321
83333.3280046901
83333.3280081196
83333.3280072661
83333.3280068391
83333.328007384
83333.328009059
83333.3280119353
83333.3280161094
83333.3279474368
83333.327957178
83333.3279565024
83333.3279665656
83333.3279658488
83333.3279652169
83333.3279756319
83333.3279748508
83333.3279742791
83333.3279748298
83333.3279844007
83333.3279835501
83333.3279830268
83333.3279835722
83333.327985562
83333.3279928721
83333.3279919766
83333.3279914972
83333.3279920367
83333.3279938638
83333.3279971457
83333.3280010416
83333.3280001232
83333.3279996638
83333.3280002021
83333.3280019133
83333.3280048874
83333.3280092289
83333.3280088766
83333.3280079327
83333.328007423
83333.3280078959
83333.3280095112
83333.3280122929
83333.3280162768
83333.328021451
83333.3279373181
83333.3279475661
83333.3279468346
83333.3279574332
83333.327956654
83333.3279559415
83333.327966954
83333.3279661047
83333.3279654505
83333.3279659696
83333.3279761556
83333.3279752219
83333.3279746059
83333.3279751192
83333.3279771566
83333.327985044
83333.3279840459
83333.32798345
83333.3279839453
83333.3279858194
83333.327989226
83333.3279936112
83333.3279925911
83333.3279920185
83333.3279925095
83333.3279942627
83333.3279973555
83333.3280018842
83333.3280018514
83333.3280008365
83333.3280002903
83333.328000757
83333.3280024056
83333.3280052762
83333.3280094165
83333.3280148147
83333.3280097355
83333.3280087192
83333.3280081408
83333.3280085339
83333.3280100693
83333.3280127599
83333.3280166184
83333.328021628
83333.3280277069
83333.3279266609
83333.3279374586
83333.3279366679
83333.3279478418
83333.3279469955
83333.3279461983
83333.3279578528
83333.32795693
83333.3279561895
83333.3279566728
83333.3279675184
83333.3279665033
83333.3279657974
83333.3279662753
83333.3279683566
83333.3279768483
83333.3279757541
83333.3279750545
83333.3279755114
83333.3279774284
83333.3279809592
83333.3279858382
83333.3279847057
83333.3279840052
83333.3279844416
83333.3279862353
83333.3279894491
83333.3279941724
83333.3279944792
83333.3279933565
83333.327992686
83333.3279930997
83333.3279947823
83333.3279977638
83333.3280020857
83333.3280077298
83333.328002769
83333.3280016775
83333.3280010569
83333.3280014445
83333.3280030104
83333.3280057846
83333.3280097889
83333.3280150114
83333.3280213691
83333.328010683
83333.3280096142
83333.3280089894
83333.3280093129
83333.3280107618
83333.3280133476
83333.328017083
83333.3280219463
83333.3280278741
83333.3280347677
83333.3279154166
83333.3279268152
83333.3279259616
83333.3279377582
83333.3279368407
83333.3279359524
83333.327948297
83333.3279472946
83333.3279464622
83333.3279469032
83333.327958463
83333.3279573612
83333.3279565607
83333.3279569969
83333.3279591187
83333.3279682656
83333.3279670762
83333.3279662767
83333.3279666926
83333.3279686483
83333.3279723038
83333.3279777031
83333.327976464
83333.3279756495
83333.3279760369
83333.3279778663
83333.3279811973
83333.3279861186
83333.3279867705
83333.3279855279
83333.3279847188
83333.327985068
83333.3279867811
83333.3279898762
83333.327994387
83333.3280002891
83333.3279954616
83333.3279942589
83333.3279935083
83333.3279938347
83333.327995426
83333.3279983013
83333.3280024776
83333.3280079409
83333.3280146
83333.3280037795
83333.328002633
83333.3280019638
83333.3280022802
83333.3280037564
83333.3280064207
83333.3280102945
83333.3280153592
83333.3280215518
83333.3280287752
83333.3280117046
83333.3280106055
83333.3280099607
83333.3280102366
83333.3280116072
83333.3280140861
83333.3280176872
83333.3280224012
83333.3280281765
83333.328034923
83333.3280425226
83333.3279035313
83333.3279155879
83333.3279146698
83333.3279271447
83333.3279261485
83333.3279251631
83333.3279382542
83333.3279371659
83333.3279362342
83333.3279366238
83333.3279489595
83333.3279477626
83333.3279468611
83333.3279472479
83333.3279494059
83333.327959271
83333.3279579808
83333.327957076
83333.3279574436
83333.3279594342
83333.3279632144
83333.3279691879
83333.3279678418
83333.3279669161
83333.3279672538
83333.3279691135
83333.3279725603
83333.327977683
83333.3279787061
83333.3279773485
83333.3279764161
83333.3279767054
83333.3279784443
83333.3279816476
83333.3279863474
83333.3279925154
83333.3279878249
83333.3279864973
83333.327985602
83333.3279858529
83333.3279874638
83333.3279904421
83333.3279947977
83333.3280005129
83333.328007488
83333.3279965422
83333.3279952826
83333.3279944812
83333.3279947307
83333.3279962232
83333.3279989786
83333.3280030132
83333.3280083072
83333.3280147937
83333.3280223677
83333.3280048667
83333.3280036893
83333.3280030007
83333.328003269
83333.3280046629
83333.328007215
83333.3280109478
83333.3280158541
83333.3280218827
83333.3280289445
83333.3280369303
83333.328012785
83333.3280116793
83333.3280110438
83333.3280113007
83333.3280126116
83333.3280149921
83333.3280184601
83333.3280230132
83333.3280286203
83333.3280352103
83333.3280426656
83333.3280508339
83333.3278909478
83333.3279037236
83333.3279027411
83333.3279159556
83333.3279148743
83333.3279137829
83333.3279276898
83333.3279265042
83333.327925464
83333.327925792
83333.3279389759
83333.3279376743
83333.3279366639
83333.3279369915
83333.3279391786
83333.3279498365
83333.3279484358
83333.3279474175
83333.3279477278
83333.3279497484
83333.327953651
83333.3279602684
83333.3279588087
83333.3279577652
83333.3279580464
83333.3279599311
83333.3279634932
83333.3279688208
83333.3279702696
83333.327968795
83333.3279677424
83333.3279679712
83333.3279697309
83333.3279730389
83333.3279779293
83333.3279843707
83333.3279798393
83333.3279783903
83333.3279773654
83333.3279775464
83333.3279791721
83333.3279822478
83333.3279867813
83333.3279927529
83333.3280000574
83333.327988983
83333.3279875959
83333.3279866466
83333.3279868134
83333.3279883147
83333.3279911608
83333.3279953624
83333.3280008973
83333.3280076928
83333.3280156349
83333.3279977024
83333.3279964123
83333.327995592
83333.3279957904
83333.3279971936
83333.327999827
83333.3280037091
83333.3280088318
83333.3280151421
83333.3280225463
83333.3280309293
83333.3280060145
83333.3280048324
83333.3280041549
83333.3280044049
83333.3280057366
83333.3280081851
83333.3280117781
83333.3280165152
83333.3280223654
83333.3280292589
83333.3280370892
83333.3280457129
83333.3280139067
83333.3280128177
83333.3280122257
83333.328012496
83333.328013772
83333.3280160703
83333.3280194143
83333.3280238081
83333.3280292326
83333.3280356416
83333.3280429358
83333.3280509627
83333.3278776007
83333.3278911632
83333.3278901156
83333.3279041357
83333.3279029661
83333.3279017589
83333.3279165606
83333.3279152646
83333.3279141056
83333.3279143599
83333.3279284797
83333.3279270614
83333.3279259286
83333.3279261853
83333.3279283916
83333.3279399312
83333.3279384085
83333.3279372667
83333.3279375087
83333.3279395518
83333.3279435725
83333.3279509181
83333.3279493344
83333.3279481638
83333.3279483776
83333.3279502807
83333.3279539559
83333.3279594908
83333.3279614371
83333.3279598387
83333.3279586578
83333.3279588192
83333.3279605939
83333.3279640043
83333.3279690884
83333.3279758113
83333.32797149
83333.3279699166
83333.3279687647
83333.3279688755
83333.3279705114
83333.3279736802
83333.3279783912
83333.3279846251
83333.3279922729
83333.3279810825
83333.3279795705
83333.3279784876
83333.327978577
83333.327980083
83333.3279830144
83333.3279873806
83333.3279931596
83333.3280002743
83333.3280086043
83333.327990225
83333.3279888066
83333.3279878383
83333.3279879497
83333.3279893535
83333.327992066
83333.3279961013
83333.3280014505
83333.3280080581
83333.3280158228
83333.3280246201
83333.3279989247
83333.3279976327
83333.3279968265
83333.3279970062
83333.3279983426
83333.3280008641
83333.3280045954
83333.3280095358
83333.3280156535
83333.3280228761
83333.3280310951
83333.3280401764
83333.328007203
83333.3280060431
83333.3280054127
83333.3280056779
83333.3280069743
83333.3280093363
83333.3280127987
83333.3280173681
83333.3280230262
83333.3280297282
83333.3280373881
83333.3280458592
83333.3280549994
83333.3280150487
83333.3280140023
83333.3280134911
83333.3280138112
83333.328015081
83333.3280173176
83333.3280205513
83333.3280247942
83333.328030036
83333.328036246
83333.3280433489
83333.3280512089
83333.3278634099
83333.3278767241
83333.3278778407
83333.3278916251
83333.327890363
83333.3278890325
83333.3279048117
83333.3279033991
83333.327902107
83333.3279022736
83333.3279174341
83333.3279158851
83333.3279146107
83333.3279147817
83333.327916994
83333.3279295235
83333.3279278647
83333.3279265857
83333.3279267448
83333.3279288
83333.3279329316
83333.3279411082
83333.3279393873
83333.3279380786
83333.3279382118
83333.3279401236
83333.3279439073
83333.3279496493
83333.3279521843
83333.3279504509
83333.3279491309
83333.3279492135
83333.3279509948
83333.3279545038
83333.3279597832
83333.3279667954
83333.3279627548
83333.3279610495
83333.3279597611
83333.3279597946
83333.3279614346
83333.3279646928
83333.3279695825
83333.3279760863
83333.3279840919
83333.3279728271
83333.3279711867
83333.3279699721
83333.3279699839
83333.3279714903
83333.3279745024
83333.3279790319
83333.3279850591
83333.3279925045
83333.3280012429
83333.3279824137
83333.3279808697
83333.3279797669
83333.3279797964
83333.3279811968
83333.3279839832
83333.3279881689
83333.3279937471
83333.3280006609
83333.3280088028
83333.3280180405
83333.3279915301
83333.3279901125
83333.3279891609
83333.3279892524
83333.327990584
83333.3279931752
83333.3279970467
83333.328002198
83333.3280085972
83333.3280161675
83333.3280247934
83333.3280343369
83333.3280001882
83333.3279989237
83333.3279981696
83333.3279983666
83333.3279996654
83333.3280020944
83333.3280056855
83333.3280104459
83333.3280163568
83333.3280233724
83333.3280314068
83333.3280403308
83333.3280499929
83333.3280084102
83333.3280072999
83333.3280067574
83333.3280070764
83333.3280083676
83333.3280106653
83333.3280140112
83333.3280184216
83333.3280238873
83333.3280303803
83333.3280378408
83333.3280461377
83333.3280551288
83333.3280647615
83333.328016184
83333.3280152145
83333.3280148235
83333.3280152343
83333.328016529
83333.3280187263
83333.3280218658
83333.3280259691
83333.3280310347
83333.328037043
83333.3280439343
83333.3280515942
83333.3278482931
83333.3278624845
83333.3278636751
83333.3278755377
83333.3278769957
83333.3278783586
83333.327892383
83333.3278908454
83333.32788941
83333.3278894721
83333.3279057867
83333.3279040927
83333.3279026599
83333.3279027268
83333.3279049275
83333.3279185813
83333.3279167691
83333.3279153327
83333.3279153892
83333.3279174421
83333.3279216727
83333.327930808
83333.3279289345
83333.3279274731
83333.327927509
83333.3279294163
83333.3279333004
83333.3279392457
83333.327942484
83333.3279406014
83333.3279391302
83333.3279391194
83333.3279408957
83333.3279444964
83333.3279499704
83333.3279572773
83333.3279536101
83333.3279517618
83333.3279503249
83333.3279502691
83333.3279519036
83333.3279552458
83333.3279603141
83333.3279670943
83333.327975472
83333.3279641965
83333.3279624187
83333.327961063
83333.3279609896
83333.3279624899
83333.3279655784
83333.327970271
83333.3279765519
83333.3279843407
83333.3279935091
83333.3279742569
83333.3279725829
83333.3279713475
83333.3279712947
83333.3279726874
83333.3279755431
83333.3279798774
83333.3279856875
83333.3279929172
83333.3280014544
83333.3280111606
83333.3279838102
83333.3279822686
83333.3279811852
83333.3279811935
83333.3279825162
83333.3279851718
83333.3279891804
83333.3279945444
83333.3280012331
83333.3280091667
83333.3280182226
83333.3280282565
83333.3279928779
83333.3279914916
83333.3279905978
83333.3279907085
83333.3279919996
83333.3279944913
83333.3279982115
83333.3280031683
83333.3280093434
83333.3280166894
83333.3280251171
83333.328034497
83333.3280446807
83333.328001468
83333.3280002615
83333.3279996033
83333.3279998587
83333.3280011524
83333.3280035129
83333.3280069798
83333.3280115701
83333.3280172748
83333.3280240655
83333.3280318844
83333.3280406237
83333.3280501321
83333.3280602992
83333.3280096083
83333.3280085822
83333.3280081699
83333.3280085872
83333.3280099061
83333.3280121633
83333.3280154103
83333.3280196734
83333.3280249534
83333.328031234
83333.3280384739
83333.3280465641
83333.3280553778
83333.3280648742
83333.3280749759
83333.3280172738
83333.3280164389
83333.3280162079
83333.3280167528
83333.3280181044
83333.3280202852
83333.3280233479
83333.3280273246
83333.3280322232
83333.328038034
83333.3280447088
83333.3280521476
83333.3278322351
83333.3278473017
83333.3278485863
83333.3278611747
83333.3278627802
83333.3278642538
83333.3278758805
83333.3278759459
83333.3278775337
83333.3278792092
83333.3278934751
83333.3278916191
83333.3278900174
83333.3278899602
83333.3278921251
83333.3279070619
83333.327905078
83333.3279034572
83333.3279033892
83333.3279054205
83333.3279097319
83333.327919987
83333.3279179429
83333.3279163075
83333.327916224
83333.3279181087
83333.3279220804
83333.3279282205
83333.327932307
83333.3279302595
83333.3279286213
83333.3279284987
83333.3279302541
83333.3279339357
83333.3279395998
83333.3279472054
83333.3279440309
83333.3279420247
83333.3279404267
83333.3279402659
83333.3279418819
83333.3279452989
83333.3279505427
83333.3279576039
83333.3279663665
83333.327955168
83333.3279532422
83333.3279517321
83333.3279515611
83333.3279530452
83333.3279562032
83333.3279610567
83333.3279675959
83333.3279757406
83333.3279853602
83333.3279657356
83333.3279639223
83333.3279625445
83333.3279624016
83333.3279637801
83333.3279667004
83333.3279711818
83333.3279772276
83333.3279847839
83333.3279937358
83333.3280039387
83333.3279757543
83333.3279740841
83333.3279728708
83333.3279727954
83333.3279741049
83333.3279768203
83333.3279809639
83333.3279865426
83333.3279935291
83333.3280018424
83333.328011354
83333.3280219123
83333.3279852496
83333.3279837438
83333.3279827239
83333.3279827536
83333.3279840332
83333.3279865819
83333.3279904279
83333.327995582
83333.3280020284
83333.3280097196
83333.3280185627
83333.3280284237
83333.3280391494
83333.3279942403
83333.3279929192
83333.3279921294
83333.3279923031
83333.3279935892
83333.3279960077
83333.327999595
83333.3280043688
83333.3280103214
83333.3280174237
83333.3280256173
83333.3280347989
83333.3280448262
83333.3280555594
83333.3280027349
83333.3280016235
83333.3280011061
83333.3280014675
83333.3280027915
83333.3280051097
83333.3280084718
83333.3280129051
83333.3280184115
83333.3280249748
83333.3280325566
83333.3280410762
83333.328050399
83333.3280604208
83333.328071053
83333.3280107571
83333.3280098733
83333.3280096326
83333.3280101953
83333.3280115766
83333.3280138181
83333.328016985
83333.3280211149
83333.3280262186
83333.328032291
83333.328039304
83333.3280471646
83333.3280557668
83333.3280650918
83333.3280750726
83333.3280855549
83333.3280183318
83333.3280176739
83333.3280176402
83333.3280183552
83333.3280197927
83333.3280219791
83333.3280249827
83333.3280288473
83333.32803359
83333.3280392108
83333.3280456719
83333.328052884
83333.3278151907
83333.3278311617
83333.3278325821
83333.3278458125
83333.3278476202
83333.3278492338
83333.3278613826
83333.3278616125
83333.3278633781
83333.3278652087
83333.3278784983
83333.3278764046
83333.3278766133
83333.3278784002
83333.3278804345
83333.3278949027
83333.3278927249
83333.3278909004
83333.3278906842
83333.3278926682
83333.3278970326
83333.3279086111
83333.3279063742
83333.3279045364
83333.3279043053
83333.3279061437
83333.327910184
83333.3279165032
83333.3279216249
83333.3279193934
83333.3279175671
83333.3279173087
83333.3279190214
83333.3279227678
83333.3279286125
83333.327936516
83333.3279339899
83333.3279318092
83333.3279300344
83333.3279297494
83333.3279313288
83333.327934807
83333.3279402188
83333.3279475613
83333.3279567199
83333.3279457185
83333.3279436295
83333.3279419521
83333.327941668
83333.3279431214
83333.3279463381
83333.327951347
83333.3279581463
83333.3279666575
83333.3279767492
83333.3279568287
83333.3279548653
83333.3279533316
83333.3279530862
83333.3279544398
83333.3279574169
83333.3279620418
83333.3279683256
83333.3279762187
83333.3279856045
83333.3279963329
83333.3279673449
83333.3279655362
83333.3279641835
83333.3279640168
83333.3279653063
83333.3279680765
83333.3279723529
83333.3279781487
83333.327985442
83333.327994152
83333.3280041456
83333.3280152633
83333.3279772944
83333.327975665
83333.327974521
83333.3279744694
83333.3279757331
83333.3279783345
83333.3279823038
83333.3279876565
83333.3279943815
83333.3280024329
83333.3280117155
83333.328022089
83333.3280333927
83333.3279867026
83333.3279852687
83333.3279843616
83333.3279844597
83333.3279857346
83333.3279882055
83333.3279919093
83333.3279968669
83333.3280030734
83333.3280105009
83333.3280190908
83333.3280287388
83333.3280393009
83333.3280506244
83333.3279955862
83333.3279943699
83333.3279937322
83333.3279940194
83333.3279953387
83333.3279977126
83333.3280011884
83333.3280057945
83333.3280115341
83333.328018391
83333.3280263277
83333.328035271
83333.3280451023
83333.3280556874
83333.3280669039
83333.3280039475
83333.3280029907
83333.3280026587
83333.3280031763
83333.3280045678
83333.3280068706
83333.3280101485
83333.3280144408
83333.3280197596
83333.3280261006
83333.3280334397
83333.3280417153
83333.3280508155
83333.328060656
83333.328071157
83333.3280821818
83333.3280118417
83333.3280111673
83333.3280111388
83333.3280118864
83333.3280133622
83333.3280156125
83333.3280187188
83333.3280227314
83333.3280276709
83333.3280335427
83333.3280403304
83333.3280479539
83333.3280563215
83333.3280654383
83333.3280752603
83333.328085636
83333.3280964177
83333.3280193391
83333.328018948
83333.3280191287
83333.3280200337
83333.3280215745
83333.328023786
83333.3280267486
83333.3280305173
83333.3280351179
83333.3280405589
83333.3280468126
83333.3280538001
83333.3278140972
83333.3278156099
83333.3278294645
83333.3278315169
83333.3278333246
83333.3278458289
83333.3278462805
83333.3278482787
83333.3278503081
83333.3278639159
83333.3278619425
83333.3278623424
83333.3278643484
83333.3278665875
83333.3278834743
83333.3278790968
83333.3278771958
83333.3278775934
83333.3278796437
83333.3278820365
83333.3278966294
83333.3278941742
83333.3278921026
83333.3278916931
83333.3278934549
83333.3278975358
83333.3279040082
83333.3279104057
83333.3279079696
83333.3279059269
83333.3279055012
83333.3279071425
83333.3279109305
83333.3279169387
83333.3279251321
83333.3279234604
83333.3279210864
83333.3279191138
83333.3279186798
83333.3279201983
83333.3279237179
83333.3279292845
83333.327936903
83333.3279464656
83333.3279358229
83333.327933553
83333.3279316935
83333.3279312769
83333.3279326806
83333.3279359399
83333.3279410937
83333.3279481505
83333.3279570361
83333.3279676198
83333.3279475147
83333.3279453864
83333.3279436832
83333.3279433205
83333.3279446345
83333.3279476561
83333.327952417
83333.3279589376
83333.3279671755
83333.3279770135
83333.3279882967
83333.3279585621
83333.3279566044
83333.3279550985
83333.3279548287
83333.3279560879
83333.3279589046
83333.3279633088
83333.3279693221
83333.3279769297
83333.3279860533
83333.3279965555
83333.3280082686
83333.3279689966
83333.3279672334
83333.3279659564
83333.3279658162
83333.3279670578
83333.3279697067
83333.3279737965
83333.3279793492
83333.32798636
83333.3279947866
83333.3280045328
83333.3280154517
83333.3280273732
83333.3279788475
83333.3279772964
83333.3279762749
83333.3279762975
83333.3279775573
83333.3279800762
83333.3279838939
83333.327989036
83333.3279955027
83333.3280032693
83333.3280122781
83333.3280224224
83333.328033552
83333.3280455023
83333.3279881349
83333.3279868157
83333.3279860729
83333.3279862928
83333.3279876046
83333.3279900287
83333.3279936141
83333.3279983926
83333.3280043704
83333.3280115332
83333.3280198448
83333.3280292348
83333.3280395878
83333.3280507581
83333.3280625974
83333.3279968718
83333.3279958224
83333.3279953844
83333.3279958389
83333.3279972311
83333.32799959
83333.3280029771
83333.3280074333
83333.3280129725
83333.3280195908
83333.3280272655
83333.3280359447
83333.3280455376
83333.3280559323
83333.3280670133
83333.3280786394
83333.3280050735
83333.3280043541
83333.3280042518
83333.328004968
83333.3280064617
83333.3280087763
83333.3280119917
83333.3280161606
83333.3280213055
83333.3280274329
83333.3280345317
83333.3280425548
83333.3280514074
83333.3280610282
83333.3280713596
83333.3280822678
83333.3280936093
83333.3280128746
83333.3280124777
83333.3280126936
83333.3280136499
83333.3280152407
83333.3280175217
83333.3280205878
83333.3280245011
83333.3280292916
83333.3280349739
83333.3280415426
83333.3280489295
83333.3280570545
83333.3280659386
83333.3280755627
83333.3280857945
83333.3280964828
83333.3281074986
83333.3280201378
83333.3280201609
83333.3280206365
83333.3280217604
83333.3280234188
83333.3280256722
83333.3280286134
83333.3280323057
83333.3280367817
83333.3280420576
83333.3280481143
83333.3280548832
83333.327812272
83333.3278145168
83333.3278164785
83333.3278292383
83333.3278299718
83333.3278322575
83333.3278345498
83333.3278482206
83333.3278464297
83333.3278470729
83333.3278493669
83333.3278518654
83333.3278689126
83333.3278645754
83333.3278628038
83333.3278634283
83333.3278657458
83333.3278683914
83333.327890624
83333.3278840354
83333.3278799532
83333.3278783092
83333.3278789362
83333.3278812723
83333.3278839746
83333.3278986098
83333.3278959438
83333.3278936494
83333.3278930187
83333.3278945523
83333.327898349
83333.3279044939
83333.3279129595
83333.3279124126
83333.3279098255
83333.3279076282
83333.327907013
83333.3279084381
83333.3279119712
83333.3279176713
83333.3279255537
83333.3279355221
83333.3279254565
83333.3279229866
83333.3279209252
83333.3279203517
83333.3279216799
83333.327924959
83333.3279302405
83333.3279375465
83333.3279468103
83333.3279579036
83333.3279377708
83333.3279354594
83333.3279335722
83333.327933074
83333.3279343291
83333.3279373776
83333.3279422612
83333.3279490129
83333.3279575999
83333.327967907
83333.3279797748
83333.3279493865
83333.3279472654
83333.3279455927
83333.3279452055
83333.32794642
83333.3279492703
83333.3279537932
83333.3279600205
83333.3279679473
83333.3279774996
83333.3279885373
83333.3280008839
83333.3279603382
83333.3279584303
83333.327957007
83333.3279567672
83333.3279579766
83333.3279606647
83333.3279648694
83333.3279706208
83333.3279779228
83333.3279867387
83333.3279969724
83333.3280084708
83333.3280210529
83333.3279706605
83333.3279689821
83333.3279678378
83333.3279677788
83333.3279690174
83333.3279715795
83333.327975508
83333.327980835
83333.3279875676
83333.3279956866
83333.3280051364
83333.3280158078
83333.3280275423
83333.3280401632
83333.3279803759
83333.3279789495
83333.3279781046
83333.3279782586
83333.3279795592
83333.3279820296
83333.3279857218
83333.3279906728
83333.3279968941
83333.3280043756
83333.3280130836
83333.328022949
83333.328033854
83333.3280456422
83333.3280581477
83333.3279895004
83333.3279883611
83333.3279878326
83333.3279882324
83333.3279896237
83333.3279920334
83333.3279955256
83333.3280001448
83333.3280059085
83333.3280128149
83333.3280208437
83333.3280299476
83333.3280400435
83333.3280510122
83333.3280627113
83333.328074986
83333.3279980532
83333.3279972644
83333.3279970752
83333.3279977423
83333.3279992446
83333.328001618
83333.3280049404
83333.3280092665
83333.3280146209
83333.328021011
83333.3280284276
83333.3280368346
83333.3280461613
83333.3280563221
83333.328067224
83333.3280787292
83333.3280906892
83333.3280061438
83333.3280057178
83333.3280058891
83333.3280068298
83333.3280084488
83333.3280107992
83333.3280139749
83333.3280180405
83333.3280230284
83333.3280289549
83333.3280358206
83333.3280435916
83333.3280521869
83333.3280615617
83333.3280716834
83333.3280824369
83333.3280936769
83333.3281052664
83333.328013702
83333.3280137254
83333.32801425
83333.3280154532
83333.3280171774
83333.3280195088
83333.328022557
83333.3280263928
83333.3280310536
83333.3280365622
83333.3280429229
83333.3280500788
83333.3280579614
83333.3280666035
83333.3280760033
83333.3280860518
83333.3280966111
83333.3281075473
83333.3281187385
83333.3280205931
83333.3280210248
83333.3280219523
83333.3280233974
83333.3280252456
83333.3280275795
83333.3280305284
83333.3280341709
83333.3280385464
83333.3280436774
83333.3280495531
83333.3280561146
83333.327811784
83333.3278128299
83333.3278153773
83333.3278178909
83333.32783143
83333.3278298826
83333.3278308436
83333.3278334894
83333.3278363219
83333.3278531735
83333.3278489505
83333.3278473645
83333.3278482763
83333.3278509444
83333.3278539065
83333.327876193
83333.3278695406
83333.3278655067
83333.3278640315
83333.3278649296
83333.3278675798
83333.3278705734
83333.3278998756
83333.3278911661
83333.3278849236
83333.3278811622
83333.3278797836
83333.3278806656
83333.3278832514
83333.3278861856
83333.3279008105
83333.3278979888
83333.3278955334
83333.327894696
83333.327895986
83333.3278994941
83333.3279052961
83333.3279134206
83333.3279237889
83333.327914592
83333.327911903
83333.3279096144
83333.3279088525
83333.327910071
83333.3279133383
83333.3279187214
83333.3279262602
83333.3279358995
83333.3279475165
83333.3279275742
83333.3279250603
83333.3279229708
83333.3279223139
83333.3279234844
83333.3279265353
83333.3279315211
83333.3279384914
83333.3279474268
83333.3279582169
83333.327970699
83333.3279397973
83333.3279374946
83333.327935641
83333.3279351196
83333.3279362709
83333.3279391367
83333.3279437632
83333.3279501957
83333.3279584422
83333.3279684362
83333.327980036
83333.3279930563
83333.3279513005
83333.3279492353
83333.3279476519
83333.3279472991
83333.3279484628
83333.3279511775
83333.3279554869
83333.3279614317
83333.3279690267
83333.3279782438
83333.3279889886
83333.3280011019
83333.3280143912
83333.3279621247
83333.3279603086
83333.327959029
83333.327958878
83333.3279600864
83333.327962684
83333.3279667173
83333.3279722269
83333.3279792289
83333.3279877117
83333.3279976235
83333.3280088532
83333.3280212335
83333.3280345744
83333.327972296
83333.3279707521
83333.3279697976
83333.3279698805
83333.3279711644
83333.3279736769
83333.3279774729
83333.3279825963
83333.3279890656
83333.3279968772
83333.3280060017
83333.328016371
83333.3280278634
83333.3280403109
83333.3280535321
83333.3279818312
83333.3279805977
83333.3279799825
83333.3279803293
83333.327981717
83333.327984174
83333.3279877686
83333.3279925507
83333.3279985434
83333.3280057495
83333.3280141524
83333.3280237083
83333.3280343357
83333.3280459086
83333.3280582662
83333.3280712388
83333.3279907432
83333.3279898891
83333.3279896288
83333.3279902571
83333.3279917678
83333.3279941952
83333.3279976205
83333.3280021025
83333.3280076697
83333.3280143321
83333.3280220834
83333.3280308932
83333.3280407014
83333.3280514191
83333.328062929
83333.3280750788
83333.3280877087
83333.3279991709
83333.3279986936
83333.3279988067
83333.3279997149
83333.3280013524
83333.3280037666
83333.3280070491
83333.3280112674
83333.3280164559
83333.3280226323
83333.3280297997
83333.3280379359
83333.3280469861
83333.3280568838
83333.3280675622
83333.3280789034
83333.3280907586
83333.3281029804
83333.3280070066
83333.3280070168
83333.3280075217
83333.3280087293
83333.3280104918
83333.3280128993
83333.3280160597
83333.3280200462
83333.3280248985
83333.3280306419
83333.3280372868
83333.3280448118
83333.3280531491
83333.3280622673
83333.3280721515
83333.3280827097
83333.3280938114
83333.3281053153
83333.3281170891
83333.3280141937
83333.3280146214
83333.3280156015
83333.3280171461
83333.3280190855
83333.3280215117
83333.3280245739
83333.3280283613
83333.328032919
83333.3280382763
83333.3280444463
83333.3280513825
83333.3280590283
83333.3280674275
83333.3280765917
83333.3280864292
83333.3280968212
83333.3281076444
83333.3281187707
83333.328130082
83333.3280214615
83333.3280227399
83333.3280246569
83333.3280268556
83333.3280293922
83333.3280324156
83333.3280360525
83333.328040363
83333.3280453787
83333.328051097
83333.3280574685
83333.3278136704
83333.3278124778
83333.327813819
83333.3278167974
83333.327819922
83333.3278362413