/*--------------------------------*- C++ -*----------------------------------*\
  =========                 |
  \\      /  F ield         | OpenFOAM: The Open Source CFD Toolbox
   \\    /   O peration     | Website:  https://openfoam.org
    \\  /    A nd           | Version:  12
     \\/     M anipulation  |
\*---------------------------------------------------------------------------*/
/*   Windows 32 and 64 bit porting by blueCAPE: http://www.bluecape.com.pt   *\
|  Based on Windows porting (2.0.x v4) by Symscape: http://www.symscape.com   |
\*---------------------------------------------------------------------------*/
FoamFile
{
    format      ascii;
    class       surfaceScalarField;
    location    "400";
    object      phi;
}
// * * * * * * * * * * * * * * * * * * * * * * * * * * * * * * * * * * * * * //

dimensions      [0 3 -1 0 0 0 0];

internalField   nonuniform List<scalar> 
28973
(
1.6948297017387e-06
-7.83944247671979e-09
-8.21281059048432e-08
1.79376940792783e-06
-7.54539832072382e-09
-9.13887878743715e-08
2.35238241557382e-06
-2.89785803428364e-08
-9.00590208929536e-08
7.14099586353986e-08
2.36449721928468e-08
-1.45363509200607e-07
1.90036031777269e-06
-7.92344642387775e-09
-9.86617462364522e-08
2.47477402901184e-06
-2.9983904706578e-08
-9.99399154104375e-08
1.14970552753431e-07
2.50559639228768e-08
-1.60005378482007e-07
2.60596362822805e-06
-5.15503387531034e-08
-9.92454192807545e-08
8.73301172377805e-08
5.20572491058788e-08
-1.62369755347858e-07
1.15635122796081e-07
1.6130690751324e-08
-2.03475974315506e-07
2.01551520958331e-06
-9.25591743526828e-09
-1.05896635851151e-07
2.60588992836747e-06
-3.18470121513174e-08
-1.0718745859078e-07
1.64309041041056e-07
2.61628047007071e-08
-1.74162325951754e-07
2.74082246345717e-06
-5.44627969995156e-08
-1.10379595282784e-07
1.36126560986134e-07
5.46715637247631e-08
-1.78348862696427e-07
1.61628253919202e-07
1.65355247643884e-08
-2.22533451093139e-07
2.93974400856938e-06
-7.65242734562445e-08
-1.09655842851782e-07
2.52188146083581e-08
8.78761362702096e-08
-1.81135278221449e-07
1.11761942376352e-07
3.83819013591367e-08
-2.30465593552491e-07
1.81813132404628e-07
1.19417926698461e-08
-2.60060896437454e-07
2.14031209469369e-06
-1.08409613368207e-08
-1.13951933710772e-07
2.74590112876465e-06
-3.51472801757579e-08
-1.14122797362661e-07
2.2014774254483e-07
2.6733038897311e-08
-1.88466098321009e-07
2.88585883997366e-06
-5.85497730304827e-08
-1.1832939551166e-07
1.91348264607611e-07
5.71018679752757e-08
-1.93343536774285e-07
2.12886746591454e-07
1.67313503082592e-08
-2.42151862773965e-07
3.08902237237767e-06
-8.16237732231496e-08
-1.22110425191603e-07
7.6390792981625e-08
9.21103953929896e-08
-1.98990490967453e-07
1.61891475344964e-07
3.94828536550411e-08
-2.51425773597135e-07
2.30688413187461e-07
1.19842481233127e-08
-2.8339245696997e-07
3.25722009765571e-06
-1.06583032470229e-07
-1.16005821064179e-07
4.12447925667847e-09
1.27945632510609e-07
-1.99252622112462e-07
7.6182256295545e-08
6.79126985200886e-08
-2.60492151287652e-07
1.96957453472171e-07
2.75657703441483e-08
-2.95378361588998e-07
2.33920659869307e-07
8.41970746718122e-09
-3.14027546008017e-07
2.27562236707751e-06
-1.28542402406919e-08
-1.22456718211583e-07
2.89651118134971e-06
-3.9409727995794e-08
-1.22041849510291e-07
2.82558783478476e-07
2.6994567701407e-08
-2.03357651871452e-07
3.04074958150375e-06
-6.46156897164974e-08
-1.25421686890914e-07
2.53550764883385e-07
5.86918419502875e-08
-2.08281047890201e-07
2.70061907010959e-07
1.66221352563747e-08
-2.62263388409549e-07
3.25008148135705e-06
-8.87236245303316e-08
-1.30896161592084e-07
1.34845054733712e-07
9.5924975549501e-08
-2.15607000315458e-07
2.1785620734233e-07
4.04292886048958e-08
-2.73007604970695e-07
2.84462994082154e-07
1.18504462441608e-08
-3.07776738713504e-07
3.41904875581698e-06
-1.13907953913481e-07
-1.29533856706264e-07
5.89164912747521e-08
1.3418767925564e-07
-2.18978826991218e-07
1.30459193038139e-07
7.01776724829798e-08
-2.83961051891546e-07
2.50882126744185e-07
2.77612009435588e-08
-3.21127112334591e-07
2.83768879462475e-07
8.1893703641694e-09
-3.41430065151165e-07
3.50879857748366e-06
-1.42912398516366e-07
-1.17491333577189e-07
-5.87509167266907e-09
1.68325537644582e-07
-2.08642448294041e-07
5.54663255761249e-08
1.01610111809771e-07
-2.86571995617241e-07
1.93253119946347e-07
4.80761635755669e-08
-3.35760496811856e-07
2.56156490492231e-07
1.93637642408545e-08
-3.56463058811394e-07
2.73525966412087e-07
5.72489245307442e-09
-3.64938099291123e-07
2.4224165592829e-06
-1.5637766079555e-08
-1.31153134143208e-07
3.05878305351704e-06
-4.49942252222907e-08
-1.30123230142757e-07
3.52013815306417e-07
2.68819984041835e-08
-2.18791280019243e-07
3.20724275484912e-06
-7.22793415489709e-08
-1.33618658038807e-07
3.22786263510534e-07
5.95750000386815e-08
-2.23861689906026e-07
3.33446876240468e-07
1.62274844434526e-08
-2.82969949440873e-07
3.42198478672004e-06
-9.81876100005151e-08
-1.38328711816366e-07
2.01512380852596e-07
9.85997866943154e-08
-2.31995074059206e-07
2.80486208170472e-07
4.071230404105e-08
-2.95000812859779e-07
3.43771646730061e-07
1.14201655273547e-08
-3.3299208481021e-07
3.59358685807944e-06
-1.24237504699489e-07
-1.39025899069451e-07
1.21636994561493e-07
1.39522011364929e-07
-2.37219222491112e-07
1.91444471976149e-07
7.20663163330788e-08
-3.08227487366711e-07
3.10149458905621e-07
2.77932314721666e-08
-3.48216781480224e-07
3.38330297903088e-07
7.82457663048967e-09
-3.70162551477806e-07
3.67892046214649e-06
-1.52355492725188e-07
-1.31682686850853e-07
5.16452168895944e-08
1.7676824756803e-07
-2.29634363648808e-07
1.13573823945893e-07
1.05408998870348e-07
-3.12317288291007e-07
2.53006156893123e-07
4.87492723442101e-08
-3.64700741379602e-07
3.11015954241118e-07
1.89842862953103e-08
-3.86780583168407e-07
3.22886702577548e-07
5.33207930189647e-09
-3.96122566966337e-07
3.69736584970214e-06
-1.84843648429721e-07
-1.16292809519429e-07
-1.25243815521034e-08
2.06905529767394e-07
-2.09883059803679e-07
3.60289883381079e-08
1.35848890618005e-07
-2.98608920755808e-07
1.90870436370111e-07
7.13030842279127e-08
-3.69068907120966e-07
2.68163591679664e-07
3.27692478953792e-08
-4.05085963553952e-07
2.98608643799717e-07
1.24745966866651e-08
-4.12837014764109e-07
3.01680116492135e-07
3.30640521157005e-09
-4.12270246875921e-07
2.58175853765577e-06
-1.93505223283408e-08
-1.39989389603661e-07
3.23379001305564e-06
-5.19934826105908e-08
-1.38656493383212e-07
4.29069344472558e-07
2.64928785130177e-08
-2.34701042382034e-07
3.38687933908849e-06
-8.19075430687926e-08
-1.42726971495607e-07
3.9986141727142e-07
5.97222820872746e-08
-2.40036622965084e-07
4.03474000943981e-07
1.54688363658958e-08
-3.0428724354839e-07
3.60650609492524e-06
-1.09891017417516e-07
-1.46912652722495e-07
2.76306131865319e-07
1.0025308917692e-07
-2.49084457543078e-07
3.50133264836903e-07
4.02982986999035e-08
-3.17578683871318e-07
4.09054142473304e-07
1.07003954737244e-08
-3.58952490937766e-07
3.77960878295771e-06
-1.37475700539734e-07
-1.46738982225579e-07
1.93488079744454e-07
1.43468644557539e-07
-2.55048343671474e-07
2.60093233840527e-07
7.29869128035438e-08
-3.32919605519532e-07
3.75544092700828e-07
2.72243879915492e-08
-3.7619916565134e-07
3.98100713174509e-07
7.20640900137046e-09
-3.99968586341786e-07
3.86225215738128e-06
-1.65763600862627e-07
-1.41797378001524e-07
1.17298018915426e-07
1.83824172147462e-07
-2.48980858930861e-07
1.78972729300119e-07
1.08440293453696e-07
-3.38991011623315e-07
3.188596261486e-07
4.90507925810286e-08
-3.95338026500535e-07
3.70946741344988e-07
1.84220737733658e-08
-4.18743914297362e-07
3.76734666366718e-07
4.79667994414995e-09
-4.28806909927428e-07
3.87225508786601e-06
-1.96210710809089e-07
-1.31028340388998e-07
4.64433847131985e-08
2.17661906755588e-07
-2.31543156771548e-07
9.61288213216722e-08
1.41327540014552e-07
-3.25651660373433e-07
2.55327316035043e-07
7.26967263465841e-08
-4.00721398558403e-07
3.29247805928571e-07
3.23780624397092e-08
-4.39177878461311e-07
3.52821569847603e-07
1.16790905173889e-08
-4.47340535166721e-07
3.49665887298111e-07
2.77724925402637e-09
-4.46885520632156e-07
3.85578694007111e-06
-2.31957769337725e-07
-1.13583834494363e-07
-1.62342680433157e-08
2.42576591678376e-07
-2.06689992929464e-07
1.70580935519346e-08
1.68443480685284e-07
-2.98890040891021e-07
1.80697638144327e-07
9.48594249748083e-08
-3.83654585836827e-07
2.76334507388125e-07
4.75312737307842e-08
-4.44399142825059e-07
3.19498796078071e-07
2.04340693950716e-08
-4.6844920617364e-07
3.29791005593645e-07
6.53167725087764e-09
-4.64539342926861e-07
3.2096640040893e-07
1.0866747928114e-09
-4.55839354555269e-07
2.75510771882799e-06
-2.43946464477775e-08
-1.48949794068755e-07
3.4225695756782e-06
-6.04400519389298e-08
-1.47700469746332e-07
5.1429015075537e-07
2.58019215216014e-08
-2.51010356043145e-07
3.58088046723188e-06
-9.3901749055823e-08
-1.52080001988953e-07
4.85464496486823e-07
5.89585061210933e-08
-2.56724036421156e-07
4.80596088597753e-07
1.43268166437042e-08
-3.26150240625213e-07
3.8054721164054e-06
-1.24274717168612e-07
-1.56604294133311e-07
3.59337679328762e-07
1.00798092444625e-07
-2.66835941707416e-07
4.27208779771138e-07
3.91343270278078e-08
-3.40777918211324e-07
4.80745910798689e-07
9.61871221451962e-09
-3.8559715331586e-07
3.97888467302779e-06
-1.53620646221881e-07
-1.5554534349305e-07
2.7437847088027e-07
1.46105899466413e-07
-2.73660061486935e-07
3.36643465151432e-07
7.2864771564122e-08
-3.58200274395888e-07
4.47622632793088e-07
2.59675179579131e-08
-4.04923585065739e-07
4.63521960319194e-07
6.30031299218501e-09
-4.3067389801669e-07
4.05737305845321e-06
-1.82843301168412e-07
-1.49765149373276e-07
1.92571771851405e-07
1.89178599570635e-07
-2.67721524372982e-07
2.52845029858505e-07
1.10185205170073e-07
-3.66116436856836e-07
3.91703998592777e-07
4.8470895765674e-08
-4.27010255820127e-07
4.36565424656592e-07
1.73258114979636e-08
-4.5193675794076e-07
4.35476687597677e-07
4.01972988189835e-09
-4.62730263658601e-07
4.06041865920329e-06
-2.12494822247099e-07
-1.41433298680894e-07
1.1343649257581e-07
2.26537829287311e-07
-2.51501370123067e-07
1.63646545441468e-07
1.4563775365615e-07
-3.53694882856684e-07
3.26385588413455e-07
7.33708469640174e-08
-4.34367970836065e-07
3.96043741451638e-07
3.15987602088595e-08
-4.75309170444775e-07
4.11870097482185e-07
1.06602965969508e-08
-4.83655951345635e-07
4.01876404625235e-07
2.09783275041045e-09
-4.83115372933591e-07
4.03335610903114e-06
-2.44995281271172e-07
-1.28794291598746e-07
4.34394026044432e-08
2.55674891244189e-07
-2.28713417827811e-07
7.76240816555675e-08
1.75625239538577e-07
-3.2640781856425e-07
2.47348287755297e-07
9.70854202921673e-08
-4.1669007828759e-07
3.42345128366537e-07
4.72498397892177e-08
-4.81603519969188e-07
3.79960989205829e-07
1.92745902773077e-08
-5.07235349091282e-07
3.82632812985013e-07
5.39661659357112e-09
-5.02801062265369e-07
3.67149876094164e-07
4.503808349175e-10
-4.93519246998277e-07
4.01901168388109e-06
-2.84958897754825e-07
-1.0953191270855e-07
-1.71046774915715e-08
2.74405653320417e-07
-2.00944182553862e-07
5.08415428320597e-10
1.98428128284039e-07
-2.93226278416572e-07
1.65879502994867e-07
1.17213969607878e-07
-3.83313289355836e-07
2.72303681556441e-07
6.25090365680284e-08
-4.6145180962376e-07
3.34489815436281e-07
2.90678567028773e-08
-5.13102507144215e-07
3.57929138872642e-07
1.03193184726838e-08
-5.26565978864903e-07
3.52310119591599e-07
1.48838005713775e-09
-5.11924052033852e-07
3.33846615356776e-07
-9.45624510194051e-10
-4.95665861506877e-07
2.94406809745089e-06
-3.10909453112861e-08
-1.57876662258268e-07
3.62540195878899e-06
-7.10782236896405e-08
-1.56139958110111e-07
6.08402513954647e-07
2.45003146749105e-08
-2.67562179369898e-07
3.79028553759546e-06
-1.08567746684256e-07
-1.61276102657465e-07
5.80104813742846e-07
5.72146972150486e-08
-2.7375371201317e-07
5.6527441751771e-07
1.27623999666917e-08
-3.48450980375336e-07
4.02028751207721e-06
-1.41912975127315e-07
-1.66807346296245e-07
4.51244017130629e-07
1.00056673780665e-07
-2.85082877997197e-07
5.12169144121713e-07
3.71480083509656e-08
-3.64505726640446e-07
5.59275047994976e-07
8.15003097866268e-09
-4.12829605239845e-07
4.19340794508204e-06
-1.73146699401348e-07
-1.65646589955221e-07
3.64294603034891e-07
1.47327253080776e-07
-2.9305149153033e-07
4.21450676905965e-07
7.16241273433419e-08
-3.84132064311651e-07
5.26835115590304e-07
2.39708585565067e-08
-4.34341489963928e-07
5.35025385723903e-07
5.05160019259781e-09
-4.62152417239345e-07
4.26591020804264e-06
-2.03492171978755e-07
-1.58673280763217e-07
2.77432482158299e-07
1.9295026531583e-07
-2.8724972327093e-07
3.35337801340503e-07
1.10578902728444e-07
-3.93864902296845e-07
4.72075385667404e-07
4.68581324781995e-08
-4.59461617855734e-07
5.08423266474254e-07
1.55851993417135e-08
-4.86065978556476e-07
4.99514163336913e-07
2.96460397620913e-09
-4.97675843621394e-07
4.26027802879373e-06
-2.33242925559586e-07
-1.4947020536974e-07
1.90152661207367e-07
2.33395760092436e-07
-2.70695483574056e-07
2.39955884386873e-07
1.48333648631149e-07
-3.82181269351361e-07
4.05085994631948e-07
7.28541978922292e-08
-4.69199190683279e-07
4.69246499396034e-07
3.0018825194651e-08
-5.12905967443303e-07
4.76235647220676e-07
9.14540920288562e-09
-5.21427210996428e-07
4.58637360046941e-07
1.20684312068534e-09
-5.20697969246423e-07
4.22401193825653e-06
-2.63924853036559e-07
-1.3921025278606e-07
1.10958915014421e-07
2.66473256128913e-07
-2.48885448133687e-07
1.45456892787856e-07
1.81265196528001e-07
-3.54959901244874e-07
3.20705653000039e-07
9.82220027774018e-08
-4.51902757175917e-07
4.14492868982956e-07
4.62644173323868e-08
-5.21180832080797e-07
4.45850462405549e-07
1.76933928380877e-08
-5.48231927874442e-07
4.40052315567674e-07
4.01147051895623e-09
-5.42988993226862e-07
4.17260011186671e-07
-3.28872492379268e-10
-5.32896663332436e-07
4.19846510098946e-06
-2.99448312366616e-07
-1.24999213131349e-07
4.30817243526419e-08
2.89839493391006e-07
-2.23148937111155e-07
6.09337964482045e-08
2.07309989452668e-07
-3.20822953366064e-07
2.32949794523276e-07
1.20306021943287e-07
-4.16697747007846e-07
3.40614135744952e-07
6.24220655790806e-08
-5.00171586645622e-07
3.99935444651661e-07
2.76018140387343e-08
-5.55375684496655e-07
4.17098260343637e-07
8.56901920187986e-09
-5.69576975122283e-07
4.03395773734426e-07
9.31653844326952e-11
-5.53529464521422e-07
3.78061965935302e-07
-1.69098628905429e-09
-5.36043541337144e-07
4.21268656562886e-06
-3.45334596087739e-07
-1.03711693976239e-07
-1.55960930371077e-08
3.01152533367064e-07
-1.92793745069133e-07
-1.37877920866353e-08
2.25249990820004e-07
-2.84463516128652e-07
1.509459261735e-07
1.37600722006891e-07
-3.75707482826451e-07
2.6076341002626e-07
7.68001458695867e-08
-4.61021492837598e-07
3.35019807988643e-07
3.790588765541e-08
-5.32680260645449e-07
3.78942354691589e-07
1.44835208233082e-08
-5.76357143277758e-07
3.86790505012606e-07
2.07705370506213e-09
-5.80072397304596e-07
3.67897168047983e-07
-2.66046586645429e-09
-5.55481938047841e-07
3.41778846200509e-07
-2.61881441520157e-09
-5.32031750940194e-07
3.14970860502151e-06
-3.90070582180283e-08
-1.66634263936407e-07
3.84398422757461e-06
-8.54002497535223e-08
-1.64273290633722e-07
7.12167959142265e-07
2.25640358158906e-08
-2.84208581836173e-07
4.01523553711592e-06
-1.26419231750908e-07
-1.69609028705434e-07
6.84914773263322e-07
5.43777714826182e-08
-2.9082486646676e-07
6.58004083775483e-07
1.070537071975e-08
-3.70997903276291e-07
4.2520104581898e-06
-1.63329833704009e-07
-1.76965018803303e-07
5.52864734195681e-07
9.79504592673421e-08
-3.03636206392354e-07
6.05517946775745e-07
3.4252443184897e-08
-3.8859089616916e-07
6.45068633892906e-07
6.24385916983091e-09
-4.40488297801089e-07
4.42482349507607e-06
-1.96788585482977e-07
-1.76545287266835e-07
4.63583603102232e-07
1.4692634970436e-07
-3.12966770688347e-07
5.14984626695292e-07
6.91353322735791e-08
-4.10603875843542e-07
6.13632708027217e-07
2.11747275255824e-08
-4.64327766193404e-07
6.130330306625e-07
3.42496140561972e-09
-4.94262298812575e-07
4.4898962951784e-06
-2.28246862908448e-07
-1.68898092149856e-07
3.71761613302798e-07
1.95038299294153e-07
-3.07683079181031e-07
4.26717591796228e-07
1.09522075071724e-07
-4.22328895180433e-07
5.60423639129458e-07
4.41231323141281e-08
-4.92632166150465e-07
5.86988458958226e-07
1.31393033103427e-08
-5.20993089274379e-07
5.69229132837156e-07
1.60538835678258e-09
-5.33472418776105e-07
4.47340573058289e-06
-2.5824796445475e-07
-1.58385341181989e-07
2.7657141278588e-07
2.38456193509628e-07
-2.90601245817081e-07
3.25186531121088e-07
1.49400847184003e-07
-4.11301915125376e-07
4.91951497835265e-07
7.09935774277133e-08
-5.04865730854162e-07
5.49429618049677e-07
2.74719903298185e-08
-5.51531035539038e-07
5.46403820085663e-07
7.0302786499998e-09
-5.60299594943722e-07
5.20285646808509e-07
6.72257857647298e-11
-5.5939147750148e-07
4.4260531292218e-06
-2.8802127562854e-07
-1.47258357152782e-07
1.88099622467694e-07
2.74986938387128e-07
-2.68201910191439e-07
2.22035396424864e-07
1.84987620887903e-07
-3.83927956286205e-07
4.0191869475448e-07
9.78484884297959e-08
-4.88387547214746e-07
4.93571420902232e-07
4.41896253113411e-08
-5.62447805257363e-07
5.17696451219539e-07
1.536819775376e-08
-5.90973978078e-07
5.02433067329589e-07
2.18037986886644e-09
-5.84781178862553e-07
4.71579612200123e-07
-1.30527750615528e-09
-5.73712059505311e-07
4.3905861445582e-06
-3.20596624885674e-07
-1.35463008726921e-07
1.1097004244714e-07
3.02707163469369e-07
-2.43337200188573e-07
1.28406553337918e-07
2.14348573393028e-07
-3.49442872610004e-07
3.06592098704636e-07
1.21977740799064e-07
-4.52356490636205e-07
4.15147738161442e-07
6.12995104142244e-08
-5.4147056386274e-07
4.71211624080691e-07
2.54280711182546e-08
-6.00191178413974e-07
4.81413502163811e-07
6.37753517851664e-09
-6.14912528674457e-07
4.58774444466163e-07
-1.55070216625653e-09
-5.9714553068114e-07
4.25917476826463e-07
-2.56667648003763e-09
-5.78185571070716e-07
4.39368383838382e-06
-3.60802482463831e-07
-1.19633003083907e-07
4.5291435583958e-08
3.19010844488861e-07
-2.15053849024751e-07
4.64843056376106e-08
2.35857182717812e-07
-3.11967235570086e-07
2.17829019064472e-07
1.41584693503466e-07
-4.08983950701999e-07
3.29574033313391e-07
7.69635612800535e-08
-5.00049434168745e-07
4.02879781581086e-07
3.62042973937236e-08
-5.76633769138757e-07
4.43212910345412e-07
1.21419063116155e-08
-6.23219163110718e-07
4.44288763571438e-07
-1.15109386767557e-10
-6.26866699787924e-07
4.17002039953343e-07
-4.2525251625471e-09
-6.00072865411897e-07
3.83949866743613e-07
-3.42676719945317e-09
-5.74787941421743e-07
4.45474290345015e-06
-4.15568728755072e-07
-9.58379276352255e-08
-1.21217225275447e-08
3.21415037876583e-07
-1.81760756462324e-07
-2.74960170416318e-08
2.48275432902711e-07
-2.7284513950365e-07
1.37151661358786e-07
1.55547218776729e-07
-3.64577739771349e-07
2.47623019298484e-07
8.97469829301723e-08
-4.52129553762581e-07
3.26178052630382e-07
4.63868249972103e-08
-5.32573901755975e-07
3.83731114793294e-07
1.8818395876716e-08
-5.98559174129818e-07
4.13178250511535e-07
2.85773845117948e-09
-6.34912245599014e-07
4.0748227929184e-07
-4.49156116724771e-09
-6.2946251542383e-07
3.77668904475889e-07
-5.94491589277573e-09
-5.95560574393438e-07
3.45295131364676e-07
-3.85382730552942e-09
-5.65264242733386e-07
3.37313541321039e-06
-4.82760422103406e-08
-1.75149781547486e-07
4.08042345940732e-06
-1.03751347215992e-07
-1.71693479471548e-07
8.26331041796575e-07
1.99327257476789e-08
-3.00728380801194e-07
4.25596673071389e-06
-1.49112037382705e-07
-1.77030590416119e-07
8.0085979553445e-07
5.01098313069561e-08
-3.07765354722438e-07
7.59317840129832e-07
8.08950590374252e-09
-3.93611423071433e-07
4.50152987148598e-06
-1.89094784370182e-07
-1.86847346417841e-07
6.65428893601734e-07
9.43639069605433e-08
-3.22160615785328e-07
7.07875298799098e-07
3.03222313549325e-08
-4.12798726361432e-07
7.38597784543975e-07
3.83163640688177e-09
-4.68358217298635e-07
4.67425566783278e-06
-2.2532101503287e-07
-1.87451943409015e-07
5.73128906835185e-07
1.44663613485006e-07
-3.33222003035395e-07
6.17771886157054e-07
6.52402779177278e-08
-4.37408450467161e-07
7.08500436632323e-07
1.7471170125341e-08
-4.94686221885415e-07
6.97951408502696e-07
1.38631780078112e-09
-5.26792648636111e-07
4.73115614897701e-06
-2.57943252742412e-07
-1.80111986436622e-07
4.75643988075863e-07
1.95210967714877e-07
-3.28716012526653e-07
5.2744702193079e-07
1.0681858521344e-07
-4.51377776375242e-07
6.57225461414898e-07
4.01501169477382e-08
-5.26380661277365e-07
6.72705319322021e-07
9.91729289562388e-09
-5.5653652519744e-07
6.44994548768697e-07
-1.02466610340525e-10
-5.69924942046231e-07
4.70176172820149e-06
-2.88059683894354e-07
-1.68554375601753e-07
3.72595283918747e-07
2.41590189675263e-07
-3.11467687449115e-07
4.19515742248391e-07
1.48711703447005e-07
-4.41202077371458e-07
5.87396778064868e-07
6.76529314593849e-08
-5.41303483044186e-07
6.37082162695766e-07
2.38551000331788e-08
-5.90999970239706e-07
6.22805522013223e-07
4.27805326702957e-09
-6.00067417701514e-07
5.87176546704576e-07
-1.35903796268606e-09
-5.99004273308045e-07
4.64093689585984e-06
-3.16976444071968e-07
-1.56153952399874e-07
2.74846534384446e-07
2.81530874204535e-07
-2.88206467255266e-07
3.07496496753018e-07
1.86851624774459e-07
-4.13510422376562e-07
4.91508952078236e-07
9.58404827658898e-08
-5.25738279715394e-07
5.8017115509997e-07
4.08457982950214e-08
-6.04838908709862e-07
5.96005616675342e-07
1.21450799022216e-08
-6.34954788299308e-07
5.70196669882607e-07
-1.92397596211406e-10
-6.27803293923999e-07
5.30413273281175e-07
-2.51147032902169e-09
-6.1571358554305e-07
4.59363034416412e-06
-3.47599100767079e-07
-1.43465964162367e-07
1.88303666021412e-07
3.13038476692682e-07
-2.62642364236414e-07
2.04431537007742e-07
2.19212588449146e-07
-3.78453213788132e-07
3.87993183713193e-07
1.21839863345909e-07
-4.89319713233715e-07
4.96757789491507e-07
5.87867115893916e-08
-5.84594328170056e-07
5.48910658635031e-07
2.22366946790826e-08
-6.47014397827794e-07
5.51299633651981e-07
3.49237908497833e-09
-6.62172056924539e-07
5.18773006595128e-07
-3.61488973189988e-09
-6.42470066285825e-07
4.77659217372261e-07
-3.62105524332679e-09
-6.21832832076158e-07
4.58697728405766e-06
-3.83733049753572e-07
-1.30169697279114e-07
1.13667330668231e-07
3.34045919781809e-07
-2.35181450222421e-07
1.13589402661439e-07
2.44397539180714e-07
-3.40487725225755e-07
2.91069854171221e-07
1.43880536099911e-07
-4.44584979363284e-07
4.04484581618746e-07
7.579731440035e-08
-5.41764012304097e-07
4.76668677901484e-07
3.34965955501043e-08
-6.23328237265943e-07
5.13034227222171e-07
9.09385269426891e-09
-6.7272832023541e-07
5.06634907913615e-07
-2.74800033515029e-09
-6.76061371844109e-07
4.70100342842999e-07
-6.08639282247248e-09
-6.46723957541643e-07
4.29472934935573e-07
-4.35388066224835e-09
-6.19354775577093e-07
4.63731737947218e-06
-4.31484685691959e-07
-1.11884775194889e-07
4.9701603635764e-08
3.41581376226819e-07
-2.0403072511028e-07
3.27987406396358e-08
2.60652330608655e-07
-3.00143308724999e-07
2.03878274977136e-07
1.60466096926626e-07
-3.97573906098345e-07
3.16338750568875e-07
9.02106811353398e-08
-4.90944799421786e-07
3.9466197297803e-07
4.45185601419063e-08
-5.76847513127233e-07
4.5057756371571e-07
1.59445192122994e-08
-6.47283071242135e-07
4.75884027406415e-07
-1.26199052466562e-10
-6.85913985534678e-07
4.63007272992837e-07
-6.99874511254898e-09
-6.79644986278636e-07
4.24633318029897e-07
-7.66606240842653e-09
-6.42798067118732e-07
3.8532431608214e-07
-4.71506829233169e-09
-6.10102049968882e-07
4.7608050059241e-06
-4.97227665083644e-07
-8.62639684710026e-08
-7.43191393079451e-09
3.33571046749377e-07
-1.67353758680123e-07
-4.26690326665581e-08
2.66748935662661e-07
-2.57781808517735e-07
1.23567105868714e-07
1.70585340952494e-07
-3.50315364157583e-07
2.3502359127228e-07
1.00880419211541e-07
-4.39287179903216e-07
3.1466943860394e-07
5.39342367478975e-08
-5.22873742928638e-07
3.77474594090719e-07
2.29413198175687e-08
-5.99032946629447e-07
4.21800871743303e-07
3.73972423284027e-09
-6.59782728537583e-07
4.38238724806629e-07
-6.31258456719834e-09
-6.89195759894041e-07
4.20999286905864e-07
-9.58924300736322e-09
-6.75097558107199e-07
3.82199053135542e-07
-8.40064808250435e-09
-6.32360977540005e-07
3.44539004450705e-07
-4.71045415465559e-09
3.61584465654073e-06
-5.93337931716647e-08
-1.83376254951086e-07
4.33570870147715e-06
-1.25138598209413e-07
-1.78419520562365e-07
9.51652678777132e-07
1.64499339192113e-08
-3.16921981486079e-07
4.51534364341794e-06
-1.77792746730877e-07
-1.85324912076217e-07
9.28863479910708e-07
4.45342699996952e-08
-3.24298551765535e-07
8.69774118450561e-07
4.78791626533832e-09
-4.15972014461506e-07
4.76828181431133e-06
-2.20455162677605e-07
-1.9541408461912e-07
7.90368887614094e-07
8.85342137385045e-08
-3.40395231896777e-07
8.19887959666232e-07
2.51636852478471e-08
-4.36852970227356e-07
8.40358299105095e-07
8.10715095261804e-10
-4.96182210472505e-07
4.94260067356893e-06
-2.59445280267798e-07
-1.97992629877935e-07
6.93992788072799e-07
1.40199681592499e-07
-3.53539552575804e-07
7.30471560117346e-07
5.97290490970241e-08
-4.64267229216177e-07
8.11972826126689e-07
1.27236653844839e-08
-5.25162884659826e-07
7.90204538012574e-07
-1.12158505778151e-09
-5.59489574509902e-07
4.99096436999381e-06
-2.93538759777594e-07
-1.91588002613547e-07
5.89903333172409e-07
1.93081061568515e-07
-3.5013206887385e-07
6.38046006419709e-07
1.02204096772158e-07
-4.80785313076558e-07
7.63000045876128e-07
3.47670207729083e-08
-5.60477492089087e-07
7.66029894120414e-07
5.83331413860694e-09
-5.92457876391071e-07
7.27200077844858e-07
-2.20661230730311e-09
-6.06791690883591e-07
4.94728805370122e-06
-3.23632318766069e-07
-1.79846196414417e-07
4.78232424953031e-07
2.42498281615242e-07
-3.3303586354828e-07
5.23359291651464e-07
1.46013041020995e-07
-4.71754933363068e-07
6.91887937822732e-07
6.26451995976618e-08
-5.78362884573977e-07
7.32678995679888e-07
1.90492001868509e-08
-6.31109418761126e-07
7.05861584381392e-07
8.07520612308083e-10
-6.40502744415051e-07
6.5966425877001e-07
-3.11070478483314e-09
-6.39302008938372e-07
4.87058476772304e-06
-3.51449103073597e-07
-1.66261534383819e-07
3.71131511797658e-07
2.85952712460561e-07
-3.09205807147197e-07
4.01948828099437e-07
1.86698150566024e-07
-4.43905526231374e-07
5.89845168324673e-07
9.20205359752624e-08
-5.63904466866835e-07
6.7477604448272e-07
3.60797283637919e-08
-6.48132142125245e-07
6.81251075826716e-07
7.92729568609695e-09
-6.7989427950928e-07
6.43739054710128e-07
-3.1682325327052e-09
-6.71800237555928e-07
5.94077271590651e-07
-3.98553796338445e-09
-6.58682632702244e-07
4.80898102928145e-06
-3.80008082576253e-07
-1.52313902024027e-07
2.75057455838934e-07
3.21263216538458e-07
-2.82639877839919e-07
2.89124177831515e-07
2.22027864179585e-07
-4.08075902564965e-07
4.77668294237334e-07
1.19807350548761e-07
-5.27152284898924e-07
5.86046409914471e-07
5.47159029619298e-08
-6.2889586093495e-07
6.33563017264439e-07
1.78555631308887e-08
-6.95201215801392e-07
6.2720109032919e-07
-2.25908546150953e-10
-7.1082232957678e-07
5.83761707814259e-07
-6.18221584057562e-09
-6.89121084826244e-07
5.33560757890554e-07
-4.8890161788962e-09
-6.66726029464459e-07
4.79056600291766e-06
-4.1312123632469e-07
-1.38054629495171e-07
1.91314777137395e-07
3.46307367380744e-07
-2.54385673874354e-07
1.89009019549713e-07
2.50541326049563e-07
-3.69388559866206e-07
3.71857882115884e-07
1.44104438293691e-07
-4.8150434390185e-07
4.86359854581387e-07
7.29564487614466e-08
-5.85364148275995e-07
5.570138587825e-07
2.94861505974155e-08
-6.72188803677365e-07
5.88875833014956e-07
5.08461664980363e-09
-7.24447866856454e-07
5.74188682483943e-07
-6.03524707314479e-09
-7.27305225955256e-07
5.2748515892801e-07
-8.31162404835191e-09
-6.95164104412992e-07
4.78578201342917e-07
-5.44893520613453e-09
-6.6548912695343e-07
4.83169911724755e-06
-4.55670294696673e-07
-1.22449263046326e-07
1.18814559476792e-07
3.58769357056e-07
-2.24012041132485e-07
9.96837068193212e-08
2.70791352573509e-07
-3.28459501728191e-07
2.7672665808729e-07
1.63490479454281e-07
-4.32945376493136e-07
3.90959724621907e-07
8.91025670760161e-08
-5.32509762469218e-07
4.68979688973e-07
4.13771246211619e-08
-6.23962256595942e-07
5.23096534900585e-07
1.20884799490265e-08
-6.9884173663032e-07
5.43839603319112e-07
-3.80219505721151e-09
-7.39629703367816e-07
5.23056793130793e-07
-9.93260888520116e-09
-7.32264467774346e-07
4.7527839486225e-07
-9.61027808874214e-09
-6.92112640537054e-07
4.28419865500219e-07
-5.66434334470745e-09
-6.56786038220909e-07
4.94479192810924e-06
-5.13491324360638e-07
-1.01968156019062e-07
5.5690004641894e-08
3.55957897931592e-07
-1.89376539896322e-07
1.78113137477446e-08
2.80872458092217e-07
-2.84729108578805e-07
1.90310675518294e-07
1.76477577123391e-07
-3.82898127845464e-07
3.0367240526995e-07
1.01694786181244e-07
-4.77706231108445e-07
3.8316346177877e-07
5.1959151986877e-08
-5.66878806746407e-07
4.45085074633023e-07
1.96046416557958e-08
-6.48117921248104e-07
4.87214701399019e-07
1.23893789192661e-11
-7.12835185431713e-07
4.98999107584109e-07
-9.74731766164911e-09
-7.43925729761087e-07
4.74289441523993e-07
-1.23021928365191e-08
-7.28299399073452e-07
4.26858206694943e-07
-1.02160524647717e-08
-6.81956261803751e-07
3.82266290048442e-07
-5.59139339389911e-09
-6.42237935215166e-07
5.14695887809179e-06
-5.92034919250396e-07
-7.56132445190276e-08
-2.44749402286638e-09
3.35361305657263e-07
-1.49220048548133e-07
-6.16473037533534e-08
2.7975461026194e-07
-2.38557191204535e-07
1.08595077181743e-07
1.82177272164758e-07
-3.32261982699755e-07
2.22546549055503e-07
1.09803767890176e-07
-4.23099010609873e-07
3.03298646018393e-07
6.01230696671354e-08
-5.08822848899765e-07
3.67578007291057e-07
2.64025222403927e-08
-5.88870205539464e-07
4.17935840619633e-07
4.47360581721557e-09
-6.60995634277924e-07
4.50024412002611e-07
-8.10858707767361e-09
-7.16715600331666e-07
4.55028458799489e-07
-1.3388746473728e-08
-7.3951150861965e-07
4.2801650600606e-07
-1.33918648607969e-08
-7.17158328025103e-07
3.81768576408753e-07
-1.00968534289051e-08
3.87911935027891e-06
-1.90795548149114e-07
-7.24799985340882e-08