/*--------------------------------*- C++ -*----------------------------------*\
  =========                 |
  \\      /  F ield         | OpenFOAM: The Open Source CFD Toolbox
   \\    /   O peration     | Website:  https://openfoam.org
    \\  /    A nd           | Version:  12
     \\/     M anipulation  |
\*---------------------------------------------------------------------------*/
/*   Windows 32 and 64 bit porting by blueCAPE: http://www.bluecape.com.pt   *\
|  Based on Windows porting (2.0.x v4) by Symscape: http://www.symscape.com   |
\*---------------------------------------------------------------------------*/
FoamFile
{
    format      ascii;
    class       volScalarField;
    location    "300";
    object      k;
}
// * * * * * * * * * * * * * * * * * * * * * * * * * * * * * * * * * * * * * //

dimensions      [0 2 -2 0 0 0 0];

internalField   nonuniform List<scalar> 
10152
(
0.00010030027088452
0.000104949202895779
0.00010260736207256
0.000319483518163189
0.000109184102604035
0.000107341543763483
0.000329137975800047
0.000105569349223479
0.00032012876735396
0.000475988330932205
0.000113037264702029
0.000111654951609329
0.000337829055400429
0.000110402244509993
0.000329767682660212
0.000489177251943889
0.000106395828521978
0.00032031243912625
0.000475781302335142
0.000600122619876437
0.000116535637896982
0.000115573765725996
0.000345663087845935
0.000114807585204362
0.000338460416836129
0.00050104923598623
0.00011124471167384
0.000329914072580673
0.000488918201468796
0.00061618955373246
0.000103840968870012
0.000317939847915294
0.000473609323855884
0.000599492155245387
0.000706850510101502
0.000119701727285517
0.000119132556649197
0.000352714866473449
0.000118808432960707
0.000346299524658158
0.000511746457720187
0.000115668769838717
0.000338589168291335
0.000500766974952665
0.000630667583677352
0.000108577103031732
0.000327440833600254
0.000486637944156378
0.000615485405281359
0.000725387451797813
9.86915843025511e-05
0.000311695198181993
0.000468292453572696
0.000595808256728769
0.000705737393180295
0.000802320935375049
0.000122557206850636
0.000122354503491671
0.000359045094829213
0.000122443102145899
0.000353356986706342
0.000521368207722748
0.000119686924821128
0.000346418639268582
0.000511450264732495
0.000643721337539763
0.000112903291741164
0.000336036420904778
0.000498413063079897
0.000629926643183545
0.000742110887032786
0.000103212742321235
0.00032100054167391
0.000481142038863398
0.000611646199056633
0.000724179352285819
0.000823035528263502
9.22643057861335e-05
0.000301864848300042
0.00045898001777845
0.00058819551209613
0.000700780041675954
0.000800630082174288
0.000889550145591086
0.000125123521054518
0.000125260691512604
0.000364711904557394
0.000125734070290533
0.000359693815331927
0.000530000480761195
0.000123338542735183
0.00035347075685356
0.00052106221773075
0.000655467217404616
0.000116833154285183
0.000343800101716345
0.000509040548806702
0.000642956163624125
0.000757202287565028
0.000107347067878089
0.000329425948133209
0.000492771103578317
0.000625977151652687
0.000740851752099589
0.000841743912214844
9.65186545571923e-05
0.000310883688927852
0.000471560967318947
0.000603793641550636
0.000719026756656583
0.00082122761028702
0.000912215472110359
8.52157501249696e-05
0.000289416248936839
0.00044579189320984
0.000576196809960401
0.000691194260185531
0.000794449798845764
0.000887361414868224
0.000970294302584737
0.000127421220025258
0.000127873087510555
0.000369768441028275
0.000128701386159382
0.0003653666251651
0.000537720011508106
0.000126645499950553
0.000359804819603528
0.000529686156047535
0.000666005825571294
0.000120405606302844
0.000350796717326939
0.000518607544219309
0.000654683419878665
0.000770790220233093
0.000111102448809274
0.000337039954131971
0.000503276329502602
0.000638920706249816
0.00075590753140285
0.000858641802248722
0.000100410155880007
0.000319053285979213
0.000482954930329497
0.000617926659341327
0.000735557677123654
0.000839869636334738
0.00093270575534212
8.91905331575638e-05
0.000298086094711825
0.000458014595194168
0.0005914621598087
0.000709149417024007
0.000814815212671085
0.000909890862617458
0.000994727129163624
0.000275002568088146
0.000429330376647112
0.000560030546462527
0.000676783331446618
0.000783090234712635
0.000880128321343922
0.00096777061605324
0.00104571536239593
0.000129470891475908
0.000130212870069202
0.000374265021512886
0.000131370047710785
0.000370428927427397
0.000544600409790841
0.000129627039230111
0.000365476236177517
0.000537398988513121
0.000675430328130267
0.000123641404564222
0.000357083369328821
0.000527193906081557
0.000665206678534594
0.000782987013496844
0.000114516496025206
0.000343904497198772
0.000512739120567677
0.000650577264156732
0.000769467167723182
0.000873867071109439
0.000103945156648809
0.000326437632578642
0.0004932539646457
0.000630703570777076
0.000750501601993057
0.00085671928474139
0.000951228980343072
9.28211931825507e-05
0.000305936168337173
0.000469086777552079
0.000605302523472226
0.000725438022761724
0.000833286832966201
0.000930302086372864
0.00101683472786936
8.13314210156132e-05
0.000283297044302981
0.000441125186909461
0.000574871833034744
0.000694349196178469
0.000803118903411418
0.000902394726586732
0.000992053507853067
0.00107176435238112
0.000410054165403776
0.000540175792017566
0.000657912384242282
0.000766528878286115
0.000867259783709425
0.000959730650643937
0.00104298468958657
0.00111657760006615
0.000131292620188106
0.000132298784468947
0.000378249444218066
0.000133759952002247
0.000374930750848762
0.000550711153357187
0.000132308439411588
0.000370538166374179
0.000544273737729641
0.000683828916463085
0.000126559997019012
0.00036271392576999
0.000534875037235621
0.000674618102403565
0.000793897643547323
0.000117608516276451
0.000350074567099038
0.000521235703026837
0.000661040793868202
0.000781640163802095
0.00088754135020158
0.000107156503342577
0.000333096284193711
0.000502535620212737
0.000642217580231634
0.000763968367561904
0.000871905436340933
0.000967930969043719
9.6108973440566e-05
0.000313029842482174
0.000479097289184506
0.000617822501727841
0.000740177060128053
0.000850000417495822
0.000948766830464983
0.0010368359395248
8.46763675389529e-05
0.000290778698386141
0.000451801696265982
0.000588329554612768
0.000710294226229895
0.000821309470134552
0.000922611633957869
0.00101407334619474
0.00109535278775673
7.29441864496172e-05
0.000266753626218625
0.00042138490458543
0.000554518956901221
0.000674995499034147
0.000786119563832404
0.000889152366512247
0.000983726826675239
0.00106887331474575
0.00114411440720669
0.000516972818383546
0.000635044764499745
0.000745239180610962
0.000848844396405574
0.000945640183735309
0.00103433834932337
0.00111370706712226
0.00118333603135702
0.000132905663329269
0.000134153235517449
0.000381766975972931
0.000135890443442492
0.00037891981568242
0.000556117944983034
0.000134709064472435
0.000375040453399326
0.000550379615552785
0.000691285391949508
0.000129183723663543
0.000367740534247313
0.000541722871595463
0.000683005359750405
0.000803622004643219
0.000120397659339166
0.000355602328601828
0.000528839138718453
0.000670401179348197
0.000792530250619962
0.000899778811538523
0.000110062996099055
0.000339082385714265
0.000510872977626165
0.000652558027399991
0.000776062384406149
0.000885546318021552
0.000982940366175157
9.90924801858501e-05
0.000319425556804252
0.00048812142569908
0.000629110916852336
0.000753468060602003
0.000865072816706275
0.00096542074346524
0.00105488300125725
8.77116456266184e-05
0.000297533331709089
0.000461452200250036
0.000600506075235416
0.000724731104139313
0.00083778464401673
0.000940920423062351
0.00103400934744708
0.00111670915477054
7.59707676511414e-05
0.000273807653220921
0.000431597590605199
0.000567513182666675
0.000690503429031595
0.000803922642630396
0.000909056661145801
0.00100553466736493
0.00109236827891698
0.00116906737249821
6.4082036332964e-05
0.000248444074396747
0.00039904277124983
0.000530776129715365
0.000651568393187978
0.000764296608526055
0.000870258935905365
0.00096923367855457
0.00105992229812253
0.0011410751651351
0.00121224801542806
0.000608468685840793
0.00071969514424492
0.000825426637905089
0.000925652697878516
0.00101925120516194
0.00110457577315022
0.00118035222051484
0.00124622073011275
0.000134328680355899
0.000135795212239499
0.000384859909949853
0.000137784314426005
0.000382441444976933
0.000560882603242599
0.000136851181439337
0.000379030508714849
0.000555782169175806
0.000697879181679364
0.000131533676527266
0.000372212359555525
0.000547805858361986
0.000690451944788267
0.00081225537567221
0.000122905313007485
0.000360538247169039
0.000535619647309054
0.000678744624303811
0.000802236667353784
0.000910688881369025
0.000112684438219228
0.000344446361965467
0.000518336523035729
0.000661811694614545
0.000786884581833142
0.000897754737335066
0.000996378920729464
0.000101789799446491
0.000325175156112679
0.000496229825107347
0.000639253268584705
0.000765409989089518
0.000878616426190131
0.000980388888155188
0.00107111049062662
9.04434303789614e-05
0.000303621255129593
0.00047015243575758
0.000611488236146893
0.000737756594235113
0.000852652002270081
0.000957443383756522
0.00105200265075947
0.0011359911289157
7.87172965005541e-05
0.000280180099288669
0.000440823376736879
0.000579267574821324
0.000704547370599456
0.000820056488577132
0.000927099782097576
0.00102530028988754
0.00111365534370167
0.00119167365926789
6.67670489353039e-05
0.000255038791756431
0.000408705649348879
0.000543226137575587
0.000666553399535005
0.000781615561198344
0.000889739646463368
0.000990704650001349
0.00108319243675656
0.00116593054182033
0.00123846283402005
5.48888808910508e-05
0.000228405496588221
0.000374120772209681
0.000503865300032977
0.000624388771368217
0.000738140810327559
0.000846265797937028
0.000948736088579145
0.00104440994591731
0.00113162479306913
0.00120908823866077
0.00127640541259544
0.000690165987964253
0.000797505253844736
0.000900367700751761
0.000997912464001521
0.00108863954310952
0.00117079962159504
0.00124313202723032
0.0013053187343037
0.000135579008506751
0.000137243865862146
0.000387567393266352
0.000139460992289291
0.00038553798052068
0.000565062781647314
0.000138755032633086
0.000382553305473425
0.000560543093714322
0.000703685067769399
0.00013363110453531
0.000376176244206983
0.000553188901192447
0.000697037059997011
0.000819888328732101
0.000125151745410879
0.000364930368675273
0.000541644307670018
0.000686153538012472
0.000810854293083615
0.000920376215570236
0.000115041263973965
0.000349236864079581
0.000524994266087189
0.000670062499682457
0.000796532397690884
0.000908639272165313
0.00100836374930524
0.000104221523506302
0.00033032754333264
0.000503490435172567
0.000648333084408325
0.000776100075156145
0.000890740862376046
0.00099379141788796
0.00108564638943422
9.29101588654288e-05
0.000309093300926137
0.000477971165972194
0.000621358745665813
0.000749465305762066
0.000866017825532428
0.000972299193267115
0.00106818393115136
0.00115333827791949
8.11814536275523e-05
0.000285920112623153
0.000449141206753095
0.000589870498097427
0.000717222374567878
0.000834623594183143
0.00094339387379361
0.00104315032515949
0.00113288024585135
0.00121209569532349
6.92030720990428e-05
0.000260990037253876
0.000417444455469231
0.0005544827965728
0.000680120461176056
0.000797313537365551
0.000907409183548669
0.00101018380638445
0.00110429896488301
0.00118846479728609
0.0012622256129868
5.72082696379343e-05
0.000234490780396387
0.00038320166501507
0.00051566568958181
0.000638761500296095
0.000754885882323478
0.000865222998096698
0.000969754617639953
0.00106732454947386
0.0011562454627732
0.00123520206731959
0.0013037881770412
4.55514392977832e-05
0.000206686929665661
0.000346712982947975
0.000473804407440686
0.000593657633061106
0.00070795500831157
0.000817688852582516
0.000922841088816458
0.00102253526593881
0.00111524502974405
0.00119920421051998
0.00127313415989545
0.00133668032435452
0.000765352919580786
0.000870321842254252
0.000970971227539829
0.00106610690731995
0.00115410585650048
0.00123319197914543
0.00130212837884846
0.00136063886484258
0.000136672095400578
0.00013851712763016
0.000389925098370204
0.000140940230419162
0.000388248620019112
0.000568711644756703
0.000140440227739561
0.000385650986192608
0.000564719952443355
0.000708772806930697
0.000135495567160893
0.00037967644344568
0.000557933136251027
0.000702835306052037
0.000826606316588297
0.000127157216442787
0.00036882440689958
0.000546976833359373
0.000692706243851422
0.000818473403230783
0.000928940709205526
0.000117152793818569
0.000353500288430206
0.000530911359323373
0.000677391012329168
0.000805099393691332
0.000918304150828806
0.00101900755054451
0.000106407360092491
0.000334929407820147
0.000509968767053815
0.000656431491274846
0.000785633011772513
0.000901552618353014
0.0010057445713131
0.00109861427835788
9.51343494293025e-05
0.000313996705643908
0.000484973766588296
0.000630198030547971
0.000759950694282126
0.000877987555441176
0.000985604480079894
0.0010826794176992
0.00116888381217513
8.34029668872984e-05
0.000291078289531194
0.000456617361070833
0.000599402547105362
0.000728620057566475
0.000847725483473035
0.000958050954225523
0.00105920855119475
0.00115017836546521
0.00123047736464866
7.13810201974355e-05
0.000266346503290668
0.000425326141057046
0.000564638855798039
0.000692367070674071
0.000811491571229044
0.000923374338441234
0.00102778687489909
0.00112337209083984
0.00120882764941043
0.00128370305350108
5.93145010471154e-05
0.000239980177176056
0.000391405925827843
0.000526350177395274
0.000651768603826313
0.000770059769014258
0.000882420551825999
0.000988834400241735
0.00108812877171967
0.00117859157941282
0.00125889065292542
0.00132862153197064
4.74963928413983e-05
0.000212215268339579
0.000355148259428861
0.000484923097649504
0.000607298241987259
0.000724030251478746
0.000836029070820003
0.000943303564582604
0.00104497418932218
0.00113949517009106
0.00122507507039874
0.00130041285059889
0.00136514255423861
3.62912870929924e-05
0.000183358966311069
0.00031687086485699
0.000440729156083506
0.000559373216850897
0.000673930584342827
0.000784835726680822
0.000892103186394245
0.000994955441284293
0.00109215506304316
0.00118205126751739
0.00126285159673365
0.00133330118734651
0.00139308537836821
0.000835806964135787
0.00093900815487437
0.00103767233976082
0.00113049094174191
0.00121580085492067
0.00129182363963475
0.00135735002381854
0.00141215342757429
0.000137620514788659
0.000139631038585766
0.000391964696637604
0.000142240694075076
0.000390609115143545
0.000571877518118846
0.000141926976346362
0.000388362714207062
0.000568365839416681
0.000713206728525964
0.000137146170665697
0.000382754480089707
0.000562095651676296
0.000707916292751577
0.00083248915023616
0.000128939968755443
0.000372263415037895
0.00055167730197548
0.000698476583851326
0.000825179206155616
0.000936476821123307
0.000119038139043865
0.000357280751870798
0.000536149785736023
0.000683873986330033
0.000812674766984965
0.000926848877276444
0.00102841809173361
0.000108365869559475
0.000339025247566448
0.000515727637236281
0.000663626613710383
0.000794100159228503
0.00091115441025062
0.0010163604587621
0.0011101336732327
9.71332926847517e-05
0.00031837604699448
0.00049122299663671
0.00063808415405835
0.000769304190553878
0.000888664575860268
0.000997473200438815
0.00109561179661711
0.00118275708117059
8.54043218431806e-05
0.00029569988936096
0.000463314065013684
0.000607940943864892
0.00073883036988832
0.000859463426342756
0.000971183100529657
0.0010735974018841
0.00116568107649395
0.00124695645894754
7.33413041641771e-05
0.000271157749279476
0.00043241145572088
0.000573771627475735
0.000703382639343249
0.000824248078714485
0.000937742061601319
0.00104363050829175
0.00114053984522709
0.00122715853407716
0.00130304286443108
6.11947450505373e-05
0.000244917357075565
0.000398803763815001
0.000535996056875398
0.000663512954374858
0.000783766783652643
0.000897964049070115
0.00100608558709242
0.00110694124883444
0.00119879640808723
0.00128030727698338
0.00135107613965852
4.92672662861224e-05
0.000217203503056609
0.000362765940475711
0.000494981282891052
0.000619662598417379
0.000738591266183277
0.0008526623711323
0.000961881398284726
0.001065358286304
0.00116152638497465
0.00124856928439414
0.00132517007133432
0.00139096527752047
3.78653335906484e-05
0.000188290177788861
0.000324597687896061
0.000451093716334221
0.000572251191610832
0.00068920453063182
0.000802457319896525
0.000911912362692955
0.00101681129138889
0.00111591029134865
0.00120753891961414
0.00128987999665318
0.0013616565476922
0.00142254240415046
2.72941590637005e-05
0.000158481398339835
0.000284629260557759
0.00040471333964459
0.000521694845198856
0.000636044469712995
0.0007478991213009
0.000856850798546019
0.000962269826604235
0.00106305791788729
0.00115786074694878
0.00124498744227645
0.00132264374304403
0.00138960206299886
0.00144559564220704
0.000902340706359549
0.00100395966192112
0.00110068954422466
0.00119118747964872
0.00127378124921459
0.00134670117654269
0.00140877051337267
0.00145982222797553
0.000138433713332154
0.000140598636386911
0.000393713365063139
0.000143378860694367
0.000392651166962442
0.000574603543956465
0.000143234350892497
0.000390724179806224
0.000571529008773102
0.000717045362529783
0.000138602523215548
0.000385449036957895
0.000565729122915408
0.000712344218288048
0.000837610496679117
0.000130518870839705
0.000375287838038676
0.000555801843705639
0.000703533500117148
0.000831051307782554
0.000943072946471682
0.000120714416957774
0.000360619745715303
0.000540768028563251
0.00068958387914973
0.000819342794883447
0.000934367596946479
0.00103669753637319
0.000110114505817311
0.000342657308852348
0.00052082684288618
0.000669993015992659
0.00080158883755538
0.000919644488289631
0.00102574641768457
0.00112031912617808
9.89239095353843e-05
0.000322273695230373
0.000496779001623648
0.000645092364837334
0.000777614292170954
0.000898149107646027
0.001008015758666
0.0011070998839554
0.00119508326725995
8.72015339625563e-05
0.000299826919066707
0.000469290933964808
0.000615560381612182
0.000747941234278047
0.000869937176294995
0.000982900880749071
0.00108643712127134
0.00117951664184813
0.0012616671352637
7.51057833043265e-05
0.000275466960481165
0.000438758570172538
0.000581954249942364
0.000713253498749417
0.00083568053206837
0.000950619952985529
0.00105783228416555
0.00115592957972521
0.00124359328641421
0.00132038691026824
6.28841830703818e-05
0.000249349262575019
0.000405453580065654
0.000544672903373907
0.000674080182911761
0.000796103128838163
0.000911957275744194
0.00102161951622903
0.00112388248088779
0.00121699162576822
0.00129959496978956
0.0013713031863155
5.08436881118638e-05
0.00022168761022496
0.000369632983557868
0.000504061165492907
0.000630834826411055
0.000751748651995303
0.000867698419866271
0.000978683806064838
0.00108380043263489
0.00118145976536242
0.00126982283159514
0.00134756240457544
0.00141432281655522
3.93060400494648e-05
0.000192743060152889
0.000331576688131644
0.000460465592849047
0.00058391448767547
0.000703063568340695
0.000818432635572946
0.000929891893682646
0.00103666846602617
0.00113750422834891
0.00123070766882404
0.00131443737901684
0.00138740131211735
0.00144927624978563
2.85114829001051e-05
0.000162782281665889
0.000291590483187124
0.000414250650332136
0.000533731954652753
0.000650489060659289
0.000764660499524759
0.000875899756735079
0.000983441645475714
0.00108620728351693
0.00118283707657167
0.00127162149120623
0.00135074216075273
0.00141894945997888
0.00147596470618785
1.87167730984529e-05
0.000132046575824616
0.000249988571170751
0.0003657954364543
0.000480714551141625
0.000594469399073994
0.000706837626349078
0.00081728615336979
0.000924834162294068
0.00102859690843083
0.00112737621835464
0.00121978243183235
0.00130411580073683
0.00137859115863853
0.00144201293401372
0.00149417231217794
0.000965311459903474
0.00106536398135456
0.0011601215283551
0.00124823847182856
0.00132804892855303
0.00139779898810078
0.00145635073730467
0.00150360502031443
0.000139114395611806
0.000141426015872904
0.000395193611988039
0.000144366740762393
0.00039440175551978
0.000576927503629331
0.000144377879897171
0.000392766857395266
0.000574252504327514
0.000720341125729937
0.00013988303655233
0.000387795375898007
0.000568881411039709
0.000716177486059773
0.000842037474364137
0.000131912171622203
0.000377935397794233
0.000559402263959769
0.000707940588773505
0.000836163196034955
0.000948810652951619
0.000122198888811482
0.00036355626682247
0.000544820746133051
0.000694588385408856
0.000825182262687199
0.000940948417037772
0.00104394165365344
0.000111669221873707
0.000345865230357084
0.000525322817615064
0.000675601177530892
0.000808181669171078
0.000927115911572583
0.00103400424910684
0.00112927950049713
0.00010052242426881
0.000325729778237794
0.00050169904822502
0.000651294556387045
0.000784965765368492
0.000906537272363748
0.0010173381004272
0.00111725777187557
0.00120598289088549
8.88107673193903e-05
0.000303499343462887
0.00047460510843214
0.000622332851547369
0.000756037839855834
0.000879243761414198
0.000993311966757151
0.00109784467973807
0.00119180963518688
0.00127473982216256
7.66888726198049e-05
0.000279313621162277
0.000444423514758959
0.000589257502780551
0.000722063728697978
0.000845884837072308
0.000962114669112475
0.00107050883937502
0.001169666946569
0.0012582649872176
0.00133587358636723
6.44014696728439e-05
0.000253316409696667
0.0004114100849727
0.00055244854571848
0.000683551906318766
0.000807162371935604
0.000924503827516696
0.00103554905058122
0.00113907470813642
0.00123330884256656
0.00131689352032871
0.0013894481637529
5.2255299803707e-05
0.000225709707172424
0.000375804308795727
0.000512229508320829
0.000640891349332128
0.000763594489522043
0.000881238835606537
0.000993818948000027
0.00110041561335592
0.0011994190984818
0.00128897061202803
0.001367736151163
0.00143536959063822
4.05819103080598e-05
0.000196743289425498
0.000337867100322197
0.000468924638610109
0.000594453341966074
0.000715596601387699
0.000832878497424214
0.000946155847112564
0.00105463917862307
0.00115705205164359
0.00125168077004476
0.00133666223830564
0.00141069520505691
0.00147346506099378
2.96376615641259e-05
0.000166672351289345
0.000297881054504073
0.000422874985999981
0.000544628779061775
0.000663585051174828
0.000779883392905929
0.000893182629798983
0.00100267153743008
0.00110725317537464
0.00120555394060214
0.00129584418766511
0.00137628214697799
0.00144560368686491
0.00150353358691712
1.95944318877968e-05
0.000135693047998311
0.000256131830936509
0.000374437040513173
0.000491830197820213
0.00060800221424221
0.00072271343009313
0.000835424044916862
0.000945210054857102
0.00105103596414819
0.00115172709721105
0.00124589080041013
0.0013318098644764
0.00140767549487766
0.00147226994419639
0.0015253723951282
1.09220492014669e-05
0.000104008132676335
0.000212909064526184
0.00032396470598387
0.000436477470488069
0.00054930528991159
0.000661831424189884
0.000773352256771665
0.000882863491975938
0.000989154519108206
0.00109128016128542
0.00118801538197069
0.00127796707031929
0.00135944196825278
0.00143067078908346
0.00149049621935152
0.00153877607588609
0.00102487828773179
0.00112329807453901
0.00121599564727911
0.00130163905037894
0.00137857761764982
0.00144507922682029
0.00150005109889004
0.00154346716130162
0.000139678579566816
0.000142104869920929
0.000396424788933612
0.000145207624807042
0.00039588242244474
0.000578882148777976
0.000145368079381486
0.000394517179149343
0.00057657394598008
0.000723140187439066
0.000141002689638064
0.00038982433051141
0.000571595157053944
0.0007194683810051
0.000845830258254647
0.000133136861928585
0.000380240381294038
0.000562525628068708
0.000711755695091079
0.000840581810006027
0.000953764470002875
0.000123508915715311
0.000366126591995524
0.000548358406206799
0.000698949974675846
0.000830265923501962
0.00094667274808837
0.00105023906827769
0.000113045784454922
0.000348686187967824
0.000529268312393477
0.000680516990435006
0.000813955958739202
0.000933655827108212
0.00104122940282623
0.00113711700971617
0.000101943134755162
0.000328781848135154
0.000506037170578252
0.000656758742628808
0.000791438932869241
0.000913920250093792
0.00102554082109503
0.00112619392546374
0.0012155707390669
9.02460124561117e-05
0.000306754971680707
0.000479311016983985
0.000628327191085866
0.000763201892568732
0.000887476455607917
0.00100251997504858
0.00110793267562759
0.00120268005512278
0.00128630015017204
7.81040741203305e-05
0.000282735155924609
0.000449460125081482
0.000595749721217466
0.000729894808454883
0.000854954376466777
0.000972330430642153
0.00108177423060423
0.0011818746088575
0.00127130333569237
0.00134963795011081
6.57591856319167e-05
0.000256855562712568
0.000416725731296272
0.000559389330349431
0.00069200772269298
0.000817036221503759
0.000935706253952032
0.00104798669583993
0.0011526397896671
0.00124787842729712
0.0013323402823091
0.00140565354665469
5.35185920216305e-05
0.000229306678040918
0.000381330879110838
0.000519549883180294
0.000649907605814709
0.000774217171830685
0.000893383110631502
0.0010073955336708
0.00111532116153194
0.00121553066059274
0.00130614800457737
0.00138583467322444
0.00145425458530662
4.17179366102972e-05
0.000200327112075601
0.000343518445321634
0.000476534004144673
0.000603941150935301
0.000726885319643159
0.000845892154910635
0.000960810303667718
0.00107083525138385
0.00117467186171604
0.00127058490662689
0.0013566924043449
0.00143168757970403
0.00149526630993976
3.06259816324305e-05
0.000170163023273064
0.000303550614792922
0.000430659035271577
0.000554473929723135
0.000675428541664966
0.000793660269129509
0.000908821503284286
0.00102007732018958
0.00112631037642509
0.00122612854501972
0.00131778078904541
0.00139940461145664
0.00146972756900022
0.00152848380640095
2.0419388480082e-05
0.00013900134176901
0.000261688509396356
0.000382254405170972
0.000501892881694768
0.000620265782262886
0.00073712070711189
0.00085191096396295
0.000963709911251526
0.00107142967449617
0.00117387773423538
0.00126964886849508
0.00135700693920006
0.00143412045956457
0.00149975761125333
0.00155370153698442
1.14847992507984e-05
0.000106984399980685
0.000218187182999358
0.000331645937991385
0.000446594968004834
0.000561839771804404
0.000676735746688172
0.000790556300226626
0.000902283936560093
0.00101076668807224
0.0011148979506218
0.00121348116414217
0.00130512267984538
0.00138811289835252
0.00146065920221282
0.00152158196376714
0.0015707269322323
4.68997210502206e-06
7.46360241663151e-05
0.000173417437969966
0.000279156039622906
0.000388955314244361
0.000500590713622064
0.000612977773110289
0.000725232104080317
0.000836286127545679
0.000944957808540951
0.0010499779630162
0.00115040205574873
0.00124500718099516
0.00133241322341872
0.00141094212640085
0.00147884634825132
0.00153501320828337
0.00157937267867472
0.00108109819820853
0.00117777539686372
0.00126829911278109
0.00135136040700333
0.00142533002000273
0.00148850318702005
0.00153983739956101
0.00157938208663725
0.00014266390075296
0.000397434094142684
0.000145885076821149
0.000397110624045275
0.00058049769272392
0.000146209337545675
0.00039599534151543
0.000578525757134231
0.000725482805077975
0.000141970623322256
0.000391561442371419
0.00057390747512358
0.00072226291972557
0.000849041824956224
0.000134207411079145
0.000382232648781001
0.000565213781709212
0.000715030580006881
0.000844367151355234
0.000958001242237246
0.000124660375606826
0.000368363655989217
0.000551426816546131
0.000702725458961129
0.00083466003176242
0.000951614841401042
0.00105567058334342
0.000114260471307905
0.00035115478199323
0.000532712023820155
0.000684801282643147
0.000818983122586512
0.00093934480809972
0.00104751021931717
0.00114392645240377
0.000103200921339767
0.000331465124461363
0.000509843855794609
0.000661548546428783
0.00079710901140939
0.000920383510215973
0.00103271830092708
0.00113401022464367
0.00122395477304641
9.1521141334704e-05
0.000309629162003136
0.000483460008838412
0.0006336085592262
0.00076951089883072
0.000894723873820066
0.00101062344723293
0.00111680827601665
0.00121224225398505
0.00129646832587361
7.93639790174305e-05
0.000285766941016992
0.000453919740800926
0.00060149633164772
0.000736824967300102
0.000862979048170856
0.000981367775058696
0.00109173857346326
0.00119267098998643
0.00128283353585954
0.00136181051734814
6.6970806382588e-05
0.000260001400484296
0.000421450900161866
0.000565559591137495
0.000699524957095461
0.000825813998108288
0.00094566487017035
0.00105904286008082
0.00116469733974429
0.00126082806664341
0.00134606951839499
0.00142005837564466
5.46457232056238e-05
0.000232512301264612
0.000386261402246264
0.000526084300163166
0.000657958133338118
0.000783703502371374
0.00090422933190178
0.00101952176852891
0.00112863462949849
0.00122992087714683
0.00132148956491128
0.00140199922453437
0.00147112358424312
4.27287297129378e-05
0.000203527508524742
0.000348577267294586
0.000483352940262958
0.000612448603213617
0.000737011289962811
0.000857567578662227
0.00097395973102217
0.0010853697569921
0.00119048486684596
0.00128754992296591
0.00137466666114041
0.00145052510218282
0.00151483199941733
3.1494466626274e-05
0.000173283631265596
0.000308642104922573
0.00043766046711535
0.000563337258359325
0.000686098106764957
0.000806076989922905
0.000922917913511966
0.00103576885141136
0.00114349385825575
0.00124468173481979
0.00133756060632971
0.00142025011818171
0.001491473351884
0.00155097578079185
2.11338313327391e-05
0.000141962412731066
0.000266696175306768
0.000389310751758254
0.000510984292075243
0.000631355273806416
0.000750160172874948
0.000866842239000169
0.000980460417179069
0.00108989914892418
0.00119394519671421
0.0012911757174971
0.00137983421331087
0.0014580693377603
0.00152464171480966
0.00157934461518472
1.2027351086626e-05
0.000109709770708407
0.000222969107883854
0.000338599594436
0.000455756928299856
0.000573198170683661
0.000690254707299649
0.000806182161516385
0.000919949876680481
0.00103040130592146
0.00113637475468362