/*--------------------------------*- C++ -*----------------------------------*\
  =========                 |
  \\      /  F ield         | OpenFOAM: The Open Source CFD Toolbox
   \\    /   O peration     | Website:  https://openfoam.org
    \\  /    A nd           | Version:  12
     \\/     M anipulation  |
\*---------------------------------------------------------------------------*/
/*   Windows 32 and 64 bit porting by blueCAPE: http://www.bluecape.com.pt   *\
|  Based on Windows porting (2.0.x v4) by Symscape: http://www.symscape.com   |
\*---------------------------------------------------------------------------*/
FoamFile
{
    format      ascii;
    class       volScalarField;
    location    "300";
    object      nut;
}
// * * * * * * * * * * * * * * * * * * * * * * * * * * * * * * * * * * * * * //

dimensions      [0 2 -1 0 0 0 0];

internalField   nonuniform List<scalar> 
10152
(
4.06594551232619e-05
4.25440081609127e-05
4.30819676739754e-05
0.000405448098003616
4.42606678521178e-05
4.50696923427316e-05
0.000414705078516934
4.61607393942199e-05
0.0004148789110643
0.00101769809955083
4.58226421482258e-05
4.68807423856218e-05
0.00042296893535693
4.82739045993683e-05
0.000424299092786813
0.00103600594196081
4.80102207708927e-05
0.00042688746919002
0.00102840650621674
0.00170951739175937
4.72408460802984e-05
4.8526194352323e-05
0.000430361038732921
5.02001475797025e-05
0.000432713085282053
0.00105227389227899
5.01981942514087e-05
0.000436516625348039
0.00104686216221872
0.00173764398230198
4.7476287059632e-05
0.000434170283587007
0.00104110519738933
0.00171708310168437
0.00239582981710936
4.85243031637964e-05
5.00204931043943e-05
0.000436972004050927
5.19496147625021e-05
0.000440240008174849
0.00106676418813783
5.21944447661546e-05
0.0004451277310134
0.00106325829342319
0.0017625823331579
4.96415989469467e-05
0.000443925131998846
0.00105972625580403
0.00174533352367982
0.00243403518594211
4.51431511583475e-05
0.000432302206459301
0.0010474900839279
0.00172337697999738
0.00239829503363527
0.00303765510971583
4.96818178454471e-05
5.13732400792267e-05
0.000442870363340343
5.35389628663139e-05
0.000446971113234823
0.00107966571816035
5.40077953620478e-05
0.000452834177687299
0.0010778634780149
0.00178473675929076
5.16195080313741e-05
0.000452658016792457
0.00107628199523216
0.00177035999771427
0.00246785414827622
4.72111690239685e-05
0.000442011731134156
0.00106618473330183
0.00175170520317532
0.0024365843129064
0.00308582317700299
4.20927733010709e-05
0.000422609083473081
0.00104177088331725
0.00172176614020003
0.00239535088820609
0.00303487504920134
0.00362074798818565
5.07221772183332e-05
5.25933730317309e-05
0.000448125038165071
5.49778842938367e-05
0.00045297911671138
0.00109114126592692
5.56555633237151e-05
0.000459727962322511
0.00109086892442647
0.00180441099763539
5.34164063203773e-05
0.000460477472909976
0.00109103416080115
0.00179259022293748
0.00249783298478526
4.91023397270357e-05
0.000450710858210186
0.00108281924126916
0.00177680773089412
0.00247043396747135
0.00312839884977005
4.40336946333539e-05
0.00043212064260689
0.00106035371644175
0.00175004369975835
0.00243360411367192
0.00308307748541805
0.00367851836331683
3.88252703460529e-05
0.000408630126501347
0.00102434349147653
0.00170721019499119
0.00238209538376576
0.00302257564003475
0.00361408445607293
0.00414340473125102
5.16535962702862e-05
5.36902702470506e-05
0.000452794584314251
5.62749318263319e-05
0.000458330545518973
0.0011013248098585
5.71477372130212e-05
0.000465882855083377
0.00110243424667735
0.00182186040890558
5.5049748658075e-05
0.000467474898297782
0.00110417351400057
0.00181233105028076
0.00252439498540109
5.08200786868122e-05
0.000458502884983408
0.00109764806643519
0.00179910838302543
0.00250043304366862
0.00316607215077638
4.58091069513438e-05
0.000440646845972188
0.0010768985879081
0.00177511611941646
0.00246742115314167
0.00312561944007138
0.00372951802914055
4.06362724301071e-05
0.000417863219954905
0.00104262501499861
0.00173523381800206
0.00242012797809117
0.0030706172528193
0.00367185122706375
0.00421027349198535
0.000392419883487168
0.000998633299748858
0.00167922258396032
0.00235494422469039
0.00299715262817724
0.00359422753279395
0.00413443089774134
0.00460952335869123
5.24845150158286e-05
5.46729805521211e-05
0.000456932909447741
5.7442089506031e-05
0.000463086494148751
0.00111034301346876
5.84927028314405e-05
0.000471365388181038
0.00111269843338604
0.00183730892349511
5.65290907201633e-05
0.000473724339497308
0.00111585907911197
0.00182983913346542
0.00254790047284544
5.23817495898773e-05
0.000465477882363634
0.001110859800427
0.00181891420001988
0.00252701126140346
0.00319938690994415
4.7421791862697e-05
0.000448284578912842
0.00109165318183332
0.00179739726594708
0.00249739100353545
0.00316325121851436
0.00377457842577495
4.22904880398106e-05
0.000426137219419158
0.00105890796463391
0.00176009400945561
0.00245376482556825
0.00311300888058776
0.00372276491878453
0.00426924739024028
3.70509623239809e-05
0.000401341515601981
0.00101648273786872
0.00170677471190541
0.00239251806365759
0.00304478432113039
0.00365172299160146
0.00420127645085602
0.00468490686300801
0.000967059677594117
0.00163986008324829
0.00231316835673678
0.00295620243529924
0.00355821547643244
0.00410920859926232
0.00459919417574383
0.0050246127743047
5.32230094399946e-05
5.55485874355376e-05
0.00046058989725509
5.84874667559221e-05
0.000467301812722568
0.0011183097439011
5.97029372246257e-05
0.000476239237780373
0.00112178820068766
0.00185095709543883
5.78634144561369e-05
0.000479292316019923
0.00112623134712014
0.00184533929910882
0.0025686660473033
5.3796042825707e-05
0.000471708979702841
0.00112261256328838
0.00183648180292941
0.00255053049839412
0.00322881247404035
4.88868063016411e-05
0.000455122306504371
0.00110480271983651
0.00181719075094665
0.00252394527114787
0.00319652725788454
0.00381436527323271
4.37883764490188e-05
0.000433546717331639
0.00107343228611324
0.00178219481411471
0.00248358223227344
0.00315050412065012
0.00376773399845754
0.00432129429377144
3.8574844443269e-05
0.000409324646242783
0.00103237620533059
0.00173122613019887
0.00242576552784096
0.00308682920174108
0.00370238221662052
0.0042601304131163
0.00475134473834996
3.32350688961341e-05
0.000382889404011789
0.000984379233705438
0.00166676216468088
0.00235003131890014
0.00300313624306103
0.0036151203205473
0.00417569759828146
0.00467454670231184
0.00510787973926927
0.00159075739382889
0.00225754899021013
0.00289902968517337
0.00350421699038808
0.004064693223632
0.00457011728838935
0.00501330074397323
0.00539403739037431
5.3876885007788e-05
5.63272311610832e-05
0.00046381208856122
5.94188349854704e-05
0.000471026013059352
0.00112532842027659
6.0786194243738e-05
0.000480559488239394
0.00112981814354131
0.0018629854226483
5.90629579037983e-05
0.00048424288569144
0.00113541816130971
0.00185903277678926
0.00258697298664011
5.50718279370929e-05
0.000477262367582266
0.00113304668907183
0.00185203636194391
0.00257130772304951
0.00325475927124827
5.02128527554711e-05
0.000461231469888164
0.00111650316408827
0.00183475125568122
0.00254744575039864
0.00322591748718773
0.00384945229423883
4.51475949166922e-05
0.000440178501033932
0.0010863790963177
0.0018018341237561
0.00251000734074575
0.0031836610548922
0.00380743643626522
0.00436719519334918
3.99574463036519e-05
0.000416464434031478
0.00104655247795243
0.00175297042959843
0.00245524871202818
0.00312402492288291
0.00374712001702878
0.0043120524168772
0.00480993165087051
3.46140435322826e-05
0.000390542949641496
0.00099979636427184
0.00169063326133597
0.00238266366251388
0.00304458517204589
0.00366527427122032
0.0042342157857225
0.00474084297960093
0.00518123762218791
2.91972249502989e-05
0.000362218140746319
0.000946957987745718
0.00161682433077983
0.00229347262753248
0.00294496620826398
0.00356017808032352
0.00413043182498414
0.00464504739164439
0.0050965328001235
0.00548452421738492
0.0021886374238599
0.00282556617904049
0.00343160676754977
0.00399909079131719
0.00451868442777457
0.00498112983737722
0.00538182851306751
0.00572254948517027
5.44537320737416e-05
5.70166070096415e-05
0.00046664204894056
6.0246958490684e-05
0.000474307545097486
0.00113149359833282
6.1752979403256e-05
0.000484376733523674
0.0011368921404076
0.00187355686695806
6.01373268028412e-05
0.000488631416292102
0.00114353461779246
0.00187110071246082
0.00260307258620424
5.62188562539061e-05
0.000482199786752881
0.00114228997092375
0.00186577937606435
0.00258962446721969
0.00327759159998519
5.14088153545717e-05
0.000466676907556848
0.0011268932934598
0.00185030265947261
0.0025682086589054
0.00325183280778086
0.00388034313858441
4.63766269434815e-05
0.000446103258107963
0.00109790123429241
0.00181926252773111
0.00253339860213382
0.00321294894612867
0.00384244795803999
0.00440762477753719
4.12019111788139e-05
0.000422850926388537
0.00105918938725392
0.00177229832647653
0.00248138604665109
0.00315692381226611
0.0037866191026464
0.00435783835528155
0.00486155547001676
3.58653339237627e-05
0.000397382511030568
0.0010135390091472
0.00171186533121271
0.00241161274558087
0.00308126748181211
0.00370957291771779
0.00428583208264494
0.00479928253674172
0.00524589444612141
3.0420507855742e-05
0.000369499612145874
0.000961841938137311
0.00163997669240996
0.00232527401772332
0.00298555350342966
0.00360952399160369
0.00418830456404227
0.00471094390399744
0.00516973224622454
0.00556423541556022
2.50049466802772e-05
0.000339072707174735
0.000904018167445755
0.00155729852788957
0.00222334472502515
0.00287022006899385
0.0034862614489796
0.00406364768476498
0.00459272271787672
0.00506388339171154
0.00547227601260546
0.00581957192615546
0.00273544256880675
0.00333990594989361
0.00391182227906639
0.00444281323123997
0.00492375271310996
0.00534689552024835
0.00570945041152637
0.00601431279532807
5.49605900654475e-05
5.76248234546111e-05
0.000469118677708297
6.09800269860845e-05
0.000477189542459206
0.00113689093018958
6.26121746485875e-05
0.000487740374734875
0.0011431057248925
0.00188281869073454
6.10964151577137e-05
0.000492510692456435
0.00115068537289956
0.0018817065841249
0.00261719023171283
5.72463789591345e-05
0.000486577550396358
0.00115045752183288
0.00187789207144087
0.00260573228083117
0.00329763215993154
5.24840297355347e-05
0.00047151858404608
0.00113609904792763
0.00186404540759587
0.00258651470284089
0.00327463676118327
0.00390748248531889
4.748461269638e-05
0.000451384053739725
0.00110813473764088
0.00183470066117207
0.00255406937135332
0.00323877703629803
0.00387327198717798
0.00444317528351467
4.23257090470984e-05
0.000428555083189966
0.00107043649339606
0.00178945465778066
0.00250452936579704
0.00318599021702362
0.00382145456861255
0.00439816533039878
0.00490698463961651
3.69880551176602e-05
0.000403490438045957
0.00102578638425651
0.0017307419979826
0.00243728571767866
0.00311372330833934
0.00374869178668287
0.0043313484963213
0.00485077067755256
0.00530283419280189
3.15303610819043e-05
0.000375999592813953
0.000975079477969226
0.00166056467536876
0.00235349620509644
0.00302148971247145
0.00365312548576905
0.00423935819387097
0.00476901862207499
0.00523422372414568
0.00563447622040559
2.60614946566017e-05
0.000345927330448328
0.000918255019684412
0.00157964957624693
0.00225412413035257
0.00290968018771648
0.00353447974096804
0.00412050700402002
0.00465784926678134
0.00513662783782774
0.00555181271067107
0.00590505495630989
2.07537855265105e-05
0.000313291379238516
0.000854980375435171
0.0014878330063968
0.00213924237838098
0.00277844251320974
0.00339290176940978
0.00397475781681101
0.00451544362610291
0.00500548539166757
0.0054368124656246
0.00580642783332383
0.00611718169161075
0.00322815393305126
0.00380230764813423
0.00434192993600836
0.00483865577932826
0.00528416623933756
0.00567192943046958
0.0060003378502927
0.00627301085610377
5.54037093649292e-05
5.81594417146576e-05
0.000471276912173068
6.16267802172515e-05
0.000479711749653584
0.00114159751941395
6.33724674741428e-05
0.00049069446601725
0.00114854521377489
0.00189090320761007
6.19489481554335e-05
0.000495929078075773
0.00115696668912271
0.00189099818388358
0.00262952797470947
5.81638322631265e-05
0.000490448146308056
0.00115765457124082
0.0018885380825089
0.00261985671398817
0.0033151693061307
5.34472973802289e-05
0.000475811788834139
0.00114423474653896
0.00187615983426726
0.00260261470992741
0.00329465222134822
0.00393126422511125
4.84804337321965e-05
0.000456079038641587
0.00111720281642127
0.00184834612291672
0.00257229780372683
0.00326150683741149
0.00390035244439939
0.00447436807130522
4.33390527762387e-05
0.000433638336483116
0.00108042634292742
0.00180465514332104
0.00252498653312925
0.00321162876789461
0.00385212731243419
0.00443362513191738
0.00494689341613847
3.80002951062332e-05
0.00040894332289096
0.00103668596105202
0.00174750106689264
0.00246002507863496
0.00314240740541184
0.00378319959562462
0.0043714414953063
0.00489607876965112
0.00535291002571157
3.25226846687208e-05
0.000381796687110077
0.000986867724255658
0.00167886879151163
0.00237853366519495
0.00305329875360267
0.00369164225331003
0.00428438636096252
0.00482018444610239
0.0052910109806422
0.00569631407190823
2.70209300626089e-05
0.000352044147991767
0.000930905440751047
0.00159947590553848
0.0022814414637723
0.00294463623421949
0.00357710641536169
0.00417068546564797
0.00471525125904397
0.00520070297595587
0.00562187103740347
0.00598038297461128
2.1639899273156e-05
0.00031966438907488
0.000868459900704841
0.00150917739000564
0.00216888639858544
0.00281652904255285
0.0034396685325606
0.0040302180847386
0.00457936085661196
0.00507734544544209
0.005515842502601
0.00589171997200206
0.00620784990688723
1.6556787944514e-05
0.000284755478331166
0.000799096477501278
0.00140730673259972
0.00204030179553247
0.00266840854199166
0.00327902183452701
0.00386319314533593
0.00441262850630221
0.00491876662717404
0.00537294207589491
0.00576832666283342
0.00610315447120304
0.00638104628092176
0.00366929886709904
0.00421550160121392
0.00472522876700622
0.005190671794249
0.00560427481082818
0.00596038126864537
0.00625819995592141
0.00650191416533992
5.57881848450456e-05
5.8627166985231e-05
0.000473147109984297
6.21954312927902e-05
0.000481909889766025
0.00114568171118736
6.40432242997044e-05
0.00049327987197455
0.00115328838582047
0.00189792835883721
6.27034992064078e-05
0.000498931087458376
0.00116246556974053
0.00189910828410533
0.00264026600155071
5.89792781372311e-05
0.000493859227081261
0.00116397704640036
0.00189786533859717
0.00263219994139942
0.00333045981501537
5.43075187196309e-05
0.000479607916069729
0.00115140475459703
0.00188680888197998
0.0026167335407057
0.00331216709200429
0.00395203777154069
4.93726690423785e-05
0.000460241996661365
0.00112521763709548
0.00186037694386932
0.00258833248845057
0.00328145954004747
0.00392408240195178
0.00450166457184414
4.42495666771433e-05
0.000438156643179036
0.00108927878639086
0.00181809301278601
0.00254303098538283
0.00323419670927579
0.00387907833476085
0.00446473846812241
0.00498187596072741
3.89122524280413e-05
0.000413801537049334
0.00104636663351531
0.00176235202026027
0.00248013082204523
0.00316771631147364
0.00381359097343577
0.00440669973509349
0.00493588083306789
0.00539687091551387
3.34158972327539e-05
0.000386968097133241
0.00099735588749359
0.00169512090249258
0.00240071700644987
0.00308142180502105
0.00372563036517506
0.00432405785243913
0.00486521224030171
0.00534095060799788
0.00575067643923318
2.78775438407127e-05
0.000357493127738405
0.000942164101885157
0.00161709380353644
0.00230568117313701
0.00297559265772478
0.00361477964876939
0.00421495739385451
0.00476583234381247
0.00525712164054154
0.00568354031936678
0.00604669317609366
2.24466972972841e-05
0.000325352730785925
0.000880435356479879
0.00152810077358368
0.00219513301168501
0.00285027919709068
0.00348103767042711
0.00407918799012216
0.00463571738394111
0.00514064618061565
0.00558543602419519
0.00596684829335879
0.00628776478479873
1.72748936619474e-05
0.000290597860288416
0.000811707131173618
0.001427462889237
0.00206850714229013
0.00270497277554269
0.0033240309217247
0.00391686416841375
0.00447487811665731
0.00498923092037148
0.00545098016628413
0.00585306258478289
0.00619361595004787
0.0064763222159268
1.24847969926065e-05
0.000253234565037839
0.00073531149144542
0.00131404157963595
0.0019246365349524
0.00253861782042163
0.00314272633957625
0.00372756517126523
0.0042837586442656
0.00480310871354944
0.00527762501149372
0.0056994189840576
0.00606257090986488
0.00636617621941932
0.00661446384839516
0.00406218780828882
0.00458303174623809
0.00506573852995042
0.00550309933566963
0.00588818379155333
0.00621598093355509
0.00648632730246543
0.00670391360448515
5.61178405352003e-05
5.90334606760215e-05
0.000474754446277044
6.26931457292398e-05
0.000483814855642512
0.0011492025611374
6.46332525453574e-05
0.000495533296095342
0.00115740416089242
0.00190399782660337
6.33692381256783e-05
0.000501558390551857
0.00116726049659339
0.00190615523148918
0.00264956367847123
5.97014913683383e-05
0.000496854904382534
0.0011695120290666
0.00190600672874791
0.00264294226062325
0.00334373139988408
5.50723094493078e-05
0.00048295337032686
0.00115770391986337
0.00189613967577586
0.00262907269673836
0.00332743779847554
0.00397011280808763
5.01694152544405e-05
0.000463922866269708
0.00113228159370229
0.00187095401352282
0.00260239628316681
0.00329892135813385
0.00394481052494693
0.00452547220688468
4.50651563773529e-05
0.000442162264513029
0.00109710305812935
0.00182994252663909
0.00255890722827616
0.00325401144022221
0.00390269787574793
0.00449196526330823
0.00501245508736182
3.97309997852476e-05
0.00041811827382865
0.00105494436107928
0.00177548252496675
0.00249786960843825
0.00319000026897766
0.00384030103222885
0.00443764030490523
0.00497076943524295
0.00543537593484463
3.42199170505449e-05
0.000391572873969689
0.00100666952925311
0.00170952378187999
0.00242033625491177
0.00310624403189363
0.00375557367223754
0.00435895360927257
0.00490477250158926
0.00538479129329986
0.00579837845164911
2.86472056425399e-05
0.00036234934859695
0.000952177119396197
0.00163273519505448
0.00232716277018547
0.00300297305204865
0.00364803741317654
0.00425397601220731
0.00481035462782047
0.0053067401332202
0.00573775196404495
0.0061049761505664
2.31649619628695e-05
0.000330415327225913
0.000891088605322086
0.00154491292605641
0.00221841498859864
0.00288017887454549
0.0035176205483451
0.00412241510275222
0.00468539441433826
0.00519639053924002
0.00564669291528165
0.00603297377497532
0.00635811876221689
1.79321789730234e-05
0.000295816176428924
0.000822914554490898
0.00144533606261369
0.00209347662986911
0.00273730129126264
0.00336386559842541
0.00396428718441781
0.00452979408120191
0.00505132330502537
0.00551970306164054
0.00592767936527844
0.00627331412609835
0.00656032909657214
1.30416196902783e-05
0.000258500807107443
0.000746938245220735
0.00133282460182145
0.00195114528376074
0.00257325897087838
0.00318578937798707
0.00377907721169779
0.00434387993627386
0.00487164521846954
0.00535409091481526
0.00578306177586734
0.00615242931306919
0.00646122969709641
0.00671378857537357
8.55734635309724e-06
0.00021798069442716
0.000661878425427065
0.0012055423261646
0.00178955193651525
0.00238640842418212
0.00298196332115623
0.00356552923542227
0.00412733484318854
0.00465809003051747
0.00515017859013413
0.00559623506537477
0.00598901777434621
0.0063232877345146
0.00659881121070993
0.00682036471510437
0.0044107335100287
0.00490902317410812
0.00536765994270442
0.00577999734437984
0.0061396242853933
0.00644204029494776
0.00668762119240169
0.00688154186775562
5.63937527266333e-05
5.93808596841487e-05
0.00047611816859532
6.31251472540016e-05
0.000485451866347134
0.00115220921769531
6.51493067805355e-05
0.000497486134440764
0.0011609519625406
0.00190920064149974
6.39547254854933e-05
0.000503848341433462
0.00117142095897278
0.00191224300797543
0.00265756027092014
6.03387971645099e-05
0.000499476452004717
0.00117433821376834
0.00191308069738695
0.00265224312590615
0.00335518345825558
5.57495239271681e-05
0.000485891580883916
0.00116321843416737
0.00190428444164099
0.00263981188506232
0.00334069163179075
0.00398576254329314
5.08778380079889e-05
0.000467166629442187
0.00113848759593539
0.00188022250833993
0.00261468883950674
0.00331414714287326
0.00396284579262555
0.00454615081019322
4.57934413722988e-05
0.000445703430481934
0.00110399887652899
0.00184036120764615
0.00257283450143157
0.00327135574138842
0.00392333200232561
0.00451571198222933
0.00503909252447642
4.04641164405377e-05
0.00042194381042463
0.00106252497307091
0.00178706192379775
0.00251348004937047
0.00320957055903886
0.00386371465330207
0.00446471942476285
0.0050012664790326
0.00546900551495758
3.49411201037838e-05
0.00039566203870274
0.00101492026517007
0.00172225866776893
0.00243764952072825
0.0031281059852876
0.00378189791289822
0.0043895834008392
0.00493945341700209
0.00542319076583411
0.00584013687340663
2.93384850456798e-05
0.000366669756310389
0.000961065708361214
0.0016465965070323
0.00234616539953049
0.00302714818057938
0.00367734842724483
0.00428830890629427
0.00484947966311229
0.00535030332873304
0.00578532075922807
0.00615610379258036
2.3808130523452e-05
0.000334921723902781
0.000900558404788931
0.00155983748903332
0.00223904965082992
0.00290663437308486
0.00354993142904916
0.00416053004863607
0.0047291358356148
0.00524542521949395
0.00570054457817169
0.0060910914531459
0.00641995426286381
1.85142338570107e-05
0.000300454332241718
0.000832881157919793
0.00146121544426184
0.00211562806490678
0.00276593712044692
0.00339910940339751
0.00400617560574989
0.00457822596671103
0.00510602162589564
0.00558020040804792
0.00599335000607578
0.00634346745148635
0.00663430265139693
1.35567592615539e-05
0.000263215341567188
0.000757279349022882
0.00134949053112708
0.00197462487359269
0.00260389368283289
0.00322382244913914
0.00382462200354568
0.00439695751677309
0.0049320712095017
0.00542145031535581
0.00585671671206618
0.0062315714426742
0.00654500399686478
0.00680140880340939
8.95861395427432e-06
0.000222634563046264
0.000672394869063677
0.00122275261347378
0.00181410110142778
0.00241879417046291
0.00302258572906635
0.0036146510524716
0.00418489290854885
0.0047241673831068
0.00522446937615275
0.00567814078249751
0.00607768924225503
0.0064176948409376
0.00669789976658456
0.00692321127161196
4.92848427558617e-06
0.00017741380322227
0.000575695750231073
0.0010779972383206
0.00163123340394522
0.00220825573717018
0.00279345557314651
0.00337465828578093
0.00394075707621792
0.00448220634343527
0.00499028181255013
0.00545802151920619
0.00587865411690263
0.0062454836319673
0.00655381738826112
0.00680400115028824
0.00700133144152703
0.00471925179326974
0.00519770423135129
0.00563501928339643
0.00602507756727574
0.00636191526982623
0.00664147091856872
0.00686461752666673
0.00703699567823825
5.66224423536515e-05
5.96658314691898e-05
0.000477252693517507
6.34928288603556e-05
0.000486838865045632
0.00115474039846969
6.55961722189842e-05
0.000499163369274643
0.00116398094631652
0.00191361059433671
6.44666999867958e-05
0.000505832108564509
0.00117500663554858
0.00191746081050929
0.00266437464422368
6.08989439326382e-05
0.000501760752379445
0.00117852518878595
0.00191919121140857
0.0026602417740946
0.00336499025421566
5.63471830258258e-05
0.000488462405728415
0.00116802615496769
0.00191136103500089
0.00264911002256764
0.00335212823857744
0.00399922602917037
5.1505001205954e-05
0.000470014978578524
0.00114392012066248
0.00188831290503052
0.00262538820729346
0.00332736279037543
0.00397846077478402
0.00456401653348535
4.64406815989899e-05
0.000448823464361233
0.00111005660090696
0.00184949114233609
0.00258500919415498
0.00328648136335418
0.00394128732953701
0.00453633749119802
0.00506219496355927
4.11179907340957e-05
0.000425324590439936
0.00106920500238655
0.00179724332305537
0.00252717617396381
0.00322670454910557
0.00388417308205171
0.00448834023959808
0.00502783233381513
0.00549827012873315
3.55858765015131e-05
0.000399283721772874
0.00102220998536175
0.00173348907953614
0.00245288793942499
0.00314731055041419
0.00380497974233633
0.00441639671106535
0.00496977278241854
0.0054567279234149
0.00587658357387596
2.99569278244659e-05
0.00037050306266849
0.000968936822614095
0.00165885184462192
0.00236293727509964
0.00304844646643292
0.00370312558437632
0.00431845418711249
0.00488378703958932
0.00538846420958868
0.00582696248239467
0.00620084450964491
2.43837576823821e-05
0.000338925580058725
0.000908960092505618
0.0015730620731063
0.00225730566514251
0.00293000055730687
0.00357841980547833
0.00419408151324655
0.0047675874715153
0.00528848512179252
0.00574780177873994
0.006142073116228
0.00647419156549956
1.9032535823065e-05
0.000304575457708914
0.000841734322420204
0.00147531039513041
0.00213526386685697
0.00279128076123974
0.00343025250811326
0.00404313017841618
0.00462089082612523
0.00515415204548662
0.00563339337574162
0.00605106990580488
0.00640512330650561
0.0066993262366359
1.40088129058392e-05
0.000267395726400697
0.000766471333245543
0.00136429957745071
0.00199546218557562
0.00263103901601509
0.00325747223735217
0.00386487577647439
0.00444379986235345
0.00498532859864829
0.00548076565427592
0.00592154650573219
0.00630122927933764
0.00661876175190987
0.00687858993795837
9.335783807613e-06
0.00022681908031282
0.000681766152358422
0.00123803915169631
0.0018358647721896
0.0024474574609822
0.00305848089262267
0.00365799837977881
0.00423574498364559
0.00478246926412927
0.00528994638655487
0.00575028611350201
0.00615578423758424
0.00650087183187404
0.00678527263021904
0.00701398983533879
5.18242123353587e-06
0.000181401563751708
0.000584961535541697
0.00109340825767773
0.00165353896051798
0.00223804996144113
0.00283123602975468
0.00342080721974266
0.00399547657269173
0.00454532555906437
0.0050617983638557
0.005537521398982
0.00596543705921277
0.00633861867503528
0.00665222102585587
0.00690659920853274
0.00710721064412773
2.05071495794422e-06
0.000130121242913716
0.000471910410165581
0.000925709151343561
0.00144436014784196
0.00199951459722828
0.00257315924282597
0.00315128321209051
0.00372140368114453
0.00427273992592504
0.00479647632051374
0.00528455167677747
0.00573066549972421
0.00612860964546595
0.00647216481698191
0.00675711236483513
0.00698433170552421
0.00715961540623097
0.00499203791359561
0.00545308471804602
0.00587149532431559
0.00624164339163811
0.00655796736379445
0.00681680868245915
0.00701951256414138
0.00717216419607176
5.99005016882965e-05
0.000478182821111005
6.3788955086933e-05
0.000487987924844962
0.00115682834113043
6.59758518625726e-05
0.000500581252237838
0.00116652914542677
0.00191728592349172
6.49093091118886e-05
0.000507534128588199
0.00117806637202577
0.0019218824224346
0.00267010453356376
6.13886702618358e-05
0.000503738560281069
0.00118213233678175
0.00192442731563342
0.00266705698504535
0.0033732998343967
5.68724859198165e-05
0.000490701363335049
0.00117219583129701
0.0019174727988097
0.00265710569511982
0.00336192119264536
0.00401070975370923
5.20584816211304e-05
0.000472506442581283
0.00114865521363042
0.00189534144907709
0.00263465179563123
0.00333876683760155
0.00399189396256845
0.004579345576327
4.70137115419511e-05
0.000451562235346826
0.0011153581630001
0.00185745999244785
0.00259560642674115
0.00329961144138574
0.00395683433256273
0.00455415717806763
0.00508211878584645
4.1698995986198e-05
0.00042830194151141
0.00107507176719168
0.0018061647626523
0.00253914970575091
0.00324164917268736
0.00390197862239033
0.0045088586059133
0.00505087246586227
0.00552362033534627
3.61598698979797e-05
0.00040248192361295
0.00102863159864343
0.0017433628305924
0.00246625891007199
0.00316412772315106
0.00382515314650351
0.00443979063061423
0.00499618705477657
0.00548591237161561
0.00590827465807608
3.05088563259656e-05
0.000373895008942282
0.000975887952173645
0.00166965804378298
0.00237770068222093
0.00306716030641792
0.00372573445214465
0.00434485108821024
0.0049137866790776
0.00542179696476747
0.00586330712011778
0.00623987445236486
2.48972352215255e-05
0.000342473137044489
0.000916395345047381
0.00158475238519898
0.0022734202049106
0.00295059179721432
0.00360348252227798
0.00422355158494531
0.00480131513181751
0.00532621358029807
0.00578917527715425
0.00618668540679721
0.00652164106290209
1.94937159643647e-05
0.000308229524173952
0.000849581882922181
0.00148779700500891
0.00215263821106331
0.00281367151699705
0.00345772298697096
0.00407567544221483
0.00465841199558973
0.00519643163228095
0.00568008191458763
0.00610170670040474
0.00645920140206249
0.00675635851885124
1.44060850770498e-05
0.000271096877832252
0.000774626895333831
0.00137744183406763
0.00201393718006979
0.00265507268244157
0.00328721846790036
0.00390040823736162
0.00448508825521189
0.0050322129142697
0.00553293565645962
0.00597853593169864
0.00636245098537154
0.00668359181203189
0.00694644647632635
9.66242473545387e-06
0.000230509782089367
0.00069008789142301
0.00125162482583702
0.00185518961865896
0.00247287246234278
0.0030902573806426
0.00369631461154666
0.00428065345868793
0.00483389029229313
0.00534763258671105
0.00581380506265822
0.0062245247056211
0.00657409614696272
0.00686222400574076
0.00709398551446762
5.42724192977948e-06
0.000185050518681769
0.000593245340700959
0.00110711977198164
0.001673338952415
0.00226445044453143
0.00286465496011094
0.00346155980437928
0.00404373257453908
0.00460106128272882
0.00512487759316289
0.0056075814031321
0.00604188708615146
0.00642067041071553
0.00673895927636843
0.00699711730776508
0.00720072285320396
2.17836523934533e-06
0.000133357419218052
0.000479758185833626
0.000939057008597477
0.00146410430007049
0.00202636023438455
0.00260769773861691
0.00319399603275659
0.00377262091771933
0.00433258228036531
0.00486465880792137
0.00536098367148015
0.00581483147274288
0.00621971975528368
0.0065692209618077
0.006858991957898
0.00708995213137408
0.00726808153955663
4.24191855763951e-07
7.57705257963201e-05
0.000345229958273374
0.000741623731828337
0.00122208884931247
0.00175431092379136
0.00231612919534147