/*--------------------------------*- C++ -*----------------------------------*\
  =========                 |
  \\      /  F ield         | OpenFOAM: The Open Source CFD Toolbox
   \\    /   O peration     | Website:  https://openfoam.org
    \\  /    A nd           | Version:  12
     \\/     M anipulation  |
\*---------------------------------------------------------------------------*/
/*   Windows 32 and 64 bit porting by blueCAPE: http://www.bluecape.com.pt   *\
|  Based on Windows porting (2.0.x v4) by Symscape: http://www.symscape.com   |
\*---------------------------------------------------------------------------*/
FoamFile
{
    format      ascii;
    class       volScalarField;
    location    "300";
    object      omega;
}
// * * * * * * * * * * * * * * * * * * * * * * * * * * * * * * * * * * * * * //

dimensions      [0 0 -1 0 0 0 0];

internalField   nonuniform List<scalar> 
10152
(
2.46683755550715
2.46683863210146
2.38167770908342
0.787976364265348
2.46684263709795
2.38167908818207
0.793667579324345
2.28699432913976
0.771619763782944
0.467710739700002
2.46684301477814
2.38168053506708
0.798708905455067
2.28699636845696
0.77720572178056
0.472176106459432
2.21610787898069
0.750343971759146
0.462639335184128
0.351047975744087
2.46684061709857
2.38167792196677
0.80319326504008
2.28699696593686
0.782182070171307
0.476158573982167
2.21610982890521
0.75578810387263
0.467032068894899
0.35461208395298
2.18721756272944
0.732292973366473
0.45491015225311
0.349134037052322
0.295033689393823
2.46684072683039
2.38167497470613
0.8071795520162
2.28699353217272
0.786615296719281
0.479718445192187
2.21611266020636
0.760656199784467
0.470973965639552
0.357808864762321
2.18722010037934
0.73760373089466
0.459210991037642
0.352646297644981
0.298018474008644
2.18619174271582
0.72101227688584
0.447061466984663
0.345721373584597
0.294266294714607
0.264125092018793
2.46684224059381
2.38167776264411
0.810722786056671
2.28699055025847
0.790558889027579
0.48289780712044
2.21610462006071
0.765001089444707
0.474503752251105
0.360681391352959
2.18722138290318
0.742362685379876
0.463087801605735
0.355818389478326
0.300710999291083
2.18619331939939
0.726226294605929
0.45127455293171
0.349171880033181
0.297210873619228
0.266715064685867
2.19192746284993
0.714288594602038
0.440576738252608
0.341623347307665
0.292558407674784
0.263809899648087
0.245681320128783
2.46684050087056
2.38168203125195
0.813861921330647
2.28699361398723
0.794062688680434
0.485730397439385
2.21610447131397
0.76886938760012
0.477657953273075
0.363258270019181
2.18721479660104
0.746616549000125
0.466567012377423
0.358674367067854
0.303143681814308
2.18619048450321
0.730903065973138
0.455081591458187
0.352304383174698
0.299887291809665
0.269065407780953
2.19192723574195
0.719437254958149
0.44472043621573
0.345016322526123
0.295457569543505
0.266366192277411
0.247984482341373
2.19485271745527
0.708259695423815
0.435197662619261
0.337507830992876
0.290162293624384
0.262838682454488
0.245528688013128
0.234178016756711
2.4668412119556
2.38168083196749
0.816636183023882
2.28701096531867
0.797168394594758
0.488248341174837
2.21610699087656
0.772307492490006
0.480469613171003
0.365563586713744
2.18721446033673
0.750407601786313
0.469679391548093
0.361238317788156
0.305336615185292
2.18619198710734
0.735087968190576
0.458504273721434
0.355131859913515
0.302310647076471
0.271200958587809
2.19192563580552
0.724056665548789
0.448468347672038
0.348104922592027
0.29810787517449
0.268705020696812
0.250087477270369
2.19485026120366
0.713358057079047
0.439289858391495
0.340854444901095
0.293021453180892
0.265358768476585
0.24780166906301
0.236261879675318
0.700786529072854
0.429917945611349
0.333505844794999
0.287388263531209
0.261278063502852
0.24487273365795
0.234075895809974
0.226859759897786
2.46683981812276
2.38166766754315
0.819080906133968
2.28699980868545
0.799913044556228
0.490479431297077
2.21612325906121
0.77535653940961
0.482969124776932
0.367619358668
2.18721728917037
0.753778810917208
0.472455631674488
0.363532873665675
0.307306749946327
2.18619074242103
0.738820275310335
0.461569606147046
0.35767342085164
0.30449692863491
0.27313578998318
2.19192806863492
0.728192866616788
0.451841274183188
0.350898258680029
0.3005142570509
0.270835044566506
0.252009330061218
2.19484800211273
0.717928766593484
0.442991074974353
0.343903518914563
0.295642848574017
0.267678912887929
0.249895469273038
0.238176576553961
2.19512303903027
0.705875254091413
0.433972137917833
0.336817641499368
0.290216908589177
0.263768733252429
0.247114780793104
0.236131451823632
0.228769617779121
0.424021572716094
0.329403586034956
0.284420449694551
0.259295124424902
0.24373447573753
0.233556079585793
0.226775528436541
0.222221621888198
2.46683946604203
2.38167684502285
0.821228269382945
2.28698487763968
0.802331043109722
0.49244957075675
2.21611273351246
0.778050477531337
0.485184045790463
0.369446119603847
2.18721964834879
0.756769749162666
0.474924657889641
0.365579437195839
0.309070011020231
2.18619270301143
0.742140985570325
0.464305959217154
0.35994954745196
0.306461798552982
0.274881665422632
2.19193094106825
0.73188301129888
0.454864575538972
0.353412309575687
0.30268816693258
0.272766463727251
0.25375938058061
2.19485126498038
0.722021018654659
0.446322786618665
0.346663842153945
0.298028005881852
0.269798224330023
0.251813644714143
0.239936433169863
2.19511883355704
0.71038648919682
0.437632806658213
0.339834031124049
0.292812400076477
0.266068971250921
0.249194053983982
0.238038099273336
0.230535321698657
2.1947957044284
0.696685840411533
0.42807171276789
0.33269231126769
0.287228299302009
0.261766200467525
0.245953740864049
0.235583828455417
0.22865817432461
0.223990083088834
0.324985331131615
0.281298331621426
0.257065039527663
0.242235112361454
0.232647368868427
0.226326434105131
0.222150460145666
0.219378537024733
2.46684015436411
2.3816763713061
0.823106998261302
2.28699272672919
0.804456240582778
0.494182795851144
2.21611282213662
0.780424614595262
0.487140004521144
0.371063231920956
2.18722069209532
0.759413395866879
0.477113093708651
0.367398234328083
0.310641823008342
2.18619326521526
0.745087718529438
0.466740818202
0.361980570751072
0.308220693896582
0.276450187725693
2.19192876045193
0.735167497995059
0.457565185713861
0.355665666056572
0.304643340995468
0.27450990967334
0.255345511787806
2.19485623472742
0.725672780596861
0.449310399430159
0.349150295556003
0.300185600404714
0.271722649424929
0.253561880710539
0.241547023788572
2.19512640923206
0.714426749071688
0.440926002251566
0.342564863100959
0.295176248576725
0.268174763229356
0.251104960285857
0.239795171181132
0.232167364492266
2.19479609714732
0.701094856461412
0.431685497195756
0.335680833712106
0.289803147584441
0.264049976335587
0.248018727625297
0.237478371025759
0.230416464670368
0.22563477256705
2.19479887016824
0.685896277543829
0.421394376956227
0.328283116236481
0.284096869248007
0.25952644427
0.244442529635002
0.234656742835428
0.228183311978504
0.223892440191389
0.221030661435582
0.278012556674505
0.254708295131603
0.240536487371034
0.23146578714549
0.225563705864699
0.221752054094583
0.219321782113431
0.21777369218777
2.46684065977316
2.38167824010532
0.824743314117574
2.28699203873189
0.806315330485262
0.495701084008802
2.21610653869312
0.782511798115348
0.488860947685455
0.372488924135221
2.18722187234056
0.761744634391289
0.479046152025986
0.369008434548777
0.312037159461861
2.18619376481793
0.74769474618994
0.468899894897884
0.363786111590292
0.30978880432617
0.27785306789691
2.19192831894748
0.738083150007821
0.459969480734353
0.357677535200204
0.306394334083634
0.276076536034372
0.256775982211963
2.1948512894338
0.728923517599557
0.451980387313402
0.351380440612904
0.30212773798992
0.273461060515384
0.255146952895955
0.243013084073168
2.19512706550048
0.71803379437464
0.443879481247926
0.345025567655181
0.297316330617237
0.270089508957148
0.252849140038242
0.241404697694783
0.233668243820693
2.19480171766642
0.705063991271414
0.434934790628128
0.338383846123551
0.292147805194053
0.266142583666528
0.249920894577791
0.239230158838792
0.232046214236377
0.22716310278583
2.194803888611
0.690227495166476
0.424919763989884
0.331240157308158
0.286655849785665
0.261799214216212
0.246497778802147
0.236540737392122
0.229931083627937
0.225530160226734
0.222575563671646
2.19512089319289
0.673618052279615
0.41384209486269
0.323550874163998
0.280833090946414
0.257172200243974
0.242743067415303
0.233469080534725
0.227405399819163
0.223469757404239
0.220947963128253
0.219329776964998
0.252305055070236
0.238780751856243
0.230165799088053
0.224612742436397
0.22109955689101
0.218968112835065
0.217732345081877
0.217035391860177
2.4668404823402
2.38167958935697
0.826160653333325
2.28699459777405
0.807934680491534
0.497024619198159
2.21610307279459
0.784337990639739
0.490368547289916
0.373740217914914
2.18721678171062
0.76379305052399
0.480747313054387
0.370428134693046
0.313270437432255
2.18619496440497
0.74999425760191
0.470807741607951
0.365384969907243
0.311180967841014
0.27910214691421
2.19192894588419
0.740664049935837
0.46210254910858
0.359466833239145
0.30795587468187
0.277477881802372
0.258059697796176
2.19484834324547
0.731810396481378
0.454358498177263
0.353372677150586
0.303868048323572
0.275023829177873
0.256576718902724
0.24434021170901
2.19512350666216
0.721245209893182
0.446519871959694
0.34723357921594
0.299243968147108
0.27182061668145
0.254431702852908
0.24287034499781
0.235040123950667
2.1948018994054
0.708616823753794
0.43785062235802
0.340819428190334
0.29427094630948
0.268046808124476
0.251659492824935
0.240837311069627
0.233546444711119
0.228575069718151
2.19480747205142
0.694123191199879
0.428113261432425
0.333912195530514
0.288983028612186
0.263880937298768
0.248392557847665
0.238286967080279
0.231556857373421
0.227056553162536
0.224018269598082
2.19512619639575
0.677861388091201
0.417315077838365
0.326443090503005
0.283374589577809
0.25943946881527
0.244795008461337
0.23534837258955
0.229145360517731
0.225098157639189
0.222486263800907
0.22079187860022
2.1948496692132
0.65972747213164
0.405521568575774
0.318452679436206
0.277508354855234
0.254802827463837
0.240999860342187
0.232175425862012
0.226452891589152
0.222804571880393
0.220571192790299
0.219262892167328
0.218512444413361
0.237086872390058
0.228893062527782
0.223626645719776
0.220331215102051
0.218408317268452
0.217420190829726
0.217009177039079
0.21690363623692
2.46684016227788
2.38167911428301
0.827380014378915
2.2869964960413
0.80933731621016
0.498171759385618
2.21610793041731
0.785928949480042
0.491682822470092
0.374832939136278
2.1872133618948
0.765586169939544
0.482237856540271
0.371674236412333
0.314355399348671
2.18619048118326
0.752015090027311
0.472487084617222
0.366794956515343
0.312411514286532
0.280209130643086
2.19193110897888
0.742941425004143
0.463988146601259
0.361051867733713
0.309342520281762
0.278725670915585
0.259206070158175
2.19485165253018
0.734367027297989
0.45646928163625
0.355145328646015
0.305420706200605
0.276422115082406
0.257859920520073
0.245535070170793
2.19511833635325
0.724098123312799
0.448872586051775
0.349206901318687
0.300972177202192
0.273377659403874
0.255859788667546
0.244197329608463
0.236286435515637
2.19479787338856
0.711781494495281
0.440458709991078
0.343005540003019
0.296183995803318
0.26976943919273
0.253238278872079
0.242301893398789
0.234918272270192
0.229870735494959
2.1948071299934
0.697613447897406
0.430985967625851
0.336321014871952
0.291089876424904
0.265775358625337
0.250125628401102
0.239891267571906
0.233055830829918
0.228468180057284
0.225356789898884
2.19513173342592
0.681676370833093
0.420457233026869
0.329076652904048
0.28568280807373
0.261512698942378
0.246685574697049
0.237091578443475
0.230767929838863
0.226621590362253
0.22392734457083
0.222163285798097
2.19485276903839
0.663868968807373
0.408940308171538
0.321316169232889
0.28000463389108
0.257064720633059
0.243055126651298
0.234057697312871
0.228192147778305
0.224427347387596
0.222101169462518
0.220718713173497
0.219905857054319
2.19192800044391
0.643917256256702
0.396536430554448
0.313172065388578
0.274161998031725
0.252558996771842
0.239350564371595
0.230923785799136
0.225479085733883
0.22203839820525
0.22000074648497
0.218928585454509
0.218460993185987
0.218316137673739
0.227783834026193
0.222751227185863
0.219602561257212
0.217792799574506
0.216941691112575
0.216735068011571
0.216891443766387
0.217190413724951
2.46683980077335
2.38167808144202
0.828420354613627
2.28699586317628
0.810543886810856
0.499159157848618
2.21611228819748
0.787307036576387
0.49282195711382
0.375781691234605
2.18721717928752
0.767148990533964
0.483537462362657
0.37276246893161
0.315305029776247
2.18619102891408
0.753784468578212
0.473958918418161
0.368032741652584
0.313494120707603
0.281185443794038
2.19192741355785
0.744943400431392
0.465648403478814
0.362450056739393
0.310568406887083
0.279831557868532
0.260224762814622
2.19485540606405
0.736623884881794
0.458335898971087
0.356716210603068
0.306799904097278
0.277667421807504
0.259005890971244
0.246605151386907
2.19512415553043
0.72662608669929
0.450961684716447
0.35096342682741
0.302514674408526
0.274771343781146
0.257141803892009
0.245392155540492
0.23741198907688
2.19479255283706
0.714593501680751
0.44278367655624
0.34495999486817
0.29789975727129
0.271319569631199
0.254663677173195
0.243628444510147
0.23616475273967
0.23105174803478
2.19480278064444
0.700723783919869
0.433557831405151
0.338484191087514
0.292988568604092
0.267489532712272
0.251700241217369
0.241354427694128
0.23442756223033
0.229764067138073
0.226589493983917
2.1951268519276
0.6850966859838
0.423284821632497
0.331456379155757
0.2877730720558
0.263398547384484
0.248414602360566
0.238694129757827
0.232266090994911
0.228032845738706
0.225265803538106
0.223440498849877
2.19485591281545
0.667593914247868
0.412030182347637
0.323919267268107
0.282289316920125
0.259129444910929
0.244944884789966
0.235802174504814
0.229815193220056
0.225949490426813
0.223540163916576
0.222088782248622
0.221217765792267
2.19192860642939
0.647940688902473
0.399895079678229
0.316010818729822
0.276649367029629
0.254791669943349
0.241410907056233
0.232816948324828
0.227226589167625
0.223663788900266
0.221526933281305
0.220376935658723
0.219848398524237
0.219652814779983
2.18619166013384
0.625828461909036
0.387086648133646
0.307991273576529
0.27106148913034
0.25054754780196
0.237977806684161
0.229868763972592
0.2246321295184
0.221327057388569
0.219390491826753
0.218441115797756
0.218165488323091
0.218278918946673
0.218550690628958
0.222131705609066
0.219060158757401
0.2172811600356
0.216457564545084
0.216328378037697
0.216651432965781
0.217190784195735
0.217756718553005
2.46683963623513
2.38167701464299
0.829298952649276
2.28699420050789
0.811573192478755
0.500001969528995
2.21610928201363
0.788492282728562
0.493802448690374
0.376599884995118
2.18722091846302
0.76850281885184
0.484663984231858
0.373707348971537
0.31613148364202
2.18619112937141
0.755326826259398
0.475242519864657
0.369113859623838
0.314441719050865
0.282042076257793
2.19192581834411
0.746696819759716
0.467103910840236
0.363677785956124
0.311647067005765
0.280806931199302
0.261125460783206
2.19485328379554
0.738608363083227
0.459979960623752
0.35810234305606
0.308019513684496
0.278771267469637
0.260024254954138
0.247558503281429
2.19513072820707
0.728858432967603
0.452809786594429
0.352520560316244
0.303885300560429
0.276012891824589
0.258286905817125
0.246462254060274
0.238422738245212
2.19479837995255
0.717086379222879
0.444848990409967
0.346700332420174
0.299431656380848
0.272707555781428
0.255943706626199
0.244823159747856
0.237290555760908
0.232121411727111
2.19479735130248
0.703488363962842
0.435851644877014
0.340418926083835
0.294691903780708
0.269032478932096
0.253122435065735
0.242680326286401
0.235674453677649
0.230945494203568
0.227716579950505
2.19512450376666
0.688146021347966
0.425817394480939
0.333595371143899
0.289657514097322
0.26510498597217
0.249985724502234
0.240156388587376
0.233638175944007
0.229329417913241
0.226498980425319
0.224620564027638
2.19485307998173
0.670936218625798
0.414810582640391
0.326271569737972
0.284362858010417
0.261007626519007
0.246671978384504
0.237405448425474
0.231314663567754
0.227361618885405
0.224879031080053
0.223366196313517
0.222443598405213
2.19192771322412
0.651563624679598
0.402929667876365
0.318587216329716
0.278920948695747
0.256845518096545
0.243301229382068
0.234567237544676
0.228855539003024
0.225189353296243
0.222966281896015
0.221745694734468
0.221159228476294
0.220915174902262
2.18619186705456
0.629716725016763
0.390380978685799
0.310806575573423
0.273548033093677
0.252788027952447
0.240022301790681
0.23177609444544
0.226397059749147
0.222965186257584
0.220922112715467
0.219887239751216
0.2195461486869
0.219609815236337
0.219840808154391
2.18721696261348
0.605771883476318
0.377695603251384
0.303428115724538
0.268622855438165
0.249106310994411
0.237037666202752
0.229218749702104
0.224075389429658
0.220819456406378
0.218900412602057
0.217964831280843
0.217751198923298
0.218018096996238
0.218526169027737
0.219075133748926
0.218855085601667
0.21702158322936
0.216131711162498
0.215958312341144
0.216307849930259
0.216980789331141
0.217768126424286
0.218498273963829
2.46684054324524
2.38167679998504
0.830032622266798
2.28699253851232
0.812442556844046
0.50071418868122
2.21610769218969
0.789503124216285
0.494639332940902
0.377299855275602
2.18721971661123
0.769666869984565
0.485633628698739
0.3745222145265
0.316846049957163
2.18619160177411
0.756663094480908
0.476355327112026
0.370052653680774
0.315266420286895
0.282789500114227
2.1919270372806
0.748225079679508
0.468373548879522
0.364750333626789
0.31259131279641
0.281662757521078
0.261917673798728
2.19484998274048
0.740346609881057
0.461421643494899
0.359319800999184
0.309092866791576
0.279744945412654
0.260924674644421
0.24840344010698
2.1951271024068
0.730821788572698
0.454438006134913
0.353894960229063
0.305097651998885
0.277113632398474
0.259304616541286
0.247415640384575
0.239325411277459
2.19480307817665
0.719288530758291
0.446676662159231
0.348243585328496
0.300793252783205
0.273944362724182
0.257087299629705
0.245893319443334
0.238301566249957
0.233084391426591
2.19480292537903
0.705939902847552
0.437890078669863
0.342142277352503
0.296213103056038
0.270414378876787
0.254399957712018
0.243874814901652
0.236800886216051
0.232015623559588
0.228740116083614
2.19511912672285
0.69085711416633
0.42807695810334
0.335509363319475
0.29134855814324
0.266641182983357
0.25140501255394
0.241481915880936
0.23488596452952
0.230511947975595
0.227626708204235
0.225702523961264
2.19485103008124
0.673917787542326
0.417301428532896
0.328386458154865
0.28623364787582
0.262707444937984
0.248241086685602
0.238868350037713
0.232688518918988
0.228660031988315
0.226113592193228
0.224546973507777
0.223579410672924
2.19193030732367
0.654819279714083
0.405660636105702
0.32091409959535
0.280981970236941
0.258717595601766
0.245028446743058
0.236174331887646
0.230359791388959
0.226605395828232
0.224307494089199
0.223024224674113
0.222385503803029
0.222097956396899
2.18619074015547
0.63321670498754
0.393356896485332
0.313358987148134
0.275813794480802
0.254843373809673
0.241912637935188
0.233534877164578
0.228037576802866
0.224500646552204
0.22236742393221
0.221257788514061
0.220856353752622
0.220871322241726
0.221062081456334
2.18721690518297
0.609487790851745
0.380924725516091
0.306224690413392
0.271115097958499
0.251365834127941
0.239104361257065
0.231121630494767
0.225862423606166
0.22248067837448
0.220448626317563
0.21941879360415
0.219130957735881
0.219342852810373
0.21981068626041
0.220327292535888
2.21610714181855
0.586246001084989
0.369829140549894
0.300524615896577
0.267575117964373
0.248750758648774
0.236922122747206
0.229164612023141
0.224033979994334
0.220684734998187
0.218681068981103
0.217664107367512
0.217391097503902
0.217668005932242
0.218295796835293
0.219061723598971
0.219783349601068
0.217169655832604
0.216114273637109
0.215792632841921
0.216036895101333
0.216692231691333
0.217584213578356
0.218519253703917
0.219336096237029
2.46684130462642
2.38167920268251
0.83063918615489
2.28699252204384
0.813169306866314
0.501309341515316
2.21610613034239
0.790356831917842
0.495346549962593
0.377893072696809
2.18721742646892
0.7706595210369
0.48646121626971
0.375219340631012
0.31745920570457
2.18619327907969
0.757812123588513
0.477313199090968
0.370862314739703
0.315979479080286
0.283437513320581
2.1919270686292
0.749549172468127
0.469474423902749
0.365681816191006
0.313413152503658
0.282409466676643
0.2626105803016
2.19485063213344
0.741861863684352
0.462679432622411
0.360383593535844
0.31003261021665
0.280599347269514
0.261716644141793
0.249148310785764
2.19512572264615
0.732541576459417
0.455866097426745
0.355102399570974
0.306164842530843
0.278084720115694
0.260204530994066
0.248260612806901
0.240127207232694
2.19480599233849
0.721225573539996
0.448287293750147
0.349606078946334
0.301997898061721
0.275041126977034
0.258103836742266
0.246846855738103
0.239204487197007
0.233946335857532
2.19480540593147
0.708105891893679
0.43969451631058
0.34367088218224
0.297565492790504
0.271646017376411
0.255541552514317
0.244944986009482
0.237812604439099
0.232979058794042
0.229663703943657
2.19512448062885
0.693261645025565
0.430085555188198
0.337214762224246
0.29285911648408
0.268017244357189
0.252680129969079
0.242676349089778
0.236013523997562
0.231583319246427
0.228650911402738
0.226687436601306
2.19484595929606
0.676569405003855
0.419524335837088
0.330279327219648
0.287912982211773
0.2642378923444
0.249658552991404
0.240194552845253
0.233938269239023
0.229844772671071
0.227243049579157
0.225629790951676
0.224623348041819
2.19192739202626
0.657725719539278
0.408107922145707
0.323005928594809
0.282841460631412
0.260412829027029
0.246597634695966
0.237640209755526
0.231737838368664
0.227907879191239
0.225545212606357
0.224207028750966
0.223522251047046
0.223196521131148
2.18619392223197
0.636371514098439
0.396036487767349
0.315663100971044
0.277867420255418
0.256715517160195
0.243642987967454
0.235148955838712
0.229550689001855
0.225925002562615
0.223714827884154
0.222539971233827
0.222084382176891
0.222054762520516
0.222208885859914
2.18721736716211
0.612829139318018
0.383839104495142
0.308757929543038
0.273382271558144
0.253432712172233
0.241008766440193
0.23288992380977
0.227518397583531
0.224032736087273
0.22190730273164
0.220797512234021
0.220444201230257
0.220604327643105
0.22103129719121
0.221514654776994
2.21610686072358
0.58976558838886
0.372994068400256
0.303313913776143
0.270084333461932
0.251039870192452
0.239024842710415
0.231102266056986
0.22582636142257
0.222374981712047
0.220257282191018
0.219137963848818
0.218780730882041
0.218992965110778
0.219574664842843
0.220308420660534
0.221004696621747
2.28699365889622
0.573588312677019
0.367479577128037
0.301559122773868
0.269292471704862
0.250356118587972
0.238219913835215
0.230138662655842
0.22472330314041
0.221159683229811
0.218906107912097
0.21769151407944
0.21725350765196
0.2174087273456
0.218001575407778
0.218857741059247
0.219779539833318
0.220594625418036
0.216564500695037
0.215983330126173
0.21600955850696
0.216507147590927
0.217343262162567
0.21835777654289
0.219365288613792
0.220209973372095
2.38168123357861
0.831134195116608
2.2869958697761
0.813771414879662
0.501801064241448
2.21610382311135
0.791071059383747
0.495937679227536
0.378390513479984
2.18721513546742
0.771497758112584
0.487160561366932
0.375810149098832
0.317980743556514
2.18619185766236
0.758791720387114
0.478130716944905
0.371554994152394
0.3165913424759
0.283995283333176
2.19192767101094
0.750688063072896
0.470422093154853
0.36648522961961
0.314123760035365
0.283056855551172
0.263212909477457
2.19484832729979
0.743174590540789
0.463770170107421
0.361307606593314
0.310850611813124
0.281344835919872
0.262409329791712
0.249801294385232
2.19512388949932
0.734040844241056
0.457112228795839
0.356157628761072
0.307099336477672
0.278936937444198
0.260996092868567
0.249005508660296
0.24083553034122
2.19480443521941
0.722922620687882
0.449700218713134
0.350803300079758
0.30305849910616
0.276008854184036
0.259002814990778
0.247692015569521
0.240006506237948
0.234713511639705
2.19480820150475
0.710011864512458
0.441285044518912
0.345020738708379
0.298762211984708
0.272738373314286
0.256556466492261
0.245898661512384
0.238716240386993
0.233841419432252
0.230492080371834
2.19512674179105
0.695386122483469
0.43186402621648
0.338727797133894
0.294202277993233
0.269243833255243
0.253819718586223
0.243746641387673
0.237026435173397
0.232548004810335
0.229575134104173
0.227578036462973
2.19485106355819
0.678921282034473
0.421500834038275
0.331966246005752
0.289413339389227
0.265608920593921
0.250932070937356
0.241389680704494
0.235067809238184
0.230918429876033
0.228269054164978
0.226615567520859
0.225575674903593
2.19192327368715
0.660311529436352
0.410292726694731
0.324878285569652
0.284510699506302
0.261939350599604
0.248015119167622
0.238968913209854
0.232991362296778
0.229096609190527
0.226678055409591
0.225292156545189
0.224567250948337
0.224208350576827
2.18619190833793
0.639194492578479
0.398439696299934
0.317734263829438
0.279719379499119
0.258410291854621
0.245215521205613
0.236620850266756
0.230936113733714
0.227234792672062
0.224958649820306
0.223727116740717
0.223223742147032
0.223154464519966
0.223276143576087
2.18721820985511
0.615862855989459
0.386466968369524
0.3110442871712
0.275435075172862
0.255312509407895
0.242750062688615
0.234515275375181
0.229044566826391
0.225470394034769
0.223266123346092
0.222087893140803
0.221677040186667
0.221790084167531
0.222178948622806
0.222631497056735
2.21610741556064
0.592863891924963
0.375846370104486
0.305838268817059
0.272363783584968
0.253129041559693
0.240955618359329
0.232895632915678
0.227500177057416
0.223948615896361
0.221736955473759
0.220533063179428
0.22010405289876
0.22025855084987
0.220795746124576
0.221495279046147
0.222164165074365
2.28698123859102
0.576904830331745
0.370589718650057
0.304364506202219
0.271839003042687
0.252691120330733
0.240372449473052
0.232127121058772
0.226561499296574
0.222863713964223
0.220517357511875
0.219197594235003
0.218665839141519
0.21874526341892
0.219281551850103
0.220099179793654
0.220995531364265
0.221790962657634
2.38167808075944
0.59023846224052
0.381842623773926
0.3119442397277
0.276586953828276
0.255517901382208
0.241909345714293
0.232783352327352
0.226605426539748
0.222477240252422
0.219820986723515
0.218224418552294
0.217492912708812
0.217411893224334
0.217829517167514
0.218611760127554
0.219598201222656
0.220599025952897
0.221447146590493
0.216692614693613
0.216379358751705
0.216599150341006
0.217232232690847
0.218157699464733
0.219222929540246
0.220246131857578
0.221073801831413
2.28699853912474
0.814262133496728
0.502204244828267
2.21610956824865
0.791664462476022
0.496426318826876
0.378802866408081
2.18721432026638
0.772199448266373
0.487745288270434
0.376305583953882
0.318419969353783
2.1861902107878
0.75961884198717
0.478821535666903
0.372142020772906
0.317111769718823
0.284471447407134
2.19192817451278
0.751658841502827
0.47123087455506
0.367172567605034
0.31473351336392
0.283614091780039
0.263732897069061
2.19485142689179
0.744303612427423
0.464709197273223
0.362104637585934
0.311557928283724
0.281991164391071
0.263011454700117
0.250370286239323
2.19511923406387
0.735339443350261
0.458192953355987
0.357074319451261
0.307912848379309
0.279680555918894
0.261688428558949
0.249658507734559
0.241457776422858
2.19480204369697
0.724401659932931
0.450933277600769
0.351849763210378
0.303987346741809
0.276858206176658
0.259793604642139
0.248437100495231
0.240715022263143
0.235392559528671
2.19480010875562
0.711681477627498
0.442680593259502
0.346207062582618
0.2998159846293
0.273702321303469
0.25745409793939
0.246744017569555
0.239518941456209
0.234608972548069
0.231230761570037
2.1951316293707
0.697255822383626
0.433432054429514
0.340064157532336
0.295390990687726
0.270331812710329
0.254832935819557
0.24470052337593
0.237931240948197
0.233411559469635
0.230404092407185
0.228378315057085
2.19485311275583
0.680999218633585
0.423251274543504
0.333463154099841
0.290747580218778
0.266831083844384
0.252070251950769
0.242460646004383
0.236082616207411
0.231885330035657
0.229195026000605
0.227506978744334
0.226438417413151
2.19192929954482
0.662605259938365
0.412235988329797
0.326547136102725
0.286002077165448
0.263306865097084
0.249288568703487
0.240166181475941
0.234124297821983
0.230174031469124
0.227707391275872
0.226280257102645
0.225520624883652
0.225133092931254
2.18619160196075
0.641709953094941
0.400586809896721
0.319588301747803
0.281381496788373
0.25993606006613
0.246635911915291
0.237954710989379
0.232195976750003
0.228430037668671
0.226097290558454
0.224816695754227
0.22427158596379
0.224167542342393
0.224260869034115
2.18722070558694
0.618598033314775
0.38882892166108
0.313099957984775
0.277285267559781
0.257012764375589
0.244331542823725
0.235997548334228
0.230441300343462
0.226791472384303
0.224520014982609
0.223282952476034
0.222821801993015
0.222892922912416
0.223247522049265
0.223672506452988
2.21610851709353
0.595734339281705
0.378428245494567
0.308117458976659
0.274426037295586
0.255026165128027
0.242717475288463
0.234541497547091
0.229044834347689
0.225404713874973
0.223113000096457
0.221837590424336
0.221346851164041
0.221450130837359
0.221946202278584
0.222613129171495
0.223256124112018
2.28699400985074
0.579877144969766
0.373393983578283
0.3069023366919
0.27414969956495
0.25481800992105
0.24234320768172
0.233959792314445
0.228270085753427
0.224462504016371
0.222023972829772
0.220617524470657
0.220008147854251
0.220022561847658
0.220507651992915
0.221286928241664
0.222154626142437
0.222927491007881
2.38166506997839
0.593417605387301
0.384933832570818
0.314814430338331
0.279207960841944
0.257925867304116
0.244132019998415
0.234839105394921
0.228507385006283