/*--------------------------------*- C++ -*----------------------------------*\
  =========                 |
  \\      /  F ield         | OpenFOAM: The Open Source CFD Toolbox
   \\    /   O peration     | Website:  https://openfoam.org
    \\  /    A nd           | Version:  12
     \\/     M anipulation  |
\*---------------------------------------------------------------------------*/
/*   Windows 32 and 64 bit porting by blueCAPE: http://www.bluecape.com.pt   *\
|  Based on Windows porting (2.0.x v4) by Symscape: http://www.symscape.com   |
\*---------------------------------------------------------------------------*/
FoamFile
{
    format      ascii;
    class       volScalarField;
    location    "300";
    object      p;
}
// * * * * * * * * * * * * * * * * * * * * * * * * * * * * * * * * * * * * * //

dimensions      [0 2 -2 0 0 0 0];

internalField   nonuniform List<scalar> 
10152
(
83333.333245035
83333.3332439753
83333.3332450165
83333.3332444419
83333.3332428501
83333.3332439458
83333.333243383
83333.3332449815
83333.3332444188
83333.3332434888
83333.3332416753
83333.3332428119
83333.3332422676
83333.3332439012
83333.3332433422
83333.3332424444
83333.3332449157
83333.33324436
83333.3332434546
83333.3332427239
83333.3332404265
83333.3332416406
83333.3332411001
83333.3332427622
83333.3332422191
83333.3332413518
83333.3332438326
83333.3332432715
83333.3332423949
83333.3332416943
83333.3332448181
83333.3332442745
83333.3332433854
83333.3332426679
83333.3332421938
83333.3332390995
83333.3332403944
83333.3332398568
83333.3332415943
83333.3332410567
83333.3332402005
83333.3332426915
83333.3332421442
83333.3332412949
83333.3332406024
83333.3332437366
83333.3332431852
83333.3332423211
83333.3332416336
83333.3332411589
83333.3332446935
83333.3332441742
83333.333243309
83333.3332425983
83333.3332421434
83333.3332419163
83333.3332376981
83333.3332390684
83333.3332385364
83333.3332403503
83333.3332398193
83333.3332389704
83333.3332415263
83333.3332409864
83333.3332401456
83333.3332394433
83333.3332425942
83333.3332420538
83333.333241219
83333.3332405376
83333.3332400514
83333.3332436172
83333.3332430888
83333.3332422433
83333.3332415608
83333.3332411037
83333.3332408509
83333.3332445492
83333.3332440639
83333.3332432271
83333.3332425278
83333.3332420882
83333.3332418787
83333.3332418858
83333.3332362272
83333.3332376682
83333.3332371435
83333.3332390258
83333.3332385031
83333.3332376629
83333.3332402845
83333.3332397532
83333.3332389187
83333.3332382075
83333.3332414311
83333.3332408977
83333.3332400726
83333.3332393787
83333.3332388717
83333.333242473
83333.3332419561
83333.3332411382
83333.3332404624
83333.3332399919
83333.333239711
83333.3332434835
83333.3332429853
83333.3332421631
83333.3332414936
83333.3332410459
83333.3332408094
83333.3332407688
83333.3332443964
83333.3332439418
83333.3332431402
83333.3332424591
83333.3332420289
83333.3332418395
83333.3332418608
83333.3332420748
83333.333234691
83333.3332361978
83333.3332356806
83333.3332376271
83333.3332371119
83333.333236281
83333.3332389614
83333.33323844
83333.3332376131
83333.3332368963
83333.3332401915
83333.333239667
83333.3332388483
83333.3332381438
83333.3332376178
83333.3332413095
83333.3332408007
83333.3332399935
83333.3332393044
83333.3332388106
83333.3332384989
83333.3332423318
83333.3332418502
83333.3332410545
83333.3332403964
83333.3332399305
83333.3332396653
83333.3332395822
83333.3332433472
83333.3332428779
83333.333242081
83333.3332414291
83333.333240987
83333.3332407646
83333.3332407405
83333.3332408868
83333.3332438121
83333.3332430472
83333.3332423877
83333.3332419688
83333.3332417884
83333.3332418291
83333.3332420546
83333.3332424455
83333.3332330946
83333.3332346618
83333.3332341509
83333.333236157
83333.3332356494
83333.3332348271
83333.3332375638
83333.3332370506
83333.3332362316
83333.3332355113
83333.3332388703
83333.333238356
83333.3332375444
83333.3332368322
83333.3332362901
83333.3332400714
83333.3332395718
83333.3332387711
83333.3332380713
83333.3332375549
83333.3332372146
83333.3332411625
83333.3332406945
83333.3332399106
83333.3332392405
83333.333238747
83333.3332384501
83333.333238327
83333.333242175
83333.333241736
83333.3332409689
83333.3332403311
83333.3332398742
83333.3332396154
83333.3332395499
83333.3332396417
83333.3332432205
83333.3332427729
83333.3332419988
83333.333241362
83333.333240936
83333.3332407128
83333.3332407057
83333.333240867
83333.3332411757
83333.3332429527
83333.3332423107
83333.3332419095
83333.3332417346
83333.3332417853
83333.3332420271
83333.333242429
83333.3332429654
83333.3332314424
83333.333233065
83333.3332325585
83333.3332346204
83333.3332341191
83333.3332333038
83333.3332360938
83333.3332355882
83333.333234777
83333.3332340542
83333.3332374739
83333.3332369678
83333.3332361632
83333.3332354459
83333.3332348893
83333.3332387527
83333.3332382625
83333.3332374684
83333.3332367617
83333.3332362252
83333.3332358593
83333.3332399248
83333.3332394673
83333.333238691
83333.3332380088
83333.3332374912
83333.3332371625
83333.3332370033
83333.3332409914
83333.333240575
83333.3332398245
83333.3332391762
83333.3332386953
83333.3332383963
83333.3332382909
83333.3332383342
83333.3332420236
83333.333241613
83333.3332408806
83333.3332402633
83333.3332398254
83333.3332395648
83333.3332395074
83333.3332396174
83333.3332398627
83333.3332430366
83333.3332426725
83333.3332419241
83333.3332412949
83333.3332408816
83333.3332406686
83333.3332406584
83333.3332408387
83333.3332411618
83333.3332416068
83333.3332422306
83333.3332418439
83333.3332416784
83333.3332417329
83333.3332419867
83333.3332424025
83333.3332429503
83333.3332436056
83333.333229739
83333.333231412
83333.333230908
83333.3332330223
83333.3332325257
83333.3332317147
83333.333234556
83333.3332340575
83333.3332332525
83333.333232527
83333.3332360035
83333.3332355054
83333.3332347077
83333.3332339875
83333.3332334172
83333.3332373573
83333.3332368749
83333.3332360875
83333.3332353761
83333.3332348228
83333.3332344341
83333.3332386096
83333.333238159
83333.3332373902
83333.3332366992
83333.3332361617
83333.3332358036
83333.3332356122
83333.3332397535
83333.3332393477
83333.3332386066
83333.3332379464
83333.333237442
83333.3332371064
83333.333236963
83333.3332369645
83333.3332407922
83333.3332404399
83333.3332397329
83333.3332391092
83333.3332386476
83333.3332383509
83333.3332382429
83333.3332383072
83333.3332384968
83333.3332418458
83333.3332414865
83333.3332407881
83333.3332401939
83333.3332397726
83333.3332395259
83333.3332394614
83333.3332395823
83333.3332398433
83333.3332402194
83333.3332428339
83333.3332425338
83333.333241855
83333.3332412325
83333.3332408252
83333.3332406207
83333.3332406139
83333.3332407953
83333.333241134
83333.333241594
83333.3332421566
83333.3332417739
83333.3332416174
83333.3332416742
83333.3332419284
83333.3332423556
83333.3332429192
83333.3332435878
83333.333244337
83333.3332279884
83333.3332297074
83333.3332292034
83333.3332313673
83333.3332308737
83333.333230064
83333.3332329557
83333.3332324632
83333.3332316619
83333.3332309327
83333.3332344638
83333.3332339735
83333.3332331818
83333.3332324588
83333.3332318756
83333.3332358859
83333.3332354113
83333.3332346314
83333.3332339166
83333.3332333493
83333.3332329395
83333.3332372152
83333.3332367712
83333.3332360095
83333.3332353129
83333.3332347589
83333.3332343747
83333.333234155
83333.3332384429
83333.3332380409
83333.3332373071
83333.3332366379
83333.3332361128
83333.3332357474
83333.3332355678
83333.3332355322
83333.3332395579
83333.333239212
83333.3332385153
83333.3332378811
83333.3332373955
83333.3332370664
83333.333236912
83333.3332369336
83333.3332370757
83333.3332406
83333.3332402852
83333.3332396333
83333.3332390391
83333.3332385968
83333.333238314
83333.3332382024
83333.3332382645
83333.3332384745
83333.3332387905
83333.3332416421
83333.3332413483
83333.3332406999
83333.3332401257
83333.3332397175
83333.3332394819
83333.3332394248
83333.3332395388
83333.3332398127
83333.3332402027
83333.3332406897
83333.3332426232
83333.3332423889
83333.3332417625
83333.3332411709
83333.3332407705
83333.3332405696
83333.3332405663
83333.3332407458
83333.3332410927
83333.3332415688
83333.3332421445
83333.3332428005
83333.3332415512
83333.3332416079
83333.3332418607
83333.3332422882
83333.3332428637
83333.3332435504
83333.3332443169
83333.333245138
83333.3332261945
83333.333227955
83333.3332274483
83333.3332296599
83333.3332291671
83333.333228355
83333.3332312972
83333.3332308095
83333.3332300093
83333.3332292742
83333.3332328599
83333.3332323768
83333.3332315896
83333.3332308628
83333.3332302666
83333.3332343433
83333.3332338767
83333.3332331038
83333.3332323864
83333.3332318067
83333.3332313768
83333.3332357423
83333.3332353059
83333.3332345518
83333.3332338521
83333.3332332845
83333.3332328776
83333.3332326327
83333.3332370497
83333.3332366524
83333.3332359262
83333.3332352513
83333.3332347094
83333.3332343188
83333.3332341065
83333.3332340387
83333.3332382554
83333.3332379066
83333.3332372161
83333.3332365735
83333.3332360669
83333.3332357086
83333.3332355171
83333.333235497
83333.3332355986
83333.3332393636
83333.3332390611
83333.3332384163
83333.3332378117
83333.3332373465
83333.33323703
83333.3332368778
83333.333236887
83333.3332370507
83333.333237315
83333.3332403941
83333.3332401355
83333.3332395256
83333.333238967
83333.3332385431
83333.3332382731
83333.3332381691
83333.3332382267
83333.3332384373
83333.333238771
83333.3332391947
83333.3332414316
83333.333241201
83333.3332406074
83333.3332400605
83333.3332396642
83333.333239435
83333.3332393828
83333.3332394991
83333.333239771
83333.3332401732
83333.3332406755
83333.3332412544
83333.3332424196
83333.3332422425
83333.3332416693
83333.3332411023
83333.3332407152
83333.3332405187
83333.3332405137
83333.3332406915
83333.3332410353
83333.3332415228
83333.3332421151
83333.3332427856
83333.3332435143
83333.3332415372
83333.3332417831
83333.3332422059
83333.3332427839
83333.3332434852
83333.3332442733
83333.3332451154
83333.3332459887
83333.333224361
83333.3332261585
83333.3332256464
83333.333227904
83333.3332274096
83333.3332265913
83333.3332295851
83333.3332291003
83333.3332282981
83333.3332275544
83333.3332311962
83333.3332307199
83333.3332299348
83333.3332292024
83333.3332285921
83333.3332327342
83333.3332322762
83333.333231509
83333.3332307886
83333.3332301967
83333.333229748
83333.3332341958
83333.3332337679
83333.3332330213
83333.33323232
83333.3332317407
83333.3332313141
83333.3332310451
83333.3332355753
83333.3332351845
83333.3332344664
83333.333233789
83333.3332332338
83333.3332328221
83333.3332325808
83333.3332324847
83333.3332368649
83333.3332365174
83333.3332358338
83333.3332351864
83333.333234663
83333.33323428
83333.3332340573
83333.3332339996
83333.3332340666
83333.3332380603
83333.3332377582
83333.3332371168
83333.3332365042
83333.3332360187
83333.3332356728
83333.3332354847
83333.3332354518
83333.3332355688
83333.3332357917
83333.3332391587
83333.3332389093
83333.3332383104
83333.3332377396
83333.3332372944
83333.3332369916
83333.3332368458
83333.3332368557
83333.3332370091
83333.3332372931
83333.3332376626
83333.3332401825
83333.3332399811
83333.3332394252
83333.3332388947
83333.3332384891
83333.3332382297
83333.3332381317
83333.3332381919
83333.3332383995
83333.3332387389
83333.3332391761
83333.3332396937
83333.3332412282
83333.3332410534
83333.3332405126
83333.3332399956
83333.3332396135
83333.3332393897
83333.3332393375
83333.3332394531
83333.3332397233
83333.3332401323
83333.3332406463
83333.3332412398
83333.3332418933
83333.333242238
83333.3332421025
83333.3332415802
83333.3332410397
83333.3332406605
83333.3332404668
83333.3332404604
83333.333240631
83333.3332409689
83333.3332414552
83333.3332420608
83333.333242751
83333.3332434974
83333.3332442802
83333.3332416999
83333.3332421119
83333.3332426835
83333.3332433901
83333.3332441967
83333.3332450654
83333.3332459634
83333.3332468702
83333.3332224916
83333.333224321
83333.3332238014
83333.3332261027
83333.3332256045
83333.3332247762
83333.3332278233
83333.3332273393
83333.3332265318
83333.3332257766
83333.3332294773
83333.3332290065
83333.333228221
83333.3332274802
83333.3332268544
83333.3332310633
83333.3332306141
83333.333229851
83333.3332291261
83333.3332285211
83333.3332280542
83333.3332325798
83333.3332321621
83333.3332314227
83333.3332307198
83333.3332301296
83333.333229685
83333.3332293939
83333.3332340237
83333.3332336421
83333.3332329323
83333.3332322543
83333.3332316886
83333.3332312586
83333.3332309925
83333.3332308699
83333.3332353884
83333.3332350462
83333.3332343714
83333.3332337221
83333.3332331861
83333.3332327828
83333.3332325337
83333.3332324422
83333.3332324794
83333.3332366681
83333.3332363683
83333.3332357324
83333.3332351157
83333.3332346143
83333.3332342442
83333.3332340257
83333.3332339576
83333.3332340328
83333.3332342193
83333.3332378547
83333.3332376055
83333.3332370109
83333.3332364312
83333.3332359671
83333.3332356356
83333.333235454
83333.3332354228
83333.3332355316
83333.3332357656
83333.333236093
83333.3332389467
83333.333238753
83333.3332382086
83333.3332376669
83333.3332372411
83333.3332369509
83333.3332368119
83333.3332368237
83333.3332369782
83333.3332372582
83333.3332376451
83333.3332381051
83333.3332399727
83333.3332398294
83333.3332393246
83333.3332388278
83333.3332384376
83333.3332381865
83333.3332380921
83333.3332381528
83333.3332383603
83333.3332386987
83333.3332391481
83333.3332396763
83333.3332402664
83333.3332410366
83333.3332409078
83333.3332404199
83333.333239934
83333.3332395651
83333.3332393469
83333.3332392937
83333.3332394033
83333.3332396692
83333.3332400761
83333.3332405989
83333.333241208
83333.3332418765
83333.3332425869
83333.3332420827
83333.3332419751
83333.3332414998
83333.3332409881
83333.3332406161
83333.3332404186
83333.3332404058
83333.3332405687
83333.3332408948
83333.3332413732
83333.3332419818
83333.3332426881
83333.3332434575
83333.3332442611
83333.3332450812
83333.3332420092
83333.3332425673
83333.3332432684
83333.333244084
83333.3332449766
83333.3332459066
83333.333246842
83333.3332477654
83333.3332205935
83333.3332224443
83333.3332219194
83333.3332242585
83333.3332237549
83333.3332229135
83333.3332260146
83333.3332255294
83333.3332247133
83333.3332239442
83333.3332277068
83333.33322724
83333.3332264511
83333.3332256992
83333.3332250563
83333.3332293351
83333.333228894
83333.3332281329
83333.3332274013
83333.3332267812
83333.3332262969
83333.3332308995
83333.3332304928
83333.3332297597
83333.3332290541
83333.333228453
83333.333227991
83333.3332276798
83333.3332323995
83333.3332320295
83333.3332313286
83333.3332306505
83333.3332300757
83333.3332296297
83333.3332293411
83333.3332291961
83333.3332338305
83333.3332334979
83333.3332328329
83333.3332321841
83333.3332316387
83333.3332312187
83333.3332309471
83333.3332308269
83333.3332308383
83333.3332351871
83333.3332348941
83333.333234266
83333.3332336485
83333.3332331356
83333.3332327462
83333.3332325026
83333.3332324053
83333.3332324446
83333.3332325996
83333.3332364599
83333.3332362124
83333.3332356239
83333.3332350402
83333.3332345616
83333.3332342069
83333.3332339957
83333.33323393
83333.3332340016
83333.3332341935
83333.3332344827
83333.3332376417
83333.3332374478
83333.3332369068
83333.333236357
83333.3332359135
83333.3332355961
83333.3332354223
83333.3332353933
83333.333235503
83333.3332357361
83333.3332360727
83333.3332364895
83333.3332387335
83333.333238598
83333.333238106
83333.3332375991
83333.3332371894
83333.3332369098
83333.3332367765
83333.3332367895
83333.3332369435
83333.3332372253
83333.3332376145
83333.3332380886
83333.3332386253
83333.3332397686
83333.3332396778
83333.3332392274
83333.3332387643
83333.3332383909
83333.3332381468
83333.3332380531
83333.3332381111
83333.3332383151
83333.3332386531
83333.3332391054
83333.3332396453
83333.3332402493
83333.3332408989
83333.3332408608
83333.3332407685
83333.3332403324
83333.3332398798
83333.333239524
83333.3332393077
83333.3332392521
83333.3332393542
83333.3332396094
83333.333240009
83333.3332405332
83333.333241154
83333.3332418409
83333.3332425683
83333.3332433194
83333.333241968
83333.3332418675
83333.3332414319
83333.3332409502
83333.3332405875
83333.3332403833
83333.3332403558
83333.333240504
83333.333240817
83333.3332412809
83333.3332418821
83333.3332425949
83333.3332433846
83333.3332442157
83333.3332450596
83333.3332459016
83333.3332424391
83333.3332431258
83333.3332439384
83333.333244845
83333.333245805
83333.3332467783
83333.3332477342
83333.333248659
83333.3332187125
83333.3332205372
83333.3332200056
83333.3332223724
83333.3332218641
83333.3332210092
83333.3332241608
83333.3332236733
83333.3332228461
83333.3332220612
83333.3332258876
83333.3332254233
83333.3332246279
83333.3332238627
83333.3332232012
83333.3332275532
83333.3332271193
83333.3332263576
83333.333225617
83333.3332249802
83333.3332244779
83333.3332291596
83333.3332287636
83333.3332280355
83333.3332273254
83333.3332267131
83333.3332262327
83333.3332259032
83333.3332307079
83333.333230351
83333.3332296589
83333.3332289804
83333.3332283968
83333.3332279357
83333.333227627
83333.333227463
83333.3332321967
83333.3332318773
83333.3332312227
83333.3332305756
83333.3332300229
83333.3332295887
83333.3332292983
83333.3332291531
83333.3332291432
83333.3332336211
83333.3332333395
83333.3332327221
83333.3332321063
83333.3332315853
83333.3332311806
83333.3332309161
83333.3332307946
83333.3332308049
83333.3332309321
83333.3332349732
83333.3332347325
83333.3332341533
83333.3332335692
83333.3332330804
83333.3332327077
83333.3332324726
83333.3332323784
83333.3332324187
83333.3332325762
83333.3332328327
83333.3332362437
83333.3332360518
83333.3332355152
83333.3332349629
83333.3332345063
83333.333234167
83333.3332339649
83333.3332339022
83333.3332339746
83333.3332341684
83333.3332344642
83333.3332348428
83333.3332374253
83333.3332372902
83333.3332368026
83333.3332362869
83333.333235861
83333.333235556
83333.3332353894
83333.3332353627
83333.3332354719
83333.3332357061
83333.3332360468
83333.3332364728
83333.3332369654
83333.3332385238
83333.3332384444
83333.3332380069
83333.3332375349
83333.3332371432
83333.3332368715
83333.3332367414
83333.3332367541
83333.3332369053
83333.3332371857
83333.3332375781
83333.3332380601
83333.3332386086
83333.3332392067
83333.3332395741
83333.3332395305
83333.3332391334
83333.333238707
83333.3332383509
83333.3332381124
83333.3332380179
83333.3332380698
83333.3332382661
83333.3332385983
83333.3332390504
83333.3332395984
83333.3332402166
83333.3332408804
83333.333241574
83333.3332407143
83333.3332406379
83333.3332402523
83333.3332398352
83333.3332394951
83333.3332392785
83333.3332392143
83333.3332393067
83333.3332395489
83333.3332399344
83333.3332404516
83333.3332410765
83333.333241779
83333.3332425281
83333.3332432988
83333.3332440763
83333.3332419089
83333.3332417843
83333.3332413821
83333.3332409299
83333.3332405782
83333.3332403667
83333.3332403199
83333.333240444
83333.3332407354
83333.3332411823
83333.3332417679
83333.3332424753
83333.3332432757
83333.3332441321
83333.3332450085
83333.3332458775
83333.3332467273
83333.333242967
83333.3332437663
83333.3332446737
83333.3332456537
83333.3332466638
83333.3332476638
83333.3332486249
83333.3332495377
83333.3332168528
83333.3332186654
83333.3332180984
83333.3332204568
83333.3332199407
83333.333219068
83333.3332222628
83333.3332217736
83333.3332209341
83333.3332201343
83333.3332240214
83333.3332235596
83333.3332227541
83333.3332219744
83333.3332212928
83333.3332257204
83333.3332252928
83333.3332245279
83333.3332237759
83333.3332231215
83333.3332226003
83333.3332273634
83333.3332269777
83333.3332262526
83333.3332255362
83333.3332249108
83333.3332244119
83333.3332240654
83333.3332289537
83333.33322861
83333.3332279262
83333.3332272462
83333.3332266533
83333.3332261778
83333.3332258496
83333.3332256698
83333.3332304925
83333.333230188
83333.3332295443
83333.3332288996
83333.3332283403
83333.3332278935
83333.3332275863
83333.333227421
83333.3332273922
83333.3332319761
83333.3332317089
83333.3332311044
83333.333230492
83333.3332299655
83333.3332295486
83333.3332292668
83333.3332291249
83333.3332291113
83333.3332292166
83333.3332333986
83333.3332331701
83333.3332326029
83333.3332320215
83333.3332315263
83333.33323114
83333.3332308857
83333.3332307681
83333.3332307816
83333.333230912
83333.3332311424
83333.3332347512
83333.3332345663
83333.333234038
83333.333233487
83333.3332330219
83333.3332326662
83333.3332324416
83333.3332323517
83333.333232393
83333.3332325536
83333.3332328165
83333.3332331642
83333.3332360239
83333.3332358915
83333.3332354083
83333.3332348885
83333.3332344514
83333.3332341262
83333.3332339328
83333.3332338739
83333.3332339463
83333.3332341408
83333.3332344408
83333.3332348276
83333.3332352837
83333.3332372123
83333.3332371365
83333.3332367022
83333.333236221
83333.3332358135
83333.3332355183
83333.3332353569
83333.3332353314
83333.3332354389
83333.3332356715
83333.3332360143
83333.3332364471
83333.3332369497
83333.3332375052
83333.333238324
83333.3332382959
83333.3332379111
83333.3332374765
83333.3332371037
83333.3332368395
83333.3332367099
83333.3332367191
83333.3332368649
83333.3332371403
83333.3332375318
83333.3332380192
83333.3332385788
83333.3332391892
83333.3332398345
83333.3332394057
83333.3332393876
83333.3332390459
83333.3332386573
83333.3332383211
83333.3332380871
83333.3332379883
83333.3332380322
83333.3332382167
83333.3332385379
83333.3332389836
83333.333239534
83333.3332401631
83333.333240844
83333.3332415539
83333.3332422782
83333.3332406157
83333.3332405221
83333.33324018
83333.333239803
83333.3332394814
83333.3332392645
83333.3332391879
83333.3332392628
83333.3332394889
83333.3332398574
83333.3332403589
83333.3332409783
83333.3332416885
83333.3332424574
83333.3332432538
83333.3332440536
83333.3332448447
83333.3332418795
83333.3332417398
83333.3332413584
83333.3332409324
83333.3332405916
83333.3332403722
83333.3332403043
83333.3332403983
83333.3332406576
83333.3332410776
83333.333241644
83333.3332423365
83333.3332431346
83333.3332440066
83333.3332449139
83333.3332458205
83333.3332467007
83333.3332475461
83333.3332435735
83333.3332444701
83333.3332454559
83333.3332464926
83333.3332475365
83333.333248548
83333.333249501
83333.3332503904
83333.3332168265
83333.3332162166
83333.333218592
83333.3332180425
83333.333217123
83333.3332203378
83333.3332198415
83333.3332189842
83333.3332181685
83333.3332221091
83333.3332216525
83333.3332208325
83333.3332200396
83333.3332193376
83333.3332238383
83333.3332234179
83333.3332226463
83333.3332218818
83333.3332212082
83333.3332206678
83333.3332255136
83333.333225138
83333.3332244139
83333.3332236892
83333.3332230485
83333.333222531
83333.333222169
83333.3332271402
83333.3332268102
83333.3332261333
83333.3332254502
83333.3332248468
83333.3332243568
83333.3332240106
83333.333223817
83333.3332287217
83333.3332284333
83333.3332278011
83333.3332271581
83333.3332265922
83333.3332261335
83333.3332258116
83333.3332256285
83333.3332255841
83333.3332302572
83333.3332300063
83333.3332294161
83333.3332288085
83333.333228278
83333.3332278508
83333.3332275542
83333.3332273943
83333.3332273627
83333.3332274512
83333.3332317419
83333.3332315286
83333.3332309763
83333.3332304004
83333.3332299015
83333.3332295052
83333.3332292355
83333.3332290986
83333.33322909
83333.3332291987
83333.3332294092
83333.3332331682
83333.333232995
83333.3332324794
83333.3332319328
83333.333231463
83333.3332310957
83333.3332308538
83333.333230742
83333.3332307578
83333.3332308912
83333.3332311278
83333.3332314515
83333.3332345264
83333.3332344013
83333.3332339258
83333.3332334066
83333.3332329629
83333.3332326231
83333.333232409
83333.3332323244
83333.333232367
83333.3332325288
83333.3332327954
83333.3332331504
83333.3332335778
83333.3332358085
83333.3332357368
83333.3332353059
83333.3332348193
83333.3332344008
83333.3332340874
83333.333233901
83333.333233845
83333.333233917
83333.3332341104
83333.3332344121
83333.3332348044
83333.3332352693
83333.3332357907
83333.3332370138
83333.3332369887
83333.3332366069
83333.3332361615
83333.3332357729
83333.3332354866
83333.3332353276
83333.333235301
83333.3332354049
83333.3332356333
83333.3332359748
83333.3332364116
83333.3332369229
83333.3332374891
83333.3332380948
83333.3332381533
83333.3332381531
83333.333237822
83333.3332374252
83333.3332370735
83333.3332368165
83333.3332366851
83333.3332366878
83333.3332368246
83333.3332370912
83333.3332374769
83333.333237965
83333.333238533
83333.3332391567
83333.3332398159
83333.3332404957
83333.3332392747
83333.3332392553
83333.3332389616
83333.3332386174
83333.3332383039
83333.3332380748
83333.3332379689
83333.333238
83333.3332381704
83333.3332384754
83333.3332389084
83333.3332394535
83333.3332400876
83333.3332407834
83333.3332415137
83333.3332422565
83333.3332429994
83333.333240538
83333.3332404302
83333.333240117
83333.3332397839
83333.333239485
83333.3332392687
83333.333239178
83333.3332392303
83333.3332394316
83333.333239779
83333.3332402611
83333.333240865
83333.3332415723
83333.333242353
83333.3332431739
83333.3332440038
83333.33324482
83333.3332456132
83333.3332418239
83333.3332417178
83333.3332413759
83333.3332409676
83333.3332406312
83333.3332404028
83333.3332403118
83333.3332403731
83333.3332405937
83333.3332409753
83333.3332415115
83333.3332421842
83333.3332429694
83333.3332438432
83333.3332447717
83333.3332457151
83333.3332466381
83333.3332475171
83333.3332483474
83333.3332442414
83333.3332452201
83333.3332462685
83333.333247346
83333.3332484085
83333.3332494178
83333.3332503511
83333.3332512077
83333.3332167721
83333.3332161892
83333.3332151783
83333.3332184769
83333.3332179495
83333.3332170453
83333.3332161739
83333.3332201716
83333.3332197099
83333.3332188749
83333.333218064
83333.3332173405
83333.3332219084
83333.3332214985
83333.3332207158
83333.3332199393
83333.3332192458
83333.3332186866
83333.3332236123
83333.3332232482
83333.3332225221
83333.333221788
83333.3332211302
83333.333220594
83333.3332202171
83333.3332252703
83333.3332249545
83333.3332242829
83333.3332235954
83333.3332229796
83333.3332224749
83333.3332221122
83333.3332219063
83333.3332268883
83333.3332266171
83333.3332259957
83333.3332253533
83333.33322478
83333.3332243095
83333.3332239739
83333.3332237758
83333.3332237191
83333.3332284681
83333.3332282357
83333.3332276605
83333.333227058
83333.3332265237
83333.3332260875
83333.3332257781
83333.3332256028
83333.3332255572
83333.333225633
83333.3332300069
83333.3332298113
83333.3332292765
83333.3332287083
83333.3332282076
83333.3332278036
83333.3332275215
83333.3332273686
83333.3332273424
83333.3332274344
83333.3332276306
83333.3332314988
83333.3332313413
83333.3332308426
83333.3332303035
83333.3332298321
83333.3332294569
83333.3332292018
83333.3332290726
83333.3332290679
83333.3332291797
83333.3332293959
83333.3332297021
83333.3332329349
83333.3332328213
83333.3332323586
83333.3332318446
83333.3332313984
83333.333231049
83333.3332308197
83333.3332307151
83333.3332307338
83333.3332308691
83333.3332311089
83333.3332314391
83333.3332318447
83333.3332343071
83333.3332342422
83333.3332338192
83333.3332333318
83333.3332329073
83333.3332325815
83333.3332323764
83333.3332322966
83333.3332323405
83333.3332325021
83333.3332327704
83333.3332331299
83333.3332335647
83333.3332340598
83333.3332356103
83333.3332355884
83333.3332352103
83333.3332347574
83333.3332343572
83333.3332340541
83333.3332338723
83333.3332338171
83333.3332338873
83333.3332340778
83333.3332343784
83333.3332347738
83333.3332352455
83333.3332357761
83333.3332363506
83333.3332368426
83333.333236848
83333.3332365173
83333.3332361097
83333.3332357415
83333.3332354639
83333.3332353053
83333.3332352742
83333.3332353715
83333.3332355929
83333.3332359293
83333.3332363661
83333.3332368834
83333.3332374603
83333.3332380779
83333.3332387219
83333.3332380161
83333.3332380223
83333.3332377358
83333.3332373827
83333.3332370546
83333.3332368055
83333.3332366705
83333.3332366633
83333.3332367876
83333.3332370409
83333.3332374161
83333.3332378989
83333.3332384698
83333.3332391049
83333.3332397803
83333.3332404758
83333.3332411788
83333.3332391698
83333.3332391379
83333.33323888
83333.3332385855
83333.3332383003
83333.3332380778
83333.3332379637
83333.3332379781
83333.3332381286
83333.3332384149
83333.3332388291
83333.3332393613
83333.3332399921
83333.3332406963
83333.3332414454
83333.3332422122
83333.333242976
83333.3332437268
83333.333240457
83333.3332403573
83333.3332400762
83333.3332397807
83333.3332395046
83333.3332392918
83333.3332391874
83333.3332392147
83333.3332393852
83333.3332397021
83333.33324016
83333.3332407437
83333.3332414369
83333.333242218
83333.3332430553
83333.3332439147
83333.3332447653
83333.3332455864
83333.3332463716
83333.3332417277
83333.33324169
83333.3332414233
83333.3332410452
83333.3332407028
83333.3332404609
83333.3332403446
83333.3332403712
83333.3332405502
83333.3332408864
83333.3332413797
83333.3332420205
83333.3332427868
83333.3332436507
83333.3332445859
83333.3332455563
83333.3332465222
83333.3332474491
83333.3332483162
83333.3332491223
83333.3332449547
83333.3332460006
83333.3332470961
83333.3332481996
83333.333249267
83333.3332502622
83333.3332511661
83333.3332519817
83333.333216665
83333.3332161162
83333.333215118
83333.3332141417
83333.3332183076
83333.3332178131
83333.3332169448
83333.3332160671
83333.3332153008
83333.3332199542
83333.3332195433
83333.3332187502
83333.3332179556
83333.3332172393
83333.3332166603
83333.333221661
83333.3332213125
83333.3332205802
83333.3332198375
83333.3332191616
83333.3332186065
83333.3332182149
83333.3332233462
83333.3332230463
83333.333222378
83333.3332216854
83333.3332210557
83333.3332205348
83333.3332201569
83333.3332199403
83333.3332249953
83333.3332247425
83333.3332241312
83333.3332234884
83333.3332229064
83333.3332224235
83333.3332220746
83333.3332218641
83333.3332217981
83333.3332266126
83333.3332264009
83333.3332258409
83333.3332252425
83333.3332247043
83333.3332242593
83333.3332239385
83333.3332237505