/*--------------------------------*- C++ -*----------------------------------*\
  =========                 |
  \\      /  F ield         | OpenFOAM: The Open Source CFD Toolbox
   \\    /   O peration     | Website:  https://openfoam.org
    \\  /    A nd           | Version:  12
     \\/     M anipulation  |
\*---------------------------------------------------------------------------*/
/*   Windows 32 and 64 bit porting by blueCAPE: http://www.bluecape.com.pt   *\
|  Based on Windows porting (2.0.x v4) by Symscape: http://www.symscape.com   |
\*---------------------------------------------------------------------------*/
FoamFile
{
    format      ascii;
    class       surfaceScalarField;
    location    "300";
    object      phi;
}
// * * * * * * * * * * * * * * * * * * * * * * * * * * * * * * * * * * * * * //

dimensions      [0 3 -1 0 0 0 0];

internalField   nonuniform List<scalar> 
29005
(
2.19148600430347e-06
2.46821060924021e-08
-9.21077474672609e-08
2.25693177757026e-06
2.35227917104995e-08
-8.89691353994907e-08
2.56109617415693e-06
5.13095989830316e-08
-9.97600348510397e-08
9.993323514204e-07
1.70770426343339e-08
-1.57251173484512e-07
2.31851602768539e-06
2.42947454483638e-08
-8.58816619070184e-08
2.63457130209735e-06
4.84247656359601e-08
-9.83907068459067e-08
1.0446845625849e-06
1.78640970043667e-08
-1.5218656829156e-07
2.83304280238186e-06
8.43146789874243e-08
-1.11515346567375e-07
1.16278115508674e-06
4.01825089197317e-08
-1.7554324800112e-07
9.43852061818972e-07
1.41901297427706e-08
-2.140510869725e-07
2.37744288410445e-06
2.37073601915381e-08
-8.26374377059267e-08
2.70640605628911e-06
4.75196040605433e-08
-9.50680268382616e-08
1.0870777487666e-06
1.88695717101523e-08
-1.47144599454507e-07
2.91408308292655e-06
7.89640303890927e-08
-1.11584888073979e-07
1.21232899995538e-06
4.07263556284498e-08
-1.70799314428218e-07
9.83931783090592e-07
1.46076398703296e-08
-2.06873342498701e-07
3.14983981424458e-06
1.19309801865646e-07
-1.22542793638635e-07
1.32200285622882e-06
6.96987164663263e-08
-2.00386687147945e-07
1.0955558732305e-06
3.36996553253202e-08
-2.42948479557562e-07
9.84864151119523e-07
1.33347084295514e-08
-2.65220056649638e-07
2.4344633106e-06
2.24099262152333e-08
-7.9436132734304e-08
2.77516007620401e-06
4.55560971141136e-08
-9.06121126232542e-08
1.12730207250407e-06
1.89961190326559e-08
-1.41858187005432e-07
2.9940780010886e-06
7.54543858462858e-08
-1.0792695250346e-07
1.2597372073939e-06
4.16232620606117e-08
-1.65229714441185e-07
1.02175865965001e-06
1.50754356213567e-08
-2.00047274205025e-07
3.24109670173238e-06
1.11350866174888e-07
-1.23649478384492e-07
1.37763641301488e-06
6.95129419985482e-08
-1.96004903082107e-07
1.14032485611331e-06
3.40489838049678e-08
-2.35010177068349e-07
1.02105932715194e-06
1.33990026525768e-08
-2.56467544316867e-07
3.40355963879364e-06
1.52500961666783e-07
-1.29472054199567e-07
1.47220561227523e-06
1.02433899321669e-07
-2.21885119851464e-07
1.26499282601786e-06
5.88787186328145e-08
-2.80806813859902e-07
1.12794044780896e-06
3.05574779791102e-08
-3.02551149023572e-07
1.03683710401172e-06
1.2703224588651e-08
-3.11005350688806e-07
2.48997084023036e-06
2.10245266534426e-08
-7.65318035961232e-08
2.8413519825257e-06
4.30125037417783e-08
-8.67892202255653e-08
1.16591916043707e-06
1.87960567043015e-08
-1.36850005345933e-07
3.07046688821742e-06
7.16991570016665e-08
-1.02535284335862e-07
1.30547050223596e-06
4.17202888927595e-08
-1.59073109434312e-07
1.05803687734986e-06
1.5237147427059e-08
-1.93373619556337e-07
3.33102832194596e-06
1.05483941801056e-07
-1.1996297485583e-07
1.4313389437032e-06
6.98786920048849e-08
-1.89888721403042e-07
1.18299600055503e-06
3.4466907512879e-08
-2.27293726601254e-07
1.05575707179731e-06
1.35280546218273e-08
-2.48273083399091e-07
3.50463661782033e-06
1.41606117479401e-07
-1.313402026072e-07
1.53444363121285e-06
1.01422264009134e-07
-2.17796046223558e-07
1.3163735572504e-06
5.87727180766257e-08
-2.72109582374167e-07
1.16835038754945e-06
3.05813358115278e-08
-2.92601503264534e-07
1.06913049855633e-06
1.24902723801802e-08
-3.01251031313103e-07
3.55742579614448e-06
1.81544477773095e-07
-1.32167348752222e-07
1.5613701374305e-06
1.34286470780683e-07
-2.33521542585105e-07
1.40414742274672e-06
8.69363740718497e-08
-3.12114373431991e-07
1.29990868956851e-06
5.1599704407571e-08
-3.5066755826893e-07
1.16877147461583e-06
2.7879451252859e-08
-3.54418381387771e-07
1.08283072569263e-06
1.20676484259327e-08
-3.51436914951415e-07
2.54425902245866e-06
1.96661246338348e-08
-7.39565573080371e-08
2.90551191309448e-06
4.0361514825891e-08
-8.3499773363896e-08
1.20314354220163e-06
1.85331123110706e-08
-1.32290875261812e-07
3.14397007965245e-06
6.77146882959442e-08
-9.82085162044639e-08
1.34948938612987e-06
4.14064593639433e-08
-1.53419271714756e-07
1.09309883865713e-06
1.52119625111043e-08
-1.87123877861752e-07
3.41668138960189e-06
9.99900235094988e-08
-1.13943600764469e-07
1.48351820551005e-06
6.97791706467633e-08
-1.8277797774712e-07
1.2243129265627e-06
3.45517460181927e-08
-2.19705025469596e-07
1.08938519804057e-06
1.35351604314368e-08
-2.40536729637156e-07
3.60403656826866e-06
1.33965170275452e-07
-1.27887178869421e-07
1.59453967530621e-06
1.01264202885445e-07
-2.1144855934093e-07
1.36549249796836e-06
5.89058670389888e-08
-2.63448654165109e-07
1.20731298221138e-06
3.05769524752896e-08
-2.83305396953192e-07
1.10059915729011e-06
1.24068244871443e-08
-2.92148381136825e-07
3.66710927093214e-06
1.66917073038959e-07
-1.34994805330321e-07
1.62897135557868e-06
1.32373426914153e-07
-2.2989541226125e-07
1.46179914118862e-06
8.63779673930498e-08
-3.03054176785638e-07
1.34637458642605e-06
5.13905183690084e-08
-3.39384030007161e-07
1.20449657436823e-06
2.74731083596499e-08
-3.43309446533897e-07
1.11104772047618e-06
1.16626966119435e-08
-3.41130792633684e-07
3.62957529488258e-06
2.06928008225652e-07
-1.32315761115605e-07
1.59207350072173e-06
1.62917036295475e-07
-2.3686578871977e-07
1.47025069368651e-06
1.14238130720702e-07
-3.27868545443706e-07
1.43419705046484e-06
7.43581738432442e-08
-3.89517356553064e-07
1.33554868744423e-06
4.52860568823858e-08
-4.10065019600433e-07
1.20980780191499e-06
2.54558226211527e-08
-3.99129337867764e-07
1.12235077966906e-06
1.13989709487827e-08
-3.86664355421844e-07
2.5975886537193e-06
1.8446475943531e-08
-7.17765272263192e-08
2.96804582027033e-06
3.77936098711483e-08
-8.06626566910727e-08
1.2391923025854e-06
1.82595682371733e-08
-1.28264795158059e-07
3.21516855113235e-06
6.37246414944599e-08
-9.45592000863182e-08
1.39193485745435e-06
4.09356655162441e-08
-1.48347940529588e-07
1.12715817295556e-06
1.50986529816639e-08
-1.81448763862867e-07
3.49914609119672e-06
9.45418427662012e-08
-1.092909924706e-07
1.5337705936963e-06
6.92919203253409e-08
-1.76351356809356e-07
1.2643716486139e-06
3.4392998383842e-08
-2.12658806700746e-07
1.12220735275667e-06
1.34530285295615e-08
-2.33399293469615e-07
3.69842263062986e-06
1.27269251014088e-07
-1.21673820508037e-07
1.65309343335579e-06
1.00958965511939e-07
-2.03680907676293e-07
1.4132739542786e-06
5.88165904038077e-08
-2.54825367399479e-07
1.24527396491609e-06
3.0429118895845e-08
-2.7456069897248e-07
1.131464207883e-06
1.22773335145403e-08
-2.83679025906315e-07
3.77463610121957e-06
1.58518989959598e-07
-1.32086868157607e-07
1.6940791958404e-06
1.3205005516921e-07
-2.23779729055864e-07
1.51687142855207e-06
8.62124569117697e-08
-2.93827094964428e-07
1.39126438190137e-06
5.10253068330155e-08
-3.28787975340863e-07
1.23947081745527e-06
2.71183560375418e-08
-3.32991507015369e-07
1.13899643987625e-06
1.14123868470462e-08
-3.31509504879653e-07
3.74552515041623e-06
1.87872945920982e-07
-1.3689550353533e-07
1.66377320240086e-06
1.59633202297524e-07
-2.33951567536696e-07
1.53245145891668e-06
1.13180615006111e-07
-3.18899042694351e-07
1.48627183179954e-06
7.36423404519554e-08
-3.77380379078916e-07
1.37640394148117e-06
4.46082096517322e-08
-3.97374177794685e-07
1.24092353834179e-06
2.46336707822232e-08
-3.87395877622454e-07
1.14651235540854e-06
1.08322613849961e-08
-3.76124677662364e-07
3.6579869471379e-06
-1.28946563806148e-07
1.58811825614395e-06
1.88324651388249e-07
-2.36118706835756e-07
1.47649621828848e-06
1.38548657343652e-07
-3.314699787726e-07
1.49105677628868e-06
9.62101932390864e-08
-4.08384581881894e-07
1.46353930207923e-06
6.34762691703933e-08
-4.54482472293473e-07
1.37489202598116e-06
4.01163763836329e-08
-4.60535091808741e-07
1.2516544165276e-06
2.34470314526751e-08
-4.37543877025162e-07
1.15959698353371e-06
1.07451233864545e-08
-4.16992343483154e-07
2.650279069958e-06
1.73592983259297e-08
-7.00477995868218e-08
3.02930862823635e-06
3.54697001766178e-08
-7.82918666277017e-08
1.27427827382152e-06
1.80017853510528e-08
-1.24865303672311e-07
3.2844318555455e-06
5.99132990127687e-08
-9.13861707173545e-08
1.4330176135159e-06
4.04215319498202e-08
-1.43910510163413e-07
1.16039322591468e-06
1.49678710579754e-08
-1.76467861046073e-07
3.5790767597551e-06
8.91718606905586e-08
-1.05381974411086e-07
1.58220684699361e-06
6.8573374113744e-08
-1.7063485656487e-07
1.30331972643894e-06
3.41089673070814e-08
-2.06306604763528e-07
1.15440631491795e-06
1.33278811753085e-08
-2.26975783778571e-07
3.78927890871819e-06
1.20601564508167e-07
-1.16922486482408e-07
1.70949686950183e-06
1.00275523395549e-07
-1.96678567083801e-07
1.45966704150579e-06
5.84938169601449e-08
-2.4684523107416e-07
1.28241513346953e-06
3.0165819741568e-08
-2.66511796286767e-07
1.16193004029143e-06
1.20705803093972e-08
-2.75935791297332e-07
3.87629873561913e-06
1.51636920188291e-07
-1.26028983824679e-07
1.75745726776634e-06
1.31790835798515e-07
-2.15885600327828e-07
1.57052371502112e-06
8.59448047104977e-08
-2.84461606578772e-07
1.43511066431172e-06
5.05633210322949e-08
-3.18806096453543e-07
1.27391511426306e-06
2.67048477775458e-08
-3.23432758817762e-07
1.16679477784376e-06
1.11340287357797e-08
-3.22611659151067e-07
3.85968226017423e-06
1.7883545020625e-07
-1.34457811483991e-07
1.73248658423584e-06
1.59720097865134e-07
-2.28475925055021e-07
1.59172619983297e-06
1.12870858964072e-07
-3.09713019876487e-07
1.53651208083614e-06
7.29763526941821e-08
-3.66017895984138e-07
1.41645633164686e-06
4.38956918257134e-08
-3.8561784755194e-07
1.27186997009144e-06
2.39877984381956e-08
-3.76513133419079e-07
1.1708691863531e-06
1.04163509232014e-08
-3.66282613820977e-07
3.77525510788203e-06
2.07974155502412e-07
-1.3735512482021e-07
1.66191863075194e-06
1.8309786225344e-07
-2.34152577392181e-07
1.54192293406876e-06
1.36786456998252e-07
-3.22983810394492e-07
1.54698775197334e-06
9.50465402597799e-08
-3.96233096711243e-07
1.50907754456451e-06
6.24394559360579e-08
-4.40749544328301e-07
1.41037337932381e-06
3.89591618312589e-08
-4.47181073579815e-07
1.27837850174655e-06
2.22716144839812e-08
-4.25559369557424e-07
1.17989737711527e-06
1.00316713003304e-08
-4.06456660299842e-07
1.57052116144368e-06
-2.32962580643241e-07
1.45161913082912e-06
1.59514775429009e-07
-3.29676271573508e-07
1.48864371650973e-06
1.15552324647326e-07
-4.1217066722147e-07
1.51520687978215e-06
8.08890681242381e-08
-4.75866468730948e-07
1.50180277565239e-06
5.5172676557061e-08
-5.09429700332814e-07
1.42150680709759e-06
3.64289856728397e-08
-5.03756303261775e-07
1.29485650304293e-06
2.19389976649001e-08
-4.70498958950531e-07
1.19815669798188e-06
1.02502532295022e-08
-4.42865713185572e-07
2.70268191468036e-06
1.6395481884379e-08
-6.87989655215743e-08
3.0896856264388e-06
3.34152082784229e-08
-7.64307584889422e-08
1.30861281934831e-06
1.77824539085873e-08
-1.22166520913265e-07
3.35219930368749e-06
5.64608271377536e-08
-8.87580379343027e-08
1.47297204170389e-06
3.99482533592595e-08
-1.40194930799584e-07
1.19298173487193e-06
1.48316737584944e-08
-1.72285825735833e-07
3.65681597561067e-06
8.40925464759084e-08
-1.01919395415396e-07
1.62913417144413e-06
6.77552099642052e-08
-1.65645426539594e-07
1.34136315502782e-06
3.37818675392416e-08
-2.00768972666604e-07
1.1861408911437e-06
1.31777180064742e-08
-2.21379841098164e-07
3.87736317380585e-06
1.13970043745325e-07
-1.12887846871613e-07
1.76385742928323e-06
9.92813941232348e-08
-1.90450134161741e-07
1.50479706025757e-06
5.80124495084693e-08
-2.39668377402864e-07
1.31889389101729e-06
2.98347161912885e-08
-2.592923214112e-07
1.19214548667111e-06
1.18386094571584e-08
-2.69029826493107e-07
3.97410590736665e-06
1.44205279629705e-07
-1.21405615272922e-07
1.81847770618567e-06
1.3101792283963e-07
-2.08685422019317e-07
1.62264997161632e-06
8.54399936773052e-08
-2.75749139852208e-07
1.47807307431205e-06
5.00076193007985e-08
-3.09650524141658e-07
1.30797155362704e-06
2.62158780317303e-08
-3.14714192296686e-07
1.1945744591822e-06
1.08155400817187e-08
-3.14530845529282e-07
3.96733725902954e-06
1.72859659047413e-07
-1.28869041142844e-07
1.79912871516402e-06
1.60025429486495e-07
-2.20906545370553e-07
1.64942021870842e-06
1.12577833463036e-07
-3.00212452668731e-07
1.58559768589983e-06
7.22759207996677e-08
-3.55260599656968e-07
1.45594782230767e-06
4.31548042655139e-08
-3.74747872650955e-07
1.30274701113754e-06
2.33221888326308e-08
-3.66498076087575e-07
1.1954736015329e-06
1.00023867200668e-08
-3.57218463763797e-07
3.89492337786786e-06
1.96985942555199e-07
-1.37810992766576e-07
1.7332993642702e-06
1.83465603325972e-07
-2.29581741780463e-07
1.60401805851266e-06
1.36633682954979e-07
-3.14333200701001e-07
1.60085429509102e-06
9.41703879547385e-08
-3.84773820247888e-07
1.55373422544277e-06
6.12668323926343e-08
-4.28045873780541e-07
1.44571876815517e-06
3.78261862057738e-08
-4.34801627762952e-07
1.30542078009673e-06
2.13156163136105e-08
-4.14454647637104e-07
1.20077752037802e-06
9.46855273055405e-09
-3.96631309403716e-07
3.78363648876054e-06
2.27857007963304e-07
-1.3307335448033e-07
1.64465874997491e-06
2.04360128987404e-07
-2.32746372882231e-07
1.51923966860678e-06
1.56823694896004e-07
-3.21808653941178e-07
1.54724492955068e-06
1.13933269724666e-07
-4.00471487280169e-07
1.56409978217056e-06
7.93345827476739e-08
-4.62020655549776e-07
1.54133275274406e-06
5.36431811637735e-08
-4.94963322028562e-07
1.45209724681679e-06
3.46437989218645e-08
-4.90143396498427e-07
1.31741573593834e-06
2.04532706922118e-08
-4.58540417079617e-07
1.21482890890576e-06
9.39251481519261e-09
-4.32521212425546e-07
1.41481234558397e-06
-3.25944395436143e-07
1.45764398263564e-06
1.3196199362839e-07
-4.09503585740145e-07
1.50999939621519e-06
9.63010009532839e-08
-4.8000440134518e-07
1.55369990815853e-06
6.96672492532888e-08
-5.33131189864274e-07
1.55322567661898e-06
4.97193856021026e-08
-5.56583256498394e-07
1.47312048810199e-06
3.39920276925853e-08
-5.40908985626594e-07
1.3400281473613e-06
2.10355213674806e-08
-4.98707917015736e-07
1.2393482060838e-06
1.00223535060383e-08
-4.64767559488955e-07
2.75516862384784e-06
1.55605175324285e-08
-6.80500698556993e-08
3.14958954421453e-06
3.16179594860258e-08
-7.51204115052024e-08
1.34242893882866e-06
1.76050969934964e-08
-1.20218437412461e-07
3.41892124120207e-06
5.33918277206958e-08
-8.67025807950646e-08
1.5120858244273e-06
3.95066697678538e-08
-1.37270176928543e-07
1.22510857214334e-06
1.46929882354892e-08
-1.68986541617275e-07
3.73281941273945e-06
7.94780201705697e-08
-9.90257643219124e-08
1.67484649820014e-06
6.69609635168742e-08
-1.61480950156252e-07
1.37870530340587e-06
3.34497159704238e-08
-1.96154846715158e-07
1.21756666096541e-06
1.30100207164446e-08
-2.16721727127123e-07
3.9629935058833e-06
1.07709669412719e-07
-1.09255994795773e-07
1.81653365406561e-06
9.81520620894545e-08
-1.84993130065451e-07
1.54889041865224e-06
5.74490737343913e-08
-2.33406994192003e-07
1.35488359783032e-06
2.94448513640016e-08
-2.53026417044595e-07
1.22223713935537e-06
1.16080979140143e-08
-2.6307930247979e-07
4.06890802134268e-06
1.36508191436666e-07
-1.17347874126638e-07
1.87729449740177e-06
1.29796229291044e-07
-2.02217276484174e-07
1.67336885687317e-06
8.4734260831703e-08
-2.67891455221636e-07
1.52031537948918e-06
4.937592227169e-08
-3.01451863374642e-07
1.34178176503049e-06
2.56915253591859e-08
-3.06955362570136e-07
1.22244919313537e-06
1.04794252758929e-08
-3.07383967865556e-07
4.07094293667019e-06
1.65048108187922e-07
-1.24456425032161e-07
1.86322090745817e-06
1.59369765898044e-07
-2.13846675230577e-07
1.70545487971351e-06
1.11992024646042e-07
-2.91273878587138e-07
1.63370567149666e-06
7.14687515227171e-08
-3.45318451984369e-07
1.49505847802156e-06
4.22850978892605e-08
-3.6483005263869e-07
1.33364545329263e-06
2.26296874953955e-08
-3.57426870478652e-07
1.22040996063822e-06
9.57294525827402e-09
-3.49040093756742e-07
4.00802175773953e-06
1.91469851814289e-07
-1.31705088574736e-07
1.80220554180355e-06
1.84880639105083e-07
-2.22634870460561e-07
1.66428388607989e-06
1.3659386746906e-07
-3.05189077013932e-07
1.65342540426139e-06
9.33204757931996e-08
-3.73828718706239e-07
1.59780170233216e-06
6.01221904336996e-08
-4.16295626281999e-07
1.48102557801002e-06
3.6704176387727e-08
-4.23436485479213e-07
1.33281022946058e-06
2.03985481665677e-08
-4.0428356880683e-07
1.2222527693211e-06
8.92654795719779e-09
-3.87620365485383e-07
3.9038392649818e-06
2.14866733401247e-07
-1.3807321963979e-07
1.71598320977061e-06
2.04260456282309e-07
-2.29924660366962e-07
1.58354007812516e-06
1.56721813169253e-07
-3.13969301614746e-07
1.60353490623856e-06
1.13014136684452e-07
-3.89465578174185e-07
1.6119180920292e-06
7.78509067297901e-08
-4.49176619673386e-07
1.58072539446662e-06
5.19594793252575e-08
-4.81572214467489e-07
1.48306317598377e-06
3.31067591673473e-08
-4.77559084639925e-07
1.3407075017524e-06
1.92051954819651e-08
-4.47483043658888e-07
1.23241380526019e-06
8.68451066821529e-09
-4.22900750120729e-07
3.79082193397796e-06
2.37167374177529e-07
-1.31978163302972e-07
1.61842566586131e-06
2.22711980454627e-07
-2.28590934618223e-07
1.48371809807916e-06
1.74081687630371e-07
-3.18909315435362e-07
1.51832871354144e-06
1.2982863305282e-07
-3.98389105182275e-07
1.5612227599299e-06
9.428720117279e-08
-4.66646803482409e-07
1.59625694596362e-06
6.75327611965238e-08
-5.18467059354621e-07
1.58743319379656e-06
4.73371150814529e-08
-5.41864211542653e-07
1.49909886684109e-06
3.16596241472054e-08
-5.27328109124661e-07
1.35862046098651e-06
1.92469657636589e-08
-4.86987195800533e-07
1.25258291059103e-06
9.01298228450446e-09
-4.54768750356285e-07
1.41573402752854e-06
-4.04859649863778e-07
1.4781263826306e-06
1.09191623594083e-07
-4.76766466516126e-07
1.54936261957395e-06
8.25317543561191e-08
-5.37850391137827e-07
1.60921590999186e-06
6.24172276160623e-08
-5.82429507523581e-07
1.61232373438255e-06
4.63101474429859e-08
-5.97261314616694e-07
1.5276394513885e-06
3.2668639975975e-08
-5.72805219481225e-07
1.3873795185811e-06
2.07429258550282e-08
-5.22719867734035e-07
1.28272595924374e-06
1.00744854742714e-08
-4.83136943978507e-07
2.80815691243121e-06
1.48351558911304e-08
-6.7815171478944e-08
3.20944394538592e-06
3.00555492769558e-08
-7.43556352657375e-08
1.37598815088946e-06
1.74520735674012e-08
-1.19060286447702e-07
3.48507648132872e-06
5.07074071125451e-08
-8.52441331535666e-08
1.55065703466373e-06
3.90988311728671e-08
-1.3518788586256e-07
1.25697902320336e-06
1.45497066748461e-08
-1.66638764782517e-07
3.8075752460775e-06
7.53729314298853e-08
-9.67383124148917e-08
1.71960471100103e-06
6.62475323123367e-08
-1.58199086044079e-07
1.41555442503004e-06
3.31135111609021e-08
-1.92539308901829e-07
1.24884798934362e-06
1.28318923506251e-08
-2.13099685787913e-07
4.04665452955958e-06
1.02020240581018e-07
-1.06196605442825e-07
1.86785103284045e-06
9.70460249635797e-08
-1.80429244535581e-07
1.59217408054284e-06
5.68631165030447e-08
-2.28178228788609e-07
1.39056410077296e-06
2.90039898734712e-08
-2.47828608779802e-07
1.2523399287473e-06
1.13672838239783e-08
-2.58191661958723e-07
4.16102105873923e-06
1.29227722973771e-07
-1.13627653670389e-07
1.93430938968734e-06
1.28402583646974e-07
-1.96521930898005e-07
1.7229301745747e-06
8.3920951208435e-08
-2.61025180962489e-07
1.56201327191419e-06
4.86932562649935e-08
-2.94352762682733e-07
1.37548813118784e-06
2.51576363370122e-08
-3.00282304674907e-07
1.25052424069565e-06
1.01373967369812e-08
-3.01291692473985e-07
4.17137109795025e-06
1.5643531081429e-07
-1.20351592079687e-07
1.92503593118697e-06
1.5801789397596e-07
-2.07381215282526e-07
1.75997925174121e-06
1.11137701933249e-07
-2.83146086703737e-07
1.68100594574341e-06
7.05653825500685e-08
-3.3638062605678e-07
1.53391976396944e-06
4.14028413727271e-08
-3.56024750386567e-07
1.36467413187823e-06
2.19179239459337e-08
-3.4942214366249e-07
1.24575402591077e-06
9.14329373049291e-09
-3.41871333923858e-07
4.1175181373121e-06
1.82879557017355e-07
-1.27320377251793e-07
1.86848132489019e-06
1.84504858747948e-07
-2.15867341383974e-07
1.72276092837594e-06
1.36092687945401e-07
-2.96425177076606e-07
1.70491920863278e-06
9.23508647808168e-08
-3.6364958578822e-07
1.64140899276883e-06
5.8937858334743e-08
-4.05578554777521e-07
1.51637558744827e-06
3.56015272150837e-08
-4.13152091332498e-07
1.36059351146648e-06
1.94961594752203e-08
-3.95133296654939e-07
1.24437029567158e-06
8.38706363445076e-09
-3.79544707355525e-07
4.02596179446951e-06
2.05793991041542e-07
-1.36444341145141e-07
1.7865426574312e-06
2.06105222128823e-07
-2.23490452797248e-07
1.64569775564173e-06
1.57248114957034e-07
-3.05444485310237e-07
1.65833259362351e-06
1.12182404862436e-07
-3.7884863893498e-07
1.65902185356553e-06
7.64177098474156e-08
-4.37227983212251e-07
1.62007858521494e-06
5.03415251837991e-08
-4.6928588452729e-07
1.51444889035769e-06
3.16150188892646e-08
-4.66038458829568e-07
1.36471927668913e-06
1.8027709934873e-08
-4.37396386007273e-07
1.25089836685548e-06
8.01913516310735e-09
-4.14124011626513e-07
3.91807600856919e-06
2.26529863286941e-07
-1.38896797314931e-07
1.69124880350581e-06
2.22251237884298e-07
-2.28882729230487e-07
1.54905371905451e-06
1.73614273993867e-07
-3.12152697524595e-07
1.57666753818858e-06
1.28794117225013e-07
-3.88087490672764e-07
1.61122192375839e-06
9.26040618003696e-08
-4.54218016121808e-07
1.63854700300144e-06
6.54010949169092e-08
-5.04908181953024e-07
1.62206412138409e-06
4.51414631910136e-08
-5.28237562205977e-07
1.52592807958479e-06
2.96419337813423e-08
-5.14824848300794e-07
1.37831653130755e-06
1.76836429375833e-08
-4.76178283934346e-07
1.26702738978266e-06
8.1648144744659e-09
-4.45510123997646e-07
3.79088485201546e-06
2.38377600135931e-07
-1.31664219927002e-07
1.58676919829344e-06
2.33828673993176e-07
-2.25289397242089e-07
1.44061765608607e-06
1.87342918251262e-07
-3.14688537393233e-07
1.47821263710696e-06
1.42942356332962e-07
-3.94500212120153e-07
1.53130017182357e-06
1.06754523052602e-07
-4.64029458808995e-07
1.59412293583125e-06
7.98165048359126e-08
-5.23690414234121e-07
1.64620216275154e-06
5.94105437687755e-08
-5.67526741691736e-07
1.64157843454955e-06
4.31784449765875e-08
-5.82637570825128e-07
1.54917177853496e-06
2.99202340319694e-08
-5.5953388979444e-07
1.40216887443029e-06
1.86576261650159e-08
-5.11420887177044e-07
1.29265512667701e-06
8.92662570726477e-09
-4.73624500436993e-07
1.43609541376338e-06
-4.71324504383822e-07
1.51859196340162e-06
9.31076432652815e-08
-5.34273970911902e-07
1.60741074233738e-06
7.36216116943038e-08
-5.87819386885798e-07
1.67351986703522e-06
5.80372170835661e-08
-6.25119322939196e-07
1.6747499420216e-06
4.46146328117084e-08
-6.32338898825361e-07
1.58404747642365e-06
3.23987298632509e-08
-6.00073353950209e-07
1.43634789820663e-06
2.1042223641285e-08
-5.42983454804588e-07
1.32718839330119e-06
1.04157395951081e-08
-4.98366325737623e-07
2.86206829015719e-06
1.42071450304571e-08
-6.81206313838799e-08
3.26973461747547e-06
2.86945907089267e-08
-7.41486330189115e-08
1.40958515463525e-06
1.73133993044707e-08
-1.18725117664151e-07
3.55115367504544e-06
4.83677238763838e-08
-8.43839263041257e-08
1.58898925704022e-06
3.87472157832503e-08
-1.33979124923742e-07
1.28882575116416e-06
1.43951020522812e-08
-1.65302458324293e-07
3.88160693986459e-06
7.17658639383706e-08
-9.50970615517016e-08
1.76367843655026e-06
6.56337589016979e-08
-1.55853340877862e-07
1.45214160750699e-06
3.27689220516391e-08
-1.89993820215815e-07
1.28017000601505e-06
1.26408841718655e-08
-2.10601408849513e-07
4.12883670365731e-06
9.69436815196396e-08
-1.03758492268122e-07
1.91814391335536e-06
9.60444981201938e-08
-1.76829115571466e-07
1.63489600552971e-06
5.62780642247287e-08
-2.24086521553224e-07
1.42610966575286e-06
2.8557039030103e-08
-2.43809636849436e-07
1.28259843903224e-06
1.11163573565101e-08
-2.54474373426723e-07
4.25090540767872e-06
1.22589385475708e-07
-1.10449867896613e-07
1.98986539712898e-06
1.27030951154602e-07
-1.91738707638544e-07
1.77158157730646e-06
8.30747477460583e-08
-2.55291428216588e-07
1.60334490078557e-06
4.79813467991295e-08
-2.8848722346282e-07
1.40923321791597e-06
2.46194561844141e-08
-2.94825765574615e-07
1.27890627054061e-06
9.80660899642033e-09
-2.96380359293805e-07
4.26890232510026e-06
1.4822963286564e-07
-1.16530618491699e-07
1.98499729021692e-06
1.56436589409868e-07
-2.01617083731989e-07
1.81325157660054e-06
1.10133580442337e-07
-2.76006670236237e-07
1.72769374425973e-06
6.96014806680399e-08
-3.28620400584541e-07
1.57267479268443e-06
4.0513488304096e-08
-3.48463464557894e-07
1.39593726255128e-06
2.12101316949191e-08
-3.42618031415343e-07
1.27158059285185e-06
8.72240838688407e-09
-3.35840688679655e-07
4.22367563900225e-06
1.7331092673633e-07
-1.23023999629455e-07
1.93251808481755e-06
1.83120422656173e-07
-2.09488971566106e-07
1.77965442630151e-06
1.35202525588515e-07
-2.88339494914701e-07
1.75552634821146e-06
9.12545251874543e-08
-3.54441989735264e-07
1.68471870247816e-06
5.77251948560367e-08
-3.9601239720032e-07
1.55190582858362e-06
3.44466111984784e-08
-4.04083579966224e-07
1.38884367676157e-06
1.8599658032215e-08
-3.87128407944331e-07
1.26717186272981e-06
7.86600567732658e-09
-3.72538732678665e-07
4.14375887085293e-06
1.95798858023086e-07
-1.3071004579859e-07
1.85481548206558e-06
2.05869800047329e-07
-2.16952929137704e-07
1.70597753197843e-06
1.56982404862986e-07
-2.97035128385113e-07
1.71193331022439e-06
1.1118035153933e-07
-3.68855663196744e-07
1.70559927705172e-06
7.4966283870868e-08
-4.26254955107591e-07
1.65949138552404e-06
4.87618537488332e-08
-4.58151564668979e-07
1.54629249551966e-06
3.0177837885712e-08
-4.55677370498295e-07
1.38946687884594e-06
1.68904214458484e-08
-4.28384042390126e-07
1.27030045673898e-06
7.37268665937174e-09
-4.06319541975506e-07
4.04658809437688e-06
2.16171394428122e-07
-1.38878028977401e-07
1.76257273280376e-06
2.23066232174512e-07
-2.24722749104449e-07
1.61279520726428e-06
1.74335002420052e-07
-3.04318984098043e-07
1.63325026579641e-06
1.28186802905793e-07
-3.78031479648274e-07
1.66035282236783e-06
9.10128893972811e-08
-4.42574074631331e-07
1.68070536788225e-06
6.33625153122461e-08
-4.92407454172731e-07
1.65716320900563e-06
4.30147739174304e-08
-5.15784613451682e-07
1.5535731258994e-06
2.77720208240781e-08
-5.03427691803956e-07
1.39906465772822e-06
1.62495515141388e-08
-4.66374746352946e-07
1.28264702092007e-06
7.37181372696489e-09
-4.37115508669457e-07
3.92783178081537e-06
2.30193868020999e-07
-1.40588428776999e-07
1.66297788700677e-06
2.34435180327797e-07
-2.27284098894276e-07
1.50771966763962e-06
1.87151940103609e-07
-3.09520032317109e-07
1.53811419047635e-06
1.41647649539975e-07
-3.84906647666197e-07
1.58324137316603e-06
1.04828214773422e-07
-4.5225272890884e-07
1.63849520248779e-06
7.73312992324581e-08
-5.10519965463102e-07
1.68358314717538e-06
5.65646854044234e-08
-5.53712266132199e-07
1.67172552995104e-06
4.03771356160168e-08
-5.69119747029823e-07
1.57200390971888e-06
2.73370442368954e-08
-5.47310567247123e-07
1.41838742908922e-06
1.68025024620324e-08
-5.0103456950304e-07
1.30407020318692e-06
7.93486282051047e-09
-4.64860032894258e-07
3.78516696743341e-06
2.31814550397583e-07
-1.33612266728654e-07
1.55482852471814e-06
2.37608533856175e-07
-2.22369446921232e-07
1.38926816652597e-06
1.94716426594027e-07
-3.10195031874151e-07
1.43137002093812e-06
1.52096328939248e-07
-3.89600228363435e-07
1.49111576785473e-06
1.16615965799898e-07
-4.59381164089476e-07
1.56526082138475e-06
8.99034032948426e-08
-5.20784749673967e-07
1.64657494016761e-06
6.99794395989292e-08
-5.73423365797415e-07
1.70536483653878e-06
5.41516822020847e-08
-6.10345095576973e-07
1.69923962101803e-06
4.08482521074483e-08
-6.18055076757563e-07
1.60131810589401e-06
2.91414325192391e-08
-5.87288037675707e-07
1.44746569901867e-06
1.86287045264689e-08
-5.32240682714876e-07
1.33390719708728e-06
9.10208060604208e-09
-4.89445283884525e-07
1.47775980758319e-06
-5.28234203809161e-07
1.57815528950915e-06
8.27432269622954e-08
-5.84127335098525e-07
1.67448349292389e-06
6.83452034745059e-08
-6.31217529830311e-07
1.740950312588e-06
5.59956721795209e-08
-6.62046378935359e-07
1.73876639561021e-06
4.44498550629094e-08
-6.6244475762224e-07
1.64149798966205e-06
3.30893092273563e-08
-6.23194782781243e-07
1.48602412815885e-06
2.1888547044081e-08
-5.59858431805442e-07
1.37170015071482e-06
1.09857291282385e-08
-5.10769819809575e-07
2.91732316131148e-06
1.37370637309044e-08
-6.8997562103402e-08
3.3309744045007e-06
2.75044195610378e-08
-7.45383380938526e-08
1.4435358771851e-06
1.7178470438755e-08
-1.19248939652592e-07
3.61768758306355e-06
4.63071965940248e-08
-8.41387089865797e-08
1.62740396357815e-06
3.84334238881297e-08
-1.33683962958257e-07
1.32091148008451e-06
1.42195343662174e-08
-1.65030268285392e-07
3.95548863233233e-06
6.86043612522658e-08
-9.4119637215348e-08
1.80743457256459e-06
6.51025075301108e-08
-1.54495480114254e-07
1.48872997942756e-06
3.24089924063194e-08
-1.88582431577082e-07
1.31174289028345e-06
1.24315785723176e-08
-2.09306891793769e-07
4.21011040427703e-06
9.24806286012072e-08
-1.01984356595225e-07
1.96776109563593e-06
9.51774089107955e-08
-1.74256506950656e-07
1.67732958965439e-06
5.56974251408676e-08
-2.21215054765526e-07
1.46172593743266e-06
2.80943863363921e-08
-2.41062976709106e-07
1.31317780722264e-06
1.08532722074651e-08
-2.52033845420988e-07
4.33907566409809e-06
1.16666386231615e-07
-1.07882528940583e-07
2.04431051039169e-06
1.25786726627663e-07
-1.87945447745555e-07
1.81959840097073e-06
8.22329454523257e-08
-2.50801175778322e-07
1.64452719404665e-06
4.7255993688342e-08