/*--------------------------------*- C++ -*----------------------------------*\
  =========                 |
  \\      /  F ield         | OpenFOAM: The Open Source CFD Toolbox
   \\    /   O peration     | Website:  https://openfoam.org
    \\  /    A nd           | Version:  12
     \\/     M anipulation  |
\*---------------------------------------------------------------------------*/
/*   Windows 32 and 64 bit porting by blueCAPE: http://www.bluecape.com.pt   *\
|  Based on Windows porting (2.0.x v4) by Symscape: http://www.symscape.com   |
\*---------------------------------------------------------------------------*/
FoamFile
{
    format      ascii;
    class       volVectorField;
    location    "300";
    object      U;
}
// * * * * * * * * * * * * * * * * * * * * * * * * * * * * * * * * * * * * * //

dimensions      [0 1 -1 0 0 0 0];

internalField   nonuniform List<vector> 
10152
(
(6.06840341520116e-06 0.000206371089735994 3.74083948727039e-05)
(7.03351983006477e-06 0.000237763850867436 3.59989646442865e-05)
(1.88660332008783e-05 9.90035398329334e-05 3.73046787188403e-05)
(4.65534274494893e-06 0.000391213587108329 7.03318676666807e-05)
(7.76239324655217e-06 0.000265283216597303 3.4832323532241e-05)
(2.08061333587439e-05 0.000125112049997144 3.78319188803375e-05)
(5.03740768999886e-06 0.00041772749395631 6.83793900233111e-05)
(3.26443891586337e-05 7.63788617078887e-05 3.74143261926328e-05)
(1.49521869283831e-05 0.000335758632608403 7.00575059152624e-05)
(3.64535296059652e-06 0.000469591994358808 0.000105336207276791)
(7.68164342328653e-06 0.00029023961385967 3.36319503886638e-05)
(2.22779551910261e-05 0.000150740100167709 3.73010889498608e-05)
(5.25830097688807e-06 0.00044199662409906 6.63651410025681e-05)
(3.46322738359456e-05 0.000100351997729382 3.89951302689166e-05)
(1.5863820832404e-05 0.000359817633464496 6.86361375762001e-05)
(3.81219059207788e-06 0.000493110278960608 0.000101986682697428)
(4.78769176193507e-05 6.40679458743429e-05 3.78591446730584e-05)
(2.64047781477107e-05 0.000319385672599574 7.0182005833185e-05)
(1.18222740840669e-05 0.000447285438050355 0.00010535770553775)
(3.02664666016507e-06 0.000516490036485523 0.000139000210820164)
(7.54111716224387e-06 0.000314258249974351 3.23517667408614e-05)
(2.24295331595385e-05 0.000174209566531666 3.53535494992871e-05)
(5.24981155269313e-06 0.000464550754775807 6.3936636585132e-05)
(3.6184942616598e-05 0.000125493014474042 3.88169714116573e-05)
(1.64129859349563e-05 0.00038271747034774 6.68554990899826e-05)
(3.8893192836393e-06 0.00051503971687734 9.87550744353647e-05)
(4.94917070148034e-05 8.75754975033192e-05 4.00677763784781e-05)
(2.7316715390326e-05 0.000342317023371938 6.92738309799208e-05)
(1.22158375547487e-05 0.000469484691811678 0.000102256660157152)
(3.0765507533879e-06 0.000537336296204991 0.000134496453207634)
(6.37550475351345e-05 4.665103886908e-05 3.80039592776184e-05)
(3.86091265333525e-05 0.000307281977400592 7.03097614357833e-05)
(2.11048717726793e-05 0.000438131525989094 0.000105874617448658)
(9.7314409188527e-06 0.000504009167375521 0.000139035791401827)
(2.57343925855262e-06 0.000555638075066762 0.00016903891005082)
(7.45430786960811e-06 0.00033687133260534 3.11386892590392e-05)
(2.23805646299796e-05 0.000196882814017987 3.3721735569411e-05)
(5.19532082044235e-06 0.000486112883410974 6.15211796657526e-05)
(3.67070709208025e-05 0.000148645200599011 3.66729426047096e-05)
(1.64701745873474e-05 0.000404586015879155 6.43085838209336e-05)
(3.88470326807975e-06 0.000535916559119309 9.54359413035185e-05)
(5.11505943103129e-05 0.000112719890461781 4.02411686970669e-05)
(2.80172850781913e-05 0.000364704335048955 6.77104445933426e-05)
(1.23954429829329e-05 0.000490685482578694 9.90990075492654e-05)
(3.08398362365587e-06 0.000557224110914907 0.000130218423981967)
(6.51542418308539e-05 7.03735624061172e-05 4.06198373693e-05)
(3.93598446076814e-05 0.000329962825343071 6.978094822308e-05)
(2.14838418548816e-05 0.000459688057345869 0.000103027057330896)
(9.8653658940201e-06 0.000524060851379333 0.00013469602985235)
(2.56838582476215e-06 0.000573996943715131 0.000163752542973794)
(7.9320336984399e-05 2.3359473469718e-05 3.73614954004997e-05)
(5.1031934602714e-05 0.000292055161553406 7.01066483061601e-05)
(3.10453613516473e-05 0.00042898694997991 0.000106123894152987)
(1.7372199956497e-05 0.000497670707036885 0.000139577149742753)
(8.22908329406634e-06 0.000546742453161406 0.000168712384734931)
(2.27105516355529e-06 0.000591963902509261 0.000195343438419398)
(7.36551726481014e-06 0.00035799430580759 2.99770718789256e-05)
(2.23310841366617e-05 0.00021801888897959 3.23292717722218e-05)
(5.14315498141111e-06 0.000506685728718399 5.92692774818871e-05)
(3.69689260933869e-05 0.000171122790263021 3.50213622310788e-05)
(1.64095402267343e-05 0.000425601515660658 6.1852958372325e-05)
(3.85618716683621e-06 0.000556037145965542 9.22319882179927e-05)
(5.21450230403422e-05 0.000135913085420286 3.80448901490234e-05)
(2.82899496753306e-05 0.000386458456851347 6.51345329508648e-05)
(1.2392344653414e-05 0.000511224212823314 9.57842012817622e-05)
(3.06187107779585e-06 0.000576432706560104 0.000126081122802321)
(6.71568052469262e-05 9.58871710643905e-05 4.11813081288716e-05)
(4.01696898185021e-05 0.000352274787139555 6.85004595815402e-05)
(2.17204335746259e-05 0.000480603114012794 9.99757692169654e-05)
(9.87693359313729e-06 0.000543501585385036 0.000130505752538534)
(2.53947660534946e-06 0.000591882817377833 0.000158766810901271)
(8.05736845643916e-05 4.77740136808659e-05 4.0395374399846e-05)
(5.1708077875651e-05 0.000314964474543115 6.99027225845641e-05)
(3.13501318699478e-05 0.000450434729680445 0.000103509301031887)
(1.7479243073704e-05 0.000517325838755817 0.000135396703586205)
(8.21839419734352e-06 0.000564559322180659 0.000163564167375329)
(2.2274895498164e-06 0.000607980733911143 0.000189598085097563)
(9.38227093392815e-05 -3.51713320120647e-06 3.6348395225858e-05)
(6.30924387470877e-05 0.000273562167773653 6.94206429218897e-05)
(4.11370905244846e-05 0.00041683344856652 0.000105804026937665)
(2.56453776636437e-05 0.000490064076873828 0.000139638152111189)
(1.4696323188514e-05 0.000541549920679216 0.000168974701759022)
(7.2030082231366e-06 0.000584488752106103 0.000194470125492987)
(2.07716844529417e-06 0.000626741284571575 0.000218091565720804)
(7.30829024801076e-06 0.000377748641920942 2.89244239002485e-05)
(2.22487019932993e-05 0.00023748270930631 3.10403585480189e-05)
(5.09674664407097e-06 0.000526339001487112 5.72378370781699e-05)
(3.71160417705646e-05 0.000191986076444335 3.36391890741487e-05)
(1.63362071682893e-05 0.000445583725274078 5.95869714657839e-05)
(3.82344921509007e-06 0.000575473463881361 8.9259059116679e-05)
(5.28052350736664e-05 0.000158535501730295 3.64484040716562e-05)
(2.83898822621521e-05 0.000407432848846422 6.2695226855754e-05)
(1.23344600154502e-05 0.000531090911984605 9.25913836863674e-05)
(3.03119768730646e-06 0.000595125235673132 0.000122188646478314)
(6.87268487690129e-05 0.000119263114723974 3.90959547721611e-05)
(4.07030890091862e-05 0.000374107190782779 6.60028018665963e-05)
(2.17802445658159e-05 0.000501106916143689 9.66890342501635e-05)
(9.81469792431803e-06 0.000562490498595748 0.000126427160009327)
(2.49928910575607e-06 0.000609398974473083 0.000154055842617818)
(8.33639525683624e-05 7.40536061767851e-05 4.15597197281149e-05)
(5.26924792667444e-05 0.000337523065691458 6.89656140039102e-05)
(3.16484308902994e-05 0.000471355704230577 0.000100651405527134)
(1.74812106229825e-05 0.000536597892402881 0.000131304279576305)
(8.13110124148733e-06 0.000582140561154903 0.000158687841080633)
(2.1697270309343e-06 0.000623880730462664 0.000184177472293432)
(9.48153810327341e-05 2.05515801113122e-05 3.96808599463757e-05)
(6.37397228502102e-05 0.00029692932780094 6.95328432608353e-05)
(4.13999952867141e-05 0.000438550787622699 0.000103428365590542)
(2.56804502274668e-05 0.000509691577399049 0.000135648508219727)
(1.46204280348699e-05 0.000559108715449783 0.000163963981305113)
(7.08265391732834e-06 0.000600124136084905 0.00018886073193021)
(2.00091254926309e-06 0.000640529197166915 0.000212116550148421)
(0.000108513542630672 -3.15246516704357e-05 3.46951724794817e-05)
(7.42862980285244e-05 0.000253477536018889 6.84228349767864e-05)
(5.07631560407333e-05 0.000401619385901162 0.00010493752513835)
(3.39987011945786e-05 0.000479269087760358 0.000138986926141835)
(2.17322477204895e-05 0.000534626462009423 0.000168719730337391)
(1.28290658850356e-05 0.00057964025480385 0.000194297553396405)
(6.52906522171342e-06 0.000619793096992182 0.000216749063187287)
(1.96369004011664e-06 0.00066030197566872 0.000237606415992735)
(7.28351963906067e-06 0.000396318653093086 2.80554465733069e-05)
(2.22510764800545e-05 0.000255518210805383 2.98663906719566e-05)
(5.06187831028268e-06 0.000545206268109832 5.54817520787219e-05)
(3.71848906954316e-05 0.000211090944729245 3.2342699414132e-05)
(1.62662765849412e-05 0.000464587634429451 5.75383542290839e-05)
(3.7930751507174e-06 0.000594321997022751 8.65951677674198e-05)
(5.3219343113426e-05 0.000179526486616389 3.51210998123392e-05)
(2.84042777825538e-05 0.00042732653519288 6.04518581853513e-05)
(1.22620385892598e-05 0.00055027087107435 8.96254634026779e-05)
(2.99862234013966e-06 0.000613389903179785 0.000118626062740339)
(6.97886046878258e-05 0.000142066370336096 3.75787110034952e-05)
(4.1027484681717e-05 0.000395195876213285 6.36305389937027e-05)
(2.17592753766288e-05 0.000520986883349346 9.35222730977599e-05)
(9.73130533760856e-06 0.00058101686686641 0.000122580160568405)
(2.45780888632533e-06 0.000626639613591181 0.000149683353416561)
(8.57971929411878e-05 9.76302767719017e-05 3.97561214935763e-05)
(5.35116921624318e-05 0.000359580368748067 6.66432021587719e-05)
(3.18108014428392e-05 0.000491980259103785 9.74725304726377e-05)
(1.74022735278444e-05 0.000555579746717809 0.000127289360187076)
(8.01283611299404e-06 0.000599510003363743 0.000154068491195366)
(2.10914850312687e-06 0.000639685706238733 0.000179102066135226)
(9.90295960331596e-05 4.77612735000811e-05 4.14797049561672e-05)
(6.50815088783652e-05 0.000319986571962855 6.90174741542719e-05)
(4.17762812486142e-05 0.000459747526474674 0.00010082024102903)
(2.56737544263633e-05 0.000529033926331646 0.000131722383056291)
(1.44645958372065e-05 0.000576599402776145 0.000159198281074779)
(6.91153160582412e-06 0.000615826437365294 0.000183566229963695)
(1.91617178283158e-06 0.00065447839583858 0.000206474892103029)
(0.000107667821813003 -1.04656251830104e-05 3.8529142486131e-05)
(7.48594434659742e-05 0.000276072750447404 6.88061473482874e-05)
(5.10392066835456e-05 0.000423831825594167 0.000102804519397635)
(3.39919190367285e-05 0.000499184857490818 0.000135239031888187)
(2.15524250961695e-05 0.000552221373982285 0.00016388834081446)
(1.25912393855344e-05 0.000595120341291942 0.000188828824163938)
(6.30494865368548e-06 0.00063331993701694 0.000210907997623018)
(1.8540575875302e-06 0.000671955549114032 0.000231565539651693)
(8.474456213453e-05 0.000231559605536062 6.69582580133461e-05)
(5.94468758361441e-05 0.000384027110705642 0.000103718973157508)
(4.18518251050117e-05 0.000465304766306096 0.00013775515003648)
(2.87700874156054e-05 0.000524463181488198 0.000167733891602727)
(1.89369891654608e-05 0.000572932048001083 0.000193683957721649)
(1.15680451251143e-05 0.000614923729196143 0.000216193115352303)
(6.11943444745175e-06 0.00065360233460246 0.00023597381057775)
(1.90903434356961e-06 0.000692802041583884 0.000254294752006532)
(7.2959889434901e-06 0.00041386775132817 2.73977250378625e-05)
(2.23431052162654e-05 0.000272303084839874 2.89144518067079e-05)
(5.03943915806371e-06 0.000563414604690522 5.40447324154885e-05)
(3.7336174197048e-05 0.000228775771018853 3.12147283165172e-05)
(1.62221005231465e-05 0.000482760206776895 5.57657563746821e-05)
(3.76650181367449e-06 0.00061268882720533 8.43096773079885e-05)
(5.3496023573467e-05 0.000198751285955389 3.3818562429801e-05)
(2.83814912752326e-05 0.000446210193788452 5.84058537999386e-05)
(1.21926853917144e-05 0.000568850183699633 8.69631550177055e-05)
(2.96664373751081e-06 0.000631314513647404 0.000115470966520411)
(7.04169944077426e-05 0.00016326177721776 3.62778615670166e-05)
(4.1188829849394e-05 0.000415178959588888 6.1431874275824e-05)
(2.16928965752644e-05 0.000540169165160913 9.05774761288973e-05)
(9.64160021326066e-06 0.000599122840944257 0.000119049450773265)
(2.41583315284308e-06 0.00064368091108494 0.00014572333197237)
(8.72712010502824e-05 0.000120530579953111 3.83825768129868e-05)
(5.40598698208207e-05 0.000380867175866857 6.43797464316033e-05)
(3.18620962017174e-05 0.000512005954560973 9.43789230525401e-05)
(1.72867734419747e-05 0.000574132644093426 0.000123494810175568)
(7.89002037197143e-06 0.000616639988634967 0.000149767225696092)
(2.05097617669497e-06 0.000655445833154464 0.000174432744578168)
(0.000102720504720006 7.13596242560649e-05 4.02971755685615e-05)
(6.63054187134464e-05 0.000342360249339313 6.6975343649945e-05)
(4.2061506511872e-05 0.000480641232239527 9.78216213258624e-05)
(2.55985488123826e-05 0.000548168179103481 0.000127830329064783)
(1.42673859858268e-05 0.000593992344319731 0.000154670027161676)
(6.73024692986923e-06 0.000631552981746424 0.000178603163719758)
(1.83309420276202e-06 0.000668572078142134 0.000201215624506011)
(0.000113235148624253 1.67624057328723e-05 4.17725797539037e-05)
(7.68549524551383e-05 0.000299662664714991 6.87952680636239e-05)
(5.15631954635091e-05 0.000445516200888268 0.000100498237585747)
(3.39962908264468e-05 0.000518831843398663 0.000131543251934306)
(2.13220441089418e-05 0.000569821488150299 0.000159280575181887)
(1.22965132465269e-05 0.000610795533687194 0.000183658533274858)
(6.05296043203503e-06 0.000647155399851438 0.000205397224151169)
(1.74307667414635e-06 0.000683993762316801 0.000225863604188867)
(0.000122317070724772 -4.41200834812981e-05 3.59586118719184e-05)
(8.47833920046835e-05 0.000254534856839675 6.78129929679522e-05)
(5.97709646174352e-05 0.000406241691317188 0.000101793958042318)
(4.1854253008816e-05 0.000485731382750378 0.000134262058657316)
(2.85064551589604e-05 0.000542363455291554 0.000163141897780187)
(1.85469274804302e-05 0.000588507390148118 0.00018840302249346)
(1.11659486195511e-05 0.000628377818307393 0.000210498168884779)
(5.79230323787569e-06 0.00066507999169654 0.000230060509643569)
(1.76682576282033e-06 0.000702387993884849 0.000248308925316685)
(6.70408243512278e-05 0.000364164770074351 0.000102148940049269)
(4.87704321091368e-05 0.000448636371391724 0.00013613387049975)
(3.5289549712902e-05 0.000511133843995579 0.000166162159763883)
(2.49979806046633e-05 0.000563094888656532 0.000192401506302489)
(1.70056251750495e-05 0.000608227404605829 0.000215287730047048)
(1.07777838425597e-05 0.000648638181647684 0.000235164923015561)
(5.91871536549174e-06 0.000686312832442173 0.000252528476395873)
(1.90661189112815e-06 0.000724377534532836 0.000268538360225326)
(7.35166794128667e-06 0.000430569810133313 2.69620981704573e-05)
(2.25308789213113e-05 0.000287987708338934 2.82396254539465e-05)
(5.03067107729685e-06 0.000581089440401925 5.29576916506476e-05)
(3.76064474024256e-05 0.00024518193917971 3.02794526136105e-05)
(1.62105640203345e-05 0.000500234855396311 5.43074355781046e-05)
(3.7437567557451e-06 0.000630679018692015 8.2457173439458e-05)
(5.3824550734157e-05 0.000216577993229986 3.26788027560829e-05)
(2.83753275878506e-05 0.000464251072878897 5.66323089300028e-05)
(1.21326185630896e-05 0.000586938621438285 8.46739844618599e-05)
(2.93514654236838e-06 0.000648987601158867 0.000112793578973263)
(7.08856767263726e-05 0.00018272867457043 3.49649525890292e-05)
(4.12610643056998e-05 0.000434140502156519 5.93954282152866e-05)
(2.16084734087323e-05 0.000558741399632416 8.79271907196809e-05)
(9.55296940083454e-06 0.000616888806173709 0.000115913586136336)
(2.37376837226857e-06 0.000660595314233686 0.00014225262916252)
(8.80348246151352e-05 0.00014191903900896 3.7049492134253e-05)
(5.43721356138273e-05 0.000401028836121253 6.22323222071212e-05)
(3.18321677636955e-05 0.00053132398625513 9.14782294817955e-05)
(1.71505068600728e-05 0.000592266926770644 0.000120002610435879)
(7.76761067622258e-06 0.000633576755257631 0.000145859028512727)
(1.9948727137978e-06 0.000671215021450024 0.000170243282396354)
(0.000104597429175717 9.41784509583299e-05 3.91180505954795e-05)
(6.70944122659055e-05 0.000363892807302266 6.48714519265225e-05)
(4.22044884285211e-05 0.000500926138468738 9.48476158105909e-05)
(2.54696834238081e-05 0.000566888687980433 0.000124125893734933)
(1.40571478695351e-05 0.000611168849116347 0.000150441237623074)
(6.55563537355355e-06 0.0006472575685907 0.00017402229732497)
(1.75566958759306e-06 0.000682832603031977 0.000196411022884355)
(0.000119083062198328 3.99070974381745e-05 4.09253744008336e-05)
(7.86347175958114e-05 0.000322347245706839 6.71680971444319e-05)
(5.20171185243759e-05 0.000466812057345025 9.77429406203821e-05)
(3.39458337078753e-05 0.000538272615204282 0.000127826536545811)
(2.1053946754577e-05 0.000587391002212195 0.000154885120102458)
(1.19825170567178e-05 0.00062658342457944 0.000178805779882288)
(5.80345958452811e-06 0.000661230433437654 0.000200259717789572)
(1.63511115834681e-06 0.000696388004140793 0.000220569337665895)
(0.000127126310878988 -2.21941943332388e-05 4.04631744012452e-05)
(8.75269623222452e-05 0.000276275037198836 6.86486620369737e-05)
(6.05908245437759e-05 0.000428481519248947 9.9837344255592e-05)
(4.19070723345741e-05 0.000505871004161271 0.000130836708488829)
(2.82196208023545e-05 0.000560295219238559 0.000158752662234421)
(1.8114761939987e-05 0.000604334631372222 0.000183396850256434)
(1.07312638420894e-05 0.000642244609377954 0.000205121122773358)
(5.45672510504847e-06 0.000677067709761601 0.000224487038644076)
(1.62930518889751e-06 0.000712552566979436 0.000242670115565707)
(0.000137659219684025 -8.67916024874511e-05 3.62543412307625e-05)
(9.42588994269818e-05 0.000228302872857254 6.57517256654203e-05)
(6.72954049944821e-05 0.000386819434926609 0.00010048316761717)
(4.88310839038281e-05 0.000469361750155587 0.000132866913913518)
(3.49992187185476e-05 0.000529548065530557 0.000161839911460875)
(2.44666877701899e-05 0.000578998773498216 0.0001873606900465)
(1.63955807275962e-05 0.000621829765075275 0.000209789482051736)
(1.02053142860902e-05 0.000660105095162507 0.000229395530839857)
(5.49122580322655e-06 0.00069578545053909 0.000246660261821828)
(1.73191925646192e-06 0.000731940976185487 0.000262700727161244)
(5.45457495913151e-05 0.000429311817551255 0.000134158053931463)
(4.09224508635401e-05 0.000495038306280249 0.00016418619241752)
(3.05449482592312e-05 0.000550191352750798 0.000190556486451606)
(2.23735383992574e-05 0.000598580691951541 0.000213780642899359)
(1.57799737487724e-05 0.000641917855941085 0.000234062614890415)
(1.03815702524032e-05 0.000681303829864841 0.000251582772729609)
(5.89785243192111e-06 0.000718112145496909 0.000266735648705372)
(1.9524076730499e-06 0.000755123430069828 0.000280638384348231)
(7.43971024305006e-06 0.000446604048624066 2.67639199552918e-05)
(2.28272358969516e-05 0.000302738531558235 2.77989361450501e-05)
(5.03420528469347e-06 0.000598372726660439 5.22476523662418e-05)
(3.80213490435698e-05 0.000260483085124999 2.95651447752998e-05)
(1.62338752859607e-05 0.000517138877897675 5.31965008275965e-05)
(3.724146530414e-06 0.000648401745064033 8.10817255962905e-05)
(5.42910233710227e-05 0.000233130575590475 3.17235727795994e-05)
(2.8405654361046e-05 0.000481581876139725 5.5166954563236e-05)
(1.20816443793908e-05 0.00060464187683926 8.28107551707685e-05)
(2.90403996538652e-06 0.000666498886216669 0.000110655894657259)
(7.14078300547925e-05 0.000200857178885741 3.38107954334352e-05)
(4.1322210465959e-05 0.000452256960743025 5.76158614794581e-05)
(2.15249587103575e-05 0.000576814810484045 8.56424123539436e-05)
(9.46725036440443e-06 0.00063440356905537 0.000113244443166326)
(2.33147623638266e-06 0.000677455998784124 0.000139344443332888)
(8.86697177117363e-05 0.000161734881153808 3.56980871434976e-05)
(5.45529746209033e-05 0.000420175669234145 6.02081459688887e-05)
(3.17562652731025e-05 0.000550022864479337 8.88480256787869e-05)
(1.70057507917616e-05 0.000610061592655288 0.000116893140495332)
(7.64625155549174e-06 0.000650388358073315 0.000142422771799842)
(1.9402914269491e-06 0.000687049163800095 0.000166612597082337)
(0.000105444216856319 0.000115756276420712 3.77190000753127e-05)
(6.75335535316968e-05 0.00038430226478976 6.27750686047175e-05)
(4.22288285387782e-05 0.000520493460818097 9.20155909189418e-05)
(2.53025197263855e-05 0.00058518426717714 0.000120694459114885)
(1.38435646832059e-05 0.000628154716446645 0.00014658890538182)
(6.38693057085099e-06 0.000662972044463772 0.00016989873534077)
(1.6822659774106e-06 0.000697293097149668 0.000192139909040476)
(0.000121239134666852 6.25362536326572e-05 3.99711490186584e-05)
(7.96666030359715e-05 0.000344107942707509 6.52532951127777e-05)
(5.22743435637191e-05 0.000487456895220171 9.49257752779429e-05)
(3.38239278916401e-05 0.000557288259210701 0.000124244500492427)
(2.07645234180947e-05 0.000604756146277475 0.000150761638636213)
(1.16702713575265e-05 0.000642362077768355 0.000174314460619439)
(5.56864674861515e-06 0.000675485441395208 0.000195552092532442)
(1.53586695604426e-06 0.000709138450095849 0.000215764450720176)
(0.000133167580013221 2.09552344532463e-06 4.26503602880798e-05)
(9.00575360151988e-05 0.000299035454383381 6.74242106072217e-05)
(6.1271443233232e-05 0.000450244594336327 9.73848623154272e-05)
(4.1908378037351e-05 0.000525757561791653 0.000127339594687474)
(2.79026543261701e-05 0.000578200299522407 0.000154531120985786)
(1.76664421715581e-05 0.000620323153299491 0.000178683797749758)
(1.02959668223071e-05 0.000656416763534483 0.000200103192014623)
(5.13399874790783e-06 0.000689488517879077 0.000219313978765392)
(1.49723840353846e-06 0.00072325985923416 0.000237459511715505)
(0.00014124287185752 -6.46211857453669e-05 4.08134522444749e-05)
(9.6953229814886e-05 0.000250059758782154 6.78114519539628e-05)
(6.84856276544698e-05 0.000408483148562893 9.90156427777631e-05)
(4.90102529667782e-05 0.000490091427167088 0.000129741600835387)
(3.46884913814643e-05 0.000547979620624785 0.000157702575311528)
(2.39098631624222e-05 0.000595178903962358 0.000182569181830328)
(1.5758293096966e-05 0.000635886492848843 0.000204582918927178)
(9.6250878927163e-06 0.000672170869387121 0.000223961689252172)
(5.06865916287951e-06 0.000705944885300722 0.000241145383140231)
(1.56587602677627e-06 0.000740259532106817 0.000257221843578813)
(0.00014901610148042 -0.000140232041875372 3.63364600893723e-05)
(0.000102739841570945 0.00019612026460829 6.47414145603052e-05)
(7.37087656105766e-05 0.000363975418803527 9.8645783364336e-05)
(5.46419330987992e-05 0.000450712005806211 0.000131167878292263)
(4.06504827882442e-05 0.000513863178008269 0.000160103658828676)
(2.99250957653333e-05 0.000566622812121607 0.000185796129990676)
(2.15555927326074e-05 0.000612545923210312 0.000208530686285317)
(1.49307735807001e-05 0.000653582049397465 0.000228499574025317)
(9.63182929145774e-06 0.000690812584207722 0.000245858103658338)
(5.36539818355555e-06 0.00072560891269439 0.000261008008996202)
(1.74325376205983e-06 0.000760700495431576 0.000275028380543387)
(4.54538036428638e-05 0.000476254028577604 0.000161847611569837)
(3.5251235753229e-05 0.000534585080992851 0.000188295340937541)
(2.72448694847469e-05 0.000586027274148406 0.000211743850545155)
(2.07034468103515e-05 0.000632432039943156 0.000232414188695192)
(1.51532832745794e-05 0.000674599500275222 0.000250373315496672)
(1.03180648442231e-05 0.000713122830267066 0.000265734989727682)
(6.03289419713668e-06 0.000749083783808957 0.000278856704236009)
(2.03862341079033e-06 0.000785080404951883 0.000290824454396604)
(7.55791796046547e-06 0.00046217809605819 2.68148285019082e-05)
(2.32221170965533e-05 0.000316727187247899 2.76054600842786e-05)
(5.04673358371856e-06 0.000615423775480602 5.19358068774223e-05)
(3.85878888725396e-05 0.00027484835939614 2.90857556181939e-05)
(1.62931640314264e-05 0.000533613746342809 5.24621822210179e-05)
(3.7064727253756e-06 0.000665981979713666 8.02223235033804e-05)
(5.4933143643537e-05 0.000248574188669284 3.09894441986103e-05)
(2.84829122176178e-05 0.000498335066161403 5.40442534550706e-05)
(1.20393437936398e-05 0.000622067166113648 8.14191020967341e-05)
(2.87246975100402e-06 0.000683945417278957 0.000109112698147767)
(7.20974587202769e-05 0.000217736104816284 3.28449334221376e-05)
(4.14183859793159e-05 0.000469654530719158 5.61369416550167e-05)
(2.14508314170024e-05 0.000594496594809141 8.37769020804149e-05)
(9.3826516729317e-06 0.0006517560485472 0.000111105561948187)
(2.28819024468283e-06 0.000694340256640327 0.000137067796340078)
(8.94012738816896e-05 0.000180286598465357 3.45139688672534e-05)
(5.47033787768109e-05 0.000438488427364458 5.84240377195478e-05)
(3.16669953264127e-05 0.000568216375453913 8.65678811480129e-05)
(1.68604844580812e-05 0.000627602764766675 0.000114240334084069)
(7.52526223920324e-06 0.000667147106993807 0.000139534782946995)
(1.88564083123048e-06 0.000703007512324981 0.000163618812346122)
(0.000106202390853499 0.000136071359869149 3.62914578881957e-05)
(6.78143128728988e-05 0.000403725564728119 6.07594513172823e-05)
(4.21806495193989e-05 0.000539435186768444 8.94177892176892e-05)
(2.51128999356693e-05 0.000603131181418746 0.000117621313454016)
(1.36295000027744e-05 0.000645014218794455 0.000143193811326758)
(6.22311953015983e-06 0.0006787487780603 0.000166313890292059)
(1.61201912398198e-06 0.000711991754196001 0.00018848455897134)
(0.000122066123699346 8.45052060464776e-05 3.84854586530238e-05)
(8.02065050217441e-05 0.000364823109645262 6.31923684679757e-05)
(5.23661417779626e-05 0.000507372782782148 9.21766798208815e-05)
(3.36431613977437e-05 0.000575866620741051 0.000120891232245919)
(2.04628973222937e-05 0.000621923041317482 0.000146983905544484)
(1.136707772527e-05 0.000658148124089491 0.000170262281229335)
(5.3452918766687e-06 0.000689935079090529 0.00019135375742884)
(1.44379279704633e-06 0.000722261791218665 0.000211534985363855)
(0.000135571881879714 2.44671337785412e-05 4.10320482851368e-05)
(9.12926633561174e-05 0.000321017744115481 6.56798947254795e-05)
(6.16538291987912e-05 0.000471318738817245 9.47450953590634e-05)
(4.18175451062276e-05 0.000545185444236851 0.000123907387295419)
(2.75548695294202e-05 0.000595886296255184 0.000150533966998485)
(1.72177222069267e-05 0.000636311289547997 0.000174305402990656)
(9.8758731533634e-06 0.000670774029203877 0.000195494284531815)
(4.83361366705358e-06 0.000702274248323966 0.000214607292969458)
(1.37500026128506e-06 0.00073449465185836 0.000232764937347249)
(0.000145274689820209 -4.05155409986604e-05 4.33142062946446e-05)
(9.97586408818784e-05 0.000272025317057389 6.81692539935928e-05)
(6.94857032312143e-05 0.000430623959561759 9.68799039768399e-05)
(4.90997387368877e-05 0.000510516776822436 0.000126493834786717)
(3.43433991346092e-05 0.000566357603807137 0.000153684858910469)
(2.33452546332989e-05 0.000611528532618166 0.000178029862548553)
(1.51275364880776e-05 0.000650287014402158 0.000199709738207793)
(9.06331865587648e-06 0.000684721071830125 0.000218912759559217)
(4.66971197396976e-06 0.00071671131946629 0.000236050396579279)
(1.40927298258544e-06 0.00074928999895331 0.000252188865443868)
(0.000153076664925761 -0.000117035401441452 4.15210143609071e-05)
(0.000105147043775434 0.000218867575954713 6.71806811994588e-05)
(7.50107481076177e-05 0.000385888215251557 9.79169614284785e-05)
(5.50121448997603e-05 0.000471433875731433 0.000128361844405045)
(4.03689650869637e-05 0.000532898504494668 0.000156235911315741)
(2.92770199564457e-05 0.000583317324483087 0.000181247033145031)
(2.07274606917144e-05 0.000626977051550533 0.000203537564437966)
(1.4081757241754e-05 0.000665872719702956 0.000223238995586173)
(8.89856508915468e-06 0.000701082836324662 0.000240480483586767)
(4.8556517856855e-06 0.000733954762985227 0.000255646959935222)
(1.54722116902395e-06 0.000767196538502687 0.000269789326021246)
(0.000156219938434925 -0.00020412049704694 3.70624917185535e-05)
(0.000108652538030399 0.000158349445716488 6.38936091546619e-05)
(7.87803775983668e-05 0.000335973572164946 9.6798040847468e-05)
(5.92206216299621e-05 0.000428962822487283 0.000129014643343248)
(4.52054717699893e-05 0.000495797802896861 0.000158051364608133)
(3.45904924076857e-05 0.000551487527783109 0.000183789481834322)
(2.62631932986091e-05 0.000600538982606124 0.00020678023374738)
(1.95737693096844e-05 0.000644492316616462 0.000227106297263348)
(1.40477604257631e-05 0.000684343842418806 0.000244855827202749)
(9.38492312215181e-06 0.000720694354081774 0.000260148317014435)
(5.39525572286518e-06 0.000754628657908801 0.000273347500379792)
(1.79659737175305e-06 0.000788700836324161 0.000285509813500202)
(3.89226739663718e-05 0.000516367918323378 0.000185659927333686)
(3.13209423408364e-05 0.000570876270258615 0.000209283725748009)
(2.5147315075068e-05 0.000620199677315645 0.000230257524706013)
(1.98453252430905e-05 0.000665285031491878 0.00024865423433339)
(1.50350280639094e-05 0.000706486726687929 0.000264487356941071)
(1.05382862371608e-05 0.000744162334935267 0.000277854516032946)
(6.29739479308006e-06 0.0007792505550682 0.000289096653697019)
(2.15891494672529e-06 0.000814225885926386 0.000299276094639602)
(7.72612087753065e-06 0.000477506213012523 2.71348566981545e-05)
(2.3709512028718e-05 0.000330167249328206 2.76799573050418e-05)
(5.0675851454665e-06 0.00063242324232482 5.20440441975756e-05)
(3.92923451085331e-05 0.000288444326171073 2.88523494619726e-05)
(1.63847696091803e-05 0.000549814588262489 5.21302874045263e-05)
(3.68923913748345e-06 0.000683564312732036 7.99129543964268e-05)
(5.57687575020491e-05 0.000263067510619735 3.04899112488704e-05)
(2.86110422153997e-05 0.000514651964222397 5.32970159581215e-05)
(1.20041209782453e-05 0.000639338204617704 8.0540009495993e-05)
(2.83977998012104e-06 0.000701438960932826 0.00010821338922027)