/*--------------------------------*- C++ -*----------------------------------*\
  =========                 |
  \\      /  F ield         | OpenFOAM: The Open Source CFD Toolbox
   \\    /   O peration     | Website:  https://openfoam.org
    \\  /    A nd           | Version:  12
     \\/     M anipulation  |
\*---------------------------------------------------------------------------*/
/*   Windows 32 and 64 bit porting by blueCAPE: http://www.bluecape.com.pt   *\
|  Based on Windows porting (2.0.x v4) by Symscape: http://www.symscape.com   |
\*---------------------------------------------------------------------------*/
FoamFile
{
    format      ascii;
    class       volScalarField;
    location    "500";
    object      k;
}
// * * * * * * * * * * * * * * * * * * * * * * * * * * * * * * * * * * * * * //

dimensions      [0 2 -2 0 0 0 0];

internalField   nonuniform List<scalar> 
10142
(
1.77436239561869e-05
1.71630781001394e-05
9.94420542726426e-05
1.83344797418302e-05
1.66224646874518e-05
9.65923637009712e-05
1.77551209137163e-05
0.00016110134261077
9.97769083893682e-05
1.90263174478157e-05
1.59331769490253e-05
9.3539497025649e-05
1.72226773017902e-05
0.000156616535383205
9.69289712611435e-05
1.84444202105393e-05
0.000207687910302254
0.00016101264921569
0.000100067349950584
1.92589354806381e-05
1.50948961864914e-05
9.01626982335583e-05
1.65301209417611e-05
0.000151819142071606
9.387274003267e-05
1.78863149841647e-05
0.000201954500782286
0.000156533473710202
9.72202502284833e-05
1.86627077509761e-05
0.000246494979973025
0.00020738554974931
0.00016029322706
9.94562399799961e-05
1.87644116205456e-05
1.41040239214191e-05
8.64322545383834e-05
1.5671695236129e-05
0.000146661971715171
9.04923412423752e-05
1.71463200347101e-05
0.000195855307251518
0.000151739067580799
9.41565615918408e-05
1.80879708515428e-05
0.000239716784955844
0.000201662029235684
0.00015583323154802
9.66235177730895e-05
1.81780942301261e-05
0.000280494078394905
0.000245985408415687
0.00020602275110778
0.000158455577995514
9.74235570084321e-05
1.77266392454073e-05
1.2927514110537e-05
8.23092801699447e-05
1.46541701785697e-05
0.000141114367545639
8.67550700354652e-05
1.62353844083092e-05
0.000189372615751116
0.000146584093429003
9.0766435655293e-05
1.73219975709152e-05
0.000232536362045729
0.000195569131654987
0.000151056781124416
9.35721848445688e-05
1.76106130154329e-05
0.000272792063480887
0.000239222252964406
0.000200330912015357
0.000154037089278677
9.46353254968951e-05
1.71720816379731e-05
0.000311076456405509
0.000279757269738599
0.000244114698119688
0.000203249124189676
0.000155145219517251
9.40932470187831e-05
1.64428020586405e-05
1.15127175935019e-05
7.77214657043184e-05
1.34579756076028e-05
0.000135143320608367
8.26222388622168e-05
1.51625259298302e-05
0.000182491105554887
0.000141038196708624
8.70189030574129e-05
1.63818156882841e-05
0.000224952823933393
0.000189091772492357
0.000145920261948206
9.01952670246534e-05
1.68477275748097e-05
0.000264657484966402
0.000232052462491593
0.000194269080588491
0.000149303561223688
9.16299122693769e-05
1.66269068908507e-05
0.000302530471087792
0.000272076357976297
0.000237393678512148
0.000197617297942262
0.000150799380248116
9.13794652565212e-05
1.59259526522814e-05
0.000339015401233838
0.000310149573569049
0.000277422846567865
0.00024057433815284
0.000198865848415386
0.000150400805247302
8.98503390009657e-05
1.50562043323317e-05
9.90893061240764e-06
7.25375573239921e-05
1.20441592626757e-05
0.000128699779213616
7.80221959170171e-05
1.39012119314026e-05
0.000175196929078636
0.000135069167808807
8.28752710443555e-05
1.52789607362303e-05
0.000216966738945354
0.000182215375301024
0.000140394096714827
8.64638979998476e-05
1.59055305003496e-05
0.000256101318534896
0.000224478191375284
0.000187823212363861
0.00014421280861241
8.83037833797783e-05
1.58937205903239e-05
0.000293521017652113
0.000263957686551655
0.000230265137391098
0.000191617762365871
0.000146142474888305
8.84523309435113e-05
1.54137238864842e-05
0.000329686597850011
0.000301629981160271
0.00026979430643952
0.000233928493911634
0.000193327675245147
0.000146159039181142
8.72325131014003e-05
1.45815940411137e-05
0.000364794608931439
0.00033796091829792
0.000307427420441945
0.000273219785631286
0.000235265992749719
0.000192941421023147
0.000144459614496427
8.49493148382811e-05
1.35843889410086e-05
8.34275943640422e-06
6.64862660877032e-05
1.03936147421179e-05
0.000121706895753844
7.28345088063005e-05
1.24192309247682e-05
0.000167471650537248
0.000128628144341755
7.8265866403591e-05
1.39856005840119e-05
0.00020858334527898
0.000174926733654678
0.000134447614203412
8.23422863935614e-05
1.48139203727078e-05
0.000247138323507094
0.000216500761237926
0.000180979337177282
0.000138736616254895
8.46305998313404e-05
1.4990861628387e-05
0.000284070358478735
0.000255415682806681
0.000222732005602372
0.000185236643355353
0.000141134053541449
8.52136196669883e-05
1.47190337946799e-05
0.000319850563336001
0.000292641035061773
0.000261726717614927
0.000226877367227286
0.000187426318457275
0.000141612702103855
8.44077110592635e-05
1.4107904453826e-05
0.000354752643705166
0.000328662289060308
0.000298969161349601
0.000265680138463831
0.000228731903777659
0.00018753048032616
0.000140349039889616
8.24445482709624e-05
1.31566454677747e-05
0.000363660735699743
0.000334946865179487
0.000302676163443687
0.000267114399744707
0.000228311280493609
0.000185658466164147
0.000137506926322591
7.94640199980215e-05
1.20251349909572e-05
6.78517051185709e-06
5.93725840819888e-05
8.77305469615924e-06
0.000114032589971998
6.6911097644814e-05
1.06960842771061e-05
0.000159288929853678
0.000121642312463744
7.30760352059135e-05
1.24790992064988e-05
0.000199810368627299
0.000167207273323232
0.000128033956677698
7.77667167200402e-05
1.35476735000255e-05
0.000237790848270341
0.000208125585283818
0.000173724884658096
0.000132847053183683
8.05817573371781e-05
1.39374183785304e-05
0.000274206857599115
0.000246465761685631
0.000214795838489394
0.000178460440929922
0.000135747936335087
8.16409620602766e-05
1.38667958385161e-05
0.000309551344450822
0.000283208848713871
0.000253235131486352
0.000219423244520639
0.000181148032698061
0.000136723208456364
8.12827518316834e-05
1.34600782189948e-05
0.000344104253716571
0.000318849987036269
0.000290039907283762
0.000257703418355503
0.000221796792046156
0.000181762797319923
0.000135942655927194
7.9740293489293e-05
1.2727470769981e-05
0.00037806806921356
0.000353649953648407
0.000325716740121491
0.000294318632830637
0.000259702696023851
0.000221924751101968
0.000180405775795199
0.000133552003871872
7.70887319946969e-05
1.16491532207725e-05
0.00036043126722949
0.000329761292845638
0.000295902285749073
0.000259267435036861
0.000219884247311638
0.000177155353522541
0.000129627085302686
7.3395254672248e-05
1.03914297512302e-05
5.28018226482945e-06
5.13110588529377e-05
7.1470888726504e-06
0.00010555669948512
5.98934187806342e-05
9.02262535505645e-06
0.000150598716524606
0.000113992925148963
6.71480677879079e-05
1.07354924468953e-05
0.000190656507256442
0.000159031917218974
0.000121085753488267
7.2634064096531e-05
1.2088378756448e-05
0.00022808789499419
0.000199360139171837
0.000166042822533188
0.000126501426226096
7.61060644707696e-05
1.27389992792927e-05
0.000263968230212388
0.000237130070974312
0.00020646195268034
0.000171277438131188
0.000129959504302666
7.77101453156884e-05
1.28829902846273e-05
0.000298832020734205
0.000273362346043404
0.000244334787224673
0.000211567235671316
0.000174479894240451
0.000131467224345967
7.78407408694788e-05
1.26689922533935e-05
0.000332975602661101
0.000308572250521705
0.000280666296638421
0.000249303442561877
0.000214461969085994
0.000175624897945871
0.000131203687157716
7.67493904649059e-05
1.21345098118808e-05
0.000366561384831034
0.000343028102699033
0.000315970799740982
0.000285491859924891
0.00025185775915504
0.000215143037248331
0.000174804516327949
0.000129311055532897
7.4522634139542e-05
1.12711952342177e-05
0.000399583241055283
0.00037690367206539
0.000350493090499092
0.0003206418100618
0.00028768685649314
0.00025202150228056
0.000213679062393232
0.000172090242873549
0.000125851293039271
7.116564556528e-05
1.00715382835106e-05
0.000354899207272117
0.00032243399019532
0.000287291581747729
0.000249855941710147
0.000210102660922878
0.000167507332758945
0.000120851143235951
6.67369942380857e-05
8.7093613909076e-06
3.90373890817534e-06
4.2521746599093e-05
5.55058980492885e-06
9.62205393557296e-05
5.17744837491318e-05
7.33173686788391e-06
0.000141364698430151
0.000105551929964807
6.01425640891398e-05
9.05311746493354e-06
0.000181125650544319
0.000150349720841626
0.000113488530472
6.67718498798842e-05
1.04058847146897e-05
0.000218064882230987
0.000190212824513436
0.000157909955744648
0.000119640883212193
7.11174132731716e-05
1.13773748008277e-05
0.000253402050207771
0.000227436956123075
0.00019773761006018
0.000163672863560758
0.000123735176868214
7.33935307554591e-05
1.17737257640713e-05
0.00028774360521364
0.000263138739119863
0.000235046966626571
0.000203314139429322
0.000167411407302533
0.000125824562795714
7.40682416257773e-05
1.176302189806e-05
0.000321421943089624
0.000297872639051623
0.000270876704079832
0.000240494199617478
0.000206727747403861
0.000169104687876325
0.000126112023756235
7.34603461986863e-05
1.14129884226151e-05
0.000354604777151339
0.000331923293567474
0.000305758059575585
0.000276220781868184
0.000243591607076879
0.000207966516885183
0.000168841648878033
0.000124750585186168
7.16842002871105e-05
1.07416517200159e-05
0.000387326385882675
0.000365432458990985
0.000339943192015135
0.000311007972297009
0.000279005719022267
0.000244347564471352
0.00020708610539061
0.000166686323251298
0.000121800819959237
6.87563605927624e-05
9.75189139366806e-06
0.000419510436203571
0.00039837608588372
0.000373575137183332
0.000345078896978154
0.000313468919776979
0.000279258201713397
0.000242811856391229
0.000204111574342726
0.000162658554083896
0.000117277707893945
6.46697665541385e-05
8.44892681184997e-06
0.000347107241004291
0.000313169655263739
0.000277029398196277
0.000238990206539323
0.000199033756582565
0.000156757904944453
0.000111191996806134
5.9488819807204e-05
7.01542341293429e-06
2.76949653086541e-06
3.34580325552027e-05
4.09082102327002e-06
8.59474921359217e-05
4.27843226478867e-05
5.67833247495448e-06
0.000131559782805545
9.62476743007962e-05
5.2158258820924e-05
7.36550066135669e-06
0.00017119915231611
0.000141132086067441
0.000105119929795066
5.98911071315546e-05
8.7696772192831e-06
0.000207759977915571
0.00018068675257457
0.000149282033487229
0.000112162874461918
6.5464484342527e-05
9.82830842281664e-06
0.000242567310814611
0.000217420658333622
0.000188630587896748
0.000155626401936446
0.000117024255258553
6.86182073380104e-05
1.05310554332936e-05
0.000276349453628386
0.000252584481768417
0.000225398555247291
0.000194670720668044
0.000159930394217259
0.000119770056074746
6.99433533739333e-05
1.07552585843743e-05
0.000309501969156251
0.000286801423895027
0.000260706801373372
0.000231295217829829
0.00019859812169593
0.000162193164181848
0.00012065252341449
6.98669701365977e-05
1.05934277844605e-05
0.000342223612927799
0.000320391261090697
0.000295121165650237
0.000266531825462785
0.000234916306892737
0.000200394675454136
0.000162506082179325
0.000119852767287526
6.85675179944197e-05
1.00984678641928e-05
0.000374571140845928
0.000353502816602898
0.000328908782468549
0.000300906950116666
0.000269881338295853
0.000236255772589864
0.00020010493749129
0.000160931238750502
0.000117444465948276
6.60892163008257e-05
9.29254191317843e-06
0.000406497309721657
0.000386156707338602
0.000362184778623981
0.000334649595905322
0.000303992941237469
0.000270763942932868
0.000235346506819022
0.000197741856948464
0.000157482422550172
0.000113442605551347
6.24369700783769e-05
8.1928858543003e-06
0.000437888437828245
0.000418265433165823
0.000394905715560994
0.000367875138851182
0.000337451454605253
0.000304401220329579
0.000269216365343331
0.00023218342665989
0.00019328934073922
0.000152154006244596
0.00010784406069667
5.76015676775558e-05
6.81686261037575e-06
0.000337276869695985
0.000302166285745058
0.000265226840636654
0.000226733241779004
0.000186724480043353
0.000144936308636441
0.000100653847124864
5.16443425915445e-05
5.35102307076946e-06
1.90022579723433e-06
2.50243654390711e-05
2.91233875572705e-06
7.46609680408032e-05
3.36261923669224e-05
4.18123039612893e-06
0.000121097231465095
8.59994318969805e-05
4.35102397881343e-05
5.72836214860151e-06
0.00016092479172786
0.000131348464669215
9.59325887537838e-05
5.21346419391568e-05
7.15559877890317e-06
0.000197196894253173
0.000170762198456551
0.00014010953619224
0.000103932541733484
5.88670563254976e-05
8.27002321002403e-06
0.000231534495673227
0.000207117733314165
0.000179142638290326
0.000147102429928543
0.000109746386708544
6.32664143450759e-05
9.13867287102572e-06
0.000264729285949003
0.00024175680178947
0.00021542149878912
0.000185643761886861
0.000152019238593581
0.00011326278115937
6.54203952376408e-05
9.63549271469649e-06
0.000297290628394637
0.000275420493385699
0.000250200539907683
0.000221730932240167
0.000190079015461012
0.000154880643917647
0.00011480663294308
6.59579048840398e-05
9.6871102958776e-06
0.000329473527895433
0.000308489967898091
0.000284108267298729
0.000256457859957491
0.000225848958057705
0.000192430624547166
0.000155790444340482
0.00011460698468687
6.51717149345468e-05
9.37213546719495e-06
0.000361366719866403
0.000341145114855046
0.000317444314809237
0.00029037883496733
0.000260337276930395
0.0002277560588984
0.000192734320845503
0.000154814883076373
0.000112767875458442
6.31631725738698e-05
8.73275662665039e-06
0.000392943148123289
0.000373430373645491
0.00035033156175771
0.000323735211439058
0.000294050175524137
0.000261828613001916
0.000227468240541152
0.000190992366727701
0.000151967123105196
0.000109315900646312
5.99605264449048e-05
7.80835205101049e-06
0.000424104527367153
0.000405291782730103
0.000382772065131038
0.000356615330277888
0.000327191518423585
0.000295126782937659
0.000260948790308973
0.000224963937594489
0.000187177360025112
0.000147236023135782
0.00010424942609106
5.55659128037731e-05
6.62664802810806e-06
0.0004547101316734
0.000436608171068648
0.00041466800694978
0.000388959080066473
0.000359853606457072
0.000327830399109688
0.000293635044814872
0.000257672040470296
0.000220199361596309
0.000181259312030023
0.000140605685558261
9.75545637749119e-05
4.99571058355732e-05
5.21568702587352e-06
0.000325620620512281
0.000289541137660822
0.0002519462920765
0.000213132656838306
0.000173212863798798
0.000132060148115513
8.92279635552622e-05
4.31641728476532e-05
3.77608763971984e-06
1.28982011473244e-06
1.80002043479459e-05
2.0196512579923e-06
6.2465177796008e-05
2.54695824641698e-05
2.98319130594693e-06
0.000109824295900844
7.47849894529066e-05
3.48867548542012e-05
4.26141080570871e-06
0.000150250668646947
0.000120917455117101
8.58850523769595e-05
4.38425559005008e-05
5.60432820310129e-06
0.000186449795255266
0.000160489471843193
0.000130390499905827
9.4952074732003e-05
5.15033000743794e-05
6.77195287615829e-06
0.000220379320314879
0.000196548518463751
0.000169249997117698
0.000138028729225723
0.000101744907785975
5.70712113027104e-05
7.67998975233164e-06
0.000252981997059452
0.000230723617207069
0.000205149131483612
0.00017623383080386
0.00014364767435326
0.00010623838115554
6.04160172770431e-05
8.40500145210552e-06
0.000284884511122732
0.000263807281282507
0.000239411352826157
0.00021182978287992
0.000181176022338368
0.000147152770080767
0.000108544895648952
6.17054119664832e-05
8.70131861472965e-06
0.000316436167235698
0.000296292688824667
0.000272777907932411
0.000246038809704489
0.000216410791606628
0.000184079307702697
0.000148687405178009
0.000109001171714422
6.14932630541973e-05
8.57588089908763e-06
0.000347776833968505
0.000328415092131142
0.000305605283091565
0.000279468078754388
0.000250402647356195
0.000218862842823654
0.000184976579677181
0.000148331475517774
0.000107763398377218
5.998165172497e-05
8.1036664795709e-06
0.000378906434701949
0.000360251139244649
0.000338046268803285
0.000312387045160792
0.000283677044554334
0.000252472565502117
0.000219184921111861
0.000183861284471623
0.000146103684616702
0.000104886408888076
5.72416409566756e-05
7.33474530234408e-06
0.000409738652734971
0.000391768451394007
0.000370127249278201
0.000344890909570994
0.00031644649505786
0.000285386913849714
0.000252243829608981
0.000217338391885113
0.000180696016925312
0.000141992404559143
0.000100378225398457
5.32994950220943e-05
6.31789210642128e-06
0.000440141250950216
0.000422866046157482
0.000401785004349125
0.00037696384245666
0.000348775792087095
0.000317786391552544
0.000284604362425645
0.000249670936105124
0.000213263437710803
0.000175439746394258
0.000135976244095474
9.4225864417728e-05
4.8142946613434e-05
5.09051486686481e-06
0.000469953195090579
0.000453397176465787
0.000432893937857035
0.000408499950395348
0.000380591509756837
0.000349744184927432
0.000316426344988001
0.00028128729729681
0.000244687942669939
0.000206907485490092
0.000168059453504509
0.000128031296635234
8.64005783086544e-05
4.17116082275105e-05
3.69330534818488e-06
0.000312263838449816
0.000275358432829471
0.000237235475786345
0.000198230008084781
0.000158526365375628
0.000118131216514717
7.6880968564868e-05
3.40122526960281e-05
2.36354694962679e-06
8.51170190947974e-07
1.24529549820676e-05
1.40023382119661e-06
4.97924240623409e-05
1.9036210896241e-05
2.11726015726695e-06
9.75182491303784e-05
6.28211133002869e-05
2.71842050553128e-05
3.08881950685531e-06
0.000139047852193097
0.000109701333664762
7.50221087129631e-05
3.56623824322777e-05
4.21701661375099e-06
0.000175518854157614
0.000149818865484223
0.000120051518751908
8.52115896314468e-05
4.37030117729597e-05
5.34483341301003e-06
0.000209162922019159
0.000185788126037368
0.00015900288582611
0.000128434600208799
9.30709582181484e-05
5.02075221774139e-05
6.31720805135579e-06
0.000241223367670791
0.000219556810499412
0.000194599774585667
0.000166414143776064
0.000134746609986673
9.85608406361215e-05
5.47085420304612e-05
7.0624614681693e-06
0.000272406733682375
0.000252057353147529
0.000228401624101462
0.000201620873412868
0.00017188957595155
0.000138985751032327
0.000101820990068966
5.70618459053096e-05
7.63002552116909e-06
0.000303220260758228
0.000283893339532
0.000261202434684444
0.000235322277704232
0.000206625978971069
0.000175345351228309
0.000141186345992062
0.000103016066251652
5.75193110279176e-05
7.71686509161062e-06
0.000333889684072619
0.000315392773387661
0.000293461030134103
0.000268227900583948
0.000240112260060121
0.000209593912581716
0.000176835790435178
0.000141476026294254
0.000102424460315845
5.6546638851995e-05
7.41939613733365e-06
0.000364456229419594
0.000346682947110265
0.000325382650120858
0.000300656252076944
0.000272913139621216
0.000242720779256883
0.000210508379764054
0.000176350324988257
0.000139887722071571
0.000100149360595891
5.4288913665743e-05
6.80265979874107e-06
0.000394851093457557
0.000377758898136099
0.000357025397143407
0.000332729781807918
0.000305263327759981
0.000275213888854266
0.000243118647163319
0.000209312774027451
0.000173843070402237
0.00013641517997921
9.62204883424035e-05
5.08045281609389e-05
5.92889319775527e-06
0.00042494610450701
0.000408533191053832
0.000388348456601057
0.000364456254548417
0.000337232370281865
0.000307258059640519
0.000275111077238554
0.000241238125832136
0.000205930548122101
0.00016926332893631
0.000131036255711682
9.0636038547303e-05
4.61077349720223e-05
4.85427478469646e-06
0.000454585057984428
0.000438872647570169
0.00041924789035772
0.000395763612442455
0.000368789197903957
0.000338898074091186
0.000306643169858742
0.000272542642781689
0.000236993798980222
0.000200293283544591
0.000162567082425693
0.00012372095197958
8.33643535358843e-05
4.01547800159412e-05
3.62172627884234e-06
0.00048359154294663
0.000468610558772922
0.000449575594985986
0.000426524145716626
0.000399821472534246
0.000370049616070604
0.000337770745193908
0.000303364189039112
0.000267422630115637
0.000230312155641807
0.000192349400787376
0.000153717088245551
0.00011443175444614
7.4350748586143e-05
3.28153239246638e-05
2.31890085483258e-06
0.000297273333377987
0.000259665740323462
0.000221136107573302
0.000182055896974355
0.000142672412672139
0.000103120384436077
6.35431738892401e-05
2.44302800751974e-05
1.22041061057757e-06
5.8979774256124e-07
8.39473672598401e-06
1.00229571409354e-06
3.74089583244037e-05
1.41623145607138e-05
1.53512233917465e-06
8.39562672294595e-05
5.05886513305916e-05
2.0880212657122e-05
2.22998863540286e-06
0.000127036689763731
9.75080201816434e-05
6.35948976086877e-05
2.83112730308355e-05
3.09456876946138e-06
0.000164306761239914
0.000138626114734354
0.000108983459809201
7.47952038011699e-05
3.60183738960526e-05
4.06511397234441e-06
0.000197974646231908
0.000174838204438705
0.000148356481214339
0.00011826046891295
8.37368618616872e-05
4.29735744876842e-05
5.02798823444629e-06
0.00022956794962869
0.000208314969306463
0.00018382975472929
0.000156227248578113
0.000125345039299909
9.02694121925686e-05
4.83954459002208e-05
5.83328199196662e-06
0.000260009353431726
0.000240282075358957
0.000217236034120615
0.000191122100232335
0.000162198552568753
0.000130327102485923
9.45458111588034e-05
5.19371396439803e-05
6.48370163771035e-06
0.000289967060886018
0.000271411051208112
0.000249469867634368
0.000224362440734634
0.000196518795742025
0.000166229898752768
0.000133270656243878
9.66223791495293e-05
5.3225855315621e-05
6.80225302743951e-06
0.000319821688867856
0.000302183997595282
0.000281099396111193
0.000256722833796899
0.000229506653076531
0.00019996909213284
0.00016831582419942
0.00013424144984077
9.67402733495119e-05
5.28552393522769e-05
6.68873701775899e-06
0.000349684277453661
0.000332812396657335
0.000312416622308573
0.00028860589540006
0.000261804983242093
0.000232602629040601
0.000201453178297773
0.000168462966167776
0.000133316440810624
9.5101983947373e-05
5.1108627606474e-05
6.2271344679433e-06
0.000379512155726168
0.000363332515981942
0.00034352850618949
0.000320181338303916
0.000293687505508101
0.0002646419758792
0.000233594186006525
0.000200896621087778
0.000166619824136985
0.000130501308568465
9.17753109366333e-05
4.80921923144215e-05
5.48945222519195e-06
0.000409183807748802
0.000393675164992602
0.000374421886446708
0.000351487051652038
0.000325247009414376
0.000296287456975296
0.000265183276455922
0.000232387791278691
0.000198205043686925
0.000162727488488135
0.000125778282903755
8.67751749428122e-05
4.38513972505605e-05
4.54471868021778e-06
0.000438540851102865
0.000423713030070743
0.000405007669480328
0.000382473281983707
0.000356474328798349
0.000327585835365643
0.000296377818770733
0.000263340268736639
0.000228876042982249
0.000193293677123572
0.000156732571054239
0.000119116627552166
8.00821701894573e-05
3.83766684993686e-05
3.4514050135106e-06
0.000467409410699057
0.00045328956399913
0.000435153109615943
0.000413033808253462
0.000387289742066963
0.000358492839644034
0.000327204288099244
0.000293886730937229
0.000259007111448447
0.000222966107785311
0.000186095304313261
0.000148586721780921
0.000110471424041437
7.16366196750307e-05
3.158172726542e-05
2.28874747054978e-06
0.000495601126290928
0.000482222634413947
0.000464691470011304
0.000443022076221154
0.000417564088035476
0.000388890481499911
0.000357568753033972
0.000324065477465985
0.000288711188637895
0.000252089063370483
0.000214586523906291
0.00017655557182433
0.000138239377331079
9.97783420617194e-05
6.13471135219261e-05
2.35026118155388e-05
1.20187905184746e-06
0.000280695879578146
0.000242502470762844
0.000203676249537814
0.000164615627406613
0.000125617663515978
8.69572932083069e-05
4.92138598065176e-05
1.49889599515894e-05
4.7204912234913e-07
4.19247115274855e-07
5.59889903375121e-06
7.49786132237581e-07
2.66368164841077e-05
1.0416716803336e-05
1.15288815876637e-06
6.90911184821632e-05
3.8794691370434e-05
1.58991544961542e-05
1.63804005383703e-06
0.000113756699091936
8.41469966904331e-05
5.20486365456302e-05
2.21350608244067e-05
2.25619351385285e-06
0.000152516667233847
0.000126649512167004
9.70447992080358e-05
6.39401640525071e-05
2.90202334865148e-05
3.0140324434694e-06
0.0001867423459394
0.000163602677596243
0.000137197596103821
0.000107428528978197
7.38371266045651e-05
3.58169541042861e-05
3.86619135248227e-06
0.000218115392030027
0.000197087448920778
0.000172851424392183
0.000145638742208431
0.000115407515533852
8.14032825013512e-05
4.17531584865908e-05
4.67999729390771e-06
0.000247866397619262
0.000228590168434548
0.000205960350477086
0.000180355422448445
0.000152113895733142
0.000121173195898049
8.66725969212702e-05
4.61588858976097e-05
5.33290057529106e-06
0.000276856900402374
0.000258992306252409
0.00023768114132451
0.000213213472471954
0.000186105719317159
0.0001567228147188
0.000124910952760026
8.97735041633817e-05
4.85758907369402e-05
5.83860442169386e-06
0.000305724244864488
0.000288925550855436
0.000268630292092049
0.000245029571117634
0.000218630597079151
0.000190007736273602
0.000159417996317574
0.00012661679677623
9.06942228855322e-05
4.89003708071146e-05
5.91886193352816e-06
0.000334709321123576
0.000318752949497313
0.000299247376394758
0.000276314458391761
0.000250407652234334
0.000222151454247531
0.000192035226866425
0.000160202641664127
0.000126385987488715
8.97400270517744e-05
4.77041639358886e-05
5.61737000753159e-06
0.000363813383493736
0.000348579538768843
0.000329719026300519
0.000307314743734202
0.000281774194529306
0.000253710594641398
0.000223694678186568
0.000192101741860946
0.000159029473608638
0.000124249937491995
8.704283469899e-05
4.51737074796733e-05
5.01532555673594e-06
0.000392923015817994
0.000378362774074897
0.000360072861514917
0.000338113748440562
0.000312863146989574
0.00028491389093022
0.000254850002105112
0.000223137205545646
0.000190094547067756
0.000155833319001028
0.000120200596618114
8.26438110965131e-05
4.13882308318195e-05
4.19133615530948e-06
0.000421876987196375
0.00040798307382082
0.000390239108816178
0.000368688986094554
0.000343692765663413
0.000315826549935316
0.000285667374878036
0.000253704263530807
0.000220346172162907
0.000185911627217389
0.000150553003875156
0.000114210886638812
7.65424292328029e-05
3.63735456707166e-05
3.21574080120064e-06
0.000450494994447743
0.000437283715342816
0.000420092670338659
0.00039894977801198
0.000374204798875038
0.000346423905387599
0.000316172264476116
0.0002839312995075
0.000250141307177191
0.000215207274254727
0.000179469996499502
0.000143131164642669
0.000106235013453208
6.86899101323796e-05
3.01035019179444e-05
2.17875598732399e-06
0.000478589841609021
0.000466090646608575
0.000449479009892854
0.00042876521558326
0.000404291147806491
0.000376619128537262
0.00034630812502277
0.000313826478883495
0.000279585199711034
0.000244046558461065
0.000207630045612556
0.000170699988959104
0.00013350588460086
9.62000265698175e-05
5.89954670923253e-05
2.25833076721501e-05
1.19562572769391e-06
0.000505963306015854
0.000494209610057051
0.000478216474089405
0.000457972165320197
0.000433807373003465
0.000406281507785292
0.000375951681230412
0.000343286753032933
0.000308697598095603
0.000272514637242632
0.000235326218634355
0.000197539023171145
0.000159531073605719
0.000121593287866359
8.40049235539033e-05
4.73787662098047e-05
1.43719101630052e-05
4.65969139816026e-07
0.000262566701971535
0.000223889916459658
0.000184851447818685
0.000145860617000717
0.000107262048746487
6.95468635369978e-05
3.40732017810667e-05
6.83833235157864e-06
1.11515218409722e-07
1.83651739275276e-07
3.45963892940932e-06
5.30934657160012e-07
1.78403398832602e-05
7.3791330561078e-06
8.7666847115127e-07
5.34931099848037e-05
2.84028160058063e-05
1.1926892447626e-05
1.23447123123112e-06
9.86606743256146e-05
6.96153152065051e-05
4.09328226963478e-05
1.70803890595437e-05
1.66137076241844e-06
0.000139568293723284
0.000113448271740692
8.40984259313902e-05
5.29886819925873e-05
2.29796875987716e-05
2.21048287827824e-06
0.000175165079855965
0.000151796141982618
0.000125292114841636
9.58392985317025e-05
6.35690252121024e-05
2.91928587505668e-05
2.89388044583544e-06
0.000206886939276983
0.000185805447595506
0.000161568289315135
0.000134551773926659
0.000104882526896481
7.20525945702418e-05
3.51357624967959e-05
3.63827985890959e-06
0.000236139465467676
0.00021707868655088
0.000194656378801768
0.000169350168061098
0.000141630373593967
0.000111529143584675
7.83063860887223e-05
4.01070571610798e-05
4.29789595981799e-06
0.00026411242025516
0.000246804029007126
0.000225933565765008
0.000201906970118461
0.000175380043740531
0.000146793745837409
0.000116056334710512
8.23728497568742e-05
4.34411225081041e-05
4.83687822566066e-06
0.000291792939855642
0.000275791170682423
0.000256186666651284
0.000233233509762423
0.000207527242483462
0.00017972248081361
0.000150135767288153
0.000118584064632956
8.42628312459317e-05
4.46716667185121e-05
5.11762783763481e-06
0.000319683640249184
0.000304651339486006
0.000286001366872318
0.000263877918241035
0.000238784605927384
0.000211402876313762
0.000182269693221203
0.000151571022099955
0.000119090191433178
8.40562074813277e-05
4.40768205312245e-05
4.98094772081725e-06
0.000347870766097831
0.00033361587054224
0.000315703625106528
0.000294218885305841
0.000269590525619276
0.000242465177231739
0.000213446935972623
0.000182940855962978
0.000151075417838619
0.000117660146112682
8.20231106062346e-05
4.20574555775233e-05
4.51651353430783e-06
0.000376252100251326
0.000362686234082681
0.000345387653194552
0.000324411887943819
0.000300141347892918
0.000273184144251716
0.000244143928756647
0.000213506094047071
0.00018160869607513
0.000148584036700026
0.000114304155074064
7.82467973203674e-05
3.87343333951857e-05
3.81043690572109e-06
0.000404658638357074
0.000391752154602901
0.000375011466660098
0.00035447390803933
0.000330495799913477
0.00030365711272379
0.000274545078750213
0.000243658861908125
0.000211418276679071
0.000178153230529043
0.000144029399851706
0.000109002794922246
7.2746718996043e-05