/*--------------------------------*- C++ -*----------------------------------*\
  =========                 |
  \\      /  F ield         | OpenFOAM: The Open Source CFD Toolbox
   \\    /   O peration     | Website:  https://openfoam.org
    \\  /    A nd           | Version:  12
     \\/     M anipulation  |
\*---------------------------------------------------------------------------*/
/*   Windows 32 and 64 bit porting by blueCAPE: http://www.bluecape.com.pt   *\
|  Based on Windows porting (2.0.x v4) by Symscape: http://www.symscape.com   |
\*---------------------------------------------------------------------------*/
FoamFile
{
    format      ascii;
    class       volScalarField;
    location    "500";
    object      nut;
}
// * * * * * * * * * * * * * * * * * * * * * * * * * * * * * * * * * * * * * //

dimensions      [0 2 -1 0 0 0 0];

internalField   nonuniform List<scalar> 
10142
(
7.19285598005235e-06
6.95750377084586e-06
0.000166408105205171
7.69813649063102e-06
6.73836030460845e-06
0.000162725479435975
7.45487035516618e-06
0.000510847062616712
0.00017120026709958
8.31935913432319e-06
6.45894648685162e-06
0.000158701030151767
7.23131504899213e-06
0.000501331616442061
0.000167462943786442
8.06491211262246e-06
0.000923212684236037
0.000517339475227702
0.00017718516709946
8.69043583333458e-06
6.11913609053286e-06
0.00015409175917281
6.94054344342068e-06
0.000490799133705753
0.000163365883630574
7.82083646144818e-06
0.000906790528797049
0.000507764111961898
0.000173365374615628
8.42138479860139e-06
0.0013385650098725
0.000927933320142967
0.000525086061597487
0.000180779670587693
8.57912366993638e-06
5.71747398681605e-06
0.000148825968319566
6.58016113932887e-06
0.000478980318550709
0.000158671281605939
7.49736660341682e-06
0.000888616070638356
0.000497155707489425
0.000169159210157774
8.16198753962968e-06
0.00131477158696545
0.000911477032266707
0.000515441386250895
0.000176897613898911
8.311055047296e-06
0.00172837431949549
0.0013400635483603
0.000932220740956315
0.000529103888695994
0.000179912166546072
8.10845035855326e-06
5.24059001951534e-06
0.000142800859488401
6.15287866134567e-06
0.000465658227411219
0.000153302647272314
7.09905388479213e-06
0.000868385629635951
0.000485246918838977
0.000164333033650109
7.81646392283155e-06
0.00128848047863544
0.000893252850889398
0.00050474254288396
0.000172612775210165
8.05159486070149e-06
0.0016971388628456
0.00131628423475826
0.000915758053507007
0.000519432631202863
0.000176040096406195
7.85478789114475e-06
0.00208211140739853
0.00172653180123884
0.00133866271715165
0.000931823157742272
0.000526146178838537
0.000175330575900783
7.50151124473764e-06
4.66710111953894e-06
0.000135831149583978
5.65057165645509e-06
0.000450539643347716
0.000147153478978125
6.62985836248617e-06
0.000845753202636569
0.000471818886604658
0.000158813285831332
7.39215828035576e-06
0.00125935684033026
0.0008729633284218
0.000492728362200412
0.000167693883133787
7.70282565334877e-06
0.00166268626174209
0.00128999561961978
0.000897517510085468
0.000508696419128961
0.000171759986122062
7.60542005961119e-06
0.00204357495919127
0.0016953697482636
0.00131496610503917
0.000915425356184263
0.000516544087384064
0.000171536152903432
7.26572394572153e-06
0.00239792408076425
0.0020777760785687
0.00171922287446503
0.00133114210749052
0.000923653920555613
0.000516612648243291
0.000168782728857721
6.85976166164951e-06
4.01682569972918e-06
0.000127529042184934
5.05676312306459e-06
0.000433125449768092
0.00014002961362817
6.07820438168882e-06
0.000820250518049488
0.000456575134389431
0.000152490505889785
6.89444193270683e-06
0.00122697348504758
0.00085026339405622
0.00047918139374808
0.000162070221404144
7.27203628373734e-06
0.00162465509869349
0.00126087176176113
0.000877209580184469
0.000496641728792631
0.000166845968584983
7.27005577187303e-06
0.00200113231059521
0.00166098217194149
0.00128876332847486
0.000897256146843818
0.000505882907094383
0.000167337296915913
7.03204090802671e-06
0.00235232579725705
0.00203936470718858
0.00168824344607888
0.00130763287969985
0.000907432032116627
0.000507175470141278
0.000165101376995344
6.64353938044378e-06
0.00267775231024625
0.0023920752443707
0.0020656303338851
0.00170403249720488
0.00131517770345373
0.000907517197716399
0.000502549330956514
0.000161232462154854
6.18841493700992e-06
3.3815923035753e-06
0.000116263832685582
4.36325588461237e-06
0.000412477597938337
0.000131597689019546
5.42986435196793e-06
0.000791150248022196
0.000438999171696835
0.000145162377371007
6.31065377465927e-06
0.00119077006618721
0.000824686348485016
0.000463807628264845
0.00015563714096096
6.77288400051617e-06
0.00158257879679772
0.0012284903075235
0.00085449507379282
0.000483058291680604
0.000161232033496422
6.85705895470558e-06
0.00195440080318627
0.00162301991536118
0.00125973764478452
0.000877036285579317
0.000493920353047137
0.000162518150349227
6.71512169184628e-06
0.00230213503916979
0.00199704054624049
0.00165405327729639
0.00128164346371952
0.000889465367283974
0.000496699503475493
0.000161024778036001
6.42772759512687e-06
0.00262538225649444
0.00234664020422272
0.00202749318292542
0.00167337574476261
0.00129198697586359
0.000891582940363614
0.000493341772743786
0.000157682778628442
5.99356954523159e-06
0.00267099282060358
0.00237644101135586
0.00204365249176267
0.00167932098056464
0.0012903290968208
0.000884736990704023
0.000485317755387788
0.000152796965020628
5.47889395951611e-06
2.7487486822317e-06
9.99825263114295e-05
3.68182978656962e-06
0.000386354962062273
0.000121266425867273
4.67569760505935e-06
0.000757318676999224
0.000418199569162232
0.000136502255598043
5.63046726007228e-06
0.00114997596742873
0.00079549737725976
0.000446091680869407
0.000148197638365519
6.19379038446006e-06
0.00153587144499914
0.00119229571017783
0.00082891513486796
0.000467668019923406
0.000154828667466826
6.3751396485456e-06
0.00190289393891352
0.00158102345919211
0.00122747740045943
0.000854440734864392
0.000480460427851479
0.000157022519139335
6.32629060955839e-06
0.00224697764595441
0.00195043633576926
0.0016163137466579
0.00125286887051688
0.000869489911899704
0.000484956863189263
0.000156347880338756
6.13258363813337e-06
0.00256766652916835
0.00229660669299614
0.00198546740326022
0.00163955207538007
0.00126636519828092
0.000873947273245791
0.000483124395471782
0.000153747945960764
5.79806401465691e-06
0.00286574105446644
0.00261880288452842
0.00233135816137527
0.00200596871374498
0.00164914514343055
0.00126758566758504
0.000869178820098678
0.000476382875902524
0.000149395565993381
5.30760248614229e-06
0.00265282355060109
0.00234893908805274
0.00201054479361958
0.00164461157181119
0.00125713096342156
0.00085629576295741
0.000465236953112373
0.000143320294795726
4.73455559372764e-06
2.13729940824938e-06
8.10357771141178e-05
2.99737440967121e-06
0.000351916834159685
0.000105193931145343
3.94265994390462e-06
0.000716863457563321
0.000392256405013609
0.000125795530373809
4.84289297095629e-06
0.00110355259657564
0.000761586520968596
0.000425199519178864
0.000139444827345443
5.52622223305313e-06
0.00148379426592338
0.00115152213598654
0.000799761663373629
0.000449985199655595
0.000147472495382641
5.82682243406165e-06
0.00184602057567937
0.00153441313355027
0.00119144234393962
0.000829034911448946
0.000465249938494215
0.000150766329705606
5.87741580706422e-06
0.00218635213111801
0.00189907364771687
0.00157457836253024
0.00122091641830865
0.000847204554592778
0.000471773066898544
0.000151026992265414
5.77213348083573e-06
0.0025043473639343
0.00224161814522933
0.0019391972209301
0.00160223520997524
0.00123802494692383
0.000854365861089193
0.000471685066072498
0.000149235866552437
5.52795048916228e-06
0.00280072339889301
0.00256127917378205
0.00228170598533326
0.00196445560688685
0.00161587270772844
0.00124247898051049
0.000851973148401376
0.000466469800973929
0.000145620325727886
5.13540338811438e-06
0.00307633729960588
0.00285848264377362
0.00260104091368441
0.00230443214530394
0.00197351010257148
0.00161506977632709
0.00123494580234649
0.000841182079054783
0.00045661038520602
0.000140086731498679
4.58881794961389e-06
0.00262080294468151
0.00230829488252748
0.00196585140283394
0.00159989032736603
0.00121592287918326
0.000822390169337304
0.000442107120923245
0.000132657355217868
3.96758170120562e-06
1.57594407776415e-06
6.13070901307144e-05
2.3250485489905e-06
0.000310058322988467
8.48982826448573e-05
3.20139372478248e-06
0.000667879337007804
0.0003578945052378
0.000109044630255338
4.08234723193313e-06
0.0010501523262754
0.000721094121151665
0.000399298610784127
0.00012857377218489
4.75622115208453e-06
0.00142544537242973
0.00110514514544464
0.000765990523790269
0.000429271675918641
0.000138901065226836
5.20365646994149e-06
0.00178307606021369
0.0014824573465154
0.00115089309858191
0.000800168053297866
0.000447888307315548
0.000143657552586001
5.37122844124983e-06
0.00211965693080258
0.00184236757502424
0.00152828417290719
0.00118527628625045
0.000822217433491686
0.00045693169748722
0.000145007274609855
5.35932616292729e-06
0.00243490256886016
0.00218118198161888
0.00188821794117768
0.00156099899525514
0.00120660203047729
0.000832569023954033
0.000458874182311305
0.000144115701221898
5.19923819364909e-06
0.00272949262539461
0.00249816220755377
0.00222714277163556
0.00191876961518844
0.00157919557626389
0.0012147441156588
0.000832897265164105
0.000455384683318105
0.000141291291949044
4.89414344195095e-06
0.00300425004959715
0.0027937105685811
0.00254397404038775
0.00225542643460972
0.00193273598055644
0.00158252267345604
0.00121047787329103
0.000824480739996749
0.000447039437568872
0.000136493222399967
4.44318550616552e-06
0.00325995798512491
0.00306850911359166
0.00283871992128933
0.00256970474718445
0.00226460730425457
0.00192965493037545
0.00157112075502893
0.00119439041104321
0.000807778592938975
0.000433824315682061
0.000129614074957631
3.84894946384335e-06
0.00257348225277573
0.00225407895937366
0.00190929002152832
0.00154492378214625
0.00116650017948222
0.000782667253689725
0.000415545648726744
0.000120688547416385
3.19630281606295e-06
1.11804994409158e-06
4.29324416521288e-05
1.71031372353163e-06
0.000261437009154262
6.3066268816141e-05
2.47634301260793e-06
0.000610289428614593
0.000315490838838531
8.87393492430504e-05
3.31884334241814e-06
0.000987993707519137
0.00067218185177941
0.000364850436106581
0.00011163975263026
4.00678809128196e-06
0.00135975533745393
0.00105183673657141
0.000725920672711515
0.000403896388622205
0.000128479619070133
4.49438258495148e-06
0.00171324867888919
0.0014242627589317
0.00110485153014573
0.000766906605448268
0.000427745418454584
0.0001354625420117
4.80400068071362e-06
0.0020461963683163
0.00177961946290573
0.00147672229546762
0.00114526077333683
0.000793962046066064
0.000440118339702385
0.000138204506990083
4.90007540356857e-06
0.0023587056379363
0.00211470249163856
0.00183196048227003
0.00151530999990579
0.00117163266490912
0.000808218992596778
0.000444518729856123
0.000138350667374273
4.82585232131451e-06
0.00265149917593874
0.00242894069887902
0.00216718970269423
0.00186846590298648
0.00153871616475202
0.00118405229260146
0.000811715699396676
0.000443000259815411
0.000136391289799647
4.60107779370028e-06
0.00292531992764965
0.00272271679847604
0.00248136313908569
0.00220159460392934
0.00188789666586019
0.00154668539371071
0.0011834867918551
0.000805989883928466
0.000436345974563831
0.000132368541330729
4.23390553966117e-06
0.00318087362110824
0.00299669431889415
0.00277449048030009
0.00251341349551242
0.00221652846298698
0.00188983323609538
0.00153945231429842
0.00117066370381131
0.000791642632926691
0.000424632739564217
0.000126229206311096
3.73231351387136e-06
0.00341884647881614
0.00325159162809381
0.00304702018996494
0.00280362155570598
0.00252337278827197
0.00221144717402517
0.00187410599690364
0.00151705104368686
0.00114570355611603
0.000768610238997142
0.000407643901381983
0.000117863432429015
3.10584107126271e-06
0.00251044394272155
0.00218594462227753
0.00184025445339964
0.00147904665227961
0.00110816101232388
0.000736393955241157
0.000385020473907818
0.000107242905263819
2.44123816579134e-06
7.61271369342544e-07
2.85211286862855e-05
1.21583725099476e-06
0.000207879620154497
4.36133671565815e-05
1.82050052853157e-06
0.000543520929241783
0.000265674520419326
6.75461934434532e-05
2.57796424721631e-06
0.000917038505311229
0.00061464732749346
0.000322677593135167
9.14591820764035e-05
3.26683953158869e-06
0.00128530019999766
0.000989813486960146
0.00067732667278077
0.000369904800929937
0.000112429684350651
3.78031166552054e-06
0.00163562188107334
0.00135876939600488
0.00105204790683648
0.000727800556883355
0.00040353437184255
0.000125692251505195
4.16812182739813e-06
0.0019651872534383
0.00171002360334309
0.00141902983586577
0.00109997152922874
0.000761630496041198
0.000420816286436022
0.000130463972263131
4.38963491031661e-06
0.00227504764554331
0.00204148905531709
0.00176974458601108
0.00146450073628419
0.00113250205326664
0.000780843495302188
0.000428371168652863
0.00013188350904237
4.41288753657486e-06
0.00256609210391347
0.00235299514179994
0.00210126563619217
0.00181300178324225
0.00149394281628017
0.00114999538683315
0.000788147242806849
0.000429181193028228
0.000130896431148928
4.27011861085268e-06
0.00283899787982908
0.00264497842760153
0.00241271103869833
0.00214247691779833
0.00183857410483132
0.00150719496552018
0.00115368153732504
0.000785506388350592
0.000424424416897509
0.000127708093998642
3.97883994626589e-06
0.00309435092822064
0.00291803267825633
0.00270408454786794
0.00245167537978273
0.00216374920015517
0.00184608339131607
0.00150462558986256
0.00114452607444474
0.000773798590372926
0.000414365776949876
0.000122333659501322
3.55714550519375e-06
0.00333277975285024
0.00317281210061135
0.00297581972439841
0.00274030293067876
0.00246820040421141
0.00216456157353702
0.0018354294298413
0.00148639645279889
0.00112280633353978
0.00075309458935786
0.000398871873804037
0.00011472051918201
3.01918040427435e-06
0.00355493265143071
0.00340998248757333
0.00322854419509961
0.0030086191778192
0.00275151408640334
0.00246161887328007
0.00214458819611894
0.00180624475092031
0.00145218578362882
0.00108817632792677
0.000722942146950973
0.000377543277452949
0.000104667209743291
2.37949640421079e-06
0.00243137889271691
0.00210310673466561
0.00175770751390021
0.00140115059785832
0.00103972656695992
0.000682429761883051
0.000349694746908613
9.18779313078264e-05
1.72724297838876e-06
5.20750402381307e-07
1.85750732208335e-05
8.41130370327217e-07
0.000154443211984479
2.95629080626078e-05
1.29693770874795e-06
0.000467344271794394
0.000211253557953339
4.87896917330767e-05
1.91474125342809e-06
0.00083625102456522
0.000547952428044376
0.000273871533481315
7.07323839660637e-05
2.55535417642861e-06
0.00120151301623574
0.000919125903447769
0.000620419344821449
0.00032862547454288
9.32014818402445e-05
3.0930954000959e-06
0.00154905665972885
0.00128454154431139
0.000990693823676758
0.000680255232672981
0.000371195786963457
0.000111340462510327
3.50143666790045e-06
0.00187572341313894
0.00163266882872139
0.00135418199851734
0.00104823826172357
0.000723969800645988
0.00039799769613642
0.000121448361113653
3.82841962743811e-06
0.00218313062673774
0.00196076304281897
0.00170078432489206
0.00140776266874552
0.00108841293337084
0.000749768530270426
0.000410038366594381
0.000124607700666397
3.96357511151535e-06
0.00247254509927249
0.00226962126404706
0.00202869527193559
0.00175172935332565
0.00144426545409207
0.00111204228960353
0.000761810724273992
0.000413742160396046
0.000124769066702277
3.90725253360066e-06
0.0027446269794511
0.00255985502297065
0.00233741278230776
0.00207751565932933
0.00178426157488488
0.00146360919927089
0.001120711726197
0.000762800628538995
0.000411168166205994
0.000122498660664552
3.69218944228549e-06
0.00299983204889643
0.00283199834409407
0.00262699958793753
0.0023840111552439
0.00210583483840817
0.0017980194315439
0.00146631451528411
0.00111572245049666
0.00075407068278342
0.000402935814961146
0.000117929756410213
3.34137908357576e-06
0.00323867811683432
0.00308659228577421
0.00289782692994108
0.00267091485143247
0.00240772497838933
0.00211313508236304
0.00179298270412205
0.00145272565563838
0.00109761247385881
0.000735949361607656
0.000389065867972166
0.000111081184791381
2.87851138381331e-06
0.00346180938296094
0.00332425777348417
0.00315045856530128
0.00293846506643107
0.00268951531123318
0.00240789503003746
0.00209913884143056
0.00176888918800525
0.00142266760841375
0.0010661883709211
0.000708100157040352
0.000369240502364709
0.000101823608688681
2.32239234922324e-06
0.00366988569497277
0.00354563095557776
0.00338553992751488
0.00318720994341893
0.00295138031880711
0.00268195822101274
0.00238411209669263
0.0020632322139266
0.00172502657241626
0.00137541137894157
0.00102062721675736
0.00066963782972897
0.000342691943842883
8.96827207582814e-05
1.68937765617212e-06
0.00233545105201016
0.00200429284743779
0.00166020183344322
0.00130964073123621
0.000959454431433826
0.000619050716126214
0.000308063563284751
7.39712600004112e-05
1.08061748715283e-06
3.38564123610811e-07
1.17851674096321e-05
5.83270869142111e-07
0.000107078254257087
2.05564211352682e-05
9.19794769611186e-07
0.00038316786908216
0.00015844146834675
3.47074970698367e-05
1.38607736917139e-06
0.00074450452968447
0.000472070800917725
0.000221494784111822
5.2519931457616e-05
1.91959647472872e-06
0.00110695572886993
0.000838805119729698
0.000554890607990823
0.00028143448284041
7.34973652534013e-05
2.43796901093816e-06
0.00145175375180691
0.00120110056641414
0.000920880627308104
0.000624841425643119
0.000331978642500027
9.36498592159215e-05
2.87778625398185e-06
0.00177652736143745
0.00154642095341161
0.00128082201162744
0.000988339123121824
0.000678575395954675
0.000368435249807395
0.000109238753004646
3.21562538152568e-06
0.00208197235975024
0.00187162510491976
0.0016241877939831
0.00134414192411465
0.00103833290495692
0.000713964785391054
0.000388796305416987
0.000116351847524924
3.47501142779738e-06
0.00237003414745257
0.00217802535167059
0.00194871389130718
0.00168389869928667
0.00138894709836622
0.00106950698120101
0.000732168024921279
0.000396399110596281
0.000117946428602362
3.51566523010889e-06
0.00264147816308233
0.00246662529853332
0.00225477770841487
0.00200606161621755
0.00172435523158125
0.00141538413347098
0.00108413065045653
0.000737573844195229
0.000396441823111233
0.000116716973135265
3.38035523872002e-06
0.00289666421272995
0.0027379450172121
0.00254261187635096
0.00230983758549018
0.00204225886124716
0.0017451767369155
0.00142412850012361
0.00108395645211067
0.000732272435995839
0.000390258897604797
0.000113016510998083
3.0989650970708e-06
0.00313598500430358
0.00299239736759508
0.00281253267355735
0.00259497250211624
0.00234149061593206
0.0020567628252694
0.00174641437411497
0.00141574845537479
0.00106989810301016
0.000717019523817539
0.000378148239191323
0.00010695027043018
2.70127388349609e-06
0.00336002813852494
0.00323049780078514
0.00306499487231733
0.00286164039893353
0.00262160969463576
0.00234905114130142
0.00204933369697906
0.00172793565984618
0.00139028040114735
0.00104201621144129
0.000691699441861623
0.000359930460407979
9.84782129545048e-05
2.21461562308303e-06
0.00356951937505667
0.0034528912825504
0.00330059774202926
0.00311031771584855
0.00288275730103778
0.00262167811412198
0.00233213917653007
0.00201944429807971
0.00168915745184291
0.00134714532072534
0.00099962537334707
0.000655528463456472
0.000334943659587361
8.72370366814453e-05
1.65663716948555e-06
0.003765144477474
0.00366022095155249
0.00351997786320059
0.00334163071385469
0.00312544113990869
0.00287484147133168
0.00259468654593554
0.00229000020642837
0.00196610056376831
0.00162900225103962
0.00128513396981794
0.000941318675303372
0.000606979777190444
0.000301667529205744
7.21882346139504e-05
1.06020552057719e-06
0.00222127272378414
0.00188783598194578
0.0015458467144328
0.00120233783316436
0.00086488285783334
0.000543655220791409
0.000257809563912856
5.3714615789805e-05
5.50699835036417e-07
2.39202781222462e-07
7.3036748243747e-06
4.14621919391614e-07
6.91780044057078e-05
1.46855814628252e-05
6.65749175973612e-07
0.000295098320242135
0.000112763278210352
2.50431185600485e-05
1.00027689408691e-06
0.000640765654648485
0.00038881576870277
0.000170850093383175
3.85652523150123e-05
1.40676663189477e-06
0.000999231559349546
0.000747783853951876
0.000481098658086972
0.00023138873069259
5.60010367335625e-05
1.85089835831692e-06
0.00134153626586531
0.00110711874227055
0.000841851380918697
0.000561516575223835
0.000287468966769163
7.53555065353281e-05
2.28724034053744e-06
0.00166506211547181
0.00144954410948652
0.00119830522557344
0.000920261368289753
0.00062568003683933
0.000332148371299166
9.3340028402567e-05
2.65376774238391e-06
0.00196996114397199
0.00177282432925857
0.00153885163185426
0.00127244503480601
0.000980803906327514
0.00067156735461697
0.000362674788693307
0.000106582535004831
2.9517587905866e-06
0.00225748544286982
0.00207723594923
0.00186043456479316
0.00160865569431725
0.0013271252415446
0.0010215188432589
0.000698440264928689
0.000376711843496923
0.000110325736018134
3.09847625118365e-06
0.00252872254151283
0.00236446949865294
0.00216402298190482
0.00192737544601519
0.00165815353668532
0.00136186183631858
0.00104336353905318
0.00070941327620573
0.000380050806755804
0.000110325845253939
3.04727583208072e-06
0.00278413717332148
0.00263514818433334
0.00245021306791637
0.00222848638137812
0.00197240690305801
0.00168700206922174
0.00137759131133774
0.00104885971630461
0.000708173596851747
0.00037623571383196
0.000107582560261441
2.83672534993501e-06
0.00302406868343405
0.00288958496162343
0.00271930669705967
0.00251187351979135
0.00226894218691768
0.00199495469044165
0.0016953042144551
0.00137512380859732
0.00103941372127802
0.000696152196758516
0.000366055588749962
0.000102334990570983
2.50104025618629e-06
0.00324904489965675
0.00312816968275283
0.0029716336897102
0.00277765067438226
0.00254733385996512
0.00228465938038126
0.00199480029420709
0.00168306720198779
0.00135476648504073
0.00101546061470993
0.000673597545907564
0.000349536833021068
9.46282261555312e-05
2.07338978458023e-06
0.0034598202842377
0.00335149550761079
0.00320769023676315
0.00302618343221922
0.00280764688718864
0.00255569960975266
0.00227526005847645
0.00197150481682892
0.00164987209044075
0.0013161589486245
0.000976545969621948
0.000639914847146448
0.000326176270022063
8.42258298510582e-05
1.57872964477394e-06
0.00365722446254077
0.00356028460872684
0.00342811908694131
0.0032580428694142
0.00305030726248524
0.0028082242175437
0.00253649254839444
0.00224005982677072
0.00192418997255006
0.00159478159088525
0.00125823647672223
0.000921385568884278
0.000593684559095536
0.000294609071021417
7.03639407153345e-05
1.04641976187155e-06
0.00384195095321296
0.00375519980438303
0.00363356209166918
0.00347386703606
0.00327592851642687
0.00304274917832605
0.0027788020633453
0.0024888576348977
0.00217788861441173
0.00185152725297818
0.00151628773342281
0.00117918687239887
0.000847808535782216
0.000532405813796007
0.000252146954567954
5.22846318489567e-05
5.42337726185293e-07
0.00208707388709213
0.00175169542823772
0.00141224699211766
0.00107639531703973
0.000752712292544078
0.00045274377372159
0.000197017499382985
3.22946551555932e-05
2.06405881455327e-07
1.67946534865193e-07
4.6777938093123e-06
3.08672899246436e-07
4.24581803768291e-05
1.05040117250489e-05
4.962406228258e-07
0.000209943655090098
7.64717817963475e-05
1.83569960614978e-05
7.33615898710783e-07
0.000525396713952137
0.000302441710492815
0.000126435130533346
2.85643072478702e-05
1.02533255773043e-06
0.000874996302757265
0.000645210096239246
0.000400960673213247
0.000182905707762018
4.22099963527938e-05
1.37025235422463e-06
0.00121299285052671
0.0010003112965121
0.000752776480670616
0.00049089910015316
0.000240418153894026
5.87772977925947e-05
1.75533674482909e-06
0.00153602129846642
0.0013400587935458
0.00110564572986503
0.000843546038714327
0.000565603638312015
0.000291014968809503
7.65954939671142e-05
2.12598488003632e-06
0.00184343919025571
0.00166192611112929
0.00144306196210636
0.00119166657698831
0.000915274615013713
0.000621863054797505
0.000329661337736165
9.2564863271513e-05
2.42582046486849e-06
0.00213294905252209
0.00196569235733511
0.00176264047177938
0.00152495276902557
0.00125777795911262
0.000966967119378694
0.000659388883023568
0.00035371928543867
0.000101704081036236
2.65847298274465e-06
0.00240525623180551
0.00225232833112709
0.00206418963773193
0.00184059632165574
0.00158485382115839
0.0013022700792363
0.000997687176164668
0.000677753540547536
0.000361710913867443
0.000103270106367945
2.696091488368e-06
0.00266145672394199
0.00252278235304771
0.00234899252937304
0.00213919490142633
0.00189557404418722
0.0016228477275131
0.00132612451382198
0.0010099620555198
0.000681467305279226
0.000360732913639624
0.000101606373382053
2.55879491308614e-06
0.00290226520091018
0.00277744841203937
0.00261743597487602
0.00242092971675007
0.00218944071309221
0.00192713623765401
0.00163915153358142
0.00133044017531857
0.0010058589729964
0.000673170188698084
0.000352714428000697
9.72373024623944e-05
2.28497487356055e-06
0.00312826795640952
0.00301665175370474
0.00286974757100952
0.00268588526412125
0.00246611149772157
0.00221419738404853
0.00193508752068889
0.00163390758286606
0.0013158298481339
0.000986310433422667
0.000653666736718505
0.000338010396037683
9.02926265652442e-05
1.91215284614176e-06
0.00334026481318288
0.00324092400514518
0.0031062993656468
0.00293430042204805
0.00272557372737582
0.00248358545161351
0.00221307799906801
0.00191907458279047
0.00160688632611804
0.00128222224268074
0.000951206369793523
0.000622656386207322
0.000316298453428352
8.06448352552109e-05
1.47093129743429e-06
0.00353921770928374
0.00345102067936343
0.00332768332431873
0.00316664081293215
0.00296813539157779
0.00273535457168717
0.00247284554642419
0.00218545164892621
0.00187834685522563
0.00155733294339233
0.00122876616531899
0.000899470140349872
0.000578907172077961
0.000286427042949313
6.77873015655785e-05
9.96131513722635e-07
0.00372604185149806
0.0036477617513284
0.00353461644684097
0.00338353972123541
0.00319434504489787
0.00296992844479029
0.00271462788118883
0.00243309189334496
0.00213025226797869
0.00181170927168314
0.0014838841278559
0.0011537877989957
0.000829050334972641
0.000520043090869188
0.00024597941094644
5.08895980721669e-05
5.39516136058932e-07
0.00390139188403688
0.00383181298943048
0.00372775260256125
0.00358563987965558
0.00340483608465241
0.00318792197372265
0.00293899231518609
0.00266245965147788
0.00236304167717017
0.00204600914190714
0.00171748268990308
0.00138450923203862
0.00105475880820614
0.000736851519732711
0.000442450863657002
0.000191947466141086
3.12804813793694e-05
2.03747395678046e-07
0.00193079076743908
0.00159345941744117
0.00125652212504545
0.00092839829447691
0.000619132329871941
0.000343064213970461
0.000125275323703508
1.2964487583592e-05
4.6822114067673e-08
6.27715050930826e-08
2.67040883126682e-06
2.16247727758014e-07
2.49905666054247e-05
7.2083203940406e-06
3.71210723705989e-07
0.000136747305907324
5.00191187560504e-05
1.34095152300352e-05
5.47956352010987e-07
0.000402450437916486
0.000219509544511143
9.00000428332078e-05
2.1318337499166e-05
7.54044177912431e-07
0.000732316232365133
0.000531495593345173
0.000318146594628898
0.00013943003084532
3.19063338655472e-05
1.00454762207e-06
0.00105866236778701
0.000877551452608369
0.000653041882846789
0.000414706121137909
0.000194383815799368
4.52835545407151e-05
1.31167468744343e-06
0.0013791995584571
0.00121293346927244
0.00100078549609286
0.000757617524027476
0.000499056000376617
0.000247400351793877
6.10253858967845e-05
1.6494320164991e-06
0.00169352655572679
0.00153400390559677
0.00133508594125081
0.00110130164265713
0.000841781333829716
0.000565661279216709
0.000292186874008274
7.74300096811649e-05
1.95211949181977e-06
0.00199169878389098
0.00183994540197768
0.00165308156851267
0.00143118129228837
0.00117963191527376
0.000904610788702762
0.000613331540886148
0.000324686684750237
9.07642317253268e-05
2.20051689526179e-06
0.00226902136855962
0.00212832466962336
0.0019537764563327
0.00174457087197251
0.00150348814627112
0.00123569912959016
0.000946188921979845
0.000641746046273004
0.000340942028595953
9.54726431567766e-05
2.33019837239786e-06
0.002527584773762
0.00239975799790411
0.00223790583706575
0.00204103101795024
0.00181093605727509
0.00155196375015407
0.00126904048490555
0.000966673697492221
0.000651743797568152
0.000343566455259459
9.50558902790135e-05
2.26852015700265e-06
0.00276985929855728
0.00265519489524378
0.00250610169038123
0.00232134795490688
0.00210225130311832
0.00185264096976927
0.00157736336197296
0.00128119547719052
0.000968855900642593
0.000647846794875071
0.0003380303512558
9.16483762220843e-05
2.05758670834609e-06
0.0029971092307837
0.0028952824032905
0.00275863920774264
0.00258564860590833
0.00237728017695105
0.00213705971099038
0.0018696631332656
0.0015800081195149
0.00127311809246912
0.000954321368474081
0.000631769737371404
0.000325303923245935
8.54864665660924e-05
1.73834051180122e-06
0.00321031886928689
0.00312059474988168
0.002995817129249
0.00283405868179053
0.00263595073536765
0.00240478947678016
0.00214510639675668
0.00186174253300834
0.00155986612216032
0.00124507866397106
0.000923425692299267
0.000603645072407718
0.000305278076692907
7.65418796038912e-05
1.34630246859611e-06
0.00341062530767689
0.00333193067736986
0.00321816548800594
0.00306691775401946
0.00287843614819784
0.00265578166045444
0.00240333776217353
0.00212581175366336
0.00182826513900763
0.00151640221340436
0.00119651466049778
0.000875396690100995
0.000562492858123419
0.000277010993024953
6.44732544468609e-05
9.21382137698188e-07
0.00359918590552376
0.00353024693134907
0.00342643414057701
0.00328480415995335
0.00310517408351266
0.00289033213614675
0.00264447925408185
0.00237214922084483
0.00207820696533635
0.00176819002107569
0.00144844553745429
0.00112595927091534
0.000808385453439155