/*--------------------------------*- C++ -*----------------------------------*\
  =========                 |
  \\      /  F ield         | OpenFOAM: The Open Source CFD Toolbox
   \\    /   O peration     | Website:  https://openfoam.org
    \\  /    A nd           | Version:  12
     \\/     M anipulation  |
\*---------------------------------------------------------------------------*/
/*   Windows 32 and 64 bit porting by blueCAPE: http://www.bluecape.com.pt   *\
|  Based on Windows porting (2.0.x v4) by Symscape: http://www.symscape.com   |
\*---------------------------------------------------------------------------*/
FoamFile
{
    format      ascii;
    class       volScalarField;
    location    "500";
    object      omega;
}
// * * * * * * * * * * * * * * * * * * * * * * * * * * * * * * * * * * * * * //

dimensions      [0 0 -1 0 0 0 0];

internalField   nonuniform List<scalar> 
10142
(
2.46683987631541
2.46684423974848
0.597579391641031
2.38167766499647
2.46684118035118
0.593590899444703
2.38168070909672
0.315361199858056
0.582808135055842
2.28699316144663
2.46683835846298
0.589406993364797
2.38167984455201
0.312401073953223
0.578808475890361
2.28699581011822
0.224962149945022
0.311232095994264
0.564761439056649
2.21610697667948
2.46683452748261
0.585123427220032
2.38167530777881
0.30933050130978
0.574616547509689
2.2870079271358
0.222713509205042
0.308279907978112
0.560782396392777
2.21610913137178
0.184148680232201
0.223491866546357
0.305270390481009
0.550151682745497
2.18721775585323
2.46682782535463
0.58076057232695
2.38165827618735
0.306196238206486
0.570313293788811
2.28697900765528
0.220404867437093
0.305214373072497
0.556615046286995
2.21612331110756
0.182325802696361
0.221247515951313
0.302329684237205
0.546211538095168
2.18721860542126
0.16228780723656
0.183562495015013
0.221002110397621
0.299479140828158
0.541506218721921
2.18619322577566
2.46680508538093
0.57639205019372
2.38167709541093
0.303042788119841
0.565907188030229
2.28697861317679
0.218074331596788
0.302081451191337
0.552332258701858
2.21609128397796
0.180473329554822
0.218940394604128
0.299274914021154
0.542093044565443
2.18722046005908
0.160736442640583
0.181740574449971
0.218759650814061
0.296548734187087
0.537578241712236
2.1861929151941
0.149404328365973
0.162034240862441
0.182357135215586
0.218119846562015
0.294870942253601
0.536661940082994
2.19193193507179
2.46678126284934
0.572191768547661
2.38170160929269
0.299958777443401
0.561469830247769
2.28700601141414
0.215773472670261
0.298924440527539
0.547932136797619
2.21610726759164
0.178625165425234
0.216609067455571
0.296147478291201
0.53785663101793
2.18721393070675
0.159174638689265
0.179886240668002
0.216451577161978
0.29350228468158
0.533476476903412
2.18619178960914
0.148039820965274
0.160482017716169
0.180532165507852
0.215874835241601
0.291939030822731
0.532712572305177
2.19192922429423
0.14137870500295
0.149269970314944
0.1613652602512
0.180727765126724
0.215303420458348
0.291128770769997
0.532343206020251
2.19485822904104
2.46685600848344
0.568792457633319
2.38179225911149
0.297142038830841
0.55718354064873
2.28705898295906
0.213589537858806
0.295831195427303
0.543478235322105
2.21612726386856
0.176830829345053
0.214304622043949
0.292987370850706
0.533496513120927
2.18721825356119
0.157634268800096
0.178034117491649
0.214114410748186
0.290375939538952
0.529253323461637
2.18618963719849
0.146677466601301
0.158916628372428
0.178671391638368
0.213559709833033
0.288885971118687
0.528587066802918
2.19192750555393
0.140153459284613
0.147903893843535
0.159807702536115
0.178894625198877
0.213049207436728
0.288182390091594
0.528357271689264
2.19485325608768
0.136231647540953
0.141283565010444
0.148829834360404
0.160337191972247
0.178885326394978
0.212603597495065
0.287453600269397
0.526874760224728
2.1951322074037
2.46710977771731
0.571856823845688
2.38207774583481
0.295063044301471
0.553463433506668
2.28720832045595
0.2116812210524
0.29300315953804
0.539160819911061
2.21618885830368
0.175166769136929
0.212113046343044
0.289877970973429
0.529065786515676
2.18723964142585
0.156161781016634
0.176233186303576
0.21179681747488
0.287204709336875
0.524899413572294
2.18619407057886
0.145349079889659
0.157370639996023
0.176808247752627
0.211207502358922
0.285742534541759
0.524332940560037
2.19192361212936
0.138936490646242
0.146537352790699
0.15823354737565
0.177020656406934
0.210717949625841
0.285107396147905
0.524190823851919
2.19485101772543
0.135124187278866
0.140056532087402
0.147457542085654
0.158768967038852
0.177038861885406
0.210334307484258
0.28448643038891
0.522850681527065
2.1951268552881
0.136151895615191
0.140944741981365
0.148105494776476
0.159060955491008
0.176940348827394
0.209845940787906
0.283333805112318
0.520062816609567
2.19481068255959
2.4684579407777
0.593829604755662
2.38279746884582
0.295149800492579
0.551769355501979
2.2875911105826
0.210332763064605
0.290871443764102
0.535346722922292
2.21635232567511
0.173751777677634
0.210192111379686
0.287012652708893
0.52475004040371
2.18729932062537
0.154824708177626
0.174558696728662
0.209581026272091
0.284062727242801
0.520457604238207
2.18621381599225
0.144099916443938
0.155890009254875
0.174989648207778
0.208862281078213
0.282537184055144
0.519931551905826
2.19193152738901
0.137763428580679
0.145202816169938
0.156674489720807
0.175136640141849
0.208338279971852
0.281928597849343
0.519883938660183
2.19484625293944
0.134014386139163
0.138835259867809
0.146081424861221
0.157179160226286
0.175144415171266
0.207979134307343
0.281382304850167
0.518642984080207
2.19512422384563
0.131926807770826
0.135042601234988
0.139711154432552
0.146721447255859
0.157477161460523
0.175076727969614
0.207558872378778
0.280345937327939
0.516004149668755
2.19480514058606
0.135867033880871
0.140387332529346
0.147175176941151
0.15764660755204
0.174909578802493
0.206885706068071
0.278625944124813
0.512106500875247
2.19480573107997
2.47049254982686
0.633190186856349
2.38444982034606
0.299947854831015
0.569361921629122
2.28846146597185
0.210080057695372
0.290608193242906
0.533787389650279
2.21675195204148
0.172766126279849
0.208816612217237
0.284773966165591
0.520880304269705
2.18745794987137
0.153719353304178
0.173127491814163
0.207615381103379
0.281123526558021
0.516069550957962
2.1862686607412
0.142993113776776
0.154541215653994
0.173287405580746
0.206598583203014
0.279332663048341
0.515434351074469
2.19194807846382
0.136680645574414
0.14394509995547
0.155174739497909
0.173285601289892
0.20594777647804
0.278666235040162
0.515409462254812
2.19485434553035
0.132959032543313
0.13765602815913
0.14473323992482
0.15559728122922
0.173229117570592
0.205561698968138
0.278159510645923
0.5142824726919
2.19511911976615
0.130880966316031
0.133928431625245
0.138480067884308
0.14532874091124
0.155864851204212
0.173156279199135
0.205176086424729
0.277212062309098
0.511759836870568
2.19480231296031
0.129889281356266
0.131854455330126
0.134751087018702
0.139141354504717
0.145774200050096
0.156043723914947
0.173027076967448
0.20458144218541
0.275620741701895
0.50801132130027
2.19480014114704
0.135416212040027
0.139684921816518
0.146141046741159
0.156170668349184
0.172792752336402
0.203683530037726
0.273352627715155
0.503077979569854
2.19513095048833
2.47707958883524
0.69358611717554
2.3873006038256
0.310330451472218
0.60984135528056
2.29017031273842
0.211662033240143
0.294924701050312
0.551540813594491
2.21762553516218
0.17247559807511
0.208502214109722
0.284219697757363
0.519327143827327
2.18784711264511
0.152980174792167
0.172115694755105
0.206151317595
0.278706679065563
0.512000488671785
2.18641927393713
0.142115109872207
0.153418886997106
0.171812317150764
0.204548110720224
0.276263467581526
0.510892253378199
2.19199870064206
0.135750083436705
0.142826405917615
0.153797945953632
0.171533119988838
0.203609654190367
0.275368427026739
0.5107898333036
2.19486956763889
0.132006079914766
0.136564780729822
0.143456270683927
0.154064288541179
0.171330515101227
0.203111913860563
0.274829198542008
0.509731733432556
2.195127054682
0.129916004847265
0.132866990207372
0.137287139140633
0.14395724201681
0.154250436575548
0.171201913394242
0.202716056277081
0.273945500927235
0.507350448129266
2.1947970768372
0.128926147786737
0.130805410947271
0.133626832121023
0.137893201713238
0.144357906009459
0.154403831660577
0.171077976689972
0.202171276010589
0.272461017358166
0.503734613219735
2.19479726429068
0.128685841387461
0.12982724545909
0.13159985752087
0.13428737186879
0.138420872876308
0.144719243486224
0.154546909022761
0.170891839431673
0.201365269525265
0.270334565524665
0.498940925785092
2.19512542090208
0.134878428102585
0.138934642888801
0.14509550412594
0.154693849173136
0.170624711494609
0.200286781139048
0.267580702978922
0.492911888333224
2.19485568691378
2.47707765247967
0.779318186147088
2.39185417680148
0.328750288315944
0.678402630296984
2.29303147667512
0.215569493157036
0.305072802288424
0.587769228260469
2.21929747849747
0.17327959784885
0.209961167047034
0.288117868014165
0.536467572889632
2.18870502245036
0.152792176793062
0.171782127674624
0.20564510572432
0.27770209791807
0.509532055094218
2.18679835039516
0.141583246964406
0.152654878441604
0.170729353899585
0.202927450136487
0.273583889411029
0.506547465587082
2.19214278540219
0.135055197002318
0.141931737111934
0.152634355111376
0.169979383909965
0.201433298996702
0.272131482082151
0.506085907740709
2.19491695506187
0.13121686919231
0.135622587588102
0.142310275738221
0.152638877750566
0.16950544965502
0.2006797237723
0.2714228114832
0.504999155136637
2.19514130958217
0.129067968805473
0.131905756792894
0.136176895489742
0.142647411995462
0.152670331458172
0.169244784800723
0.200200738140351
0.270547848747236
0.50272651644502
2.1948048515979
0.128044504570437
0.129834589040168
0.132551651665843
0.136676820328146
0.142953448234883
0.152749727611415
0.169080837123351
0.199669055356016
0.26915446181364
0.499281896109279
2.19479197779223
0.127794234585161
0.128860893453124
0.130541006067827
0.133145459950312
0.137148223590962
0.143273987228788
0.152876776132086
0.168914314422391
0.198931204561283
0.267154637364441
0.494631725121512
2.19512262939621
0.128080754880773
0.128634060179022
0.129603905107546
0.13121426395887
0.133730321644763
0.137647972741543
0.143650554337975
0.153049185540665
0.168707987076933
0.197959900252073
0.264554578962324
0.488714493464692
2.19485236171608
0.134349492516589
0.138231445877267
0.144125091041992
0.153296883116937
0.168499412961462
0.196818982020265
0.261424661663479
0.481564187994524
2.19192995822876
2.49612145387186
0.877397445042353
2.39533601503348
0.359154822321279
0.771006564253503
2.29674769691033
0.222801413800249
0.323702219397042
0.644155319049314
2.22204871723377
0.175483134891097
0.21369728427008
0.297301674472322
0.570031797306085
2.19037351229288
0.153424775203125
0.172519571319426
0.206856664328631
0.280971053828442
0.523589981289108
2.18765645315788
0.141557470190657
0.152430378490377
0.170279924636711
0.202119150002408
0.271962921541078
0.503343790786189
2.192515777959
0.134709445873838
0.141376295225888
0.151808998897961
0.168771424490438
0.199597100409905
0.269150184558243
0.501444146631496
2.19505560520556
0.130674462566537
0.134911569899609
0.141376638123596
0.151403769726162
0.167839885952295
0.198350431103621
0.268007376182956
0.500122459304973
2.19518630728496
0.128395051523273
0.131105229423512
0.135208163311317
0.141454830507039
0.151176441023396
0.167331649109551
0.1976666742951
0.267036362609981
0.497887638054833
2.19481853346539
0.127286717060937
0.128978411050557
0.131571626157312
0.135534171946054
0.141597380408162
0.151112539590918
0.167060245492342
0.197089273075746
0.265696013162395
0.494590206432347
2.19479967643484
0.126987260733625
0.127973335058274
0.129556437883546
0.132046523821497
0.135898456023946
0.141829244677435
0.151179298075031
0.166874631336258
0.19639105704749
0.263814983590055
0.490139236325689
2.19511741636928
0.127252491558872
0.127738980399126
0.128627437338604
0.130137192602117
0.132562784555626
0.13634483146414
0.142173153631701
0.151348543096212
0.166704937827535
0.195508008179059
0.261360684815488
0.48435897257068
2.1948499727696
0.127909633250126
0.12803824437801
0.128438076696976
0.129281593009192
0.130783850330004
0.133176749117486
0.136919080943495
0.142656215520631
0.151633051417195
0.166571636763469
0.194490923168983
0.258393062731913
0.477294713006097
2.19192893783902
0.133924260627442
0.137673059045602
0.143338007082562
0.152112597435338
0.166594631033867
0.193514637683907
0.255159576585177
0.469799137107655
2.18619365483965
2.47684900258225
0.969051595864353
2.40111560495267
0.404454019010467
0.861538466047749
2.30018086900016
0.234996559344074
0.354005822090934
0.715043559714683
2.22558050497906
0.179671730417388
0.220671446878429
0.313596127663334
0.619837102076692
2.19317081553601
0.15517917220689
0.174610976843515
0.210165110089132
0.288937048669407
0.552601729687738
2.18937730661276
0.142266791166602
0.153010635844492
0.170839863005869
0.202907265679318
0.274100384108053
0.512582847385036
2.19338245433317
0.134871695521515
0.141316850758863
0.151493028048095
0.168123829513804
0.198416666309955
0.266932151082417
0.497462598284918
2.19542324772009
0.130493570853539
0.134543173000259
0.140765263015551
0.150472652516553
0.166458902484061
0.196264265756382
0.264718876310244
0.495197420676933
2.19532073189423
0.127979937485793
0.130547194599479
0.134459774075459
0.140454807837401
0.149841423537111
0.165532650532855
0.195176308813069
0.263451932503285
0.492856640507955
2.19486220185125
0.126711876175632
0.12829441088817
0.130745106471882
0.134520323589092
0.140339651361013
0.149536394641877
0.165052774369442
0.194456414911293
0.262090811581042
0.48965149006178
2.19481329607905
0.126309216158064
0.127207397559369
0.128681508118806
0.13103422124249
0.134710015895059
0.140417039478449
0.149480155060317
0.164791238528703
0.193753301848847
0.260305500264824
0.485387595964865
2.19512516206178
0.126514163480832
0.126925883019804
0.127725795303354
0.129128380631835
0.131429668212999
0.135053795770868
0.140683916821437
0.149607319896617
0.164626424379134
0.192937737249973
0.257998024657455
0.47982468968255
2.19484701083643
0.127141966024067
0.127206153966296
0.127532229363157
0.128285970373813
0.129679794210644
0.131976845995484
0.135581485516074
0.141145605840168
0.149903910407146
0.164548546184847
0.192029676513298
0.255188322554763
0.472807310931476
2.19192716018351
0.128056630138194
0.127874892267773
0.127865553833476
0.128168510279291
0.128953733048767
0.130406276349586
0.132722930866785
0.136333319826121
0.141845897670552
0.150433163966779
0.164662915847426
0.191194838390558
0.252123167354839
0.465101949125008
2.1861928472248
0.133706008602084
0.137384331427156
0.142895563061947
0.151362128068256
0.165225528364827
0.190826395055219
0.249562031111757
0.459803614212317
2.1872188611848
2.51405902630846
1.05666339299429
2.4006579023158
0.465009673605557
0.926046940319831
2.30188323223664
0.254505288671447
0.39649413727221
0.783237264289446
2.22846110581968
0.186765622839161
0.232383221863115
0.338708240980917
0.679025684964147
2.19682452498093
0.158559958253071
0.17860986057465
0.216351686301912
0.302775938369169
0.594620114915442
2.19233033276058
0.14407603338984
0.154681573910196
0.172663949171027
0.205547511637225
0.280352246509776
0.536119569188611
2.19516235530522
0.135783648992385
0.141977389801296
0.15193350271862
0.168377573934763
0.198572790569721
0.267511973101503
0.500816244470808
2.19629485099363
0.130840706124962
0.134672992195376
0.140625132726394
0.149999691100826
0.165543801155644
0.19466751564813
0.261887751118833
0.490424923360898
2.19568357678908
0.1279391949201
0.130344368725666
0.134038370563075
0.139748476439775
0.148764470017696
0.163949702349211
0.192833258468563
0.25987966041773
0.487673189510764
2.19499428600931
0.126402591071585
0.12786407954836
0.130150759003383
0.133708704865055
0.139247560863626
0.14808270604795
0.163112988605858
0.191812694291809
0.25835937165264
0.484476570399595
2.19485693466437
0.125819288206731
0.126621588428855
0.127971812429286
0.13016337337551
0.133632981009349
0.139080916060042
0.147815579665587
0.162691337502415
0.191032346972522
0.256622875764152
0.48036267609309
2.1951392112067
0.125909751773588
0.126239550344109
0.126940888722844
0.128220927788858
0.130371365011201
0.133809248919217
0.139210173007494
0.14784601970273
0.162485632896375
0.190253089975725
0.254451768830586
0.475029450197654
2.19485081982205
0.126470995773733
0.126461374143187
0.126704439249988
0.127359207915936
0.128635613063187
0.130800923929775
0.134244158305745
0.139610595138485
0.148121593278704
0.162438287502446
0.189441031438473
0.251815415801618
0.468202393084887
2.19192655109092
0.127351895373088
0.127102944071267
0.127021807298444
0.127242181860024
0.127929325778203
0.129267613848424
0.131485793362894
0.13495922766518
0.140302965079813
0.148679790118521
0.162628007211708
0.188734675725938
0.248890675042442
0.460295094187694
2.18619160885243
0.128439040212095
0.128027942841582
0.127721142705484
0.127639521610877
0.127924812734092
0.128720007611129
0.130177861261511
0.132473433053641
0.136016760812623
0.141382343391375
0.149672645268746
0.1632997328944
0.188526469490987
0.246465865192386
0.454579947828815
2.18721824195948
0.133830182217137
0.137546769320408
0.143051769304591
0.151418255296194
0.164961545231171
0.189679746450264
0.246473299612417
0.454816249096847
2.21610854576862
2.46568095716546
1.14938533380047
2.4173727128663
0.540763767989195
0.964368663002143
2.30585691214659
0.284502694425951
0.448627001036827
0.83377046700695
2.22937133566249
0.198257645118981
0.250782061918336
0.372226297038421
0.734113517515216
2.19977407716397
0.164433118332321
0.185382599532933
0.226530375791442
0.323244799248839
0.643173341011848
2.19629238638525
0.147573085625241
0.157921817925451
0.176226451101666
0.210609043670364
0.291290092293433
0.570277826578438
2.1982771750453
0.137873504835368
0.143710679753137
0.15340812240998
0.169763997448302
0.200334087584285
0.271774363485477
0.518485442188808
2.19811323304673
0.131987046661984
0.135536314226603
0.141167627615181
0.150200672724125
0.165373069501817
0.194064082463114
0.260690332237996
0.487295030481552
2.19655537518424
0.12844692390016
0.130659712156782
0.134092255839217
0.139472008539315
0.148078560779466
0.162728176626144
0.190811817324829
0.256488827780427
0.482442784763043
2.19535425673861
0.126475595332226
0.127802028221315
0.129896677836463
0.13319814482833
0.138410978235055
0.146835080329001
0.161320400703441
0.189228837890877
0.254545633451769
0.479083022030052
2.1949890283453
0.125598796210349
0.126297412280643
0.127505899955978
0.129507587666559
0.132733759365875
0.137879279038412
0.146235807847937
0.1606153459314
0.188253899048615
0.252772345768985
0.475064243519327
2.19518412950551
0.125497201106955
0.125738651331371
0.126329445134284
0.127467141868875
0.129438073478228
0.132655632304417
0.137788949036268
0.146093478879331
0.160301736186545
0.187460887398067
0.25071413675184
0.469948666102269
2.19486760023708
0.125939720867518
0.125848404951666
0.125998667919
0.126541128765303
0.127681343433652
0.129685615072236
0.132937255536815
0.138073982431735
0.146301998075311
0.160249926123051
0.186726159660052
0.248257599042736
0.463407156956384
2.19192682148663
0.126752494371102
0.126425062814063
0.126261465286941
0.126388003420937
0.126965513514164
0.128178536364587
0.130261073966723
0.133573231213409
0.138723507299955
0.146861955636575
0.160496869507244
0.186144497323885
0.245518075806191
0.455640135184568
2.18619129940061
0.127804408913511
0.127318350585805
0.126936404068798
0.126773595317279
0.126967452371149
0.127658196736727
0.128998718449364
0.131195929423411
0.134605790043274
0.139809807850581
0.147901692373479
0.161264433477993
0.186077644009704
0.243158228043233
0.448833975817068
2.18721736146907
0.128997254865126
0.128414640907017
0.127888682864873
0.127529946201862
0.127464346655196
0.127808918418263
0.128677302262943
0.13020651439523
0.132564717372325
0.136151959397302
0.141520978621843
0.149726541192878
0.163054948725581
0.187410316484541
0.243299046094142
0.449512810636875
2.21610814409181
0.134492545431265
0.13843871877134
0.144221407922705
0.152932314736684
0.166886690652288
0.192067341961461
0.249794358169424
0.46413128981789
2.28699453242711
2.49631298205334
1.19691018073632
2.42906369191476
0.627365945683446
0.99168937316543
2.32324422011512
0.329093624918136
0.507307276738344
0.86610872731521
2.23283063618936
0.216515817611868
0.278225501877103
0.411662773835655
0.774920274884562
2.20045047515796
0.174305499066957
0.196291894539793
0.242030716953688
0.349579927465691
0.687520397868833
2.1996185112741
0.153951728452737
0.163551764502405
0.182255423258704
0.218840346101021
0.307119597287615
0.609367144278597
2.20253541884279
0.142000239350715
0.147073732786965
0.156335270623514
0.172650614814579
0.204043092576762
0.279721977307076
0.545112464507603
2.20133141014048
0.134458678609778
0.137545325814286
0.142724537050687
0.151347219038614
0.166194815455319
0.194855113136615
0.262914048448824
0.498665306318399
2.19839046315416
0.129800053158798
0.131756276757124
0.13484380117777
0.139816443369715
0.147963889785808
0.162076674147409
0.189434423260607
0.253798726445033
0.477619877609759
2.19622484771915
0.127106726020203
0.128278611453977
0.130138378364892
0.133125100944032
0.137950007855835
0.145905015636257
0.159787556787501
0.186818347970474
0.250736760790052
0.473519128884073
2.19534906699734
0.125761699640874
0.126349761846176
0.127393924268728
0.129167500449597
0.132101224429723
0.136889894523845
0.144809348492448
0.158622436148529
0.185461557010324
0.24877138641534
0.469499720814903
2.19531857703927
0.125354975616853
0.125503515117638
0.125970235553187
0.126940795351445
0.128696882653355
0.131651613250889
0.136469797699431
0.144389612870002
0.158103151513276
0.18457433139203
0.246779909720104
0.464571788148317
2.19491497029936
0.12560401515891
0.125424744042871
0.125471963162339
0.125885402834281
0.126864964247816
0.128675922473213
0.131699470633962
0.136566601370585
0.144467422849045
0.157996218756664
0.183886665583654
0.244500796618397
0.458378855574802
2.19194619497417
0.1263004614279
0.125884801116324
0.125628300070467
0.125648002271431
0.126099236359429
0.127165566109325
0.129081476115319
0.132201356740342
0.137126172885686
0.144991734684546
0.158275857538502
0.183425223235057
0.241994320247732
0.451033789772251
2.18619374460913
0.127286601574706
0.12671141554083
0.126241781262243
0.12598516901024
0.126074032854721
0.126646800737765
0.127857667832635
0.129918820051226
0.133170988351427
0.138189637076541
0.146057078689916
0.159128311460116
0.183509582498144
0.239816427335513
0.444087627368112
2.18721720707518
0.128444569514592
0.127774421243065
0.127164861209926
0.126720905001436
0.126564645372998
0.126810842597205
0.127571122149939
0.128982583741239
0.131245113038336
0.13470514407333
0.139923355007891
0.147947472756851
0.161034715226628
0.184984721956465
0.239839045330387
0.443770603967525
2.21610744847733
0.129687896282883
0.128975399222316
0.128285464480887
0.127723971366636
0.127409179830679
0.127443993652976
0.127918565587201
0.128935945693067
0.130635697659501
0.133193264712695
0.137018102143222
0.142678010806961
0.151248865963053
0.165017353713901
0.189862717996695
0.246831943980861
0.459452972884361
2.28699433563476
0.13598920525179
0.140505565444012
0.147113563807719
0.157109957944181
0.173245756312989
0.202722582842716
0.271986539517618
0.527466458468696
2.38167841478807
2.9257182698255
1.29554654287453
2.45521496417358
0.713882968919463
1.02369659681171
2.36164640503656
0.391182185490783
0.567839192536166
0.889435020060356
2.25286416828756
0.245149874445131
0.31714026541097
0.454808924615807
0.801206428982177
2.20328040595438
0.190584733145305
0.213451010998344
0.26433860161064
0.380037798681775
0.720223379333009
2.20047594530486
0.165458870727713
0.172976913811071
0.191859233125222
0.231101721548575
0.327028384285422
0.64466800467969
2.20624860229321
0.150005079401581
0.15318684190235
0.161441477665204
0.177598550270306
0.210161839187047
0.291238852523027
0.575756498389422
2.20577739641055
0.139436529453378
0.141511169403725
0.145800635590095
0.153772737188063
0.168250789013833
0.197165950158571
0.268001039932085
0.517978201555565
2.20165618848028
0.132606608183588
0.134136604674164
0.136674178738977
0.141077144598239
0.148673532370333
0.162272822379131
0.189222837851829
0.253699500551552
0.478614997145206
2.19806457113579
0.128598586112423
0.129581343776478
0.131123837540838
0.133691048904603
0.138030514572503
0.145441941739668
0.158674196876035
0.18478347521055
0.247147092990964
0.467900177909145
2.19621981469697
0.126477910283252
0.126950859108327
0.127798659861092
0.129286579145691
0.131857005645292
0.136216375087869
0.143627957806853
0.156796468646211
0.182725469544226
0.24465778365309
0.46369373220163
2.19568149105559
0.125591493502585
0.12564647180508
0.125973988333452
0.126744844384022
0.12823896230645
0.130875426587341
0.135318811833973
0.142789183399353
0.155931772452868
0.181617238895766
0.242650135709751
0.458900171625613
2.19505380550317
0.1255383342011
0.12526799930483
0.125202183824966
0.125466348057707
0.126254091041915
0.127831778797193
0.130581774017344
0.135129744847528
0.142648743387908
0.155696017723679
0.180926923707437
0.240534440960958
0.453104859179539
2.19199683827929
0.12604935984037
0.125537657402569
0.125178357183006
0.125076417900909
0.125380112563971
0.126271807015043
0.127986695282488
0.130876776776649
0.135536167928482
0.143085923551882
0.155972918073226
0.180574314120504
0.238296571388656
0.44638992999389
2.18621249781237
0.12692712747188
0.126249755508947
0.125680181705961
0.125316229115502
0.125283883908263
0.125719424469243
0.126777550571573
0.128670932850571
0.131734512172695
0.136536855088035
0.144148038774473
0.156896887368547
0.180827482895861
0.236434500090661
0.440108826446678
2.18722116427642
0.128024235023087
0.127248248597788
0.126539598124726
0.125995968018762
0.125734195131812
0.125866536499893
0.126503895901454
0.127784667683886
0.129913938977455
0.13322330986307
0.138268606023201
0.146088839537999
0.158917110837447
0.182479753825192
0.236614046218285
0.439694398346732
2.21610681721688
0.129233392173549
0.1284162049048
0.127629184454688
0.126973191219252
0.126563020825989
0.126499666841855
0.126871652037395
0.127779865225118
0.129363826243092
0.131830859190547
0.135537648695348
0.141061716867877
0.149474822550978
0.163034635262527
0.187496265290554
0.243607763878364
0.45440602598015
2.28699422060006
0.130478789254812
0.129666885704737
0.128852007805922
0.128139207789769
0.1276445113794
0.127464505617559
0.127677085712656
0.128365990532496
0.129644344001037
0.131671756414355
0.134655516572159
0.139061141888237
0.145563945090461
0.155448912837063
0.171444210160328
0.200716160652235
0.27008602962742
0.528476453201582
2.38167751245985
0.138787740858197
0.144497099804529
0.153018949915169
0.166389500779271
0.189286343097762
0.235854044441369
0.37321165742947
0.914411037241805
3.68516580399512
2.94890112223629
2.93624876935594
0.878312481548361
1.15760352452731
2.41074114632021
0.476175170308939
0.63537546810951
0.927240877909443
2.30196937991196
0.289616692270904
0.368636430042616
0.500966521723635
0.820409566588344
2.2231212117153
0.216828001799105
0.239934523303327
0.294966487598131
0.413591995981319
0.741908018051759
2.20294350372899
0.185804422561712
0.188423441321097
0.206700352847366
0.248429738230468
0.349887435898966
0.670850778972367
2.20741119446383
0.165682797485607
0.164122520326775
0.169934398242548
0.185450333391265
0.219238369776497
0.305569793989617
0.603500634672955
2.20974604523943
0.149670031325829
0.149137653943328
0.151379244771643
0.158079161784532
0.171957511248095
0.201267762129807
0.275670539232344
0.540679259029196
2.20619056007993
0.13829570435469
0.138906924139268
0.14031531895307
0.14369261029254
0.150469674230791
0.163461946096592
0.190198100507181
0.256056461144489
0.489496195083142
2.20134560439283
0.131570515506369
0.132288919965959
0.133313927308331
0.135230068492641
0.138901520067064
0.145658339330674
0.158213472178784
0.18351248154378
0.244513977984974
0.462778550019185
2.19805979278028
0.128033161640125
0.12839400240884
0.128990607439458
0.130088767692815
0.132177260518682
0.136000242734103
0.142814316035805
0.155255872724653
0.180161501072603
0.240509080994368
0.457694741100059
2.19655342292587
0.126364982854252
0.12633430667458
0.126505705635783
0.127029772858837
0.128192705064865
0.130433498361618
0.134424465652646
0.141366552557405
0.153848026775924
0.178629325092422
0.238336231378242
0.452954523802438
2.1954216347598
0.125843751152255
0.125485229550875
0.125297955390955
0.125387938293972
0.125942520282223
0.12723427069344
0.129652188375066
0.133818871402939
0.14088876688718
0.153377612051168
0.177857446556119
0.23635109061671
0.447599528437238
2.19214133690418
0.126069155039316
0.125457368604725
0.124987077550271
0.124747066481643
0.124876695719053
0.125558105895357
0.127029542939473
0.129643223885387
0.133987364128069
0.141167803460104
0.153599640650532
0.177590099461053
0.234406178307044
0.441692266590556
2.1862668380172
0.126777558542599
0.125986620826531
0.125305814881771
0.124820279447986
0.124647499580221
0.124921098967426
0.1257964668416
0.127486819172728
0.130324409064317
0.134871723790919
0.142186955419411
0.154574629890935
0.17802488685647
0.232970504741239
0.436585179848623
2.18723936276593
0.127778052922849
0.126878232092415
0.126054921014127
0.125396385400983
0.125012470241651
0.125012187364968
0.125505710595818
0.126631944575227
0.128596332137943
0.131725108072996
0.136568798914018
0.144158295486621
0.156709440714707
0.179909314199914
0.233601217740772
0.437014061502583
2.21609764042036
0.128931998796671
0.127986416741614
0.12708255870933
0.126314677862498
0.125792522626457
0.125614303417497
0.125866962428578
0.12665056180294
0.128105784568264
0.130445406657207
0.134012217587535
0.13938131619263