/*--------------------------------*- C++ -*----------------------------------*\
  =========                 |
  \\      /  F ield         | OpenFOAM: The Open Source CFD Toolbox
   \\    /   O peration     | Website:  https://openfoam.org
    \\  /    A nd           | Version:  12
     \\/     M anipulation  |
\*---------------------------------------------------------------------------*/
/*   Windows 32 and 64 bit porting by blueCAPE: http://www.bluecape.com.pt   *\
|  Based on Windows porting (2.0.x v4) by Symscape: http://www.symscape.com   |
\*---------------------------------------------------------------------------*/
FoamFile
{
    format      ascii;
    class       surfaceScalarField;
    location    "500";
    object      phi;
}
// * * * * * * * * * * * * * * * * * * * * * * * * * * * * * * * * * * * * * //

dimensions      [0 3 -1 0 0 0 0];

internalField   nonuniform List<scalar> 
28893
(
1.24876358086962e-05
-3.62505197314034e-07
-6.91666541978754e-07
1.36789382088537e-05
-4.07212688373319e-07
-7.84087315648936e-07
3.81915255982953e-06
-5.14010431795935e-07
-2.15992130276571e-07
1.40434753855041e-05
-4.12213901793575e-07
-1.40214016509006e-06
1.50411159057297e-05
-4.69659848366949e-07
-8.92519497984481e-07
4.20945952784795e-06
-5.4796397114814e-07
-2.4955445322411e-07
1.53367410048044e-05
-4.65654261327843e-07
-1.61168512041295e-06
2.41695068160842e-06
-6.35118805714197e-07
-1.23436241172524e-07
4.8976175350826e-06
-6.1173794755099e-07
-4.6906231152308e-07
1.49965935105671e-05
-4.5816624092104e-07
-2.08906629664864e-06
1.65959629692488e-05
-4.97144538149158e-07
-1.05770224014372e-06
4.61142880508396e-06
-5.79505351859346e-07
-2.92117735418422e-07
1.68707150587714e-05
-5.3957694833778e-07
-1.88691089455812e-06
2.67110546359815e-06
-6.56626708600577e-07
-1.45492859779439e-07
5.3813049759587e-06
-6.50179879073769e-07
-5.48719623158046e-07
1.63268532963134e-05
-5.27477046151951e-07
-2.41447757005632e-06
2.11188229838902e-06
-7.5219197633801e-07
-9.36732841466231e-08
2.98381817876e-06
-7.61842803475949e-07
-2.61701170799235e-07
5.53484402398896e-06
-7.17180921833186e-07
-7.10123890399072e-07
1.61206003354114e-05
-5.17060379473169e-07
-2.77726575546064e-06
1.83817743572559e-05
-5.01032501761621e-07
-1.28477053420752e-06
5.04547984677313e-06
-5.80276406923036e-07
-3.50918970898059e-07
1.86595907909343e-05
-5.74974661913191e-07
-2.27157839362297e-06
2.93228406979753e-06
-6.67490535428997e-07
-1.73192819965252e-07
5.88537532683532e-06
-6.8322637705637e-07
-6.52530019370092e-07
1.78961602429686e-05
-6.0684597303539e-07
-2.84934537256511e-06
2.3345461911069e-06
-7.66691055057133e-07
-1.12599352690168e-07
3.28573372715751e-06
-7.85755260583745e-07
-3.11829022960376e-07
6.06567863446317e-06
-7.63859847750711e-07
-8.43170896823965e-07
1.75190041244495e-05
-5.92111822662271e-07
-3.22075369091689e-06
1.98913016850529e-06
-8.67523045360381e-07
-7.87245859192903e-08
2.52714248782069e-06
-9.02353916017175e-07
-1.98589700272554e-07
3.42374207089937e-06
-9.07514156506482e-07
-3.9639669201266e-07
6.13239002773513e-06
-8.17283468379531e-07
-9.52085085750891e-07
1.67778678654317e-05
-5.70112131835366e-07
-3.42580624556861e-06
2.04202176010296e-05
-4.70683807684015e-07
-1.56775855920331e-06
5.52057013757268e-06
-5.52656535172892e-07
-4.2346942517177e-07
2.0722584987033e-05
-5.79512938286733e-07
-2.76823112532184e-06
3.21429389471863e-06
-6.5425499465178e-07
-2.08031441096338e-07
6.42756347397621e-06
-6.82314247983914e-07
-7.8575792763259e-07
1.96902120318816e-05
-6.36083354901166e-07
-3.42953450957338e-06
2.57127499821127e-06
-7.68829663483141e-07
-1.35389241765723e-07
3.60032426059448e-06
-7.9667080660758e-07
-3.74337714647e-07
6.61825303657991e-06
-8.01582181559962e-07
-1.01036239644639e-06
1.91564597195235e-05
-6.78617459783295e-07
-3.80817517686658e-06
2.19806421712566e-06
-8.79987971201918e-07
-9.56367077859171e-08
2.78798939768654e-06
-9.19091567458995e-07
-2.40111238484992e-07
3.76323599323532e-06
-9.37502556496935e-07
-4.77677343053023e-07
6.7052345304075e-06
-8.71184373141641e-07
-1.13693939912669e-06
1.81820910000885e-05
-6.52050486324744e-07
-3.97290180233452e-06
1.90096913141633e-06
-9.78676721188593e-07
-7.05502237154475e-08
2.31956374804233e-06
-1.03659952679056e-06
-1.67523388430636e-07
2.89102304223836e-06
-1.07762117843924e-06
-3.06087438361212e-07
3.77948536632503e-06
-1.03957084192786e-06
-5.27206729152886e-07
6.49218066059884e-06
-8.86575733493765e-07
-1.19602423927136e-06
1.68050451745058e-05
-5.98658581396136e-07
-3.99611445212971e-06
2.26876114050966e-05
-3.80345643894569e-07
-1.88704050304366e-06
6.04414935484374e-06
-4.88874867601597e-07
-5.05389388187872e-07
2.3086673610051e-05
-5.48732665053522e-07
-3.38311153909317e-06
3.52376317566378e-06
-6.13283694988144e-07
-2.48841551073349e-07
7.01713199562607e-06
-6.49110436359838e-07
-9.43433289818366e-07
2.17124774381182e-05
-6.36727531221846e-07
-4.15375927825272e-06
2.8302525280273e-06
-7.50209822574063e-07
-1.63022923795823e-07
3.94074451182309e-06
-7.80106660358965e-07
-4.50656316715001e-07
7.21326029888825e-06
-8.00237926524696e-07
-1.21659833250449e-06
2.1003845503542e-05
-7.08246917824332e-07
-4.56865412875507e-06
2.42517435280952e-06
-8.80042910863562e-07
-1.15896724732686e-07
3.06737812916232e-06
-9.20999030007085e-07
-2.90447875199526e-07
4.11744999788502e-06
-9.52132476565095e-07
-5.78001206382819e-07
7.2977576904644e-06
-9.1438851771378e-07
-1.36709507359289e-06
1.9811691450914e-05
-7.44951617494285e-07
-4.69280748346137e-06
2.09927961460502e-06
-9.92394017180954e-07
-8.5904556119357e-08
2.56072918765031e-06
-1.05195815081821e-06
-2.03935595330719e-07
3.18580034176575e-06
-1.10005907985621e-06
-3.7233278255516e-07
4.1470774595313e-06
-1.0763841888102e-06
-6.40066804367444e-07
7.08022359969961e-06
-9.4704414103823e-07
-1.429971921913e-06
1.81437392008045e-05
-6.87682206108835e-07
-4.62390206018125e-06
1.8193863391156e-06
-1.08392656206975e-06
-6.57830866058652e-08
2.18515248031986e-06
-1.16339601217449e-06
-1.51408099817216e-07
2.63027259338547e-06
-1.23352467231933e-06
-2.62710882881559e-07
3.1629122089286e-06
-1.23240522322336e-06
-4.13546495278605e-07
3.93517876632091e-06
-1.12304974500467e-06
-6.52237046096682e-07
6.62715392586171e-06
-9.21426708595908e-07
-1.43002332934954e-06
1.63788112319544e-05
-6.10276367409379e-07
-4.4646161181743e-06
2.50860726050143e-05
-1.95945804547522e-07
-2.20252833861389e-06
6.63438508696563e-06
-3.75229760416906e-07
-5.9536028609961e-07
2.57919371456761e-05
-4.6425329944242e-07
-4.1280646716118e-06
3.86646520004025e-06
-5.36427601645632e-07
-2.95149416070203e-07
7.66276996162165e-06
-5.73743652555498e-07
-1.12601403495729e-06
2.39663466843566e-05
-6.00531149916295e-07
-5.03644210336441e-06
3.11766319236509e-06
-7.0515719627349e-07
-1.95536647039373e-07
4.31314042750828e-06
-7.3032043592738e-07
-5.40028116529901e-07
7.8571153627424e-06
-7.63215318788681e-07
-1.46078878043116e-06
2.30514429215684e-05
-7.07974268094465e-07
-5.49335192490316e-06
2.67670958008813e-06
-8.61445261878037e-07
-1.40299832034051e-07
3.37357810961622e-06
-8.98375709356968e-07
-3.50954365113609e-07
4.50082699049522e-06
-9.35500330242047e-07
-6.98768681706889e-07
7.93419548513291e-06
-9.14639792779364e-07
-1.64662757221707e-06
2.16249216110952e-05
-7.76105427014103e-07
-5.60574509697119e-06
2.31797742447719e-06
-9.94399149652081e-07
-1.04341273308863e-07
2.82416946229608e-06
-1.05248431853261e-06
-2.47852397285606e-07
3.50160532634086e-06
-1.10557466353681e-06
-4.52809633007073e-07
4.52967858898326e-06
-1.09634342109064e-06
-7.78644023219743e-07
7.68363742104047e-06
-9.95853606673648e-07
-1.7195993634808e-06
1.96808018099525e-05
-7.83556771788901e-07
-5.44628848506545e-06
2.00782887792636e-06
-1.10096815569107e-06
-7.98682061132118e-08
2.41259057423104e-06
-1.18108460190201e-06
-1.84216086492753e-07
2.90149734755311e-06
-1.25487731950353e-06
-3.2034216000283e-07
3.48097727180961e-06
-1.26165464596176e-06
-5.05126408753206e-07
4.30923080922548e-06
-1.1664010321831e-06
-7.94758007596366e-07
7.20547962060434e-06
-9.86948768084187e-07
-1.70902070576947e-06
1.76053371635224e-05
-7.01631266128955e-07
-5.14877761803783e-06
1.74269164147439e-06
-1.18287374043068e-06
-6.26580087289287e-08
2.08083617881402e-06
-1.28240478753822e-06
-1.42449988359856e-07
2.46544963461192e-06
-1.37770674018525e-06
-2.40353432838949e-07
2.85709084895734e-06
-1.40433037793669e-06
-3.6124795615307e-07
3.25712626055441e-06
-1.32527704245035e-06
-5.16267190324337e-07
3.94031636946168e-06
-1.16136444046622e-06
-7.67298351283767e-07
6.62727156822289e-06
-9.36294367827267e-07
-1.64323433618124e-06
1.57373008633603e-05
-6.18062347223483e-07
-4.81742323937359e-06
2.7507975586209e-05
1.04435154915437e-07
-2.52635939043482e-06
7.32675308979276e-06
-1.93457268447624e-07
-6.9486633219945e-07
2.89302596707429e-05
-2.93948965361826e-07
-5.04695112232547e-06
4.24949369696657e-06
-4.11382011505373e-07
-3.46877103948383e-07
8.38172932666129e-06
-4.3873896194116e-07
-1.33983666868892e-06
2.64345698522801e-05
-4.97451038607267e-07
-6.09884888982937e-06
3.44083724479364e-06
-6.26101873616637e-07
-2.33500290022719e-07
4.72592342381879e-06
-6.38413650314015e-07
-6.43263329695735e-07
8.55530202997494e-06
-6.78804082374921e-07
-1.74591115789608e-06
2.52905143370743e-05
-6.68499118220083e-07
-6.60701178937102e-06
2.95915366258339e-06
-8.18179473898131e-07
-1.69422257690026e-07
3.71352576914512e-06
-8.43381100201133e-07
-4.22425627393847e-07
4.91899711365797e-06
-8.80854014610831e-07
-8.40556936932205e-07
8.61997253332148e-06
-8.76298927548875e-07
-1.97822776760861e-06
2.35942698972103e-05
-7.66002317619158e-07
-6.69666170079921e-06
2.56274482743215e-06
-9.7953549879738e-07
-1.26676905103505e-07
3.11677727200211e-06
-1.03058420072622e-06
-3.00699994440096e-07
3.84751648469885e-06
-1.08317488005371e-06
-5.49191343816346e-07
4.94303174321655e-06
-1.082273053334e-06
-9.44486242083364e-07
8.32798527636487e-06
-1.0000632214927e-06
-2.06699467237033e-06
2.13626431525319e-05
-8.16654861282519e-07
-6.47088592408046e-06
2.21776873594157e-06
-1.10750292074884e-06
-9.68363385194078e-08
2.66449885777047e-06
-1.18489272949652e-06
-2.23840666690897e-07
3.19766186978745e-06
-1.25950044719709e-06
-3.90091361426949e-07
3.82075024018663e-06
-1.2727025205911e-06
-6.16223768124956e-07
4.69652820183684e-06
-1.19270939869126e-06
-9.69081638871671e-07
7.79445784967951e-06
-1.04036457347648e-06
-2.05175004598839e-06
1.89990866336321e-05
-7.97988962026088e-07
-6.04202181243367e-06
1.92218892412042e-06
-1.2047910931834e-06
-7.56738610532191e-08
2.29721599757882e-06
-1.30480490272772e-06
-1.72527127321009e-07
2.72048915029717e-06
-1.40199044809012e-06
-2.92141921589756e-07
3.14853759625864e-06
-1.43268977609167e-06
-4.40753219325399e-07
3.57853856517961e-06
-1.36116556490686e-06
-6.31774542457456e-07
4.30459540359618e-06
-1.20999733513195e-06
-9.35984690104548e-07
7.18160690386268e-06
-1.00508822283956e-06
-1.95987928395869e-06
1.68326398436721e-05
-7.11455291578757e-07
-5.53263997639843e-06
1.67139576654059e-06
-5.99638699871181e-08
1.99097712649501e-06
-1.39437499023879e-06
-1.36199589362455e-07
2.34813068884767e-06
-1.51246721079953e-06
-2.27722377870216e-07
2.67143319525225e-06
-1.56141295894528e-06
-3.34155873374008e-07
2.92937218822722e-06
-1.50381653825306e-06
-4.56690623345987e-07
3.23018692660591e-06
-1.36496049735884e-06
-6.09785663864039e-07
3.87956288168307e-06
-1.17640026171432e-06
-8.68553444980174e-07
6.57324555812458e-06
-9.45315869394443e-07
-1.83170493791779e-06
1.50362086684489e-05
-6.2720076922288e-07
-5.04931644640903e-06
2.99805722756539e-05
5.37077540941799e-07
-3.00971030872162e-06
8.16178920880746e-06
8.17766373679807e-08
-8.12409749264665e-07
3.26600293195246e-05
-2.16928812126264e-08
-6.23452185345852e-06
4.68427227247564e-06
-2.21804464042914e-07
-4.06434670297935e-07
9.20641946196884e-06
-2.23516440592321e-07
-1.59000994102446e-06
2.90751333760831e-05
-3.03906049020458e-07
-7.38362270039036e-06
3.80691099536322e-06
-4.9895772387017e-07
-2.78498849137059e-07
5.18665818231568e-06
-4.83733643607385e-07
-7.62619969347011e-07
9.325706073493e-06
-5.25797248440904e-07
-2.0818905541037e-06
2.76774539393887e-05
-5.50461897567392e-07
-7.9352939706371e-06
3.27926221848031e-06
-7.42056265402145e-07
-2.04154800441776e-07
4.09624569993566e-06
-7.48431242835177e-07
-5.06203508199766e-07
5.38157208620424e-06
-7.78730163579587e-07
-1.00591010430269e-06
9.35699077878834e-06
-7.86619384559783e-07
-2.36478253042092e-06
2.57020060327197e-05
-7.27003102771237e-07
-7.98771502240427e-06
2.84034851773908e-06
-9.42054197528571e-07
-1.5372887345122e-07
3.44646157385864e-06
-9.78394102404503e-07
-3.64094427781472e-07
4.2312796696566e-06
-1.02368009732333e-06
-6.63362225724561e-07
5.39257927897683e-06
-1.0268510781572e-06
-1.13954481938458e-06
9.02277471014832e-06
-9.6385899212205e-07
-2.4751471414698e-06
2.31567761652239e-05
-8.12363336738174e-07
-7.67839174061745e-06
2.45489056612974e-06
-1.09911331110326e-06
-1.17543808468841e-07
2.94748789133892e-06
-1.16843826981074e-06
-2.71811655997984e-07
3.52634255567331e-06
-1.23864054791422e-06
-4.7391550726348e-07
4.19191706104962e-06
-1.25361532601903e-06
-7.49014395748455e-07
5.11329554256235e-06
-1.18461578194043e-06
-1.17669491464569e-06
8.41998543096856e-06
-1.0496111539846e-06
-2.45954637964426e-06
2.04970981410331e-05
-8.3051190976237e-07
-7.13833720108254e-06
2.12366725512647e-06
-1.21764611160563e-06
-9.13348861410499e-08
2.53935053370749e-06
-1.31490134069835e-06
-2.08961632994805e-07
3.0027889054406e-06
-1.4107460330325e-06
-3.54894830102121e-07
3.46584229887916e-06
-1.44321282998988e-06
-5.36885414751317e-07
3.92016631017056e-06
-1.37902284996027e-06
-7.71536689246097e-07
4.67902042162296e-06
-1.24223799278426e-06
-1.14162809204703e-06
7.74079605289763e-06
-1.06215819072746e-06
-2.34675498098568e-06
1.8062977926231e-05
-8.08217478231991e-07
-6.46411852380412e-06
1.8429357866366e-06
-1.30425032233516e-06
-7.20806625879148e-08
2.19781523866265e-06
-1.42335056838979e-06
-1.63965714812314e-07
2.59114698295155e-06
-1.54231009386455e-06
-2.75223171484309e-07
2.94525123067773e-06
-1.59303337783248e-06
-4.05615610275219e-07
3.22330900572739e-06
-1.53877686042112e-06
-5.57078962636315e-07
3.54115662295342e-06
-1.40634186977708e-06
-7.46397298466695e-07
4.22676297349358e-06
-1.22932921847984e-06
-1.05893903511068e-06
7.09754818409544e-06
-1.0172876822395e-06
-2.17834317801497e-06
1.59974595094569e-05
-7.23189434810827e-07
-5.77069173626505e-06
1.90868481526744e-06
-1.3019799494118e-07
2.25204055912294e-06
-1.63972914012743e-06
-2.18202589832969e-07
2.54777564590868e-06
-1.70832056430867e-06
-3.18155848502007e-07
2.73979957306971e-06
-1.66664403120298e-06
-4.25764214887632e-07
2.89907872146218e-06
-1.54442004590237e-06
-5.43980766600983e-07
3.15863440316581e-06
-1.37901039234234e-06
-6.91472659106159e-07
3.80410558366554e-06
-1.18458730368215e-06
-9.5474892513719e-07
6.51289196997173e-06
-9.54205539740985e-07
-1.99524724483982e-06
1.43526671011497e-05
-6.39901586999491e-07
-5.15970395254814e-06
3.26983417096063e-05
1.18075328795045e-06
-3.89857974110509e-06
9.18664246172111e-06
4.85736602375823e-07
-9.73565814362085e-07
3.69930430976221e-05
4.32738776248545e-07
-7.77563370628952e-06
5.18579829488818e-06
5.70427151856411e-08
-4.76797041627988e-07
1.0165323257388e-05
1.03734270098422e-07
-1.89677829375989e-06
3.17670825453745e-05
1.81557478843328e-08
-8.94467632210746e-06
4.22703337885829e-06
-3.09655122939413e-07
-3.32272816487736e-07
5.71017209488343e-06
-2.50710281332605e-07
-9.02762202223552e-07
1.01931220500258e-05
-2.82278569834187e-07
-2.47905712386708e-06
3.01383755355606e-05
-3.37578166439997e-07
-9.50696093356249e-06
3.64844306713957e-06
-6.21317916271308e-07
-2.46821209388607e-07
4.53060859037925e-06
-5.8907158148566e-07
-6.07527333740503e-07
5.89602136489778e-06
-6.03163208999849e-07
-1.1997027210709e-06
1.01649661428772e-05
-6.2179459830284e-07
-2.81851556584692e-06
2.7884840336567e-05
-6.09310133501758e-07
-9.50876704440276e-06
3.15941776141031e-06
-8.74357723225343e-07
-1.86768007593763e-07
3.82037755134772e-06
-8.85597598113468e-07
-4.4090570766475e-07
4.66103985619265e-06
-9.16337083037411e-07
-7.98357310659885e-07
5.88829192852813e-06
-9.20866729732278e-07
-1.36737242732147e-06
9.76314986019432e-06
-8.76185310172265e-07
-2.95595121850035e-06
2.50229576248883e-05
-7.61254849566353e-07
-9.09260700965716e-06
2.726400407708e-06
-1.07067402673514e-06
-1.42889854589691e-07
3.26973486528054e-06
-1.12435294722774e-06
-3.30016848880643e-07
3.89612507043753e-06
-1.18308230749442e-06
-5.7447473970792e-07
4.6027597778667e-06
-1.19450075313464e-06
-9.065546586849e-07
5.56550500448201e-06
-1.13504005949413e-06
-1.42056780111724e-06
9.08915349152299e-06
-1.019940718156e-06
-2.93671934452635e-06
2.20587564674848e-05
-8.27382738170188e-07
-8.4126524056628e-06
2.35300721147094e-06
-1.21783608853803e-06
-1.10616941740557e-07
2.81403322580964e-06
-1.30729017510178e-06
-2.53373418133052e-07
3.3196792179096e-06
-1.39658133025621e-06
-4.30760973124025e-07
3.81692369214322e-06
-1.42636677226616e-06
-6.52245437383956e-07
4.29148327616663e-06
-1.36679417363066e-06
-9.38150873850952e-07
5.07959188144564e-06
-1.2414320777067e-06
-1.38544174567532e-06
8.33147901871588e-06
-1.076564201987e-06
-2.80416576745597e-06
1.93584886600846e-05
-8.41296503459052e-07
-7.59251133042841e-06
2.03671727303665e-06
-1.3248837007121e-06
-8.65434389701933e-08
2.43114748775167e-06
-1.4418490295443e-06
-1.97718957913679e-07
2.86288159198599e-06
-1.55847150233639e-06
-3.32970097048762e-07
3.24745188548512e-06
-1.60817820387277e-06
-4.92129496140581e-07
3.54175774047962e-06
-1.55618226797483e-06
-6.78173323726745e-07
3.86947643111337e-06
-1.43083639895893e-06
-9.11254669727685e-07
4.58046007522151e-06
-1.26699172080363e-06
-1.29048650207281e-06
7.62051332477448e-06
-1.07802494622808e-06
-2.59989329874928e-06
1.70630152267002e-05
-8.21554938929265e-07
-6.70808873205231e-06
1.76783225410673e-06
-1.40025761110208e-06
-6.81565256176711e-08
2.10686570330907e-06
-1.53768391910208e-06
-1.55926914148312e-07
2.48511210258829e-06
-1.67731481932295e-06
-2.62032183046238e-07
2.80932101959465e-06
-1.74602466774374e-06
-3.83776456955672e-07
3.01633855391726e-06
-1.70478971385818e-06
-5.16140752080362e-07
3.18349494373779e-06
-1.58482025552491e-06
-6.63015392620928e-07
3.45364228274906e-06
-1.42502434846814e-06
-8.45707937095136e-07
4.13181957784369e-06
-1.24173694585643e-06
-1.16220046311914e-06
7.00559400665009e-06
-1.03009435249038e-06
-2.36413135695528e-06
1.51838673983359e-05
-7.39518310342201e-07
-5.86236559879989e-06
2.16399072213661e-06
-2.08401351110748e-07
2.4495915882896e-06
-1.84776890100321e-06
-3.05141553919319e-07
2.61976597515334e-06
-1.81934162525463e-06
-4.06888897277258e-07
2.71543659669241e-06
-1.70824465223215e-06
-5.10148077882933e-07
2.83295804608837e-06
-1.55738511728008e-06
-6.2097466381428e-07
3.08209600525315e-06
-1.38550269450452e-06
-7.60939190032029e-07
3.73311074545998e-06
-1.19173102760489e-06
-1.0265370558157e-06
6.47449744494068e-06
-9.64528065466699e-07
-2.13672121904969e-06
1.37175587833708e-05
-6.56563086354983e-07
-5.14934330969843e-06
3.58268741928195e-05
2.15494292614605e-06
-5.28356784539026e-06
1.04943635789224e-05
1.07645436887363e-06
-1.2034901084336e-06
4.12940335167587e-05
1.28293329032897e-06
-9.48272726228115e-06
5.77363200707206e-06
4.6106138406835e-07
-5.63166461180009e-07
1.13072043306254e-05
5.96602594768614e-07
-2.27936124893325e-06
3.42122315332302e-05
5.46709191812959e-07
-1.07675636985996e-05
4.71541137783506e-06
-3.32898238888417e-08
-3.98048448978478e-07
6.31400556971936e-06
9.42527933113983e-08
-1.07115922317581e-06
1.1187325014296e-05
8.94142769657612e-08
-2.96225342780092e-06
3.25087963524816e-05
2.07264956124087e-08
-1.13358402452132e-05
4.07843920984206e-06
-4.40689905473764e-07
-2.98962735647954e-07
5.03028664033679e-06
-3.5374255932077e-07
-7.289247409908e-07
6.47892789104618e-06
-3.38762084663278e-07
-1.42919050130515e-06
1.10635337803946e-05
-3.60057411699474e-07
-3.35514447694068e-06
3.0044079484511e-05
-3.96493494129546e-07
-1.1269678146426e-05
3.53179593498324e-06
-7.66028520018e-07
-2.27668528654637e-07
4.2542835801067e-06
-7.36522693121793e-07
-5.33277330207858e-07
5.14959791728416e-06
-7.38572577994869e-07
-9.60677885725492e-07
6.43750714329572e-06
-7.34153064636807e-07
-1.63656115181828e-06
1.05688161954827e-05
-7.15587148979474e-07
-3.51787710350039e-06
2.68964025472147e-05
-6.53310711113385e-07
-1.07288528740376e-05
3.04198284984698e-06
-1.01564812482116e-06
-1.74292011161028e-07
3.64163632440296e-06
-1.04298051117227e-06
-4.01287179983216e-07
4.31579820346657e-06
-1.08084195691715e-06
-6.96073951467301e-07
5.05984776642571e-06
-1.08212276965026e-06
-1.09418818252185e-06
6.06026716523001e-06
-1.03096194576552e-06
-1.70735658807746e-06
9.80182601999522e-06
-9.34516454622072e-07
-3.49534506412386e-06
2.36364003034875e-05
-7.83517948999299e-07
-9.88669366078713e-06
2.61777292307571e-06
-1.20100836682031e-06
-1.3443092928246e-07
3.1300577505866e-06
-1.27547878698172e-06
-3.07788134767825e-07
3.68019431474235e-06
-1.35092799882176e-06
-5.2268683662746e-07
4.21050479950769e-06
-1.37213719597459e-06
-7.90419844698665e-07
4.69997751625989e-06
-1.31471158901841e-06
-1.13537683037032e-06
5.51116538483986e-06
-1.20131354766852e-06
-1.67075976742094e-06
8.95908414139687e-06
-1.05439802865243e-06
-3.33728123915659e-06
2.06757151915225e-05
-8.41493382814291e-07
-8.88835651124976e-06
2.25866787199674e-06
-1.33529569507461e-06
-1.04490631745942e-07
2.69804920195903e-06
-1.44562301393803e-06
-2.39184469943098e-07
3.17090485935665e-06
-1.55472095641332e-06
-4.03256932225829e-07
3.58568392862333e-06
-1.59880682033866e-06
-5.96551764372391e-07
3.89230163609217e-06
-1.54643750606281e-06
-8.23147655054073e-07
4.22399012360528e-06
-1.42690026174385e-06
-1.10719507334912e-06
4.95612857013596e-06
-1.27368104621816e-06
-1.56398810809177e-06
8.16924908670808e-06
-1.09843470156116e-06
-3.09574599429384e-06
1.81590605864854e-05
-8.57517333400183e-07
-7.83102667823842e-06
1.95437875475904e-06
-1.42990048990201e-06
-8.15293580715782e-08
2.33195027031584e-06
-1.56633460592932e-06
-1.87141737343653e-07
2.74783475482746e-06
-1.70327825611334e-06
-3.15633738672664e-07
3.10093708989065e-06
-1.76925128321613e-06
-4.63512281224142e-07
3.32008474139444e-06
-1.72674676695264e-06
-6.25311178334846e-07
3.48962643897496e-06
-1.60889158086303e-06
-8.06247820975171e-07
3.76251693136262e-06
-1.45573501599446e-06
-1.03138290190223e-06
4.46241755035789e-06
-1.2851161213659e-06
-1.41398210172452e-06
7.49066999353423e-06
-1.09541564013105e-06
-2.81108778824906e-06
1.60915479041118e-05
-8.40700677218847e-07
-6.77504200862589e-06
1.69263399165183e-06
-1.49357110514316e-06
-6.33883261463712e-08
2.01913431905048e-06
-1.64907228633067e-06
-1.46843886410943e-07
2.38793162306249e-06
-1.80829661812157e-06
-2.48885056742967e-07
2.7012643964515e-06
-1.89404440385214e-06
-3.65684052545975e-07
2.88476300248811e-06
-1.86356875931053e-06
-4.89993039002059e-07
2.98365201890034e-06
-1.75160185890337e-06
-6.17572075853515e-07
3.10318134199462e-06
-1.60243524470785e-06
-7.55827121867664e-07
3.3598688681499e-06
-1.43603063943711e-06
-9.29184884596773e-07
4.04078957973033e-06
-1.25353036468582e-06
-1.24643727697935e-06
6.93641762762777e-06
-1.04528057476829e-06
-2.52027921675823e-06
1.4424147573804e-05
-7.6088749560098e-07
-5.80805964348449e-06
2.35880731042955e-06
-2.91088671309017e-07
2.52576091464997e-06
-1.96472319240179e-06
-3.9070922714972e-07
2.6033353492361e-06
-1.86206794006408e-06
-4.89263150328437e-07
2.65800536006553e-06
-1.72009806635308e-06
-5.85567336947437e-07
2.76411267831467e-06
-1.56197455567412e-06
-6.87636922773884e-07
3.011903468335e-06
-1.39015903388103e-06
-8.19084699395342e-07
3.67430337973699e-06
-1.19886697971333e-06
-1.08597937093187e-06
6.47853932641638e-06
-9.77130002703668e-07
-2.2604194658985e-06
1.31354999684933e-05
-6.78232248468616e-07
-5.01457294674234e-06
3.89808651966524e-05
3.67804798165504e-06
-6.83215508764798e-06
1.22296913764354e-05
1.9372486090373e-06
-1.51773963918946e-06
4.4138827666617e-05
2.76190595284815e-06
-1.08905817798689e-05
6.47651664625336e-06
1.04319738981288e-06
-6.69642303799879e-07
1.27831234987615e-05
1.33791618353344e-06
-2.73448334872267e-06
3.59391434147867e-05
1.41587618658719e-06
-1.26256530765995e-05
5.29168381929544e-06
3.657791417798e-07
-4.80994620498918e-07
7.02545229341305e-06
5.98532408862024e-07
-1.27655938823448e-06
1.2368134743141e-05
6.45846193569321e-07
-3.55935481104256e-06
3.4493363330632e-05
6.12233635877761e-07
-1.33644073743512e-05
4.58681072652446e-06
-1.7729819173007e-07
-3.64365031859185e-07
5.61232959668959e-06
-8.21549893093286e-09
-8.77629081564865e-07
7.15004845107148e-06
5.30388049533575e-08
-1.70591280208707e-06
1.20848059595009e-05
3.84872711110578e-08
-4.00128121776594e-06
3.20047330872011e-05
-4.09887004036277e-08
-1.32555075595135e-05
3.9728257260118e-06
-6.02781790068652e-07
-2.78938720219023e-07
4.76141218987839e-06
-5.12139042718171e-07
-6.47698368851177e-07
5.71009627567134e-06
-4.71973382679436e-07
-1.15621563198419e-06
7.05736174083566e-06
-4.53481822282694e-07
-1.95562046671479e-06
1.14567467596716e-05
-4.5934510328212e-07
-4.18021509938889e-06
2.86689910700132e-05
-4.56130066975123e-07
-1.25860997222904e-05
3.41483875016613e-06
-9.25181804830487e-07
-2.13702503672103e-07
4.07784715938659e-06
-9.10976889936372e-07
-4.894258781545e-07
4.80146567280418e-06
-9.1459456395185e-07
-8.42924944125742e-07
5.57888234901901e-06
-8.97372467683401e-07
-1.31649685889508e-06
6.60692163944112e-06
-8.55909906040771e-07
-2.04288789110202e-06
1.05710231567436e-05
-7.93217803645809e-07
-4.14714941733692e-06
2.51615762076909e-05
-6.86525348673236e-07
-1.15674729996564e-05
2.92832700598945e-06
-1.16193987679609e-06
-1.64262394821459e-07
3.49922234540981e-06
-1.21121000897156e-06
-3.75227038329309e-07
4.09588169929291e-06
-1.26275883378616e-06
-6.35058214560687e-07
4.65670546035811e-06
-1.26761707667319e-06
-9.56781551505299e-07
5.15380902738448e-06
-1.20975644579388e-06
-1.36922470572741e-06
5.98311969510377e-06
-1.10980040217427e-06
-2.00401928305225e-06
9.62543483432738e-06
-9.8631432235053e-07
-3.95887558070085e-06
2.19628489594116e-05
-8.06467846659594e-07
-1.03673312268463e-05
2.51658554655529e-06
-1.33206209970599e-06
-1.26863723858984e-07
3.00783742972531e-06
-1.42924738046328e-06
-2.90449689913606e-07
3.52492378337013e-06
-1.52352149457443e-06
-4.89212632245488e-07
3.96927989978581e-06
-1.55564076832173e-06
-7.22779111883286e-07
4.28310834214199e-06
-1.49964275085567e-06
-9.96296076490716e-07
4.61120528662169e-06
-1.38556094757941e-06
-1.33834280944902e-06
5.35852491492419e-06
-1.24450282215987e-06
-1.88304516482842e-06
8.74861344889696e-06
-1.08591491151147e-06
-3.67221001097138e-06
1.92430433461432e-05
-8.63996767399809e-07
-9.10832705041099e-06
2.16916734274695e-06
-1.45188524094529e-06
-9.81986414740309e-08
2.59124387427173e-06
-1.58353208987419e-06
-2.25874534732289e-07
3.04812779534842e-06
-1.71281327516854e-06
-3.81384797634454e-07
3.43053193416105e-06
-1.77125289905681e-06
-5.60405558254507e-07
3.65829956708696e-06
-1.72444249810654e-06
-7.56760572742295e-07
3.82430220317073e-06
-1.60749232430941e-06
-9.77229396769423e-07
4.09340984996456e-06
-1.4603648513668e-06
-1.25140233877509e-06
4.81054115747401e-06
-1.29990808878765e-06
-1.71063465158878e-06
7.99527348495751e-06
-1.12306916179295e-06
-3.33478412984303e-06
1.69987218495249e-05
-8.81771809249244e-07
-7.85641501959202e-06
1.87181638694888e-06
-1.53342679273253e-06
-7.56557966535466e-08
2.23621448638664e-06
-1.68929253367148e-06
-1.75650925642532e-07
2.64207874599058e-06
-1.84611465932548e-06
-2.98451347232393e-07
2.98416268184407e-06
-1.92800646915725e-06
-4.39776007800887e-07
3.17884141481185e-06
-1.89357099635126e-06
-5.90764720720525e-07
3.27638761903372e-06
-1.77991838146876e-06
-7.4701706432569e-07
3.39170831931634e-06
-1.63279541147196e-06
-9.17713189706302e-07
3.64774200736367e-06
-1.47306778388918e-06
-1.13130156145547e-06
4.34775831525874e-06
-1.30335257351859e-06
-1.51300802628685e-06
7.38455605187119e-06
-1.11654018855798e-06
-2.98337919097746e-06
1.51827487051756e-05
-8.6773030158484e-07
-6.66587824598286e-06
1.6123947578575e-06
-1.58490230159478e-06
-5.7643191240774e-08
1.92942945288399e-06
-1.75827804744354e-06
-1.35832710815085e-07
2.29185246612328e-06
-1.93670480733968e-06
-2.33742486119847e-07
2.60129554140395e-06
-2.03844010847346e-06
-3.4697654690726e-07
2.78157205642222e-06
-2.01766476518958e-06
-4.67396908261173e-07
2.86115170109794e-06
-1.91120213858471e-06
-5.88207859465712e-07
2.91350628866014e-06
-1.76786731269991e-06
-7.07639887704044e-07
3.01910130289827e-06
-1.6115183355104e-06
-8.35327928176067e-07
3.2724478474545e-06
-1.44548124728617e-06
-9.97776429465754e-07
3.96244148594777e-06
-1.26594837187975e-06
-1.31389934385893e-06
6.91236680711251e-06
-1.0637823149322e-06
-2.65120089505171e-06
1.37211656687956e-05
-7.88400272458102e-07
-5.60530320738437e-06
2.4373965786832e-06
-3.72613422728758e-07
2.51623766019498e-06
-2.00857964077311e-06
-4.70716336704772e-07
2.55411930978901e-06
-1.87279833155954e-06
-5.63747556293344e-07
2.59774222605606e-06
-1.72271341208788e-06
-6.52053643654382e-07
2.70130243158274e-06
-1.56398428880313e-06
-7.44815877024759e-07
2.95107966952562e-06
-1.39374421445427e-06
-8.6757779964271e-07
3.63398029171638e-06
-1.20626953477046e-06
-1.13652301526233e-06
6.54342269113184e-06
-9.93292959467461e-07
-2.37207295317793e-06
1.25975061238946e-05
-7.08471778070346e-07
-4.74624220822919e-06
4.08886444547484e-05
5.69930816048701e-06
-7.60722750049168e-06
1.46211356831265e-05
3.17695631035136e-06
-1.89046534156629e-06
4.39158094789881e-05
4.9536475180208e-06
-1.15631176926312e-05
7.3375471825071e-06
1.87758010527329e-06
-8.01381895650785e-07
1.48615187054058e-05
2.43802364650627e-06
-3.27237264633533e-06
3.64079168859996e-05
2.76605081088861e-06
-1.41255875705873e-05
5.97889698065207e-06
9.39817149606254e-07
-5.83839440748727e-07