/*--------------------------------*- C++ -*----------------------------------*\
  =========                 |
  \\      /  F ield         | OpenFOAM: The Open Source CFD Toolbox
   \\    /   O peration     | Website:  https://openfoam.org
    \\  /    A nd           | Version:  12
     \\/     M anipulation  |
\*---------------------------------------------------------------------------*/
/*   Windows 32 and 64 bit porting by blueCAPE: http://www.bluecape.com.pt   *\
|  Based on Windows porting (2.0.x v4) by Symscape: http://www.symscape.com   |
\*---------------------------------------------------------------------------*/
FoamFile
{
    format      ascii;
    class       volScalarField;
    location    "100";
    object      k;
}
// * * * * * * * * * * * * * * * * * * * * * * * * * * * * * * * * * * * * * //

dimensions      [0 2 -2 0 0 0 0];

internalField   nonuniform List<scalar> 
10103
(
3.79532666876849e-06
3.75149951105989e-06
1.92268244872744e-05
2.3748916668501e-05
3.71570911381522e-06
1.93163686506206e-05
2.36731937938724e-05
4.95156772586232e-05
0.000122669285889646
6.69032137544588e-05
3.67137034949793e-06
1.93875752859196e-05
2.36018870227205e-05
4.98087167752524e-05
0.000122968253294869
6.68100419093846e-05
8.92655642978241e-05
0.000245110862587332
0.000254437291320736
0.000125643376890512
3.62004607599497e-06
1.93922147414359e-05
2.34845130522056e-05
4.99681560591322e-05
0.000123086019922139
6.66699510327171e-05
8.96147964885755e-05
0.000245451803208075
0.000254496298039234
0.000125497637307481
0.000134053098785907
0.000366462499953542
0.000435453076752312
0.00038882870759384
0.000189035100596125
3.56666294826538e-06
1.93509586878926e-05
2.33338389700346e-05
5.00035184731355e-05
0.000123047591271686
6.64389654858214e-05
8.97044232579947e-05
0.000245411306877091
0.000254244331312285
0.000125251698582731
0.00013438644647657
0.000366748847088697
0.000435526655602042
0.000388658993834032
0.000188846338240555
0.000181443918517679
0.000481231665284227
0.000603757002117747
0.000614393995903906
0.000518261111704693
0.000245109976971006
3.5123525276661e-06
1.92749815467587e-05
2.3166908339381e-05
4.99459949022306e-05
0.000122895836995912
6.61275558211686e-05
8.96090122931138e-05
0.00024507886115076
0.000253775379227768
0.000124864192670034
0.000134343277365101
0.000366478271526886
0.000435076338833265
0.000388101120430468
0.00018848021159089
0.00018171525715236
0.000481447049073298
0.000603802060422969
0.000614234700305587
0.000517934302436633
0.000244876785379461
0.000230035474914762
0.000588052507851244
0.000761468999276946
0.000819100080080564
0.000786563768603791
0.000636851607596623
0.000268913272042514
3.45486668660263e-06
1.91626624035854e-05
2.29834783726205e-05
4.97983559803021e-05
0.000122639419508391
6.57490217146634e-05
8.93593583754632e-05
0.000244499625019816
0.000253105588399564
0.000124275079825077
0.000134041985218428
0.000365778436478046
0.000434217808331962
0.000387216516154861
0.000187834666155362
0.000181517244028959
0.00048094724328508
0.000603119414802566
0.000613444955971223
0.000517137000251007
0.000244369744319183
0.000230227445060354
0.000588183606982622
0.000761454761298431
0.000818890158484463
0.000786171695344109
0.000636392171319028
0.000268721494291194
0.000277563991034489
0.000686643906527045
0.000907282876822149
0.00101017071980705
0.00102512317961698
0.000949601819121928
0.000742617970391893
0.000305278403174392
3.39214900969273e-06
1.90044411755026e-05
2.27707434849046e-05
4.95533851657292e-05
0.000122264112116171
6.52958255077695e-05
8.89507526380116e-05
0.000243667824596969
0.000252230155062991
0.000123599598655125
0.000133513592022673
0.000364689258253457
0.000432964986087048
0.000385973834541609
0.000186194007929905
0.000181002557440946
0.000479890443607816
0.000601846641008493
0.000612118514887997
0.000515843768640273
0.000243169900599693
0.00022987394694857
0.000587468741999491
0.000760528569720505
0.000817823323392525
0.000785050083140683
0.000635364238407335
0.000268319063420292
0.000277706902818805
0.000686704970796514
0.000907203983949726
0.00100987879563481
0.00102462214053507
0.000948963993527546
0.000742021190256387
0.000305039175327435
0.000320733053024869
0.000776236760498467
0.0010404273084999
0.0011867189841907
0.00124520735870785
0.00122156194801514
0.00110318777076542
0.000844402837841
0.000341770201389293
3.3190253926441e-06
1.87917992571994e-05
2.2517337363798e-05
4.91880444267758e-05
0.000121736569987061
6.47419790993842e-05
8.83617602534951e-05
0.000242557142431785
0.000251115791619245
0.000122791208291602
0.00013274662334397
0.000363194465853046
0.000431293492737427
0.000384451720511118
0.000185142919797872
0.000180191585865812
0.000478314851353491
0.000600000904268259
0.00061023924289105
0.000513810685744874
0.000236866658988705
0.000229142001220115
0.000586092866760289
0.000758849381630739
0.00081601778244573
0.000783254755295571
0.000633678528074557
0.000267588143574333
0.000277241821296893
0.000685812644848185
0.000906054565639608
0.00100852626728973
0.00102314791551599
0.000947495090102608
0.000740801992409921
0.000304580927687504
0.000320788500095533
0.000776261764192399
0.00104029896919006
0.00118634939902416
0.001244580528579
0.0012207346494438
0.00110227693039194
0.000843618461095344
0.00034147951594043
0.00035426535675325
0.000855353752041894
0.00116043454470109
0.00134779163247606
0.0014475611732538
0.0014682920276844
0.00140761613640396
0.00124862515449362
0.000941560608491716
0.000376737832213445
3.22855433355524e-06
2.22009424889748e-05
1.85059837265199e-05
4.86744510697346e-05
0.000121009527740175
6.40424726928809e-05
8.75589909552442e-05
0.000241111553196993
0.000249711447417625
0.000121866381884096
0.000131712000198205
0.000361244599316311
0.000429147511410215
0.000382582888106848
0.000184109146920974
0.000179065922209662
0.000476192904849735
0.000597539630961135
0.000607788811252575
0.000511658284893027
0.000235298697283091
0.000228038894052812
0.000584090008024058
0.000756435428297973
0.000813464529229508
0.000780730254323989
0.000631221037924186
0.00026610390390856
0.000276370615833364
0.000684172154888057
0.000904013458327613
0.00100625090057049
0.00102079048867116
0.000945251903617207
0.000738970483150788
0.000303855968808064
0.000320320753263912
0.000775258494967759
0.0010389680825037
0.00118474232305612
0.00124276167884068
0.001218815480608
0.00110043061682942
0.000842138432079045
0.000340944447812189
0.000354022777617555
0.000855339642744743
0.00116028368100855
0.00134736762960493
0.0014468253322116
0.0014672810118857
0.00140642232358263
0.00124740275498697
0.000940575016932226
0.000376483463572664
0.000367188641479587
0.000922295501246932
0.00126689715230403
0.00149310465432054
0.00163196977003106
0.001693189931741
0.00167896726265749
0.00158362205992178
0.00138696794090667
0.00103451649980766
0.000406275733326337
3.11452294961477e-06
2.17862111655927e-05
1.81268100055783e-05
6.31598116942972e-05
0.000120014902115555
4.79791761603996e-05
8.64993495779584e-05
0.000239249160329145
0.000247905572314769
0.00012054002122965
0.000130366733514762
0.000358760009585434
0.000426440285319557
0.000380307004474847
0.000183719058383867
0.000177584256948854
0.000473456959388775
0.000594380148121061
0.000604680655279605
0.000509173159792218
0.000234531937542978
0.000226571626861678
0.000581424359165284
0.000753231442106433
0.000810096993957121
0.000777500048288144
0.000628440176858147
0.000264930932788809
0.000275004939855236
0.000681811714027917
0.000901097738547615
0.00100304390521726
0.00101751263193758
0.000942309989257378
0.000736495453834056
0.000302755126980762
0.000319685137498303
0.00077344776973111
0.00103663121307408
0.0011820518966415
0.00123986036337982
0.00121587747755836
0.00109768998195116
0.00083997230228231
0.00034012810637469
0.00035373831796291
0.000854310904761775
0.00115882770739055
0.00134555544045323
0.00144470738092416
0.00146494689019642
0.00140401187416944
0.00124512795371791
0.000938802572043061
0.000375841059120519
0.000367305074892305
0.000922258836537989
0.00126674760144025
0.0014926576069815
0.00163115843233601
0.00169202832746473
0.00167752370428176
0.00158201753976985
0.00138540035427656
0.00103333055826452
0.000405917093061276
0.000383264428121491
0.000976849605904344
0.00135983036676644
0.00162272902359653
0.00179858323562456
0.00189747302960914
0.00192388839766493
0.00187759118325373
0.00175054706878346
0.00151981743619889
0.00112613293452054
0.000412336945251347
2.97185077958938e-06
2.12375901449668e-05
1.76363469943002e-05
6.20293075805885e-05
0.000118663656091353
4.70521771469761e-05
0.000118838790825274
0.000245605172494857
0.000236869534340722
8.51290668720641e-05
0.000128647239861593
0.000355631476381331
0.000423038292963113
0.0003773195166115
0.000181886863340362
0.000175690772303376
0.000470004838008856
0.00059040078621152
0.000600790217859465
0.000506397945717694
0.000238444112281354
0.000224680661384011
0.000578007092747103
0.000749131366662054
0.000805797421360945
0.000773443852094441
0.000625309677812568
0.000263663269104799
0.000273274346941358
0.00067870227243109
0.000897243254995143
0.000998819004345779
0.00101322007837829
0.000938284756625921
0.000733288474535034
0.000301437728832358
0.000318200442469654
0.000770822652728822
0.00103330251909383
0.00117826822124385
0.00123583625775431
0.00121187789643161
0.00109400357041567
0.000837034749941528
0.000338942640528516
0.000354291732870523
0.000852497807557606
0.00115627789562473
0.00134252463111617
0.00144133273882306
0.0014613746445019
0.00140043307719148
0.00124181521255896
0.000936233886908449
0.000374862671067278
0.000366895840450571
0.000921278373490938
0.00126522283396416
0.00149069595764906
0.00162880308834394
0.00168934480704934
0.00167462312414886
0.00157906090783782
0.00138264366889039
0.00103122255805287
0.000405121995115124
0.000383106084664294
0.000977167795046079
0.00135973225096643
0.00162229281092446
0.00179773554921447
0.00189620724099954
0.00192224850507215
0.00187566967876955
0.00174849449224881
0.00151788515598353
0.00112474624809185
0.000412043087280707
0.000376275595863622
0.00102368749882511
0.0014403574865668
0.00173712991708952
0.00194773551882784
0.00208201384423927
0.0021453010744411
0.00214026185499734
0.0020649726000573
0.00190999239836396
0.00165212791445702
0.00124191245966565
2.79808809553831e-06
2.05306582038107e-05
1.70151858432462e-05
6.05768205068723e-05
0.000116857188833057
4.5850245727138e-05
0.000116701909849531
0.000242685665845608
0.000233843383834888
8.33869655680418e-05
0.000179366149597864
0.000373549583680327
0.000418798216052785
0.000351725917086638
0.000126479616823468
0.000173302936243071
0.000465697442477367
0.000585441077612268
0.000595897606716835
0.000502377191564812
0.000236555472580814
0.000222270492424909
0.000573712143637364
0.000743983063954259
0.000800400510248801
0.000768399532699996
0.000621631747089586
0.000262530841576753
0.000271095896304895
0.000674734923986557
0.000892321927170969
0.000993430136351872
0.00100775868337172
0.000933167243126804
0.000729248774430331
0.000299768887993494
0.000316369618045435
0.000767392099784242
0.00102891317958676
0.00117329233790088
0.00123056788167166
0.00120661385125143
0.00108912274238235
0.000833184264950774
0.000337371207245941
0.000353158430259828
0.000849739011362787
0.00115263772102517
0.00133826450402671
0.00143665792580886
0.0014564926802619
0.0013955910864932
0.00123734401432382
0.000932729826766707
0.000373447498109668
0.000366489893160542
0.000919557376997189
0.00126254160690711
0.00148740446518072
0.00162504358666526
0.00168523887485872
0.00167032545941164
0.00157477349568355
0.00137868557394639
0.00102816468890726
0.000403930685026347
0.000382616293113118
0.000976148502034077
0.00135817391492918
0.00162023419820635
0.00179520707375536
0.00189325292907732
0.0019189462401761
0.00187214855071279
0.00174493812116943
0.00151458880112685
0.00112223318678047
0.000411006105955704
0.000376194207749602
0.00102375903727889
0.00144043671323763
0.00173674713488056
0.00194689143411568
0.00208069379858403
0.00214352730219404
0.00213809686966653
0.00206252817781903
0.00190745663035685
0.00164983176650013
0.00124047991356194
0.000330434893543666
0.000385832577156577
0.00105851116510714
0.0015094549025966
0.00183718627994742
0.00207996252866652
0.00224745967270479
0.00234497347625089
0.00237644614408257
0.00234308860995852
0.00224200897952125
0.00206436566158988
0.00179658627190018
2.59508915347209e-06
1.96507353266446e-05
1.6251845634694e-05
5.87495569240578e-05
0.000114497556046733
4.43398028508159e-05
0.000114004984080393
0.000238993287436027
0.000230025590457675
8.1207516479419e-05
0.000176226406752247
0.000368863936041726
0.000413544431638074
0.000346885773729284
0.000123789953085402
0.000233462816427983
0.000497208351738331
0.000589827026155147
0.000579311722478589
0.000460368339024848
0.000170326058704003
0.000219257002854764
0.000568371953835707
0.000737590687173874
0.000793689507631021
0.00076203467559211
0.000616621419503639
0.000260350708250653
0.00026826881221627
0.000669741965521572
0.000886152241967915
0.000986676731346953
0.00100091652584811
0.000926620336441361
0.000724172409053104
0.000297679714736848
0.000314139339024419
0.000763028274605553
0.0010233159114302
0.00116695423465321
0.00122386772965033
0.00119991042939339
0.00108288382017019
0.000828241651902576
0.000335359060356192
0.000351492985904207
0.000846134360860705
0.00114783945284654
0.00133266575459479
0.00143054546010766
0.00145013238042343
0.0013892799462059
0.00123149491887318
0.00092811402712066
0.000371574550220591
0.000355960543134976
0.000916617572166078
0.00125868460838387
0.00148277173095348
0.0016198344370974
0.0016796317249441
0.00166452109785588
0.0015690165289773
0.0013733567769397
0.00102398421326075
0.000402211294569462
0.000382002691402165
0.000974053474560287
0.00135536831652227
0.00161675019131942
0.00179115130369342
0.00188872334448011
0.00191405719550425
0.00186706222594814
0.00173987014138202
0.00150989809696403
0.00111858057098395
0.000409488442518319
0.0003757563944801
0.00102269483732594
0.00143886731308934
0.0017346342318279
0.00194425085383925
0.00207754610038201
0.00213992436812928
0.00213412702771926
0.00205832443535508
0.00190321465499889
0.00164584401237659
0.00123712546133897
0.000329343223096499
0.000385841052820591
0.00105858367256925
0.00150948380243546
0.00183689454538136
0.00207916211696742
0.00224613445978905
0.00234312953553578
0.00237411966697292
0.0023403582375494
0.00223901850803391
0.00206137869524145
0.00179404750704551
0.00146441308198641
0.0010097794884635
0.000395513991651346
0.00109135364344483
0.00156739538291555
0.00192368748724555
0.00219600099348674
0.00239442339986669
0.00252396984840394
0.00258889236169978
0.00259178008248853
0.00253280077947515
0.00240912485985199
0.00221490527851795
2.36254093301202e-06
1.85871562518483e-05
1.53367781980013e-05
5.6509655199062e-05
0.000111483221505082
4.24865000892303e-05
0.000110689378542047
0.000234365133189386
0.000225270324851
7.85302349966664e-05
0.000172305085910469
0.00036307272007165
0.000407069900656092
0.000340928771200342
0.000120495440225972
0.000229658222444085
0.000490816507854793
0.000582365793310014
0.000571789233456571
0.000453830307405458
0.000166673493940021
0.000257506002849111
0.000610163189494749
0.000754138400163494
0.00078542193750316
0.000729721572667754
0.00056179002313363
0.000215519941573088
0.000264725971527147
0.000663540188611567
0.000878503165808046
0.000978307323046157
0.000992427172033009
0.000918681143273214
0.000717875994384883
0.000294938009298099
0.000311096626586537
0.000757501518302129
0.00101629548620825
0.00115902047597959
0.00121548626539845
0.00119149051761875
0.00107501767228359
0.00082199223268317
0.000332676055633231
0.000349340419488385
0.000841574970110619
0.00114172215566443
0.0013255368970884
0.00142278066476395
0.00144206387569898
0.00138126270827201
0.00122402486537612
0.000922171769100012
0.000369470016620551
0.000354289532706254
0.000912962522385594
0.00125360102392381
0.00147667918437254
0.0016130246180049
0.00167234469109242
0.00165700458265711
0.00156155821982689
0.00136640747336391
0.00101849139276547
0.000400092384392709
0.000380263232402794
0.000968019576789278
0.0013512616539213
0.0016118354304437
0.00178552203357722
0.00188253569611675
0.0019074663279253
0.00186026363745418
0.00173311099544342
0.0015036029451906
0.00111358382370436
0.00040732186239476
0.000375085670357072
0.00102072734536526
0.00143590253851365
0.00173099848717846
0.00193997899196808
0.0020726964095006
0.00213458134833854
0.0021284021941321
0.00205236753263846
0.00189723892315109
0.00164018897797739
0.00123215581148096
0.000327867781313596
0.000385434603193851
0.00105752306554624
0.00150791445664493
0.00183477648548335
0.00207646583324134
0.00224286661165
0.00233931920458071
0.00236982244381595
0.00233566479230552
0.00223406103728144
0.0020563329850148
0.0017890850635516
0.00145928912309279
0.00100588528618824
0.000395586021721131
0.00109149941272656
0.00156745058669007
0.00192344427834079
0.00219527515281403
0.00239313973382718
0.00252211691204499
0.00258648490405627
0.00258886906316199
0.00252949671884207
0.00240565254809064
0.00221168627079705
0.00194894873593424
0.00169417400235203
0.00129453896412942
0.000403567047334561
0.0011194659272675
0.0016167985653357
0.00199745705544761
0.00229668159217515
0.00252364148586607
0.00268308978746831
0.00277916412258072
0.00281487817239922
0.00279164520585425
0.00270923440084442
0.00256539211679309
2.1059973636357e-06
1.7331795063224e-05
1.42551988953725e-05
5.38115015311626e-05
0.000107707308951216
4.02561333447398e-05
0.000106669550079667
0.000228633410695315
0.00021942201687407
7.53015264320413e-05
0.000167696315658492
0.000355985980200519
0.000399152448592783
0.000333663008417683
0.00011651479906045
0.000225053324864293
0.000483020739494497
0.000573258450278005
0.000562618317493393
0.000445870005382233
0.000162242699834922
0.000254054862350352
0.000602245671525412
0.000744473741066573
0.000775318200110934
0.000720108350073276
0.000553751007099736
0.000210953697619917
0.00029151908710388
0.000710137151968955
0.000908915344721533
0.000981991767166585
0.000968027706142521
0.00086910261354587
0.000655905125104993
0.00026035793315336
0.00030721641372812
0.000750626816478514
0.00100759038976073
0.00114919992431138
0.00120511833441473
0.00118112991012711
0.00106536379470683
0.00081426830284518
0.000329262998642367
0.000346916481138922
0.000835741794325219
0.00113403306392361
0.00131661293152849
0.0014130787011609
0.00143198625296191
0.00137123445164683
0.00121464380904707
0.00091460024990687
0.000366195831339993
0.000362131486719978
0.000908557069902481
0.00124712606637367
0.00146891783390258
0.00160437569126361
0.0016631174619749
0.00164749729125215
0.00155210774344
0.00135752900746564
0.0010114949798246
0.000399283615844759
0.000360670303130893
0.000963940357469351
0.00134597806496387
0.0016053671677909
0.00177815608328304
0.00187449657677376
0.0018989540310136
0.00185150581713349
0.00172438479878811
0.00149540401187015
0.001107068634433
0.000405029894698906
0.000374097210100349
0.00101707549466987
0.00143090465390628
0.00172584792959288
0.00193403284256397
0.00206605937374827
0.00212737878973873
0.00212077141703532
0.00204447524507461
0.00188931827920983
0.0016326394180214
0.00122541743687104
0.000325853342985884
0.000384739847122309
0.00105556804419113
0.00150500002189789
0.00183105239099182
0.00207204882643329
0.00223779232565337
0.00233364383624247
0.00236361906896125
0.00232903138695748
0.00222712595293197
0.00204926775367935
0.00178209207132437
0.00145229930221941
0.00100068427950828
0.00039521411232652
0.00109047652660305
0.00156590870318124
0.00192135197663138
0.00219257918302381
0.00238982160291533
0.00251818704849299
0.00258197393363984
0.00258383433460761
0.00252402631646621
0.00239985773237326
0.00220565447719294
0.00194260459240975
0.00168788250803261
0.0012895283946531
0.000403681896783508
0.00111969321970144
0.00161692904503749
0.00199728521350613
0.00229604316758398
0.00252243747790637
0.00268128368592808
0.00277675005522133
0.00281188429121364
0.00278815535146496
0.00270544598786616
0.00256171620912995
0.00235447646103558
0.00210291103736029
0.00185691637393866
0.00147569400886325
0.000409954743357901
0.00114254148847213
0.00165815078390659
0.00205984168505233
0.00238295421980854
0.00263597989938666
0.00282314672254822
0.00294830945004888
0.00301446559076167
0.00302340676356085
0.00297586871658154
0.00287150625329024
1.83565152099921e-06
1.58974243475648e-05
1.30168707766863e-05
5.06247818976687e-05
0.000103076835757166
3.76417861988188e-05
0.000101846793814848
0.000221619560662883
0.000212316178026415
7.14791669926754e-05
0.000162031554557535
0.000347366108798894
0.000389561729769823
0.00032489279589195
0.000111775288645084
0.000220946821147974
0.000473661030016625
0.000562231863607424
0.00055152630314722
0.000436259437588106
0.000156930084245595
0.000250274672254378
0.000592770636630055
0.000732758602869581
0.000763060872815488
0.000708450420546184
0.000544009388633251
0.000205441167343297
0.000287439353841052
0.000700837479839061
0.000897035608420595
0.000969278625691069
0.000955500640637711
0.00085764148147925
0.000646587854945535
0.000254996103105077
0.000324982971325712
0.000804901793805008
0.0010535790788492
0.00116844780656976
0.00119240802967757
0.0011371507366446
0.000996895098847229
0.00074217290706156
0.000302553159398678
0.000343171020128802
0.000828440770217086
0.00112448391717973
0.00130556595958857
0.00140108993855937
0.00141955520873954
0.00135888542983301
0.00120307630172454
0.000905172489548923
0.000361937406546985
0.000368348718337992
0.000902887503059116
0.00123895678440538
0.00145919234091278
0.00159356957533425
0.00165161395066554
0.00163565173235991
0.00154031137270227
0.00134636100430262
0.00100234528636231
0.000395374762641259
0.000358666554413158
0.000962575674941676
0.00133935868754831
0.00159711833099874
0.00176879445007564
0.00186431977554776
0.00188821415917611
0.00184045849251549
0.00171333674634754
0.00148490790487748
0.00109904215032897
0.00041060016976129
0.000370804030285088
0.00100921835626281
0.00142534125931793
0.00171909436315235
0.00192623889765091
0.00205742839211459
0.00211808146041169
0.0021109736192882
0.00203435787633299
0.00187912490685802
0.00162283262014271
0.00121670709725177
0.00032317844702691
0.000383756343172528
0.00105258451141394
0.00150050994659042
0.00182562188725505
0.00206587365624482
0.00223082507783428
0.00232598065697758
0.00235535572287942
0.00232027550798842
0.00221800702319564
0.00203996359795742
0.00177283277093916
0.00144304862193837
0.000993905806794772
0.000394521368165699
0.00108852686693561
0.00156302745492029
0.00191763439294058
0.00218809412146433
0.00238461328260847
0.00251229185730487
0.002575437289068
0.00257671582094029
0.00251640046463342
0.00239181031718447
0.00219728117876589
0.00193402633562938
0.00167921261890736
0.00128245096649765
0.000403337067876846
0.00111872901176284
0.0016154458049478
0.00199524979793926
0.00229339121080187
0.00251912984258713
0.00267731434562836
0.00277212843551387
0.00280664191616499
0.002782347309121
0.00269914040569531
0.00255494275866941
0.00234710686746889
0.00209546440700219
0.00184966023080562
0.00146995798142232
0.000410111134914861
0.00114283207855259
0.00165836419521373
0.00205976284207161
0.00238242133673984
0.00263488696918135
0.0028214348887912
0.00294595446049774
0.00301147581676631
0.00301984437618372
0.00297190924504362
0.0028675506312439
0.00270539285624693
0.00248871089139134
0.00224202271305544
0.0019795737269161
0.00160324580499373
0.000414820567447276
0.00116102053903224
0.00169209395144527
0.00211191701252325
0.00245601068388727
0.00273248198957335
0.00294507127692382
0.00309726775352491
0.00319184493604061
0.00323058250291801
0.00321448311462274
0.00314392045716251
1.55752932905803e-06
1.43013982121641e-05
1.16409568354304e-05
4.69506852645561e-05
9.75108703409054e-05
3.46482797946896e-05
9.61712040453108e-05
0.000213155104053775
0.000203807176132753
6.70350558920602e-05
0.00015511239093072
0.000336960704267116
0.000378058580575196
0.000314422463026736
0.000106215849692685
0.000214710996920251
0.000462332271208928
0.000548987848475037
0.000538228880968495
0.000424764989714763
0.00015064673801844
0.000256315522298655
0.000581813573392706
0.000718685358533251
0.000748309559228121
0.000694424347450415
0.000532299946290403
0.00019884508608448
0.000282729239611692
0.000690042133626172
0.000882753367222354
0.000953920315636219
0.000940350438315848
0.00084377346078538
0.000635314051192752
0.000248532883340597
0.000320021050920436
0.000793746665226974
0.00103936175178973
0.00115305740973512
0.0011769549480047
0.00112248414484
0.000983858997305438
0.000731827431000161
0.000296650956245672
0.000356279678119722
0.000893744544906023
0.00118900651537753
0.0013438187843648
0.00140435492038745
0.00138640563625603
0.00129201210780829
0.00111274615471175
0.000819497057475051
0.000339215962854871
0.000365998235843106
0.000895537773026318
0.00122878409126863
0.00144714183633517
0.00158021562113599
0.00163742888026634
0.00162106755088214
0.00152578745482752
0.0013325509361522
0.000990721646030089
0.000390026924761105
0.000374679389823188
0.000957961114699197
0.00133089430766275
0.00158676332779314
0.00175708941516765
0.00185163347163434
0.00187486059699189
0.00182672232472614
0.0016995422659195
0.00147159451846767
0.00108783630902329
0.000405962054252706
0.000368774878350749
0.0010046203736165
0.00141925137028352
0.00171049685795086
0.00191631756251676
0.00204649511541802
0.00210635586504435
0.00209865505953413
0.00202163550177501
0.00186623261706008
0.00161028809835957
0.00120556102666422
0.000320658080193946
0.000382113084791885
0.00104792486412875
0.0014942266589504
0.00181862830182445
0.0020577618974938
0.00222174677151036
0.00231608092451352
0.00234475783166821
0.00230909730412263
0.00220637149365261
0.00202802951489744
0.00176079407702736
0.0014308546478514
0.000984848059048609
0.000393512854131155
0.00108563727786563
0.0015587536528127
0.00191222283891709
0.00218176083387986
0.00237742641758062
0.00250430553146685
0.00256671869727066
0.0025673312574798
0.00250641945449911
0.00238130885001345
0.00218635288858799
0.00192280118778058
0.00166777898995722
0.00127309703611075
0.000402655546512349
0.00111681471230166
0.0016126055412303
0.00199157337674892
0.00228890816560836
0.00251386786323326
0.00267130091105586
0.00276538780719284
0.00279920566277122
0.00277425280487677
0.00269042256321748
0.00254562983595219
0.00233727694694227
0.00208538096794137
0.00183972987443201
0.0014619797694191
0.000409795046695458
0.00114192723474162
0.00165695531923158
0.00205780755070025
0.00237984807851916
0.00263164336239066
0.00281749550493562
0.00294131288117744
0.00300614270676138
0.00301384967941153
0.00296528830320585
0.00286028746133239
0.00269728201989694
0.00248028271704636
0.00223351015863904
0.00197143752183347
0.00159708121946436
0.000414980239420902
0.00116136096285053
0.00169238450179746
0.0021119396630012
0.00245559884590726
0.00273152303766029
0.0029434920579651
0.00309502742451715
0.00318893380473532
0.00322704561995659
0.00321047760683907
0.00313983797601433
0.00301512879510152
0.00283605389348096
0.00261183069544919
0.00235621651783889
0.00206931678980714
0.00169354087340391
0.000418430083153869
0.0011754016588802
0.00171940915059569
0.00215473035292278
0.00251708392828761
0.00281436847888463
0.00304997884204754
0.00322705574425294
0.00334808462604456
0.00341466095857423
0.00342774739009823
0.00338789048682129
1.27966578686863e-06
1.25619607812213e-05
1.01449552737517e-05
4.28019186105307e-05
9.09406036950164e-05
3.12762312445356e-05
8.96119420445e-05
0.000203096255171994
0.000193758439293899
6.19524264171369e-05
0.000146939245698311
0.000324567131886139
0.000364409124516916
0.000302058481477931
9.97914526441685e-05
0.000206427363359959
0.000448688299489006
0.000533211479505359
0.000522434857653278
0.000411149177762197
0.000143308379291548
0.000251814252867133
0.000568267679205949
0.000701862893686684
0.000730704485369614
0.000677692394139093
0.000518351446687675
0.000191053985746927
0.000277634121954431
0.000678883160656069
0.000865754256069876
0.000935517156120801
0.000922173918680604
0.000827124018018586
0.000621774451761128
0.000240788131628936
0.000314365227256975
0.000780739656534545
0.00102243642498553
0.00113455094397808
0.00115831902940272
0.00110476761339416
0.000968091048109978
0.000719301490766792
0.000289463489353836
0.00035013641921972
0.000880259079125974
0.00117214024038402
0.00132561856010866
0.0013859270381405
0.00136856442433669
0.00127551260720822
0.00109842152210282
0.000808436501406068
0.00033338796605559
0.00038186742705301
0.000976422250767079
0.00131576860313631
0.00150811862645665
0.00160328404275554
0.00162009172920526
0.00156385811884109
0.00143234546620132
0.00121626800139976
0.000886582830902149
0.000365651904220699
0.000372915333600017
0.000950959942230011
0.00132030772408821
0.00157391595949989
0.00174261334264935
0.00183598790974355
0.00185843328219409
0.00180984648275084
0.00168256035378751
0.00145501122387624
0.00107312115263564
0.0003995332278129
0.000368586218238248
0.00100276875562534
0.00141050902000479
0.00169965729192604
0.00190389518652146
0.00203285676056018
0.00209177784838326
0.00208337863734683
0.00200585304145488
0.00185013690491158
0.00159427377720077
0.00119052449042138
0.000316043846686698
0.000380206846095659
0.00104290680069291
0.0014872247757862
0.00180987264103754
0.00204741691570213
0.00221022781586064
0.00230358916562339
0.00233144831804883
0.00229509762103813
0.00219178308906368
0.00201294657950566
0.00174510852567268
0.0014147325694015
0.000972771360517874
0.000392074662656125
0.00108160287761593
0.0015528893410386
0.00190499374148769
0.00217342532361429
0.00236802942170144
0.00249396672055216
0.00255553116874064
0.0025553712521395
0.00249374915849201
0.00236797492835079
0.00217238033018679
0.0019082514958217
0.00165274371964645
0.00126073736161516
0.000401638198529605
0.00111395563338844
0.0016083995325437
0.00198621463748075