/*--------------------------------*- C++ -*----------------------------------*\
  =========                 |
  \\      /  F ield         | OpenFOAM: The Open Source CFD Toolbox
   \\    /   O peration     | Website:  https://openfoam.org
    \\  /    A nd           | Version:  12
     \\/     M anipulation  |
\*---------------------------------------------------------------------------*/
/*   Windows 32 and 64 bit porting by blueCAPE: http://www.bluecape.com.pt   *\
|  Based on Windows porting (2.0.x v4) by Symscape: http://www.symscape.com   |
\*---------------------------------------------------------------------------*/
FoamFile
{
    format      ascii;
    class       volScalarField;
    location    "100";
    object      nut;
}
// * * * * * * * * * * * * * * * * * * * * * * * * * * * * * * * * * * * * * //

dimensions      [0 2 -1 0 0 0 0];

internalField   nonuniform List<scalar> 
10103
(
1.01551298628428e-06
1.00378559831177e-06
4.82258141498115e-06
7.79186820634449e-06
9.94212017851966e-07
4.84501261227879e-06
7.76702729774585e-06
1.17790338030297e-05
8.99777610949744e-05
2.2092318312933e-05
9.82349089697498e-07
4.86294068915968e-06
7.74362455742417e-06
1.18486135502675e-05
9.0283306793464e-05
2.2061547440076e-05
2.05808652965462e-05
0.000196085123009717
0.000222816188067123
4.19869713856007e-05
9.68620553398541e-07
4.86408474789025e-06
7.7051076383117e-06
1.18868075986996e-05
9.03799871807417e-05
2.2015264038936e-05
2.06612368273126e-05
0.000196528116068337
0.000222893313854603
4.19382291558643e-05
3.04231967438249e-05
0.000280297746110615
0.00049988332921039
0.000351621741268012
6.35424022970113e-05
9.5434617464536e-07
4.85375838645419e-06
7.65570587192914e-06
1.18951227469168e-05
9.04030572064332e-05
2.19389321044624e-05
2.06821531599263e-05
0.000196605602074014
0.000222525543246266
4.18559316612538e-05
3.04987713479636e-05
0.000280710788435363
0.000500470537457622
0.000351309499501214
6.3478798889277e-05
4.09111191517673e-05
0.000350103150919559
0.000721597584372918
0.000789802779735903
0.00046239237841816
8.24219870058607e-05
9.39828089076017e-07
4.83474329679088e-06
7.6008665753073e-06
1.18814600458544e-05
9.04000965799682e-05
2.18360941655223e-05
2.06600932835696e-05
0.000196481720177591
0.000222065066050311
4.17261721621911e-05
3.04890346998638e-05
0.000280684567293462
0.000500176608093952
0.000350582847707839
6.33553457377285e-05
4.09722062765891e-05
0.000350421982224711
0.000722417299814172
0.000789909219534359
0.000461902196985886
8.23431548136044e-05
5.18131015770307e-05
0.000410854132886153
0.00089521853712227
0.00117662894978075
0.00103245395645952
0.000545719255194952
7.44389011014326e-05
9.24466500838986e-07
4.80663976668972e-06
7.54063899710383e-06
1.18463934659717e-05
9.0373547353429e-05
2.17107711037041e-05
2.06025252975575e-05
0.000196219998017724
0.000221552418790436
4.15287673908652e-05
3.04207081757003e-05
0.000280376600274596
0.000499517053235621
0.000349611582085035
6.31374856933923e-05
4.09275556156322e-05
0.000350251557015048
0.000722155040122301
0.000789109094892216
0.00046101921351992
8.2171631371028e-05
5.18562366879924e-05
0.000411055013396373
0.000895904852183443
0.0011771950015855
0.00103197466701198
0.000545226774408866
7.44209510362339e-05
6.26116518920195e-05
0.000464950547464086
0.00103714590359368
0.00148938242545337
0.00157604432028233
0.00121955721569911
0.000578796365990452
7.97077009816827e-05
9.07712869021219e-07
4.76705039181016e-06
7.47077103071607e-06
1.1788216102703e-05
9.03124956708445e-05
2.1560764622495e-05
2.05083320191496e-05
0.00019582476387797
0.000221029796328495
4.1302068743128e-05
3.03007690390924e-05
0.000279838428606642
0.000498587942931589
0.000348432165067138
6.25842663946405e-05
4.08116094573382e-05
0.000349744745795699
0.000721332378557883
0.00078776383652606
0.000459655404926249
8.17659080877496e-05
5.17765207666463e-05
0.000410737014890373
0.000895462328446307
0.00117645878012659
0.00103075846913505
0.000544287193343703
7.43625957652633e-05
6.26438339947894e-05
0.000465053357127036
0.00103758662833313
0.00148997756871325
0.00157586924359752
0.00121888652847802
0.000578430276298812
7.96832020742941e-05
7.24890902383849e-05
0.0005129044936754
0.00115636608567333
0.00174212050033111
0.00203812712569442
0.00189892421919034
0.00135136100538638
0.000619699404816996
8.46339473966488e-05
8.8818382435179e-07
4.71384546218901e-06
7.38753145888338e-06
1.17014416019724e-05
9.01955535075016e-05
2.13773427339312e-05
2.03726165131808e-05
0.000195283645949806
0.000220467272237899
4.10303384403197e-05
3.01266873550464e-05
0.000279069797628123
0.00049745086664325
0.000347308607961898
6.22278231505891e-05
4.06287251617734e-05
0.000348944787488233
0.000720058007068037
0.000785981085586371
0.000457413888289927
7.96420198083792e-05
5.16118584915586e-05
0.000410047711584178
0.00089434763312211
0.00117495415337499
0.00102879752131466
0.000542493957542793
7.42591616517995e-05
6.25388608226606e-05
0.000464611516178731
0.00103690387885679
0.00148908263114614
0.00157460626725214
0.00121746456781534
0.00057773536321646
7.9618871512989e-05
7.25016252825524e-05
0.000512954190580409
0.00115658947605633
0.00174251361372879
0.00203807779635216
0.0018983820934652
0.00135067341008583
0.000619302231901349
8.46030221477761e-05
8.01819121620317e-05
0.000554032134329635
0.00125701720997877
0.00194903136805265
0.00241782473135854
0.00250170086548526
0.0021527185869954
0.00146324335449254
0.000655559262037119
8.85704931484183e-05
8.64023142227609e-07
7.283606066534e-06
4.64232721466873e-06
1.15794427793548e-05
8.99901154527716e-05
2.11456344195144e-05
2.01876185149805e-05
0.000194561000955685
0.00021984791459224
4.07189280573992e-05
2.98919254832451e-05
0.000278044253474173
0.000496078073639261
0.000346202556607971
6.18752070896348e-05
4.03749074824058e-05
0.000347843124778191
0.000718350796747169
0.00078399809348101
0.000455792534611401
7.91068513042639e-05
5.13633202146646e-05
0.000409023698331235
0.000892654879359435
0.00117279848191516
0.00102597306238901
0.000538789769756226
7.41317132173203e-05
6.23424534100407e-05
0.000463768156962277
0.00103548099657233
0.00148724588631866
0.00157243520727716
0.00121499913905189
0.00057672976568201
7.95178178368612e-05
7.23958964116475e-05
0.000512438462048639
0.00115570287867724
0.00174134929373279
0.0020366363819193
0.00189676545901517
0.00134934220986599
0.000618612563008667
8.45260787701631e-05
8.01269441589025e-05
0.000554034936354638
0.00125709263726631
0.00194919896001284
0.00241771291769259
0.00250123356908781
0.00215201567947501
0.00146249991958446
0.000655148333021033
8.85607629662194e-05
8.31743039847258e-05
0.000586638858228483
0.00134045602639652
0.00211941124834517
0.00272822765805827
0.00300887574665539
0.00288175770119275
0.00236261914739975
0.00156162934378892
0.000684586042226824
8.83506210493175e-05
8.33571205693753e-07
7.14740559418164e-06
4.54741705649679e-06
2.08533063009732e-05
8.96488412208929e-05
1.14142767470863e-05
1.99434192157399e-05
0.000193601110002563
0.000219043656002742
4.02725725929862e-05
2.95866493960689e-05
0.000276713849430553
0.000494419896175807
0.000345042552148826
6.17364449640374e-05
4.00408182028634e-05
0.000346403016634855
0.000716165642712274
0.000781804564093135
0.000454467311348088
7.88360249302224e-05
5.10328161849018e-05
0.000407650167032116
0.000890373215675228
0.00117005803138961
0.00102327401703855
0.000536638425219666
7.39358714644097e-05
6.20344055154651e-05
0.000462561746371704
0.00103339290157811
0.00148456664853192
0.00156937305283413
0.00121113103069764
0.000575389569259687
7.93788038077987e-05
7.22522562532197e-05
0.00051149397611159
0.00115403287422492
0.00173911295969156
0.0020340829359966
0.00189406416601983
0.00134727547625725
0.000617670916507764
8.44048730746423e-05
8.006263534829e-05
0.000553503089645111
0.00125609150251867
0.00194778565583147
0.00241597886409563
0.00249934554562785
0.0021502511439008
0.00146117320693656
0.000654446881015768
8.84764955682553e-05
8.32005333163576e-05
0.000586900508397801
0.00134041212484284
0.00211940644456925
0.0027279934853721
0.0030083594170087
0.00288104022653609
0.00236179632458723
0.00156086496549892
0.000684179930426683
8.83350298961313e-05
8.68493728131696e-05
0.000607912903048079
0.00140648138574478
0.00225867535007038
0.00298217647589941
0.00342764066207833
0.00350699036835522
0.00319899376987632
0.00254681293180166
0.0016541506357909
0.000705868074142777
7.08840487388047e-05
7.95469654945779e-07
6.96727408033596e-06
4.4247215808648e-06
2.04790826487851e-05
8.91115227433715e-05
1.1193993528137e-05
3.97004244389315e-05
0.000217998416140872
0.000192336650205865
1.96276293855978e-05
2.91964525505501e-05
0.000275009953100771
0.000492317157943999
0.000343391322351506
6.11106659008103e-05
3.96138493858917e-05
0.000344566448386337
0.000713416662921056
0.000779234623893241
0.000453590414384063
8.01314801757064e-05
5.06068645591499e-05
0.000405873256333344
0.000887433360773329
0.00116668339006918
0.00102056476011083
0.000535342183896052
7.37142725110757e-05
6.16439520506197e-05
0.000460978980329844
0.00103061328438537
0.00148102541542698
0.00156571214038745
0.00120778539027352
0.000573913631167676
7.91729656762198e-05
7.19168332062514e-05
0.000510173613867133
0.00115163952121186
0.00173588131782289
0.0020304499647539
0.00189019341081916
0.0013443750703741
0.00061651572227284
8.42318152948797e-05
8.01879224263913e-05
0.000552575972412928
0.00125429140895657
0.00194521276054279
0.00241292820374238
0.00249618345710004
0.00214743385425665
0.00145921342218587
0.000653469775743025
8.83249069556588e-05
8.31080139368508e-05
0.00058647940200486
0.00133939688454693
0.00211783872085597
0.00272597172881696
0.00300610156155718
0.00287883192448672
0.00235991311313254
0.00155952263125451
0.000683487341584368
8.82534043552399e-05
8.68134239422929e-05
0.000610037759912506
0.00140650032240854
0.00225854539902241
0.00298184078659427
0.00342702507296064
0.00350616900718847
0.0031980882525985
0.00254592913991143
0.00165337564335402
0.000705398972499756
7.08891463156259e-05
7.17087931772631e-05
0.000627383129625052
0.00145401362112129
0.00237025544903405
0.00318936031043023
0.00377140354503057
0.0040293895459897
0.003927726266719
0.00347614257677613
0.00272530746271879
0.00176443481547296
0.000763159283014785
7.49067500343519e-07
6.73520551193182e-06
4.26922486559411e-06
1.99985448021789e-05
8.83141019102336e-05
1.09085458011946e-05
3.89826105681919e-05
0.000216638225765427
0.000190677167514828
1.92261502646901e-05
6.02521004980979e-05
0.000341277848501276
0.000489664848458454
0.000272848535346194
2.87045619081733e-05
3.90755098607228e-05
0.000342250874897337
0.000709955761783682
0.000775866130264047
0.000451476016949677
7.94712766193938e-05
5.00639051766492e-05
0.000403625395160084
0.000883722901197936
0.00116250942698775
0.00101767771004136
0.000535310761843291
7.3398239067177e-05
6.11525000636598e-05
0.000458947418386732
0.00102704455914425
0.00147652053109553
0.00156135541417174
0.00120480464823772
0.00057223453270446
7.89070620078539e-05
7.1502895153298e-05
0.000508453626182205
0.0011484869453486
0.00173160091861183
0.00202573493767688
0.00188576109197881
0.00134115737390763
0.000615018307169675
8.39902686872707e-05
7.99315759926188e-05
0.000551142889198243
0.00125175652163128
0.0019415337169218
0.00240858404469441
0.00249171851473447
0.00214349632002074
0.00145656687333258
0.000652201095740206
8.81093124019558e-05
8.30161150665338e-05
0.000585392329241067
0.00133771843993001
0.00211507529577359
0.00272246972797691
0.00300231028037934
0.00287524238509086
0.00235697420111369
0.00155753555758648
0.000682450460085677
8.81123235692009e-05
8.67025667864506e-05
0.00060966514312594
0.00140567085250309
0.0022569391885539
0.00297961225920435
0.00342440552848484
0.00350345735648492
0.00319561860824917
0.00254396806622602
0.00165206263405941
0.000704784782891962
7.08011342313967e-05
7.16945807325425e-05
0.000627833263117483
0.00145588096215938
0.00237009680369564
0.0031889616097072
0.00377070390768412
0.00402842908564378
0.00392663212106278
0.00347506147290156
0.00272432003466535
0.00176340077957342
0.000762828390391978
7.43873352448815e-05
7.24329213707443e-05
0.000610559560918793
0.00149362138636121
0.0024575831815909
0.00335721531449844
0.00405266282573052
0.00446111756993988
0.00454316316583741
0.00429339138292439
0.00373766509054083
0.00293208122247785
0.00198586371617225
6.94859237886149e-07
6.44636142386103e-06
4.0781381040949e-06
1.93942222571147e-05
8.71862861506057e-05
1.05495802043746e-05
3.80779493344238e-05
0.000214863514534521
0.000188522846327859
1.8723879992382e-05
5.91858082477275e-05
0.000338660275148631
0.000486331344164066
0.000270127952526868
2.80942015552e-05
7.84035983171946e-05
0.000448489805798797
0.000771614893012971
0.000705630715366126
0.000339355738336946
3.84043560759188e-05
4.93852647494844e-05
0.000400813933113308
0.00087908176614104
0.00115724619688022
0.00101339869050908
0.000533150628366181
7.30693623243201e-05
6.05146686255004e-05
0.00045637610983814
0.00102255026328538
0.0014708727966035
0.00155606773170333
0.00120198634583138
0.000570266990544669
7.85512259399301e-05
7.09987649639613e-05
0.000506235077856502
0.00114444902652861
0.00172612981566206
0.00201979081019241
0.00188064397767074
0.00133749534901337
0.000613121666613665
8.36841086699947e-05
7.95544443614333e-05
0.000549317369024876
0.00124838542996828
0.00193667726291632
0.00240285401604222
0.00248598450530323
0.00213861696940239
0.00145320947980534
0.000650558639752184
8.78269181206269e-05
6.87392011605196e-05
0.000582285041673954
0.00133509558116363
0.00211114961628542
0.00271749749387371
0.0029969539993693
0.00287020126356324
0.00235288575190965
0.0015548085693085
0.000681058456797382
8.79017754244134e-05
8.65635958105492e-05
0.000606971066784772
0.00140389664636783
0.00225424419461096
0.00297579618284705
0.00342001715569285
0.00349901888439012
0.00319166316553578
0.00254090610296891
0.00165008157298602
0.000703806961943372
7.05924696804918e-05
7.16475074929759e-05
0.000627403801859852
0.00145514580586389
0.0023686131148553
0.00318663222616059
0.00376779887727599
0.00402524875193448
0.00392351131981361
0.00347232813973272
0.00272221487250931
0.00176196126838351
0.000762044389443966
7.42502965359216e-05
7.24318734570465e-05
0.000610607069049576
0.00149444361376304
0.00245791212227743
0.00335681103677689
0.00405192349519764
0.00446004254048145
0.00454185532768434
0.00429200864836712
0.00373635710305914
0.00293075454090441
0.00198444204694668
0.00148419205148904
0.000809141096204996
7.33395821861498e-05
0.000617502567002436
0.0015116467302132
0.00252774393923461
0.00349245247833734
0.00428199891575536
0.00481592018974671
0.00505524127559947
0.00498815325380979
0.00462733557337199
0.00401276788331876
0.00322774275129882
6.32750016124344e-07
6.09718262262895e-06
3.84899970833374e-06
1.86534153604113e-05
8.56412528891721e-05
1.01090812311841e-05
3.69668072220074e-05
0.000212527724324078
0.000185769360104242
1.81067662981242e-05
5.78588746892302e-05
0.000335441658115082
0.000482145177713222
0.000266726826861262
2.73465831530788e-05
7.7099010141412e-05
0.00044476407254328
0.000766365626296131
0.000700255215919627
0.000335767976078963
3.75807629172475e-05
7.26344126048829e-05
0.000529729184061601
0.00100776006109402
0.00115069345895966
0.000873319901910098
0.000397324903045142
4.85436460416998e-05
5.97156268650954e-05
0.000453180827841119
0.00101695251733359
0.00146382698932786
0.00154923711726159
0.00119720977273914
0.000567944939091538
7.81228866226669e-05
7.03109405472552e-05
0.000503429093019584
0.00113936056916559
0.00171925570843208
0.00201236557541367
0.0018745459654188
0.00133319831740485
0.000610696081056793
8.32595043755177e-05
7.90671660953147e-05
0.000547124389468398
0.00124401338829669
0.00193046658716175
0.00239553957358081
0.00247878611757218
0.0021326194134656
0.00144898005689557
0.000648501610652333
8.75362206698962e-05
6.84160409377435e-05
0.000580297581173696
0.0013315306998631
0.00210593523516959
0.00271093141202099
0.00298989713594861
0.00286361179915043
0.00234754222945708
0.00155120584950421
0.000679365171099532
8.76531747194578e-05
8.6169605551425e-05
0.000580509621877919
0.00139992910939035
0.00225023850210158
0.00297038808827654
0.00341381857393689
0.0034927683596188
0.00318609896978594
0.00253659382186873
0.00164730939388707
0.000702469034364424
7.02873522552335e-05
7.15803118513306e-05
0.000626138581793226
0.00145212647466811
0.00236595240919224
0.00318270172133141
0.0037629415778824
0.00402003700909609
0.00391848165647569
0.00346798058664623
0.00271892723367843
0.00175979678826116
0.000760305355472007
7.4042015552665e-05
7.23904191141884e-05
0.000610235896251922
0.00149362795573508
0.00245646135066578
0.00335449409515083
0.00404883713680245
0.00445647862133538
0.00453812654916149
0.00428844717675824
0.00373326333509051
0.00292826839464717
0.00198239429576297
0.00148086050787049
0.000807364613721399
7.33494743985769e-05
0.00061750908540366
0.00151186728817841
0.002528311644959
0.00349219106264405
0.00428126947865435
0.00481478679692892
0.0050537629626365
0.00498646586858105
0.00462561155248553
0.00401107809587616
0.00322589509603456
0.0025602255126388
0.00223680480686871
0.001523810734017
7.40950716469105e-05
0.00062556861257309
0.00153482011714516
0.00258201619225841
0.00360205331233027
0.00446859701394023
0.00510647235477906
0.00547801403189048
0.00556914971630377
0.00538478855903764
0.00495250139767618
0.00433343495393689
5.64197291254192e-07
5.68488288418763e-06
3.57798906396046e-06
1.77606809084006e-05
8.35835418940355e-05
9.57870702210977e-06
3.56199105204162e-05
0.000209449717520308
0.000182294590941371
1.73623529679793e-05
5.63032522862816e-05
0.000331473008172855
0.000476887494739442
0.000262514837894823
2.64431274693427e-05
7.55333933446607e-05
0.000440290634097088
0.00075992827598294
0.000693599574412946
0.00033135516870463
3.65817023400028e-05
7.21088938686917e-05
0.000525483157838847
0.00100077954361135
0.00114261827860183
0.000866214207278303
0.000393034234050965
4.75150595810499e-05
7.75883281227817e-05
0.00056511902633186
0.0011906462717607
0.00154064452028252
0.00145511023065897
0.00101003270650995
0.000449231228264297
5.8730397283019e-05
6.94341339313991e-05
0.000499964373436512
0.00113304064377559
0.00171070435431402
0.0020030628244164
0.00186645483856152
0.00132756212555148
0.000607845570674773
8.27176068243862e-05
7.85183793357975e-05
0.000544264123153656
0.00123853776341184
0.0019226518700922
0.00238634940581479
0.0024697974303022
0.00212519483755969
0.00144364919773999
0.000645728039897939
8.7018659143635e-05
8.20286500435457e-05
0.000579829625212365
0.00132718606189618
0.00209921602580724
0.00270253128324701
0.00298087541254524
0.00285520412591475
0.00234069278322276
0.00154654906861253
0.000677244560202043
8.76925459545984e-05
6.92024766738099e-05
0.000576458245444397
0.00139618822642296
0.00224479334219051
0.00296323148593006
0.00340562224482045
0.00348449231082426
0.00317869705918577
0.00253080118140628
0.00164371479570388
0.000700754671049469
6.99573085958274e-05
7.1466531083722e-05
0.000620201757625957
0.0014394844742071
0.00236151025276427
0.00317706290262131
0.003756082624438
0.00401269348616937
0.00391139479322218
0.00346183316788675
0.00271426161470626
0.00175684458350297
0.000757781638126778
7.37473627865026e-05
7.232385285417e-05
0.000609500025635144
0.0014914553993769
0.00245336396680593
0.0033505317951514
0.00404368105740903
0.00445063327445292
0.00453211506517041
0.00428277378029711
0.00372838448097867
0.00292447192253187
0.00197928410565261
0.00147717867757237
0.000805367235150991
7.3313569565388e-05
0.000617158583046191
0.00151099536455757
0.00252685833926786
0.00348988070463814
0.00427810732564751
0.00481095734742191
0.00504953937316883
0.0049821496287684
0.00462150267547238
0.00400738728235151
0.00322254847328904
0.00255605664088905
0.00223340226511975
0.00152208272918531
7.41106026624614e-05
0.000625605497113225
0.00153489809400143
0.0025822651866843
0.00360198258356855
0.00446794081802668
0.00510534370349508
0.00547644082095116
0.00556722790596864
0.00538267393671334
0.00495033890809903
0.00433121597858965
0.00367286029571293
0.00314703001281838
0.00272598724836497
0.00192959856389916
7.46880613902373e-05
0.000632296160741546
0.00155592698403836
0.00262858302939083
0.00369098508245895
0.00462049188452819
0.00534387445499363
0.0058254808821924
0.00605078014918896
0.0060202146962562
0.0057514967855655
0.00528725727609248
4.9193136845834e-07
5.21341104752882e-06
3.26735501244802e-06
1.67054052850116e-05
8.09292357864397e-05
8.95647646995206e-06
3.40030084153141e-05
0.000205437950578462
0.000177956511766722
1.64806016755329e-05
5.4393232135482e-05
0.000326478937439938
0.000470299269892974
0.000257353022049342
2.53671337606769e-05
7.4144566511417e-05
0.000435188261501967
0.000752040067114787
0.000685403344059386
0.000325971679277826
3.53837193122702e-05
7.15825511282247e-05
0.00052087174958976
0.000992338683422137
0.0011327163925804
0.000857500106315283
0.000387799570158418
4.6273369540792e-05
7.69680027762601e-05
0.000561969713194304
0.00118253405626622
0.00153007018532584
0.00144440168308095
0.00100153894433752
0.000444381580987585
5.75208983669521e-05
8.20401713169306e-05
0.000604594199831592
0.00132048756964491
0.00185616410653246
0.00199153412675681
0.00170015108212164
0.0011252488060382
0.000495702363018574
6.83802523766304e-05
7.76708474873302e-05
0.000540706418420672
0.00123175140286616
0.00191293458869184
0.00237490161517633
0.00245845840212407
0.00211570853140423
0.00143696324442503
0.000642193492796404
8.63125815393999e-05
8.3436921636412e-05
0.000577840425605328
0.00132167780619488
0.0020907707738803
0.00269195711644199
0.0029695145826717
0.0028445909527511
0.0023319722326682
0.00154037921248666
0.000673996833177955
8.71332339576206e-05
6.89661522160553e-05
0.000599211501004821
0.0013932935793726
0.00223791276996109
0.0029540483676991
0.00339511043729741
0.00347384576023911
0.00316908417228052
0.00252318688437684
0.00163881153703328
0.000698673663323635
6.95999747181685e-05
7.08590685774158e-05
0.000590986915604706
0.00143396448424118
0.00235596695281781
0.00316952975737199
0.00374700763542247
0.00400295273139143
0.003901944928935
0.00345355651047353
0.0027079797099905
0.00175292250701713
0.000754407424073548
7.33397478329515e-05
7.22302150103387e-05
0.000607845575957798
0.00148522407010447
0.00244708848824338
0.00334469731448093
0.00403637622823407
0.00444239711606935
0.00452365211421581
0.00427476947377492
0.00372147116766514
0.00291916518530342
0.00197497701924155
0.00147230166493301
0.000802768722886637
7.3248858450828e-05
0.000616518941366104
0.00150925998403379
0.00252389812487578
0.00348578498004278
0.00427278875509657
0.00480465809786651
0.00504272472685731
0.00497528524475832
0.00461503272675669
0.00400167491573056
0.00321762288032178
0.00255113939886354
0.0022297910384526
0.00152130127195705
7.40777606496825e-05
0.000625284066030619
0.00153403505225411
0.00258076637886732
0.00359969721105597
0.00446475585599496
0.00510136881558503
0.00547186724471126
0.00556230712943331
0.00537767166179634
0.00494547680624508
0.00432654898443225
0.00366785823949534
0.0031422561417091
0.00272361221530935
0.00193033629399506
7.47093262641341e-05
0.000632355842761057
0.0015560129711043
0.0026286985594039
0.00369090000368405
0.00461995772283833
0.00534280984115846
0.00582389553799726
0.0060487249857543
0.00601781038643184
0.00574889227345182
0.00528455245301543
0.00470974575340528
0.00413621724794972
0.00361142857891019
0.00303505319355907
0.00217556579859553
7.51390657441069e-05
0.000637628704689784
0.00157329479918573
0.00266740021597558
0.00376398639810167
0.00474419969822391
0.00553755830959765
0.00611020823805864
0.00644800122657236
0.00654897463752597
0.00642394788369896
0.00610130977849883
4.17434529055571e-07
4.68816241007715e-06
2.92171556351186e-06
1.54870884858887e-05
7.75773475214356e-05
8.24298120262968e-06
3.20978163935394e-05
0.000200289111319002
0.000172623027849675
1.54544256681549e-05
5.20583178793161e-05
0.000320183856022796
0.000462088310562195
0.000251092662016503
2.41043459344824e-05
7.20455684852693e-05
0.000428613319505926
0.00074232361830727
0.000675370965942129
0.000319463164770478
3.39664498813529e-05
8.5959719151101e-05
0.000517512647427434
0.000982370919892637
0.00112062906512366
0.000846879626341305
0.000381460758092965
4.47875005007757e-05
7.62807574685262e-05
0.000560025129391127
0.00117320815801649
0.00151719639520358
0.00143131467427029
0.000991180279833316
0.000438485741379492
5.60628495468714e-05
8.12999155725843e-05
0.000600971069870683
0.00131214217554662
0.00184351425259358
0.00197738620077431
0.00168721497291069
0.00111569496285325
0.000490437569754459
6.70464118226656e-05
8.54026109428549e-05
0.000638186417899085
0.00142882713724881
0.00210386527293967
0.00244435777020938
0.00236076467675312
0.00190095394996652
0.00122339762684148
0.000536361870205225
7.67757684884869e-05
8.29046301976573e-05
0.000574623714490349
0.00131477236113705
0.00208026355440618
0.00267878985733265
0.00295531813910659
0.00283122584104924
0.00232092048086685
0.00153242314725435
0.0006693006028087
8.61364866921537e-05
8.49039113762177e-05
0.000602793860566692
0.00138886971052051
0.00222923393998781
0.00294247789011996
0.00338184771685452
0.00346036677938433
0.00315678326194154
0.00251317033760404
0.00163169839112798
0.000694745510405918
6.89593443964641e-05
7.06272562666882e-05
0.000590955045355294
0.00143975730900343
0.00234953953238328
0.0031598892788345
0.00373535892793432
0.00399040408445679
0.00388968242037291
0.00344267744985474
0.00269950826416031
0.00174755718033263
0.000746873411792786
7.26117184279457e-05
7.2036048882034e-05
0.00060332734506201
0.00147021218718809
0.0024409234529318
0.00333697232256929
0.00402668511044977
0.00443147655077939
0.00451238356392368
0.00426403016849472
0.00371211346859787
0.00291195697172568
0.00196920938795443
0.00146550952894674
0.000798665833167385
7.31557013819724e-05
0.000615506600793706
0.00150604400747948
0.00251857243031123
0.00347959771149249
0.00426520113772727
0.00479576951348928
0.00503313759088475
0.00496562742571731
0.00460590737427765
0.00399363507905503
0.00321079146093897
0.00254451991055255
0.0022245352800988
0.00152047529892447
7.40142270089233e-05
0.000624681975926465
0.0015324323138261
0.00257793597062792
0.00359558043204524
0.00445932745024035
0.0050947856292829
0.00546446290396978
0.00555448082594887
0.00536981492703875
0.00493793367552403
0.00431951225813078
0.00366110279892769
0.00313619478756285
0.00271994305139058
0.00193217952064821
7.46794602990485e-05
0.000632057035963831
0.00155519245413979
0.00262720805126239
0.00368862973348076
0.00461680721354837
0.00533878621195056
0.00581911876762078
0.00604337895059687
0.00601211101581409
0.00574303577555935
0.00527865090709141
0.00470366597713457
0.00413018276104535
0.00360655348286157
0.0030326312721783
0.0021790224745009
7.51573884793433e-05
0.000637707320474639
0.00157341431373091
0.00266752636256335
0.00376392191719731
0.00474375791631612
0.00553660517793493
0.0061086877656865
0.00644591811723269
0.0065464094425098
0.00642102054932349
0.00609813954125881
0.00563131454518469
0.00509306315139949
0.00453512218761584
0.00393528877484252
0.00322747037763141
0.0023427756215808
7.54957743330515e-05
0.000641744586947928
0.00158709866008348
0.00269885745395202
0.00382347887636402
0.00484489745410716
0.00569533403880763
0.00634294846889384
0.00677444575810042
0.00698674245842029
0.0069862229238895
0.00679145574895518
3.43091683862609e-07
4.11458384450458e-06
2.54527341457647e-06
1.41087344210844e-05
7.34274832610328e-05
7.43776633100426e-06
2.98922245064543e-05
0.000193825125488584
0.000166151559262352
1.42789506559351e-05
4.92944735438156e-05
0.000312385827833357
0.000451943188100992
0.000243573082721316
2.26436226719085e-05
6.92523442280465e-05
0.000420320691985498
0.000730343747902776
0.000663168866065303
0.000311662013692905
3.23103885583243e-05
8.44653623869162e-05
0.000510543016260407
0.000970031863750437
0.0011059174527896
0.000834023223594954
0.000373849403225111
4.3032067457904e-05
7.5579523036711e-05
0.000574776880425141
0.00116327556693366
0.00150167197295524
0.00141540866436046
0.000978626233568822
0.000431362313497986
5.43156419427508e-05
8.05029624697292e-05
0.000597387541250986
0.00130353170719424
0.00182834941740116
0.00196014213888376
0.00167144995317465
0.00110406803591697
0.000484041031329023
6.54217951229045e-05
8.45179789533477e-05
0.000633765196770497
0.00141926076235827
0.00208948742756563
0.00242705540922491
0.00234343543886801
0.00188627574683291
0.00121311169564476
0.000530849408925757
7.5456856441268e-05
8.48806817734585e-05
0.000663904458006503
0.00152266014619996
0.00230719203690824
0.00281462035196117
0.00293774985411357
0.00266253801210814
0.00206730535765043
0.00130628015450554
0.0005704067487421
8.28262712256593e-05
8.45042303392809e-05
0.000600557971160905
0.0013825539989987
0.00221837013592058
0.00292805575862499
0.00336529645065028
0.00344346805526925
0.00314122994353463
0.00250023147568549
0.00162181817131254
0.000687892666711084
6.7407748741124e-05
7.08697626504224e-05
0.00061610609574392
0.0014397197219954
0.00234130597303726
0.00314772056287335
0.00372065442879513
0.00397450505506378
0.00387403038150572
0.00342855414656849
0.00268796359800657
0.00173906632293964
0.000740242693263596
7.18561363690248e-05
7.18405316288106e-05
0.000601717703666246
0.00146756969281016
0.00243631209214647
0.00332719766832529
0.00401424406943664
0.00441741811319105
0.00449779435868823
0.00424998514962764
0.00369965617382092
0.00290210920396299
0.00196027936805664
0.00145525601303593
0.000791913553119546
7.30145526544822e-05
0.000613857612083547
0.00150025725748898
0.00251026774739827
0.00347164164854217
0.00425512197163025
0.00478397696574906
0.00502039265851579
0.00495272073155142
0.00459361139870364
0.00398270356432252
0.00320150483066068
0.00253540443565867
0.00221600068739998
0.00151556875587583
7.39197345408027e-05
0.00062378557927136
0.00152997333663693
0.00257351768885603