/*--------------------------------*- C++ -*----------------------------------*\
  =========                 |
  \\      /  F ield         | OpenFOAM: The Open Source CFD Toolbox
   \\    /   O peration     | Website:  https://openfoam.org
    \\  /    A nd           | Version:  12
     \\/     M anipulation  |
\*---------------------------------------------------------------------------*/
/*   Windows 32 and 64 bit porting by blueCAPE: http://www.bluecape.com.pt   *\
|  Based on Windows porting (2.0.x v4) by Symscape: http://www.symscape.com   |
\*---------------------------------------------------------------------------*/
FoamFile
{
    format      ascii;
    class       volScalarField;
    location    "100";
    object      omega;
}
// * * * * * * * * * * * * * * * * * * * * * * * * * * * * * * * * * * * * * //

dimensions      [0 0 -1 0 0 0 0];

internalField   nonuniform List<scalar> 
10103
(
3.73734922155493
3.73735139990989
3.98683253486339
3.04791046762875
3.73734077550497
3.98685621615656
3.04790917893939
4.20371297736552
1.36332894258354
3.02834735616194
3.737337763125
3.98680068813873
3.04791210468647
4.20375907813518
1.36202646604622
3.02834794752523
4.33730861222848
1.25002273923242
1.14191564593183
2.99243724289199
3.73732114530662
3.98681679011599
3.04791498764207
4.203664915431
1.36187250918715
3.02835118919333
4.3373393973255
1.2489398876786
1.14178524980452
2.99244006801209
4.40627919263996
1.3074043763767
0.871109419552254
1.10581531788009
2.97494419100702
3.73728427170651
3.9867989189361
3.04790170369421
4.20369924186754
1.36109989057903
3.02835913660116
4.33728647904058
1.24824167922084
1.14253998711022
2.99244799032097
4.40629050079893
1.30650071959434
0.870234355481757
1.10631507085873
2.97495134666853
4.43507589818257
1.37454251417119
0.836694877024045
0.777908120441599
1.1208253766588
2.97384212483954
3.73722872139226
3.98676421136003
3.04792987876444
4.20369169356904
1.35946577100389
3.02836007758106
4.33729950117782
1.24733670353274
1.14279739601308
2.99246698653983
4.40628175629652
1.30565878651862
0.869845434178205
1.10701685198785
2.97496934782962
4.43508596841634
1.37390652839971
0.835807864205752
0.777601634612735
1.12130729365736
2.97385721902173
4.43971636349095
1.43129266759547
0.850595656480406
0.696141362349784
0.761839076389487
1.1669949365615
3.61253683307449
3.73714643361032
3.98670658375187
3.04794837432847
4.20367229261342
1.35702783723624
3.02840564255434
4.33730123297346
1.2460484532149
1.1424185291291
2.99250586118799
4.40627431959321
1.30459687477418
0.86927524399681
1.10756203740607
2.9750102350848
4.43508636903859
1.37314805217102
0.835166108790744
0.777389286148087
1.12172548363575
2.97389427764657
4.43972528214075
1.43091213539208
0.84992815860151
0.695628300648192
0.76181297901471
1.16720638308528
3.61083123165625
4.43310442460738
1.47681062055332
0.874788083025198
0.678248045997692
0.650440578621123
0.778644746550549
1.283038412173
3.82997375930523
3.73702866342576
3.9866247707707
3.04797769752047
4.20363732171202
1.35378954161313
3.02845593145822
4.33729825297123
1.24431568189615
1.14115906204848
2.99257645964016
4.40627734069788
1.30321364392053
0.868382383138484
1.10774455758767
2.97509292121143
4.43507521138449
1.37211623441555
0.834354118709781
0.777033022469479
1.12224018930668
2.97397663997968
4.43973336842385
1.43027952364188
0.849313863420785
0.695156802097669
0.76162370395021
1.16733269894543
3.60825305597563
4.43310833819501
1.47661544696457
0.874340473534373
0.677781207476127
0.650194897005529
0.778549907112748
1.28281872623325
3.82814906262208
4.42456998660237
1.51341384228488
0.899738691224314
0.681192250458653
0.610956668506921
0.643291573023378
0.816353118351226
1.36260069200867
4.03821648289119
3.73686764118494
3.98651152396347
3.04801915079783
4.20358842097583
1.34969591352346
3.0285325872903
4.33728088860487
1.24207606454731
1.13901618625858
2.99269304030253
4.40628011236471
1.30144669519926
0.86700721952251
1.10694555705712
2.97524339474053
4.43507851029866
1.37074651493288
0.833267456758613
0.776404488710805
1.12329489527699
2.97414178543704
4.43971614115761
1.42932846642645
0.848494873276116
0.694510317787093
0.761330328920972
1.16808402981073
3.60343609626313
4.43311275021557
1.47609910853859
0.873807673126415
0.677280257116067
0.649780162060128
0.778252702501912
1.2822514243989
3.82548662018922
4.42456977819959
1.51331596163403
0.899453946907076
0.680826473708577
0.610663896543401
0.643039488017685
0.816094343873917
1.36220801030429
4.03625671130244
4.41827024575506
1.54387029026186
0.923165200515183
0.691518697219682
0.598703931876996
0.586917503983672
0.653878377279494
0.853327063239349
1.43627077369918
4.25353657659038
3.73665261468742
3.04807018476487
3.98635918382598
4.20352274260704
1.34469799412228
3.0286380357441
4.33726201484686
1.23925941998988
1.13583723493932
2.99286812541596
4.40627353604342
1.2992341859346
0.865080587541313
1.10508394812368
2.9754914056977
4.43507944353046
1.3689875433168
0.831821491208627
0.775242715902467
1.12256837494992
2.97444144727839
4.43972260943726
1.42801018720204
0.847399645471929
0.69360980745911
0.760965646121385
1.17155349517824
3.58960952552742
4.43310458148978
1.47524607849199
0.873037227452841
0.676586776824934
0.649178092646993
0.777985657137851
1.2813115034507
3.82123122935107
4.42457057845584
1.51288116014635
0.898992380890193
0.680358804129689
0.610203023904304
0.642575746418763
0.815531159392625
1.36133418950182
4.03360066825363
4.41827379458625
1.54383701571707
0.922989799329121
0.691241713773568
0.598427266373883
0.586622948779954
0.653537210251987
0.852925007572922
1.43566726728133
4.25113166331087
4.41468847815087
1.57216912638903
0.945123993145647
0.704490294409049
0.598179468348533
0.562731755747348
0.582619163978489
0.670282411646702
0.88815437954151
1.51115628423066
4.59844796223394
3.73636100712315
3.04812856616502
3.986177159555
3.02876727472946
1.33872229112076
4.20343550655953
4.33723769441154
1.23578403205425
1.13176330617704
2.99310457387179
4.4062689143869
1.29650182064874
0.862506320271388
1.10220319814587
2.97586066853844
4.43508062320651
1.36678070528424
0.829947867744695
0.773442216957396
1.12037356060188
2.97493357574233
4.43972415789802
1.42628264670741
0.845972709921658
0.692356252616815
0.759816075989401
1.17106816680319
3.58325299399951
4.43310349426461
1.47399070367576
0.871979802814143
0.675647608148253
0.648356125460451
0.778041322840673
1.27999444755603
3.81405504313001
4.42456961313311
1.51213466013991
0.898268356324168
0.679686670181066
0.609542679621542
0.641941017295835
0.81474798680412
1.35990262748878
4.02972119955565
4.4182697262471
1.54346185368095
0.922566313892662
0.690812891256684
0.597980140635444
0.586132194789583
0.652952506572048
0.852142612393232
1.43449774042157
4.24791981990942
4.41469615940661
1.57140575504985
0.945043377303662
0.704280960740816
0.597933404563653
0.562442212821485
0.582263200919851
0.669836566049506
0.887585015295496
1.51031989146495
4.59519958886721
4.41297865150931
1.60689072563917
0.966831399653653
0.718442791499878
0.603110932622497
0.553579915946793
0.548586735516823
0.586931803660977
0.687348115334523
0.91879022582017
1.5953872625393
5.8170625491602
3.73597001609313
3.04819214804633
3.98586592895936
3.02891045680058
1.33163088720959
4.2033414642153
2.99338842102497
1.12663741710924
1.23153613254256
4.33720574194912
4.40626270054063
1.29315856525025
0.859280011141179
1.09880329539971
2.97635217452197
4.43508457337518
1.36404702259889
0.827567979410724
0.771000414301119
1.11642118011982
2.97566089829504
4.43972696868825
1.42410736289652
0.844155065355266
0.690673603669944
0.757858670340964
1.16805605204088
3.57682793471485
4.43310881036563
1.47230633367591
0.870591587154081
0.674410441537103
0.64713049879498
0.776863807247607
1.2776983063516
3.80733153365881
4.42456137573636
1.51090262564926
0.897244754162734
0.678772338377146
0.608651421707945
0.641139625974263
0.813763654596214
1.35768597572131
4.02392658097112
4.41826801530798
1.54277031597124
0.921857462602427
0.690168529812416
0.597337598602227
0.585443606055968
0.652142590755722
0.851016851735605
1.43271184324311
4.24413321211273
4.41468665981303
1.57086228491841
0.944621305724587
0.703876052018996
0.597512832259204
0.561971966833433
0.581702290399407
0.669118239587124
0.886581343021721
1.50876613992942
4.59044042634793
4.41298208579994
1.60181526334735
0.966748623731542
0.718290990133142
0.60289454664941
0.553309999381296
0.548247532030284
0.586497160372462
0.686780501797325
0.918052205549829
1.59448240207387
5.81249893243363
5.24727274287652
1.63167839632045
0.990607973435654
0.732887215931705
0.610697860777321
0.552052788671385
0.532413421426637
0.5449111546119
0.59404139918001
0.70083556607537
0.936349645772642
1.6273306075235
3.73542850845234
3.04826009650922
3.98554453769171
3.0290614195225
1.32319965107991
4.20314921555509
2.99369149855641
1.12023473691289
1.22638377149536
4.33716393661953
2.9769277438473
1.09456147042878
0.855275230336078
1.2890885290638
4.40625490917017
4.43507805427943
1.3606902907613
0.824616277697944
0.768041783850052
1.11274391707236
2.97661598811017
4.439735406989
1.42139753969103
0.841873694735928
0.688510984657362
0.75505194337878
1.16125396946823
3.57680027359341
4.43311223617488
1.47017914679278
0.868824939703168
0.672818369558859
0.645438363504389
0.77453821620937
1.2743879174572
3.79901215893271
4.42457074454339
1.50926664747445
0.895885829398309
0.677576643261121
0.607467373339022
0.639855099558382
0.812076765614055
1.35473083522522
4.01678923664488
4.41825931584835
1.54177623991288
0.920816229919109
0.689282134202881
0.596474069058751
0.584533393980546
0.651081633991188
0.849493447213187
1.43012612652562
4.23845661632218
4.41468373781182
1.57083947134967
0.943802200239662
0.703239486628631
0.596900516456008
0.561314027358221
0.580933791207608
0.668133531092302
0.885171171361742
1.50657776504126
4.58427003924272
4.41297538578652
1.60112237519282
0.966210484133376
0.717890055001655
0.602496874621778
0.552870538646458
0.547729298495419
0.585848557108794
0.685911959483851
0.916786549070014
1.5923062103804
5.80507798946311
5.24717773513453
1.63062248756215
0.989391818889612
0.732774767753152
0.610509523911904
0.551805140240233
0.532100046103079
0.544511633314872
0.593522789136989
0.70015879415252
0.935596595856809
1.62615855569366
4.44208536918121
5.32675708579684
1.7336738835344
1.01060075624249
0.747558126906667
0.619549934638989
0.554563695364831
0.52564709167315
0.523081839092287
0.545743073710313
0.599842127427428
0.704061553876506
0.904687596268238
3.73469763655541
3.04834526558004
3.98511409370256
3.02922984717811
1.31325190121013
4.20299215625941
2.99398959432219
1.11230279349093
1.2201470269425
4.33710942990764
2.97751119685036
1.08918572123595
0.850334728782282
1.28415356679824
4.40624563905747
2.97770537882038
1.10862798955433
0.764405964032153
0.820984276709107
1.35659512133473
4.43507133324402
4.43972516836721
1.41804440135326
0.839046736700867
0.68584326288624
0.75195940425905
1.1565613668941
3.56306254726954
4.43312040385567
1.46752196507198
0.866609959221732
0.670810374374562
0.643234549149393
0.770907539553155
1.26988309171014
3.78962531997261
4.42457469765671
1.50726077267574
0.894155954270996
0.676052417416606
0.605937864195817
0.63803167619186
0.809635578149115
1.35086019138263
4.00744019009235
4.41826963566356
1.54033789676581
0.919459187276568
0.688119688351179
0.595352630895128
0.583323177328713
0.649616067805782
0.847431107480899
1.42664161292855
4.23075929534779
5.17842129564086
1.57417331128923
0.942767413915666
0.702352746349844
0.596075779554216
0.560446281557066
0.579931839270898
0.666847732706041
0.883296377476553
1.50351882873012
4.57569022499805
4.41297161728593
1.6047774397551
0.965433117907142
0.71720277474129
0.60190658016765
0.552255517588912
0.547026826303589
0.584980973590524
0.684743973556943
0.915044517606296
1.58932865326494
5.80073829930731
5.24451453551176
1.63004246116186
0.988813153493654
0.732341732361756
0.610127154893484
0.551395169448115
0.531625372742705
0.543932935006963
0.592779355096756
0.699141964956104
0.934097725023522
1.62342965642941
4.43558124966095
5.3269511667319
1.73365774198613
1.01006407236373
0.747339389692804
0.619386106095433
0.554337825591025
0.52536035570702
0.522720231201939
0.545282740387714
0.599251743416258
0.703361085505756
0.904056386935506
0.986673578070449
1.24796465437182
5.39291307451761
1.7673669742664
1.03687941870815
0.761029413378017
0.628784788657223
0.559183560522763
0.524088803169449
0.512120435120632
0.519587099796705
0.547356192200575
0.600364867817753
0.686208737554037
3.73376668954166
3.048482783321
3.98461401927223
3.02945354012724
1.30174673704683
4.20280529136216
2.9942910102377
1.10275087137342
1.21263444480076
4.33706569708152
2.97802345510432
1.08237218391965
0.844289063694038
1.27819453038249
4.40623384469903
2.97874411127788
1.10354351476317
0.759905942186638
0.816544054878127
1.35161879553019
4.43507478299561
3.5452341887845
1.15183986054239
0.748331303529536
0.682564006415107
0.835571903344617
1.41393106454695
4.43971475459327
4.43311048421536
1.46418415750853
0.863858588119184
0.668321687042647
0.640590882425545
0.767351857787902
1.26398871611246
3.77530864575765
4.42458348821906
1.50468363629645
0.891987588224623
0.674140833324084
0.604008675286838
0.635615524825261
0.806344906267341
1.34599231627741
3.99565260601111
4.41827419319998
1.53817849525648
0.917773205984284
0.686640683606579
0.593929100756705
0.581762123595962
0.647683641793073
0.844749283850451
1.42200382227639
4.22076728687936
5.17845709646729
1.57326611725497
0.941473616832635
0.701198764193537
0.595007535363056
0.559331848238261
0.578641484557614
0.665188553471956
0.880867922075355
1.49918105327224
4.56449393502565
4.41296243576115
1.66753407748486
0.965235771481139
0.716295374440686
0.601107323525932
0.551445736012202
0.546118760688005
0.583868754578948
0.683243403221183
0.912762927699105
1.58524257900122
5.79509469805688
5.24006756405462
1.63019397789217
0.988827463421759
0.73162861621948
0.609538424215427
0.550818121036844
0.53098549677743
0.543170130862983
0.591804792835718
0.69778951773723
0.932033169351359
1.62060651370268
4.42813149893777
5.32438695493485
1.73297420233973
1.00956496619858
0.746918523666601
0.619010132181491
0.553953279884528
0.524925485647171
0.522202811698547
0.544641147724504
0.598420426516008
0.702235146468729
0.902486991299091
0.985433209500118
1.24588725972495
5.39316777611164
1.7675843781522
1.03676466773657
0.760762338051085
0.628624010953148
0.558979000448104
0.523827329935711
0.511793869870566
0.519179140375561
0.546845901377704
0.599752109180801
0.685603903709012
0.761241041585227
0.757408065804225
0.849540520505988
5.44661120320799
1.78951741626375
1.05341241444178
0.773603613113089
0.637603442545764
0.564750295896748
0.525429220224262
0.507330595796524
0.505441282025265
0.518431722108911
0.547043641848472
0.591999682483396
3.73273214225141
3.04875147233586
3.98413707827086
3.02981072677852
1.28861862647271
4.20266882073121
2.9946608096763
1.09159092407536
1.20366718365571
4.33705768860459
2.97844811532053
1.07395163836351
0.836994999860227
1.27102532981913
4.40624125098417
2.97952090987583
1.09704977141982
0.754358626196026
0.811157241510111
1.34559544408279
4.43507790662619
3.5232111979554
1.14607987438126
0.743893843373451
0.678545245276188
0.831328260403278
1.40891291171326
4.43972288954153
3.75725439840072
1.25661518880084
0.76337982680402
0.637390231321181
0.665260738153241
0.86046977285414
1.46006128656555
4.43310355791921
4.4245732802205
1.50136060959518
0.889280005351945
0.67177003519828
0.601637811717584
0.632819978134272
0.802496376027801
1.33959732887624
3.98056727319747
4.418283770928
1.53554452474773
0.915622516668082
0.684790081870282
0.592150796407965
0.579799069912666
0.645227640973092
0.841370473483848
1.41638614617297
4.20824493210751
4.41469518915327
1.56693799419048
0.939676886443396
0.699745912685532
0.593656658559008
0.557929209310644
0.577015589287974
0.663097589980605
0.877779460747102
1.49354463551962
4.55322184455088
5.21181206896589
1.67217723935277
0.964037684526446
0.715151429585209
0.600073295564667
0.550412359921786
0.544972943437031
0.582473190322754
0.681359251551292
0.909770974732739
1.57982341063104
5.78967234201266
5.23457910195893
1.63991069384113
0.994039657631216
0.730823813943931
0.608748678211015
0.550056955697934
0.53016229549334
0.542203364567104
0.590575901819858
0.696070809450803
0.929302132557499
1.61711154667226
4.41850841404626
5.31968129377839
1.73185890040144
1.00908148009431
0.746343557566674
0.618423866155151
0.553404755192842
0.524339727031167
0.521526712136197
0.543813777340327
0.597343424288519
0.700730869696703
0.900372041706857
0.983157504416566
1.24251923325471
5.39073618525736
1.76693082873553
1.03634249310867
0.760371860493012
0.628267659725393
0.558616561250862
0.523427431723633
0.51132860699322
0.518618373018705
0.546148405336198
0.598858448980514
0.684444158241561
0.7600006045774
0.755744961126433
0.847213078452911
5.44701948548561
1.78977522555047
1.05344390702982
0.773462471556106
0.637438720014367
0.564563762288246
0.525191611309635
0.507035526540952
0.505077991903118
0.51798704217395
0.546517327013691
0.591454275610635
0.641047105381
0.668220839583601
0.681190410942834
0.764767364814627
5.48889254489992
1.80697204792795
1.06569961246055
0.783631965214999
0.645614698128501
0.570497679741262
0.528295854688373
0.506105763570765
0.498194533008397
0.502209126435477
0.517407698818517
0.543099399810635
3.73151955475405
3.04933261594638
3.98391687682987
3.03044320290094
1.27366624379316
4.20274494385181
2.99522890948021
1.07876641116628
1.19307900519389
4.33716974658718
2.97889182525409
1.06397708692249
0.828327311370218
1.26244018160261
4.40630343576115
2.97994622591734
1.08840488569677
0.747608921642213
0.804674076844646
1.33833539942677
4.43509295505786
3.49630836439546
1.13803568171421
0.73841584038891
0.673655716306169
0.826181146018078
1.40281070556891
4.43972784740026
3.7345304993377
1.24710898716483
0.758570633688919
0.633486381858132
0.661520027171112
0.856323647051534
1.4550284768972
4.43310362571774
3.96126636633004
1.3313091558424
0.797871258365969
0.629495960221191
0.598738436694223
0.668852755853635
0.885933042983726
1.49721478538473
4.42456921235463
4.41827315177398
1.53214524924051
0.912914663269856
0.682493780658429
0.589957044791238
0.577416810271457
0.642283854161658
0.837235264292318
1.40950118570556
4.19333311658356
4.41469688854442
1.56252048671271
0.937412112542279
0.697920766418899
0.591974354123627
0.556189877060503
0.57500419551641
0.660518745088088
0.874045165884292
1.48716616610224
4.53758852602165
5.20061715621797
1.60640387130008
0.961289643028018
0.713664246630361
0.598769630658874
0.549119037503769
0.543551524592197
0.58075405778543
0.679036799436552
0.906088266601777
1.57304075997477
5.89942986939198
5.23297917584073
1.70768307997169
0.993986444561201
0.729676772883531
0.607736492509867
0.549085721807614
0.529129770581989
0.541005487707991
0.589061702092738
0.693921339190761
0.925786858030718
1.61279841425998
4.40659337639155
5.31296138489411
1.73166434543075
1.01029196657503
0.746038361925177
0.617656386214853
0.552680164507429
0.523586837512541
0.520675698177055
0.542783774007689
0.596002742804326
0.698817459261178
0.89764729091379
0.980131080680418
1.23809732300087
5.38604118220547
1.76560166103512
1.0356250556268
0.759790727700218
0.627719189219032
0.558092950362713
0.52288670830094
0.510723354648201
0.517903134027334
0.54526167280332
0.597702304048307
0.682889592874275
0.758102962343386
0.753080710232234
0.842996052220388
5.44477943635807
1.7891532385667
1.05306968219146
0.77312298171482
0.637106699907436
0.564225665151347
0.524822737271804
0.506614709666654
0.504582334426206
0.517388841138656
0.545779610630642
0.590526714908945
0.639912099708584
0.666866198203194
0.679120258166245
0.761503571162754
5.48942354887416
1.80726104081309
1.06577787332762
0.783567531812663
0.645485202623165
0.570327073807631
0.528080723939716
0.505839165774393
0.4978695219007
0.501817801204316
0.516953371829177
0.542628852062514
0.57442439526398
0.601687663438125
0.620813249955507
0.652236913381656
0.736932804343923
5.52070435450962
1.82084107960148
1.07550978514709
0.791751084023525
0.652502539628181
0.575962683568381
0.531835713913739
0.506900523329625
0.495013078298891
0.493295925198214
0.500390596688935
0.5152861551534
3.73119428472262
3.05053386832833
3.98428819725289
3.03160179573688
1.25695030129719
4.20336756119692
2.99619148125814
1.06423710530265
1.18064883156976
4.33759606027879
2.9795889926814
1.05239754574986
0.818152227471919
1.25221685294041
4.40650204661802
2.98021101692259
1.07866986434736
0.739553255394057
0.796938139349352
1.32962117876701
4.43516288998876
2.98180967585644
1.12424996043075
0.731582484762268
0.66775847826644
0.819979989895933
1.39542517807475
4.43974510435196
3.70642936691271
1.2321628037949
0.752426891332564
0.628738849269557
0.656983719387393
0.851281525624456
1.44888189338616
4.43311186194363
3.93630237702673
1.32077350312016
0.792110619687034
0.625467043779522
0.595207424601138
0.665288159992768
0.881835116284242
1.49219284192799
4.42456125810728
4.17176564259982
1.4004443213446
0.832155608177314
0.638738041665149
0.574529202518153
0.587269730824179
0.679665126991132
0.909553958825792
1.5278809009326
4.41826854400994
4.41468992709466
1.5584768787703
0.934598359069513
0.695653122062344
0.58989906088022
0.554061797475835
0.572567376073884
0.657406174578477
0.869571135452857
1.48023420548638
4.52801059967811
4.412981495787
1.58920184389172
0.958257133539166
0.711797581819439
0.597146174340844
0.547521244793529
0.541809789690983
0.578665740771397
0.676254307354185
0.901879003171883
1.56580545355047
5.88697670788068
5.22142438831627
1.69999457913503
0.985757364389349
0.728013653047924
0.606450857424845
0.547871076086856
0.527855279932403
0.539544063685521
0.587227682878136
0.691323172385464
0.921450878106925
1.61414371917512
4.41606516325795
5.30447034119865
1.7369092793582
1.01633401761431
0.745057490287168
0.616655368573578
0.551755776915517
0.522643163734259
0.519627331863907
0.541529307457452
0.594370703459664
0.696448997903835
0.894162950775102
0.976353015513828
1.23311655281766
5.37911395417401
1.76381094283259
1.03499874178407
0.759248698152704
0.627015251410786
0.557400774503085
0.522190552407257
0.509963944144723
0.517020516719283
0.544174958553566
0.596276024943397
0.680938925864906
0.755663643977161
0.749720179705646
0.837302018001407
5.44024524452311
1.78781324792557
1.05231763039767
0.772545710770241
0.636589337623685
0.563732511524303
0.5243205711546
0.506067632956912
0.503954509968632
0.516638439605714
0.544847853375018
0.589332703283907
0.638407899288389
0.664939874337947
0.676385438839037
0.756647999730704
5.48738629141753
1.80668384301787
1.06543425851952
0.783267830544087
0.645184865511949
0.570013700088646
0.527740837164228
0.505456753614265
0.497427470846335
0.501296411773499
0.516327673915116
0.541859560648316
0.573442509100124
0.600526141467551
0.619292121759108
0.650074916762764
0.732934716439841
5.52148295486555
1.82115043306409
1.07561275312441
0.791722133524384
0.652404300601365
0.575814172191469
0.531642037560456
0.506659947804572
0.494721426294563
0.492948943737223
0.499994912362852
0.51488457336386
0.53542183994672
0.556846402484066
0.575911869052036
0.59874043625507
0.641157484867693
0.722877964839493
5.54243051151385
1.83157237752529
1.08336626691201
0.79838612808822
0.658322959189788
0.580893301776451
0.535522380472364
0.508762724477204
0.494222663461604
0.488734339199658
0.490643861130882
0.498845992973229
3.72980706632655
3.05303312703156
3.9858017671708
3.03371779020565
1.2385090657639
4.20505698251919
2.99783450459337
1.04783244514889
1.16615480561309
4.33872403581603
2.98084623152946
1.0389944196165
0.806316223169814
1.24011437595315
4.40704449504757
2.98079964889272
1.06749039018162
0.730082897315828
0.787785561697092
1.31921491775806
4.4353653944105
2.98127239084857
1.11306522879964
0.723546225557034
0.660722446803298
0.812558181794967
1.38652474021886
4.4398049416014
3.67340399620645
1.18112468294467
0.744238322095908
0.62298369615285
0.651524850667266
0.845188887898761
1.44142043081849
4.4331268676292
3.90501439465887
1.30692323261313
0.78435869211517
0.620532887849599
0.590936242033112
0.660963621014096
0.876840028527722
1.48603412564389
4.42457271021127
4.14274481661457
1.38893565568375
0.825880818713232
0.634422845823522
0.571032302300466
0.583999201188906
0.676206863895602
0.905457861832765
1.52291118312073
4.41825941046303
4.49887323092187
1.47072705867794
0.864124937150298
0.653659774449296
0.569627104997802
0.551473682123321
0.587356166082623
0.692856263783514
0.931092765364826
1.55429933614443
4.41468508493501
4.41297828644528
1.58346069471323
0.954977328223291
0.709492042835646
0.595143496675651
0.545564985631139
0.539698133499535
0.576158547856681
0.672961831794475
0.897148181968322
1.56001249114399
5.92711127836782
5.20089533891011
1.62759103107809
0.9797108412531
0.725944114737451
0.60484885760746
0.546370752636248
0.52629895280123
0.537780665658353
0.585043419384949
0.688304300803651
0.916741216922584
1.60828941812661
4.398286112457
5.29237239028425
1.73321608179137
1.01339294690558
0.742873889955117
0.61535776343961
0.550596271085933
0.521478634486633
0.518353693415364
0.540024856613727
0.592428859895932
0.693615035835614
0.890234603347749
0.972153735651029
1.22838074520367
5.36981530944237
1.76197681078641
1.03508203895492
0.758880698468158
0.626051172224807
0.556512701043486
0.521316623890071
0.50903013819165
0.515953026759705
0.542873339089102
0.594564694586702
0.678549758657865
0.752641854287028
0.745822746826674
0.831857582658203
5.43343670028882
1.78579895144361
1.05125984488014
0.771789774782412
0.63590290988058
0.56307567195403
0.523671731821988
0.505381320783097
0.503183801762199
0.515729142682865
0.543723395456224
0.587885206510101
0.636562192711561
0.662549806288063
0.672999335837083
0.75045070764881
5.48304701619544
1.80538723925098
1.06469943892327
0.78271564285909
0.644698881304671
0.56955117186427
0.527274161354338
0.504958348079237
0.496869495956628
0.500648272491577
0.515550378168062
0.540899961833388
0.572245665153423
0.599038901354039
0.617335918457806
0.647311106567925
0.727966376469587
5.51968654550513
1.82061830800608
1.07529587727151
0.791450161755739
0.652132519391369
0.575526869042711
0.531329567041468
0.506311446284912
0.494324433175724
0.492489092704154
0.499454302961422
0.514231329415952
0.534580381689791
0.555855292763228
0.574693295856963
0.59714304012287
0.638971849261645
0.719926484559178
5.54339008242245
1.83190812891732
1.08348532343657
0.79837854389342
0.658247115733162
0.580766323895774
0.535350229489233
0.508546379805153
0.493960557055507
0.488425058135121
0.490296660589707
0.498503284756595
0.511685627339896
0.527348626083264
0.543431516160975
0.561531472908392
0.589300632743544
0.637931871162093
0.718518184985116
1.8393613402317
1.08953786870899
0.803761334773157
0.663180221066137
0.585203191861208
0.539050073204305
0.511100342552762
0.494794019876158
0.486787923156553
0.485267500864594
0.489083940592744
3.73222390316149
3.05702376403129
3.98802086140757
3.03739650218479
1.2184791545942
4.20832058114266
3.00059479822098
1.02965329215969
1.14938768364273
4.34115802681052
2.9830000182944
1.02366157957412
0.792645235712027
1.22588312927469
4.40834345907444
2.98228923855998
1.05436021427829
0.719045679586717
0.777039594242649
1.30686260717325
4.43591004973567
2.9812211633034
1.10103669086763
0.714178701294148
0.65241930986331
0.803738117745622
1.37586407214252
4.43999119860972
3.63710268927052
1.16460908283757
0.735405772009178
0.616147594795065
0.645009413134087
0.837871951029214
1.4323953572987
4.43317923465626
3.86493017793369
1.28707779188393
0.772041359066179
0.614481912121502
0.585804622557268
0.655755376741652
0.870790465181019
1.47854048507345
4.42458602420099
4.10661488154349
1.37408370576104
0.817969001451043
0.629087269288367
0.566811086633888
0.580047635911013
0.672007028194901
0.900465099707593
1.51679734780891
4.41827085300465
4.46424622836166
1.45741202680566
0.857454670409157
0.64914140137353
0.566084884258593
0.548343136428333
0.584260749544522
0.689441080941163
0.926936061375101
1.54918402394244
4.41467513577452
5.83023670164794
1.54940373153348
0.891584278831073
0.669072505608885
0.57316469060234
0.537152678323824
0.54318476869193
0.592687536172414
0.706642908886877
0.951250635694626
1.58254588536311
5.19373579491846
5.18097000125632
1.62047936152403
0.975657214955234
0.723469323089084
0.602874756665919
0.544532819437247
0.524412669692621
0.535671030406545
0.582472567345729
0.684866975077594
0.911988716296229
1.60695264390733
4.38220747328884
5.2764990152957
1.72077111028901
1.00301444640671
0.740281440144506
0.613734920702193
0.549161834814841
0.520056060883686
0.51682092429653
0.538242885867243
0.590173087543327
0.690443918063862
0.885716469648578
0.967175591524282
1.22116652783437
5.35765234067045
1.75836239752797
1.03294004531302
0.757193945166468
0.624720714626937
0.555391907474813
0.520235562850965
0.507896313891118
0.514679291585878
0.54134274512852
0.592567167931077
0.67574567379544
0.749085482927867
0.741309982331581
0.826025500214427
5.42416932384456
1.78311575452547
1.04995849967937
0.770888573411897
0.635024938237715
0.562224124140762
0.522853834668073
0.504536603512367
0.502254674985351
0.514650600889659
0.542402639963652
0.586182433958217
0.634374520936346
0.659731395321562
0.669105504046338
0.744612718732912
5.47641658866975
1.80338527490135
1.06358225967663
0.781912670428574
0.644021126003221
0.568927319761732
0.526667189124781
0.504331558793158
0.496185885076081
0.499868587545726
0.51462650771242
0.539768716090874
0.570840122787118
0.597268403601063
0.614989513135838
0.644083772345727
0.722919083972659
5.5155450122545
1.81937291068594
1.07458896252776
0.790925170408318
0.651676949046434
0.575094802112872
0.530895929868484
0.505854894763945
0.493823532689424
0.491920539701286
0.498789957178004