/*--------------------------------*- C++ -*----------------------------------*\
  =========                 |
  \\      /  F ield         | OpenFOAM: The Open Source CFD Toolbox
   \\    /   O peration     | Website:  https://openfoam.org
    \\  /    A nd           | Version:  12
     \\/     M anipulation  |
\*---------------------------------------------------------------------------*/
/*   Windows 32 and 64 bit porting by blueCAPE: http://www.bluecape.com.pt   *\
|  Based on Windows porting (2.0.x v4) by Symscape: http://www.symscape.com   |
\*---------------------------------------------------------------------------*/
FoamFile
{
    format      ascii;
    class       volScalarField;
    location    "100";
    object      p;
}
// * * * * * * * * * * * * * * * * * * * * * * * * * * * * * * * * * * * * * //

dimensions      [0 2 -2 0 0 0 0];

internalField   nonuniform List<scalar> 
10103
(
83333.3326450022
83333.3326320371
83333.3326374093
83333.3326471319
83333.3326181038
83333.3326243017
83333.3326342344
83333.3326241176
83333.3326401381
83333.3326540028
83333.3326031406
83333.3326102997
83333.3326203702
83333.332610876
83333.3326271109
83333.3326412509
83333.3326053149
83333.3326279135
83333.3326472478
83333.3326677552
83333.3325869936
83333.3325952881
83333.3326054709
83333.3325967756
83333.3326131553
83333.3326275347
83333.3325919804
83333.3326148075
83333.3326343243
83333.3326551665
83333.3325807513
83333.3326088228
83333.3326355137
83333.3326624566
83333.3326906045
83333.3325695622
83333.3325791207
83333.332589372
83333.3325816553
83333.3325981737
83333.3326128072
83333.3325777869
83333.3326007984
83333.3326204607
83333.3326415769
83333.3325673146
83333.3325955968
83333.3326225264
83333.332649771
83333.3326783111
83333.332551311
83333.3325835454
83333.3326163809
83333.3326514385
83333.3326867187
83333.3327217567
83333.3325507718
83333.3325617178
83333.3325719672
83333.3325654009
83333.3325820278
83333.3325968917
83333.3325625887
83333.3325857552
83333.3326055662
83333.3326270088
83333.3325529989
83333.3325814665
83333.3326086036
83333.3326361065
83333.3326649715
83333.3325377641
83333.3325701769
83333.3326032648
83333.332638687
83333.3326743946
83333.3327099556
83333.3325175533
83333.3325534224
83333.3325906435
83333.3326323652
83333.3326767134
83333.3327198936
83333.3327604724
83333.3325305886
83333.3325430109
83333.3325531746
83333.3325479529
83333.3325646323
83333.3325796476
83333.3325462979
83333.3325695753
83333.3325895074
83333.3326112976
83333.3325377064
83333.3325663276
83333.332593628
83333.332621414
83333.3326506601
83333.3325233232
83333.3325559025
83333.3325892027
83333.3326249505
83333.3326610141
83333.332696996
83333.3325038809
83333.3325399262
83333.3325773787
83333.3326194886
83333.3326643148
83333.3327080767
83333.3327494453
83333.3324798563
83333.3325191352
83333.3325598457
83333.3326058789
83333.3326578176
83333.3327114074
83333.3327603697
83333.332806449
83333.3325090245
83333.3325229721
83333.3325329581
83333.3325292652
83333.3325459123
83333.3325609569
83333.332528871
83333.3325521871
83333.3325721703
83333.3325942405
83333.3325213731
83333.3325500993
83333.3325775086
83333.3326055847
83333.3326352686
83333.3325079294
83333.3325406527
83333.3325741143
83333.332610151
83333.332646604
83333.3326828491
83333.3324893258
83333.3325255116
83333.3325631567
83333.3326056095
83333.3326508598
83333.3326951141
83333.3327371945
83333.3324660172
83333.3325055313
83333.3325464622
83333.3325928514
83333.3326452893
83333.3326995143
83333.3327492765
83333.3327963834
83333.3324386174
83333.3324810307
83333.3325246338
83333.3325735974
83333.3326303715
83333.3326925768
83333.3327539716
83333.3328078849
83333.332858335
83333.3324861323
83333.3325016149
83333.3325113432
83333.3325093138
83333.3325258301
83333.3325407649
83333.3325102733
83333.3325335294
83333.3325534481
83333.3325756496
83333.3325039701
83333.3325327202
83333.3325601536
83333.3325884447
83333.3326185148
83333.33249155
83333.3325243678
83333.3325579271
83333.3325942204
83333.3326311011
83333.332667642
83333.3324738686
83333.3325101394
83333.332547945
83333.3325906822
83333.3326363301
83333.3326809801
83333.332723572
83333.3324514096
83333.3324909913
83333.3325320978
83333.3325788067
83333.3326317063
83333.3326864911
83333.3327369773
83333.3327851165
83333.3324244755
83333.3324672626
83333.3325111638
83333.3325604249
83333.3326176883
83333.3326805344
83333.3327427503
83333.3327977198
83333.3328493394
83333.3323950826
83333.3324395069
83333.3324856161
83333.3325366766
83333.3325961415
83333.3326638237
83333.3327351291
83333.332803185
83333.332861782
83333.3329172668
83333.3324620079
83333.3324884004
83333.3324789887
83333.3324881083
83333.332504405
83333.3325191359
83333.3324904899
83333.3325135722
83333.3325332936
83333.3325553947
83333.3324854837
83333.332514148
83333.3325414779
83333.3325698125
83333.3326001284
83333.3324741851
83333.3325070066
83333.3325405643
83333.3325770267
83333.3326142636
83333.3326512731
83333.3324574844
83333.3324937885
83333.3325316956
83333.3325746344
83333.3326206837
83333.332665686
83333.3327086807
83333.3324360769
83333.3324755312
83333.3325167515
83333.3325637405
83333.3326170454
83333.3326723114
83333.3327233414
83333.33277255
83333.3324099077
83333.3324526548
83333.3324966701
83333.3325462238
83333.3326039499
83333.3326673804
83333.3327303409
83333.3327863526
83333.3328391928
83333.3323807212
83333.3324254357
83333.3324720003
83333.3325233893
83333.3325832826
83333.3326515977
83333.3327237229
83333.3327928162
83333.3328526886
83333.3329094921
83333.332351098
83333.3323957028
83333.3324433682
83333.3324960869
83333.3325568714
83333.3326272361
83333.3327046344
83333.3327838324
83333.3328580092
83333.3329239471
83333.3329867946
83333.3324368082
83333.3324642284
83333.3324551853
83333.3324961447
83333.3324816973
83333.3324657042
83333.3324695325
83333.3324923285
83333.3325117569
83333.3325336737
83333.3324659077
83333.3324943659
83333.3325214436
83333.3325495836
83333.3325797592
83333.332455851
83333.3324885482
83333.3325219678
83333.3325584168
83333.332595819
83333.3326334917
83333.3324401843
83333.3324764572
83333.3325143563
83333.3325573734
83333.3326037316
83333.3326491747
83333.332692632
83333.332419893
83333.3324591598
83333.3325004205
83333.3325476048
83333.3326012405
83333.332656964
83333.3327083647
83333.3327586436
83333.332395008
83333.3324372782
83333.3324812007
83333.3325310184
83333.3325891459
83333.332653086
83333.3327166489
83333.3327736699
83333.3328278116
83333.3323661754
83333.3324108517
83333.3324574134
83333.3325090466
83333.3325693664
83333.3326382753
83333.3327111509
83333.3327812384
83333.3328424443
83333.3329006435
83333.3323374857
83333.3323814527
83333.3324295031
83333.3324826603
83333.3325438485
83333.3326147982
83333.3326929986
83333.3327732078
83333.3328486149
83333.3329160971
83333.3329802649
83333.3323067403
83333.3323512015
83333.3323989135
83333.332452559
83333.3325139281
83333.3325850556
83333.3326652144
83333.3327509703
83333.3328373687
83333.3329186527
83333.3329976472
83333.3330705919
83333.3324107489
83333.3324389815
83333.3324303537
83333.3324718766
83333.3324577982
83333.3324421933
83333.3325105336
83333.3324889056
83333.3324698575
83333.3324474516
83333.3324452461
83333.3324733834
83333.3325000752
83333.3325278956
83333.3325578501
83333.3324365435
83333.3324689827
83333.3325021171
83333.3325383204
83333.3325754935
83333.3326137811
83333.3324220358
83333.3324581484
83333.3324958881
83333.3325388064
83333.3325852492
83333.3326312012
83333.3326753305
83333.3324027068
83333.3324418952
83333.3324831023
83333.3325303405
83333.3325841647
83333.3326402848
83333.3326921847
83333.3327433186
83333.3323794447
83333.3324210921
83333.3324648204
83333.3325148016
83333.3325732132
83333.3326376162
83333.3327016464
83333.3327595853
83333.3328150988
83333.3323514935
83333.3323958493
83333.3324419649
83333.3324937108
83333.3325544089
83333.3326238311
83333.3326973495
83333.3327683481
83333.332830927
83333.3328906441
83333.3323230195
83333.3323668977
83333.3324149063
83333.332468198
83333.3325297653
83333.3326012754
83333.3326802215
83333.332761388
83333.3328380553
83333.332907178
83333.3329729582
83333.332293393
83333.3323375157
83333.3323848817
83333.3324389433
83333.3325007432
83333.3325723972
83333.3326533026
83333.3327400376
83333.3328276331
83333.3329103867
83333.3329913349
83333.3330658432
83333.3322607321
83333.3323063291
83333.3323534415
83333.3324069532
83333.3324682806
83333.3325390636
83333.3326196475
83333.3327080994
83333.3328011179
83333.3328947904
83333.332987943
83333.3330887884
83333.3323841107
83333.3324128633
83333.3324047005
83333.3324464577
83333.3324328498
83333.3324177253
83333.3324860102
83333.3324648231
83333.3324462512
83333.3324243372
83333.3325344128
83333.3325048051
83333.332477433
83333.3324512522
83333.3324235505
83333.3324162315
83333.3324483124
83333.3324810206
83333.3325167954
83333.3325535992
83333.3325919056
83333.332403072
83333.3324388572
83333.3324762721
83333.3325188893
83333.3325650742
83333.3326113111
83333.3326565053
83333.3323847292
83333.3324237912
83333.3324647857
83333.3325118849
83333.3325656742
83333.3326220705
83333.3326747031
83333.3327265102
83333.3323624342
83333.3324039592
83333.3324475744
83333.3324975529
83333.3325560773
83333.3326208065
83333.3326853066
83333.3327440997
83333.3328008614
83333.3323367485
83333.3323802119
83333.332425716
83333.332477438
83333.3325383831
83333.3326082071
83333.3326822763
83333.3327540649
83333.332818035
83333.3328793602
83333.3323079016
83333.3323521294
83333.3323997314
83333.3324528148
83333.3325146694
83333.3325866586
83333.3326662498
83333.3327482925
83333.3328262085
83333.3328970729
83333.3329646102
83333.3322789049
83333.3323230424
83333.3323703185
83333.3324244294
83333.3324865228
83333.3325586727
83333.3326402729
83333.3327279356
83333.3328167285
83333.3329010619
83333.3329839182
83333.3330603487
83333.3322470234
83333.332292842
83333.3323396402
83333.3323931794
83333.3324549248
83333.3325261937
83333.3326074426
83333.3326968013
83333.3327909744
83333.3328860452
83333.3329808897
83333.3330838377
83333.3331863013
83333.3322140073
83333.3322601262
83333.332307448
83333.3323601413
83333.3324207617
83333.3324905183
83333.3325701048
83333.3326586567
83333.3327539689
83333.3328533725
83333.3329543976
83333.3330574506
83333.3323572091
83333.332386138
83333.3323784835
83333.3324200822
83333.3324070493
83333.3323925047
83333.3324601931
83333.332439636
83333.3324216511
83333.3324003327
83333.3325093477
83333.3324803591
83333.3324536057
83333.3324280629
83333.3324009084
83333.3325681271
83333.3325301526
83333.3324938893
83333.3324587269
83333.3324265906
83333.3323949768
83333.3323831749
83333.3324185514
83333.3324555114
83333.3324976264
83333.3325433304
83333.3325893917
83333.3326350939
83333.3323662171
83333.3324048563
83333.33244545
83333.3324921985
83333.3325456764
83333.3326020257
83333.3326555971
83333.3327079694
83333.332344539
83333.3323860372
83333.3324294794
83333.3324792484
83333.3325376512
83333.3326024923
83333.3326675047
83333.3327271313
83333.332784925
83333.3323196502
83333.3323632472
83333.3324086234
83333.3324602513
83333.3325212461
83333.3325912926
83333.3326658175
83333.332738348
83333.3328036272
83333.3328665046
83333.3322914945
83333.3323370951
83333.332383883
83333.3324365979
83333.3324985802
83333.3325709011
83333.3326510266
83333.3327338448
83333.3328129747
83333.3328856556
83333.3329550988
83333.3322632721
83333.3323079616
83333.3323553558
83333.3324091676
83333.3324713485
83333.3325438953
83333.3326260866
83333.3327145895
83333.3328045605
83333.3328905305
83333.3329754737
83333.3330539825
83333.3322325791
83333.3322783593
83333.3323251385
83333.3323786722
83333.3324406186
83333.3325122952
83333.3325941508
83333.3326843584
83333.3327796658
83333.3328762045
83333.3329728831
83333.3330781838
83333.3331825271
83333.3322001033
83333.3322463403
83333.3322937445
83333.3323463719
83333.3324072548
83333.3324774514
83333.3325576199
83333.3326469751
83333.3327433498
83333.3328440835
83333.3329466952
83333.3330517055
83333.3331610489
83333.333216931
83333.3321666144
83333.3322132515
83333.3322606341
83333.3323126778
83333.3323720858
83333.3324403328
83333.3325181096
83333.3326051828
83333.3327001302
83333.3328008751
83333.3329051969
83333.333009739
83333.332330436
83333.332359133
83333.3323520076
83333.3323930377
83333.3323806598
83333.3323667829
83333.3324332483
83333.3324135296
83333.332396258
83333.3323756283
83333.3324827133
83333.3324546467
83333.3324287191
83333.3324039579
83333.3323774545
83333.3325423768
83333.3325051083
83333.332469661
83333.3324353227
83333.3324039088
83333.3323728758
83333.332611106
83333.3325655533
83333.3325200309
83333.3324750516
83333.332433657
83333.3323972938
83333.332362419
83333.3323467735
83333.332384981
83333.3324250769
83333.3324712722
83333.3325241744
83333.3325801418
83333.3326340442
83333.3326869278
83333.3323268073
83333.3323675498
83333.3324105168
83333.3324598462
83333.3325178662
83333.3325824973
83333.3326479325
83333.3327083828
83333.3327671306
83333.3323016363
83333.3323454115
83333.3323907583
83333.3324421547
83333.3325029488
83333.3325729692
83333.3326478188
83333.3327210723
83333.3327875204
83333.3328516727
83333.3322736047
83333.3323201038
83333.3323669807
83333.3324195527
83333.3324814898
83333.3325539335
83333.3326344287
83333.3327179361
83333.3327982218
83333.3328726484
83333.3329440228
83333.3322457632
83333.3322917724
83333.3323399178
83333.3323931794
83333.3324552712
83333.3325280476
83333.3326106834
83333.3326999149
83333.3327910168
83333.3328786595
83333.3329658706
83333.3330467155
83333.332217367
83333.3322629099
83333.3323100667
83333.3323635698
83333.3324254663
83333.3324974041
83333.3325797511
83333.3326707066
83333.3327671007
83333.332865164
83333.3329638401
83333.33307162
83333.3331780852
83333.3321856366
83333.3322319024
83333.3322792832
83333.3323319051
83333.3323929115
83333.3324634208
83333.3325440913
83333.3326341791
83333.3327315724
83333.3328336596
83333.3329379609
83333.3330449884
83333.3331570461
83333.3332146075
83333.3321526305
83333.3321993255
83333.332246773
83333.3322989111
83333.3323584953
83333.3324270973
83333.3325053729
83333.3325931372
83333.3326890222
83333.33279098
83333.3328968055
83333.3330030863
83333.3331063748
83333.3331943174
83333.333241563
83333.3321186331
83333.3321657497
83333.3322132766
83333.3322647068
83333.3323227723
83333.3323891811
83333.3324646999
83333.3325493939
83333.332642431
83333.3327421593
83333.332846489
83333.3329522469
83333.3323041927
83333.332332225
83333.3323256323
83333.3323656715
83333.3323540042
83333.3323408554
83333.3324055016
83333.3323867822
83333.3323703317
83333.3323504628
83333.3324546725
83333.3324278302
83333.3324029639
83333.3323791297
83333.3323533666
83333.3325146034
83333.3324785146
83333.3324441959
83333.3324109455
83333.3323804019
83333.3323500445
83333.3325845583
83333.3325397137
83333.3324951776
83333.332451226
83333.3324107938
83333.33237518
83333.3323409278
83333.3326628996
83333.332609963
83333.3325563737
83333.3325011744
83333.3324491393
83333.3324037237
83333.3323642401
83333.3323265539
83333.3323077606
83333.3323481691
83333.3323905997
83333.3324393242
83333.3324966883
83333.3325607676
83333.332626179
83333.3326871664
83333.3327469272
83333.3322853915
83333.3323276256
83333.3323722518
83333.3324231193
83333.3324834319
83333.332553117
83333.33262804
83333.3327019235
83333.332769514
83333.332835157
83333.3322573791
83333.3323023255
83333.3323492809
83333.3324017032
83333.3324633768
83333.332535675
83333.332616318
83333.3327004013
83333.3327817435
83333.332857698
83333.3329305828
83333.3322291322
83333.3322743112
83333.33232313
83333.3323763302
83333.332438293
83333.3325110878
83333.3325939665
83333.3326837816
83333.332775937
83333.3328652088
83333.3329547094
83333.3330384463
83333.3322012106
83333.3322459583
83333.3322942297
83333.3323478536
83333.3324095052
83333.3324815255
83333.3325641974
83333.3326557617
83333.3327531624
83333.3328527643
83333.3329535673
83333.3330642378
83333.3331730598
83333.332170578
83333.3322167995
83333.3322641157
83333.3323168545
83333.3323778362
83333.3324484794
83333.3325295165
83333.3326202193
83333.3327185531
83333.3328220035
83333.3329281359
83333.3330374301
83333.3331522615
83333.3332116667
83333.3321381482
83333.3321848702
83333.3322323591
83333.3322844924
83333.3323441497
83333.3324129761
83333.3324916484
83333.3325800164
83333.3326767726
83333.3327799225
83333.3328872901
83333.3329954199
83333.3331009909
83333.3331913031
83333.3332399809
83333.3321046209
83333.3321517812
83333.3321993637
83333.3322508718
83333.3323091255
83333.3323758207
83333.3324517494
83333.332537023
83333.3326308618
83333.3327316547
83333.3328373491
83333.332944772
83333.3330483797
83333.3331403403
83333.3332187344
83333.3332638293
83333.3320702691
83333.3321177207
83333.3321654232
83333.3322163585
83333.3322731131
83333.3323375448
83333.3324105736
83333.3324924272
83333.3325826702
83333.3326800857
83333.3327827539
83333.3328878831
83333.3322788516
83333.3323058055
83333.3322997282
83333.3323383406
83333.3323274433
83333.3323150557
83333.3323773259
83333.3323597353
83333.3323441732
83333.3323251199
83333.3324256739
83333.3324002154
83333.3323766248
83333.3323538232
83333.3323288694
83333.3324849301
83333.3324505082
83333.3324176696
83333.3323857885
83333.3323562467
83333.3323266505
83333.3325552612
83333.3325118501
83333.3324688064
83333.33242626
83333.3323870581
83333.3323523307
83333.3323187813
83333.3326356586
83333.3325832809
83333.3325306505
83333.3324766935
83333.332425867
83333.3323814742
83333.332342753
83333.3323057195
83333.3327231932
83333.3326630141
83333.3326020402
83333.3325372356
83333.3324741167
83333.3324177228
83333.3323697991
83333.3323279764
83333.3322879219
83333.3322668327
83333.3323087304
83333.3323528709
83333.3324030756
83333.3324626562
83333.3325316592
83333.3326062472
83333.3326804089
83333.3327490721
83333.3328165002
83333.3322414198
83333.3322857254
83333.3323313407
83333.3323830965
83333.3324441973
83333.3325160366
83333.3325965196
83333.3326809634
83333.3327632816
83333.33284096
83333.3329158347
83333.3322141507
83333.3322579183
83333.3323056379
83333.3323587263
83333.332420413
83333.3324929643
83333.3325758243
83333.3326660229
83333.3327591058
83333.3328498627
83333.3329413499
83333.3330285444
83333.3321855244
83333.3322294542
83333.3322773926
83333.3323312089
83333.3323926987
83333.3324646352
83333.3325474166
83333.3326394018
83333.3327376857
83333.3328387713
83333.3329417139
83333.333055786
83333.3331676586
83333.3321549087
83333.3322008778
83333.332247964
83333.3323011593
83333.3323620424
83333.3324326373
83333.3325138657
83333.3326050229
83333.3327041803
83333.3328089619
83333.3329170091
83333.3330288366
83333.3331467513
83333.3332081192
83333.3321231631
83333.3321698742
83333.3322174112
83333.3322694938
83333.3323291412
83333.3323980304
83333.3324769499
83333.3325657892
83333.3326633118
83333.3327676133
83333.3328765916
83333.33298677
83333.333094751
83333.3331874279
83333.3332375684
83333.3320901419
83333.3321373154
83333.3321849393
83333.3322364895
83333.3322947945
83333.3323616442
83333.3324378722
83333.332523626
83333.3326181801
83333.3327199822
83333.3328270222
83333.3329361528
83333.3330418167
83333.3331359718
83333.3332161723
83333.333262113
83333.3320561891
83333.3321037284
83333.3321515052
83333.3322025112
83333.3322594105
83333.3323240879
83333.3323974518
83333.3324797787
83333.3325706898
83333.3326690128
83333.3327728765
83333.3328795153
83333.332984281
83333.3330803435
83333.3331646951
83333.3332328351
83333.3332744622
83333.3320218545
83333.3320693492
83333.3321171644
83333.3321676992
83333.3322232621
83333.3322857378
83333.3323562002
83333.3324350179
83333.3325220134
83333.3326163552
83333.3327164459
83333.332819821
83333.3322548126
83333.3322802683
83333.3322746752
83333.3323114504
83333.3323013553
83333.3322897429
83333.332349069
83333.3323327541
83333.3323181143
83333.3322999185
83333.332396008
83333.3323721757
83333.3323500262
83333.3323283196
83333.332304229
83333.3324541598
83333.3324214643
83333.332390389
83333.3323601075
83333.3323316701
83333.3323029037
83333.3325230431
83333.3324820898
83333.3324410434
83333.3324003382
83333.3323626261
83333.3323289077
83333.3322961462
83333.3326048104
83333.332553858
83333.3325029668
83333.332450784
83333.3324015804
83333.3323584537
83333.332320607
83333.332284297
83333.3326956468
83333.3326356524
83333.3325753746
83333.3325118669
83333.3324501877
83333.3323951144
83333.3323482127
83333.3323071573
83333.3322677843
83333.3327934246
83333.3327252691
83333.3326560931
83333.3325822478
83333.332508537
83333.3324406298
83333.3323820661
83333.3323326527
83333.3322889891
83333.3322468431
83333.3322228907
83333.3322673088
83333.3323125175
83333.3323635913
83333.3324238969
83333.3324949447
83333.3325748624
83333.3326592724
83333.3327423496
83333.3328219982
83333.3328994912
83333.3321960998
83333.332241643
83333.3322884505
83333.3323405849
83333.3324016219
83333.3324736122
83333.3325561255
83333.3326464126
83333.332740241
83333.3328325581
83333.332926496
83333.333016122
83333.3321695187
83333.3322140218
83333.3322607038
83333.3323138828
83333.3323750799
83333.3324467053
83333.3325293251
83333.3326214802
83333.3327204614
83333.3328229058
83333.3329278012
83333.333045558
83333.3331617228
83333.3321391116
83333.3321851307
83333.3322316596
83333.3322846838
83333.3323454393
83333.3324158701
83333.3324970858
83333.3325884881
83333.3326883004
83333.3327943195
83333.3329042763
83333.3330188381
83333.3331406219
83333.3332043144
83333.3321077006
83333.3321543107
83333.3322017922
83333.3322538029
83333.3323134612
83333.3323822684
83333.3324612591
83333.3325503987
83333.3326485417
83333.3327539131
83333.332864525
83333.3329769157
83333.3330875737
83333.3331827341
83333.3332342783
83333.3320752192
83333.3321223636
83333.3321700271
83333.3322216106
83333.3322798547
83333.3323467148
83333.3324230947
83333.3325091885
83333.3326043346
83333.3327070655
83333.3328154496
83333.3329263767
83333.333034243
83333.3331307118
83333.333212876
83333.3332597736
83333.3320417078
83333.3320892692
83333.3321370753
83333.3321881274
83333.332245091
83333.33230988
83333.332383462
83333.3324661573
83333.3325576374
83333.3326567865
83333.3327617829
83333.3328699171
83333.3329765558
83333.333074659
83333.3331609006
83333.3332306206
83333.3332732007
83333.3320076917
83333.3320553033
83333.332103235
83333.332153854
83333.3322095335
83333.3322722019
83333.3323429405
83333.3324221408
83333.3325096812
83333.3326047782
83333.3327058908
83333.3328105904
83333.3329151963
83333.3330143566
83333.3331040361
83333.3331806761
83333.3332417787
83333.3332808044
83333.3319732724
83333.3320209371
83333.332068632
83333.3321188164
83333.3321733197
83333.3322339501
83333.3323018887
83333.3323776385
83333.3324612066
83333.3325520626
83333.3326489794
83333.3327498896
83333.332232446
83333.3322560023
83333.3322508616
83333.3322854219
83333.3322761228
83333.3322652844
83333.332321178
83333.3323062197
83333.3322925118
83333.3322752017
83333.3323659877
83333.3323440874
83333.3323235073
83333.3323029335
83333.332279745
83333.3324223808
83333.3323917343
83333.3323627234
83333.332334197
83333.3323069367
83333.3322790478
83333.3324889541
83333.3324510577
83333.3324122233
83333.3323737378
83333.3323377289
83333.3323051171
83333.3322732152
83333.3325700449
83333.332521636
83333.3324734227
83333.3324236048
83333.33237645
83333.3323348188
83333.3322979639
83333.332262465
83333.3326634234
83333.332604724
83333.3325460829
83333.3324846597
83333.3324249822
83333.3323716128
83333.3323259437
83333.3322857469
83333.3322470427
83333.332766378
83333.3326976962
83333.3326286767
83333.3325559111
83333.332483733
83333.3324173943
83333.332360178
83333.3323117614
83333.3322688326
83333.332227414
83333.3328777967
83333.3327990558
83333.3327182056
83333.33263498
83333.3325511957
83333.3324723577
83333.3324024889
83333.3323432075
83333.3322928582
83333.3322476236
83333.3322039515
83333.3321776289
83333.3322232745
83333.3322700972
83333.3323216257
83333.332381842
83333.3324529661
83333.3325347366
83333.3326246871
83333.3327189335
83333.3328128748
83333.3329098541
83333.3330019242
83333.3321511394
83333.3321963241
83333.332243891
83333.3322962278
83333.3323567008
83333.3324276968
83333.3325098244
83333.3326018164
83333.3327012226
83333.3328049321
83333.3329120655
83333.3330333181
83333.3331520045
83333.3321229158
83333.3321690192
83333.3322156047
83333.3322678087
83333.3323281025
83333.332398174
83333.332479119
83333.3325704965
83333.3326707256
83333.3327778171
83333.3328895887
83333.333006858
83333.3331336448
83333.3331999881
83333.3320919123
83333.3321385287
83333.332185945
83333.3322376325
83333.3322970607
83333.3323656596
83333.332444537
83333.3325337648
83333.3326323309
83333.3327386293
83333.3328508259
83333.3329655172
83333.3330792691
83333.3331773954
83333.3332307717
83333.3320598796
83333.3321069455
83333.3321545947
83333.3322061506
83333.3322642754
83333.3323310385
83333.3324074083
83333.3324936695
83333.3325892455
83333.3326927833
83333.3328024705
83333.3329152669
83333.3330255154
83333.3331244735
83333.333208922
83333.333257146
83333.3320268423
83333.3320743725
83333.3321221749
83333.3321732636
83333.3322302208
83333.3322949824
83333.3323686401
83333.3324515645
83333.3325434808
83333.3326433491
83333.3327494245
83333.3328590581
83333.332967639
83333.3330679301
83333.3331562607
83333.3332277899
83333.3332715659
83333.3319932053
83333.3320408455
83333.3320888106
83333.3321394662
83333.3321952082
83333.3322579717
83333.3323288696
83333.332408344
83333.3324963239
83333.3325920777
83333.3326941174
83333.332800084
83333.3329063225
83333.3330073425
83333.3330988795
83333.3331772012
83333.3332396545
83333.333279564
83333.3319591532
83333.3320067948
83333.3320546636
83333.3321049598
83333.3321595708
83333.3322203554
83333.3322885155
83333.3323645747
83333.3324485812
83333.3325400543
83333.3326378269
83333.332739877
83333.3328432129
83333.3329437372
83333.3330374736
83333.3331207794
83333.3331915222
83333.3332476157
83333.3332848439
83333.3319724357
83333.3320201703
83333.3320698108
83333.3321233765
83333.3321823096
83333.3322478404
83333.3323205922
83333.3324007195
83333.3324879193
83333.3325812977
83333.3326792033
83333.3322121426
83333.3322333827
83333.3322286591
83333.3322606497
83333.3322521309
83333.3322420456
83333.3322941481
83333.332280537
83333.3322677441
83333.3322513183
83333.3323362058
83333.3323163891
83333.332297432
83333.3322780065
83333.3322557419
83333.3323897073
83333.3323617205
83333.3323350403
83333.3323083736
83333.332282339
83333.3322553649
83333.332454115
83333.332418957
83333.3323827531
83333.3323467941
83333.3323126376
83333.3322812051
83333.3322502118
83333.3325318212
83333.3324874742
83333.3324424464
83333.3323954604
83333.3323507218
83333.3323107746
83333.3322750103
83333.3322403921
83333.3326259245
83333.3325699632
83333.3325141843
83333.3324557275
83333.3323986633
83333.3323473729
83333.3323031432
83333.3322639156
83333.332226028
83333.3327334879
83333.3326655538
83333.3325978344
83333.3325271554
83333.3324572722
83333.3323930459
83333.3323375083
83333.3322902637
83333.3322481508
83333.3322072388
83333.3328528701
83333.3327720131
83333.3326903831
83333.3326078041
83333.3325254129
83333.3324482719
83333.3323800292
83333.3323220662
83333.3322726544
83333.3322281437
83333.3321845395
83333.3329850918
83333.332888562
83333.3327895479
83333.3326946374
83333.3326005819
83333.3325115474
83333.3324310013
83333.3323610864
83333.3323018604
83333.3322507881
83333.3322044385
83333.3321600808
83333.3321330644
83333.3321780736
83333.3322257247
83333.332277745
83333.3323374497
83333.3324075494
83333.3324888139
83333.3325802086
83333.3326796296
83333.3327844205
83333.3328941485
83333.3330194616
83333.3331409429
83333.3321056036
83333.3321511167
83333.3321982853
83333.3322505015
83333.3323101255
83333.3323795403
83333.332459897
83333.3325509079
83333.3326512264
83333.3327591631
83333.3328727818
83333.3329930919
83333.3331243468
83333.3331937471
83333.3320757365
83333.3321223362
83333.3321697177
83333.3322211468
83333.3322800454
83333.3323482208
83333.3324267499
83333.3325157982
83333.3326145226
83333.3327215284
83333.3328351838
83333.3329521594
83333.33306945
83333.3331711136
83333.3332268019
83333.3320441827
83333.3320911945
83333.3321388234
83333.3321902395
83333.3322480976
83333.3323146021
83333.3323907858
83333.3324770089
83333.3325728058
83333.3326769707
83333.3327878536
83333.332902527
83333.3330153516
83333.3331171323
83333.3332042759
83333.3332543779
83333.33201161
83333.3320590701
83333.3321068285
83333.3321578993
83333.3322147735
83333.3322793984
83333.332352987
83333.332435974
83333.3325281589
83333.3326286
83333.3327356631
83333.3328467897
83333.3329573907
83333.3330600169
83333.3331506746
83333.333224257
83333.3332694461
83333.3319783943
83333.332026004
83333.3320739521
83333.3321246069
83333.3321803576
83333.3322431094
83333.3323140308
83333.3323936434
83333.3324819277
83333.3325782163
83333.3326810951
83333.332788272
83333.3328961458
83333.3329991318
83333.3330927091
83333.3331729327
83333.3332369472
83333.3332779648
83333.3319447209
83333.3319923283
83333.3320402414
83333.3320905734
83333.332145236
83333.3322061011
83333.3322743839
83333.3323506445
83333.332434981
83333.3325269626
83333.3326254734
83333.3327285719
83333.3328332994
83333.3329354572
83333.3330309287
83333.3331159306
83333.3331881867
83333.3332455243
83333.333283652
83333.3319583367
83333.3320060921
83333.3320559236
83333.3321095998
83333.3321686631
83333.3322343733
83333.3323073743
83333.3323878529
83333.3324755501
83333.3325696337
83333.3326685056
83333.3327697452
83333.3328701597
83333.3329662547
83333.3330545324
83333.3331325566
83333.333198712
83333.3332512221
83333.3332874346
83333.331971713
83333.3320209184
83333.332073514
83333.3321309098
83333.3321941933
83333.3322640765
83333.3323408471
83333.3324243768
83333.3325140418
83333.3326085681