/*--------------------------------*- C++ -*----------------------------------*\
  =========                 |
  \\      /  F ield         | OpenFOAM: The Open Source CFD Toolbox
   \\    /   O peration     | Website:  https://openfoam.org
    \\  /    A nd           | Version:  12
     \\/     M anipulation  |
\*---------------------------------------------------------------------------*/
/*   Windows 32 and 64 bit porting by blueCAPE: http://www.bluecape.com.pt   *\
|  Based on Windows porting (2.0.x v4) by Symscape: http://www.symscape.com   |
\*---------------------------------------------------------------------------*/
FoamFile
{
    format      ascii;
    class       surfaceScalarField;
    location    "100";
    object      phi;
}
// * * * * * * * * * * * * * * * * * * * * * * * * * * * * * * * * * * * * * //

dimensions      [0 3 -1 0 0 0 0];

internalField   nonuniform List<scalar> 
28828
(
3.18956412001883e-06
2.55716786182633e-06
-2.42574474430772e-06
3.07183329729287e-06
2.463241938855e-06
-2.34555207056472e-06
3.59517312733444e-06
4.21601727254733e-06
-1.66172373176786e-06
2.60605855506305e-06
2.20562335744976e-06
-4.58546744876358e-06
2.97050169420982e-06
2.39373605596297e-06
-2.29242196784502e-06
3.61733551298619e-06
4.09845960933686e-06
-1.65744102376728e-06
2.58648500996313e-06
2.19067147485385e-06
-4.51670599745226e-06
3.6371337452473e-06
5.37914640773889e-06
-1.24502158169569e-06
2.34657319588453e-06
2.77275169779336e-06
-2.28687631033581e-06
2.52065889273127e-06
1.77458141720975e-06
-6.3977894561466e-06
2.89147130980407e-06
2.31539778809896e-06
-2.23637573469132e-06
3.65459120926748e-06
4.02541785863048e-06
-1.66897041347326e-06
2.58004280298922e-06
2.19476347904022e-06
-4.48077010548758e-06
3.73448958884472e-06
5.26938528989037e-06
-1.26834408266377e-06
2.42549521986178e-06
2.77866043651136e-06
-2.3244155614209e-06
2.58381393667982e-06
1.79137473067254e-06
-6.37125445114781e-06
3.47477581104252e-06
6.22435013866168e-06
-9.44175485981529e-07
1.68906335264585e-06
2.6989886571942e-06
-1.19021694174999e-06
1.26177029561515e-06
1.71998736476634e-06
-2.22979496427971e-06
2.55902754397475e-06
1.33761334236082e-06
-7.81808961596304e-06
2.84111297056501e-06
2.22904773946108e-06
-2.17869015627786e-06
3.6961791632921e-06
3.93945002881895e-06
-1.6656565611755e-06
2.59177116175128e-06
2.18432522758112e-06
-4.43242016858487e-06
3.84815427022552e-06
5.20624382981779e-06
-1.29454079954162e-06
2.52242712871124e-06
2.80839817600285e-06
-2.37956143661015e-06
2.64989723523744e-06
1.82468976164814e-06
-6.37153264543777e-06
3.58620488820213e-06
6.12498317807199e-06
-9.67088126140343e-07
1.7189928828991e-06
2.70575501375346e-06
-1.22544089412313e-06
1.269645517753e-06
1.73923204582364e-06
-2.28016261354539e-06
2.65110395174809e-06
1.35691580065254e-06
-7.82024217049594e-06
3.3482388315582e-06
6.86124194423591e-06
-7.44665806377424e-07
1.37947521796144e-06
2.579955819382e-06
-8.21955944563235e-07
7.52770390820653e-07
1.5610625463739e-06
-9.79624017801157e-07
9.37185436515619e-07
1.35318964082574e-06
-2.22030199607832e-06
2.46890103516277e-06
1.09224737509688e-06
-9.00215037231345e-06
2.83013071270434e-06
2.1373861993034e-06
-2.12639907554545e-06
3.74012722354068e-06
3.83974950898616e-06
-1.65465048614013e-06
2.63189823704031e-06
2.15890262512876e-06
-4.37770503733146e-06
3.97105130389058e-06
5.13098940365123e-06
-1.31447025135818e-06
2.63984832483156e-06
2.8283793478709e-06
-2.42713607568268e-06
2.73281787822161e-06
1.84514684351578e-06
-6.36045831337525e-06
3.71377575560165e-06
6.06639815519518e-06
-9.87775895054159e-07
1.76710216156671e-06
2.73637659211366e-06
-1.27067687265894e-06
1.29251566505235e-06
1.77624995588932e-06
-2.35398175617995e-06
2.74159816920661e-06
1.39010355964204e-06
-7.85209560412609e-06
3.4670738375896e-06
6.77211662190951e-06
-7.66005623867093e-07
1.38222586250733e-06
2.58245362170487e-06
-8.46594942862486e-07
7.05510211096978e-07
1.56979975845323e-06
-1.00876618983644e-06
9.16009616603422e-07
1.36539695937222e-06
-2.26745514647958e-06
2.57038513881299e-06
1.10487757447421e-06
-9.02656485392365e-06
3.21887149547836e-06
7.34577560356558e-06
-5.95937205304514e-07
1.22065329972534e-06
2.51305558438842e-06
-6.65184844285651e-07
6.30417335644736e-07
1.48096012423564e-06
-6.78193779813275e-07
5.15787341421769e-07
1.34478927604378e-06
-8.97651806269736e-07
7.96073901756384e-07
1.26721570654308e-06
-2.3565886252632e-06
2.26954197761446e-06
1.09636337960126e-06
-1.01878372037348e-05
2.8701547605152e-06
2.04196618366773e-06
-2.08198248612139e-06
3.78714025438414e-06
3.72998194370736e-06
-1.63960639010871e-06
2.71023771333809e-06
2.12220794797533e-06
-4.32692445737923e-06
4.0996080839104e-06
5.04197301501997e-06
-1.33080016167376e-06
2.77788691042699e-06
2.83401674788969e-06
-2.46780088077278e-06
2.84701883147709e-06
1.852254459599e-06
-6.34411630811203e-06
3.85364097859446e-06
5.99776399606673e-06
-1.00668154554819e-06
1.83358667559162e-06
2.76298371775861e-06
-1.31559763178491e-06
1.334301277248e-06
1.80664806841539e-06
-2.43039667918925e-06
2.84037291166822e-06
1.41694677051463e-06
-7.87612608451142e-06
3.59867094387781e-06
6.71630989293782e-06
-7.81549551155542e-07
1.39969842083465e-06
2.60761278574072e-06
-8.7653373966898e-07
6.72140498016371e-07
1.5962929529156e-06
-1.05735898611465e-06
9.04873867589817e-07
1.3926063742609e-06
-2.34531200626805e-06
2.66901609873248e-06
1.12485907432565e-06
-9.07552644911785e-06
3.33801849699718e-06
7.26525606374736e-06
-6.12300204039282e-07
1.21183052732735e-06
2.50996501237282e-06
-6.84726512250694e-07
5.6877474769016e-07
1.48147894041746e-06
-6.96646738666562e-07
4.45003532704052e-07
1.34787503549732e-06
-9.20461527730483e-07
7.63095349799891e-07
1.27187115212494e-06
-2.40143705336263e-06
2.37535794196198e-06
1.1001195979071e-06
-1.02324529471174e-05
3.08051587099305e-06
7.75858390285395e-06
-5.19564854770195e-07
1.1292858593951e-06
2.50739400027086e-06
-5.74857088524484e-07
5.91053184261107e-07
1.4613942311899e-06
-5.82269272834406e-07
4.30260345480218e-07
1.35681903180777e-06
-6.07027710536293e-07
4.28934308645006e-07
1.39248688707386e-06
-9.41804116995262e-07
7.02752737291305e-07
1.38095884358696e-06
-2.5970818287655e-06
2.11470242650785e-06
1.24989276361701e-06
-1.15310245346946e-05
2.97115159179994e-06
1.94454817539957e-06
-2.04554493494403e-06
3.84003524626192e-06
3.60968098526412e-06
-1.6206140795999e-06
2.8316410367403e-06
2.07518455925826e-06
-4.27855610336932e-06
4.23065834650051e-06
4.94202257360553e-06
-1.34311646518147e-06
2.93513535679105e-06
2.82746847847109e-06
-2.50209913269468e-06
2.99496043407818e-06
1.84721264113888e-06
-6.32202910943428e-06
4.0020423131092e-06
5.91803039652963e-06
-1.02449070716232e-06
1.91624736290613e-06
2.77900530865146e-06
-1.35847340342689e-06
1.39759782457276e-06
1.8267437216504e-06
-2.50554555114996e-06
2.99384128396335e-06
1.43504892565888e-06
-7.93256770912031e-06
3.74128741913888e-06
6.65067842089619e-06
-7.95559599314101e-07
1.43261584973822e-06
2.63121252218072e-06
-9.07859720615956e-07
6.52986950762574e-07
1.62161323049646e-06
-1.1114091323713e-06
9.07314595753689e-07
1.41630302933194e-06
-2.43214192445657e-06
2.75718326277098e-06
1.14306707081618e-06
-9.10728023661777e-06
3.46688850342049e-06
7.21082297868409e-06
-6.23397868977074e-07
1.21513304234425e-06
2.52744080934831e-06
-7.04699683288748e-07
5.17348286694655e-07
1.49853961766334e-06
-7.27362143038912e-07
3.8418419527906e-07
1.3637043723117e-06
-9.6762982435007e-07
7.36947471718489e-07
1.28578322476363e-06
-2.48003313942901e-06
2.50749678246459e-06
1.10888728942765e-06
-1.03164710726243e-05
3.19225747989495e-06
7.68207870905146e-06
-5.28573513331888e-07
1.11676565013668e-06
2.4978395849955e-06
-5.87659652376777e-07
5.27890448958259e-07
1.45425232040386e-06
-5.94342706999969e-07
3.49380994090018e-07
1.35230597001934e-06
-6.20200934113931e-07
3.51696510340703e-07
1.38882007431993e-06
-9.60165124715132e-07
6.66449183267054e-07
1.37808115248931e-06
-2.64304059614697e-06
2.22628013407521e-06
1.24577059704286e-06
-1.15897017882747e-05
2.9529284031388e-06
8.13884128160892e-06
-4.7306238976669e-07
1.07451385953238e-06
2.53988288911453e-06
-5.36145096208517e-07
5.83581624359193e-07
1.49122967489985e-06
-5.46203222920654e-07
4.13415487997876e-07
1.39063674620674e-06
-5.35710975439835e-07
3.52254593556108e-07
1.49242766800644e-06
-6.17809718311141e-07
3.86017855981992e-07
1.59950128212052e-06
-1.07943001280229e-06
6.50979733164078e-07
1.64914238088994e-06
-2.95524133246977e-06
1.78340423192494e-06
1.43845759367374e-06
-1.30459735524106e-05
3.14279818723685e-06
1.8465049946271e-06
-2.01814958609098e-06
3.90042859711455e-06
3.48121063276042e-06
-1.59705939734641e-06
2.99424792187451e-06
2.01817019269895e-06
-4.22631783513561e-06
4.36068876193384e-06
4.83053783634998e-06
-1.35090696468493e-06
3.10944749223809e-06
2.80764821954909e-06
-2.52738606845685e-06
3.17663368765734e-06
1.83100887056439e-06
-6.29119568615311e-06
4.15603783437769e-06
5.82806586056799e-06
-1.0400693873954e-06
2.01288179623895e-06
2.78479299034632e-06
-1.39709526755515e-06
1.48057615698541e-06
1.83570998124104e-06
-2.57353784146677e-06
3.18334436701928e-06
1.4405366456215e-06
-7.95199864674834e-06
3.89253760354953e-06
6.57602704713183e-06
-8.09273556624445e-07
1.47859845801597e-06
2.64665578444062e-06
-9.38150384415622e-07
6.47790139529712e-07
1.63812968047787e-06
-1.16465987444554e-06
9.36762945717755e-07
1.43348501266833e-06
-2.53336901732621e-06
2.94590547812808e-06
1.16744775453757e-06
-9.28864820560557e-06
3.60669422486207e-06
7.14579883684243e-06
-6.34937417053237e-07
1.23115979945805e-06
2.54444008648701e-06
-7.24834444577336e-07
4.77459352715406e-07
1.51636807736344e-06
-7.62729155984293e-07
3.34473170305787e-07
1.37888847138387e-06
-1.02426900940017e-06
7.17285239355403e-07
1.29888901864286e-06
-2.56823671407998e-06
2.68758932662968e-06
1.11339493136113e-06
-1.04006685970666e-05
3.3119711070975e-06
7.62454299803622e-06
-5.33436892216767e-07
1.11406636162917e-06
2.50660104672358e-06
-5.99863089619764e-07
4.72672098572532e-07
1.46240911616768e-06
-6.13353483925048e-07
2.75693191809512e-07
1.35927311939111e-06
-6.49239833576453e-07
2.81522747109582e-07
1.39334011742589e-06
-1.00499900694645e-06
6.43124351498342e-07
1.38097930778419e-06
-2.7287291622505e-06
2.35958640413332e-06
1.25072963156673e-06
-1.17003839847398e-05
3.05109783135512e-06
8.06416201006186e-06
-4.80253780755996e-07
1.06114264476509e-06
2.52442361912148e-06
-5.41786990763935e-07
5.25388890392862e-07
1.4776050218682e-06
-5.52816959656409e-07
3.3441832393447e-07
1.37936219103613e-06
-5.42401341534392e-07
2.66381092688737e-07
1.4817961087895e-06
-6.27304118154071e-07
3.08858221903794e-07
1.58889397011939e-06
-1.09380773906714e-06
6.16645259642592e-07
1.63985482363039e-06
-3.00269720356568e-06
1.88121940721028e-06
1.43425773849536e-06
-1.31216243858903e-05
2.85913442188905e-06
8.52275704700091e-06
-4.50553768417798e-07
1.0442973977424e-06
2.60497765971559e-06
-5.21541720077381e-07
5.9517512313976e-07
1.55058717647225e-06
-5.43964859644423e-07
4.25008494771687e-07
1.44673720367738e-06
-5.29681669666853e-07
3.40853121253792e-07
1.57775198729614e-06
-5.36004285879766e-07
3.20299154404612e-07
1.76729742799891e-06
-6.98060430782264e-07
3.65391818349374e-07
1.9418293625174e-06
-1.29527677911061e-06
5.77386410498415e-07
2.01174139008399e-06
-3.48733188701646e-06
1.45305537732858e-06
1.77803547563648e-06
-1.48833044540049e-05
3.39049563183825e-06
-1.99728559956279e-06
1.74957711882709e-06
3.96977156334887e-06
3.34677922733972e-06
-1.56964115844954e-06
3.19902969008161e-06
1.9521661595136e-06
-4.17510945521457e-06
4.48731042540605e-06
4.70671398245468e-06
-1.35215531786779e-06
3.29548626987127e-06
2.77389607468688e-06
-2.53882893311155e-06
3.37962641525192e-06
1.80192795569974e-06
-6.23120525881604e-06
4.31331893641987e-06
5.724910723642e-06
-1.05168043823044e-06
2.12148482010742e-06
2.77908711891494e-06
-1.43097577719242e-06
1.58168672786501e-06
1.83378233828673e-06
-2.63123466151967e-06
3.41287229879796e-06
1.43435550738529e-06
-7.95501173719697e-06
4.04939462334997e-06
6.49251945922434e-06
-8.21335186817032e-07
1.53553631948059e-06
2.65361753585794e-06
-9.6585636284619e-07
6.55197256456735e-07
1.6450712989724e-06
-1.21385702802923e-06
9.85774135678758e-07
1.43917518945107e-06
-2.62112515236709e-06
3.16444067966993e-06
1.17353180003888e-06
-9.34397476807827e-06
3.75472787469092e-06
7.07530395932757e-06
-6.47318001028537e-07
1.25763990260132e-06
2.55484155540469e-06
-7.43954246780864e-07
4.48164947265205e-07
1.52705324486265e-06
-7.97779282910337e-07
2.99741631060046e-07
1.38668134913865e-06
-1.083106216292e-06
7.36768773584785e-07
1.31383236726866e-06
-2.69916224884541e-06
2.89616089574453e-06
1.13669633850603e-06
-1.06338058929357e-05
3.44361949196275e-06
7.55161306600694e-06
-5.37461812682829e-07
1.12198098622726e-06
2.51424940284676e-06
-6.12661859283482e-07
4.26888032118445e-07
1.4723036758567e-06
-6.34986037691711e-07
2.1072609479481e-07
1.36643740943116e-06
-6.8530453507454e-07
2.18282126440056e-07
1.39790963500963e-06
-1.0600296182371e-06
6.3830220419152e-07
1.38112549496029e-06
-2.83106540064108e-06
2.52298152506287e-06
1.24667448104236e-06
-1.18105971902264e-05
3.15515115670069e-06
7.99968087405139e-06
-4.79190355263913e-07
1.05581058724393e-06
2.52499089173735e-06
-5.46486272161513e-07
4.73392341957241e-07
1.47783528631406e-06
-5.6328924873419e-07
2.60847549453189e-07
1.37829682303151e-06
-5.58802527764976e-07
1.86341860060893e-07
1.47854246969884e-06
-6.54399367553094e-07
2.38392578258394e-07
1.58424735220142e-06
-1.13778592047452e-06
5.96571645093819e-07
1.63642920065364e-06
-3.09425215643176e-06
1.99407788169546e-06
1.43897170120533e-06
-1.32520325799888e-05
2.93325318966766e-06
8.45067113828653e-06
-4.60634391323537e-07
1.02928445872937e-06
2.58449140207856e-06
-5.25308119570263e-07
5.44353611006962e-07
1.53177300420718e-06
-5.45126704985705e-07
3.53217958830259e-07
1.42964000817958e-06
-5.31296970858911e-07
2.58058922601379e-07
1.56161344811375e-06
-5.39425752393086e-07
2.36208866942221e-07
1.75057582408899e-06
-7.04899887479765e-07
2.92962631525916e-07
1.92581278974034e-06
-1.30731969195333e-06
5.42885363141829e-07
1.99966979122676e-06
-3.53347334836474e-06
1.53288885473745e-06
1.77233578986414e-06
-1.4973571499953e-05
2.82832674439027e-06
8.92610962958806e-06
-4.56386091804236e-07
1.03401564572882e-06
2.70140413146222e-06
-5.27478750911163e-07
6.19599918634729e-07
1.63116949998903e-06
-5.58410488661177e-07
4.54175237592899e-07
1.51808516267522e-06
-5.52459148204977e-07
3.58613964785497e-07
1.65875882380294e-06
-5.34475002141288e-07
3.14547421683212e-07
1.89331145223316e-06
-5.79343336308006e-07
3.16080650035488e-07
2.1589896749297e-06
-8.33440827908722e-07
3.57817489675772e-07
2.40234836315806e-06
-1.61470085473531e-06
5.1409866244525e-07
2.53634240791532e-06
-4.20535459463658e-06
1.15105211139145e-06
2.28181603091882e-06
-1.72068642819432e-05
3.71396235685192e-06
-1.97811978323027e-06
1.65463825178579e-06
3.4426671359763e-06
-4.11946112027379e-06
1.87851419729393e-06
4.04940382200507e-06
-1.53625674689445e-06
3.20616345862705e-06
4.60924335272965e-06
4.57061536249735e-06
-1.34580179664049e-06
3.48991830515589e-06
2.72638758290055e-06
-2.53832118789843e-06
3.60972394198139e-06
1.76025378378147e-06
-6.16544587300309e-06
4.47093951314966e-06
5.60703919655756e-06
-1.05797826567763e-06
2.23899206108628e-06
2.76077487274433e-06
-1.45657909353483e-06
1.69393599325876e-06
1.82007595637246e-06
-2.66920782396929e-06
3.63575523217673e-06
1.41350516063852e-06
-7.86753214813259e-06
4.2106115598201e-06
6.3940344269653e-06
-8.30368420471642e-07
1.6019849908086e-06
2.65050765439289e-06
-9.8958237524107e-07
6.73827044872806e-07
1.64194072432541e-06
-1.25776036592682e-06
1.05364478516769e-06
1.43260900184006e-06
-2.69729991878174e-06
3.42734445991273e-06
1.16420481442081e-06
-9.3820288661802e-06
3.90584604310167e-06
6.99996399649484e-06
-6.58571894971346e-07
1.29238976238154e-06
2.55822736298612e-06
-7.6071340769296e-07
4.28159670604971e-07
1.52958046598456e-06
-8.30358692697117e-07
2.76917092397023e-07
1.38598512021535e-06
-1.13782317984464e-06
7.73549232760714e-07
1.31386721024801e-06
-2.79816385286654e-06
3.09003564542585e-06
1.1402311913193e-06
-1.06779664308152e-05
3.58486329119356e-06
7.47757233206987e-06
-5.43511275138483e-07
1.13823392579283e-06
2.51619109171997e-06
-6.24923538272227e-07
3.89420469207386e-07
1.47652538618458e-06
-6.5595672988417e-07
1.55395526793318e-07
1.36671007921066e-06
-7.22468640333373e-07
1.72247085903362e-07
1.39760315231856e-06
-1.12081928764745e-06
6.5382298777211e-07
1.39284288705512e-06
-2.97073734792479e-06
2.62284927815172e-06
1.22409053276359e-06
-1.19576265836657e-05
3.27453730105693e-06
7.90565734390324e-06
-4.73426335423285e-07
1.06046077533695e-06
2.52340438341625e-06
-5.51260787680257e-07
4.28889516653237e-07
1.47930597194596e-06
-5.75156790103424e-07
1.94227707170261e-07
1.37790352365368e-06
-5.79827863593285e-07
1.13042521110978e-07
1.47526219876761e-06
-6.89353430848939e-07
1.74189146334774e-07
1.57848817047338e-06
-1.1931703269107e-06
5.93378400225287e-07
1.62599692317633e-06
-3.20708348347215e-06
2.12851449357062e-06
1.43969315151942e-06
-1.33845406656136e-05
3.00997107176677e-06
8.37826980223332e-06
-4.55306436293751e-07
1.0218796875454e-06
2.57830693478461e-06
-5.25096076027992e-07
4.98332450489664e-07
1.52562552005141e-06
-5.48247970175024e-07
2.85689272749037e-07
1.42183829414907e-06
-5.3929220073534e-07
1.79794396275236e-07
1.55204002819736e-06
-5.54034043766756e-07
1.5733026550669e-07
1.73896573822872e-06
-7.30240646402755e-07
2.280602595312e-07
1.9141782758237e-06
-1.35061094184501e-06
5.20257438044539e-07
1.99328881405666e-06
-3.62579425719944e-06
1.62734014400696e-06
1.77425292425244e-06
-1.51204922286693e-05
2.89088027564727e-06
8.85410463623517e-06
-4.65981545315538e-07
1.01546896675839e-06
2.67332545343737e-06
-5.30924497090073e-07
5.75527150870719e-07
1.60730858954303e-06
-5.56765350673201e-07
3.9184973786493e-07
1.49658247797066e-06
-5.49733197173328e-07
2.83973920512337e-07
1.63793436249952e-06
-5.32970505550353e-07
2.34473900033178e-07
1.87204809795818e-06
-5.80829614163831e-07
2.37667598213698e-07
2.1374843670056e-06
-8.38161215622316e-07
2.90570390910717e-07
2.38247622785578e-06
-1.62284785103397e-06
4.80387846723832e-07
2.52050963924962e-06
-4.24775903124936e-06
1.21679623420667e-06
2.27342588908717e-06
-1.73124927663565e-05
2.8996691818233e-06
9.181896980709e-06
-4.46090998888143e-07
1.04051313734428e-06
2.81495298546601e-06
-5.50835326901169e-07
6.51298777483992e-07
1.72378819754378e-06
-5.83360154395702e-07
4.94267263520154e-07
1.6001612528424e-06
-5.87918943930098e-07
3.94060915919307e-07
1.73896315959965e-06
-5.66993965056421e-07
3.36010305910578e-07
1.9933735316907e-06
-5.60872161691207e-07
3.18315399099775e-07
2.31057855082014e-06
-6.54194669455025e-07
3.31487659080379e-07
2.66162919934983e-06
-1.01832333430938e-06
3.64672618666104e-07
3.00379066857964e-06
-2.01747115140316e-06
4.74344874508947e-07
3.259007004014e-06
-5.14591724857417e-06
8.65227945236097e-07
3.38103655194934e-06
-2.06144416845185e-05
4.10819742093302e-06
-1.95617005403039e-06
1.56192105542412e-06
3.7143739697431e-06
-4.04751432491378e-06
1.79764984263162e-06
4.13982244664691e-06
-1.49548114789866e-06
3.05965904596953e-06
3.86438883489961e-06
-6.08057894161636e-06
1.70645961223827e-06
3.68973133086689e-06
-2.52262322871493e-06
2.6650254928091e-06
4.72405429431766e-06
-1.33091174573802e-06
4.42222001540455e-06
4.6242224671139e-06
5.47511029863618e-06
-1.05782057870907e-06
2.36286405008978e-06
2.72907527634328e-06
-1.4724062895692e-06
1.81708983531705e-06
1.7927009716444e-06
-2.69391342733658e-06
3.88236047433634e-06
1.38531252671642e-06
-7.79731979587846e-06
4.37471117387832e-06
6.2785232188713e-06
-8.35607200683078e-07
1.67639206654843e-06
2.63589099007854e-06
-1.00753322348462e-06
7.01106935524821e-07
1.62879738949596e-06
-1.29257837270944e-06
1.12565026869061e-06
1.41405332713723e-06
-2.74171344179959e-06
3.64457865287337e-06
1.12611191152827e-06
-9.21079827762945e-06
4.05953555148242e-06
6.9066067897162e-06
-6.6627363009312e-07
1.33449117910833e-06
2.55225455130389e-06
-7.74234261760084e-07
4.16461922122145e-07
1.52303723507434e-06
-8.58981632878362e-07
2.64192720902431e-07
1.37499098347011e-06
-1.18739980341713e-06
8.31967537075897e-07
1.29932475208151e-06
-2.89076469343347e-06
3.26241621041077e-06
1.13424312940589e-06
-1.06885440480495e-05
3.72551193210104e-06
7.4098029311645e-06
-5.50492211412862e-07
1.16027938270747e-06
2.51314633351006e-06
-6.35540443092382e-07
3.59022281176057e-07
1.47361608065945e-06
-6.74349954564358e-07
1.09254307624695e-07
1.35878307100675e-06
-7.57007298733393e-07
1.38674927699948e-07
1.38797368005151e-06
-1.17833441539192e-06
6.75185719520454e-07
1.38816233584272e-06
-3.06736665302811e-06
2.78159261779639e-06
1.20985182297812e-06
-1.20464189765733e-05
3.41269294032972e-06
7.8091368653857e-06
-4.69718410497398e-07
1.0726468098057e-06
2.51637725615103e-06
-5.55879796416897e-07
3.90984919434493e-07
1.4754404201539e-06
-5.85928427967994e-07
1.34575852055657e-07
1.3713370222867e-06
-6.00925129974404e-07
4.91072893911081e-08
1.46513405373688e-06
-7.2605790692518e-07
1.24902044320203e-07
1.57186121678811e-06
-1.25052881442437e-06
5.79867866803526e-07
1.60502345696282e-06
-3.33804561335984e-06
2.25834396768035e-06
1.4278123548269e-06
-1.35150775675375e-05
3.10309356322633e-06
8.25084199922063e-06
-4.38305028918198e-07
1.0258653849443e-06
2.56889495111459e-06
-5.22898771020764e-07
4.58513773089643e-07
1.52007054845923e-06
-5.52198472338964e-07
2.23685973593948e-07
1.41451395084216e-06
-5.49752856617171e-07
1.07352614414964e-07
1.54177984825677e-06
-5.73900414414873e-07
8.40702906528318e-08
1.72618158486444e-06
-7.63785726313774e-07
1.7064124046193e-07
1.89876595629478e-06
-1.40849728266454e-06
5.11547034265678e-07
1.98142618688374e-06
-3.73995654404019e-06
1.74142887943367e-06
1.77162065682752e-06
-1.52700033783085e-05
2.94295904209568e-06
8.78747529536081e-06
-4.61285819996649e-07
1.00465321013264e-06
2.66121792364091e-06
-5.27400699868042e-07
5.3573307595706e-07
1.59575362358818e-06
-5.55422401369742e-07
3.32793093730878e-07
1.48362728002018e-06
-5.50967828461947e-07
2.12706129443427e-07
1.62279134375522e-06
-5.38765765766245e-07
1.58352651718705e-07
1.85483525892577e-06
-5.93784054087231e-07
1.64311487756651e-07
2.11911180204777e-06
-8.61818825093487e-07
2.30764831734735e-07
2.36588759537637e-06
-1.66337140878835e-06
4.56941331210983e-07
2.51101960276675e-06
-4.33892535062913e-06
1.29326482319136e-06
2.27540331263884e-06
-1.7472082235853e-05
3.03546537967043e-06
9.15126219055659e-06
-4.32957029359537e-07
1.02656597554874e-06
2.77430479228052e-06
-5.53012484568809e-07
6.13599495023894e-07
1.69452284372185e-06
-5.8043549946109e-07
4.41681582487808e-07
1.57477188018915e-06
-5.82359267994592e-07
3.29395786869237e-07
1.71443108977236e-06
-5.61552642415511e-07
2.64282754928985e-07
1.96831901210489e-06
-5.57508460931803e-07
2.44302926454544e-07
2.28476543364713e-06
-6.54103157815984e-07
2.6025772380959e-07
2.63588108555528e-06
-1.02033257314669e-06
3.03502347398234e-07
2.97982530099143e-06
-2.02094767362917e-06
4.43702346831143e-07
3.24013551040799e-06
-5.18363292623325e-06
9.16918017085531e-07
3.3663177644322e-06
-2.07302447758211e-05
2.8741949922935e-06
9.40057307308305e-06
-3.90569226082879e-07
1.06586927475569e-06
2.90792450274909e-06
-5.58901246399417e-07
6.86186993150175e-07
1.81311084903754e-06
-6.10458357061786e-07
5.39630234577128e-07
1.68667363551395e-06
-6.27139007513793e-07
4.39775508750487e-07
1.81887953731938e-06
-6.13077913970182e-07
3.74012052824169e-07
2.0778157088337e-06
-5.8827274593825e-07
3.43513897764262e-07
2.4181418624359e-06
-6.00605215065029e-07
3.43811769675589e-07
2.82189863102588e-06
-7.4544077700197e-07
3.62864158404761e-07
3.27572254385229e-06
-1.22421707013843e-06
3.89710530090461e-07
3.78576876750391e-06
-2.48724835170915e-06
4.77471541284214e-07
4.58960818383513e-06
-6.31963013675275e-06
5.30707681633023e-07
6.84757580736526e-06
4.56118419004877e-06
-1.92499218759455e-06
1.47198947886828e-06
3.99883162884386e-06
-3.94971383386586e-06
1.7090529032747e-06
4.24005103077888e-06
-1.44697294395904e-06
2.90862327214616e-06
4.13455475476299e-06
-5.95693167405355e-06
1.63924982822229e-06
3.88945459175953e-06
-2.48636730717114e-06
2.5887634412754e-06
4.82654871012772e-06
-1.30367723851899e-06
4.26079854102327e-06
4.15455087369514e-06
-7.69796690746948e-06
1.34522969385923e-06
1.94942095493143e-06
-2.69961461490078e-06
1.75112340030165e-06
2.49015372836684e-06
-1.47623195822492e-06
2.68300005130413e-06
4.76802897777221e-06
-1.04926692732636e-06
5.32763379832422e-06
4.53450347427628e-06
6.15059129175955e-06
-8.35300157691179e-07
1.75630051011319e-06
2.60911431799926e-06
-1.01780830518972e-06
7.36120703460121e-07
1.60356968574407e-06
-1.31829572783582e-06
1.21106225455775e-06
1.38603181189314e-06
-2.78000848178525e-06
3.91408675341148e-06
1.09212186618051e-06
-9.1588805265105e-06
4.21719489135142e-06
6.79146969875948e-06
-6.7062098082812e-07
1.38330920602862e-06
2.53482232956195e-06
-7.83378094790269e-07
4.12156476191988e-07
1.50637197355054e-06
-8.80806229706068e-07
2.58663371824711e-07
1.35328629885514e-06
-1.22626550084549e-06
8.83308362492513e-07
1.26303598626408e-06
-2.92991618995843e-06
3.47356491150432e-06
1.09127083733017e-06
-1.05131162561507e-05
3.86600270041938e-06
7.32008019892452e-06
-5.53967745623304e-07
1.18748605767084e-06
2.50077877147063e-06
-6.42008002310877e-07
3.34969437157163e-07
1.46198372550423e-06
-6.89126958769563e-07
7.13566611042629e-08
1.3412774430908e-06
-7.87362020263737e-07
1.17896534933149e-07
1.36670908276116e-06
-1.23398297538312e-06
7.05267635480333e-07
1.37177443409093e-06
-3.15829348118015e-06
2.99009628140758e-06
1.20535463570509e-06
-1.21022661013801e-05
3.54194018333145e-06
7.75272709624542e-06
-4.72172188562419e-07
1.08768868460678e-06
2.5074343540762e-06
-5.59819262908021e-07
3.58230793897867e-07
1.46549054380657e-06
-5.94655863352659e-07
8.18043681175798e-08
1.35704185251672e-06
-6.19831464510487e-07
-5.78637644638608e-09
1.4467097905334e-06
-7.60842422409644e-07
8.71290913638332e-08
1.55398030072635e-06
-1.30635866045725e-06
5.87996482807184e-07
1.58470602248921e-06
-3.45024070683733e-06
2.43911630067009e-06
1.41290533816315e-06
-1.36399151087065e-05
3.25532269418107e-06
8.07792867852444e-06
-4.2101839773304e-07
1.0398997339305e-06
2.55212584490844e-06
-5.19497405965901e-07
4.23977876234054e-07
1.50915395957458e-06
-5.550505009093e-07
1.66941059696425e-07
1.40120616542747e-06
-5.59043161368917e-07
4.10039166810451e-08
1.52451532592751e-06
-5.93954441969462e-07
1.99229717659632e-08
1.70737665867939e-06
-7.97424402154052e-07
1.1836959482259e-07
1.87681219892119e-06
-1.47002129685795e-06
5.06807295863458e-07
1.95905295540675e-06
-3.86440066385303e-06
1.88444828794742e-06
1.76144930412325e-06
-1.54193053536945e-05
2.97508916342991e-06
8.66045606855681e-06
-4.41747978539815e-07
1.00701009078953e-06
2.64562811319687e-06
-5.17393141386081e-07
5.01966582048679e-07
1.58448602340084e-06
-5.53540879643056e-07
2.77933572062548e-07
1.47056852562262e-06
-5.53381982747099e-07
1.45828279170857e-07
1.60649484920652e-06
-5.4758058672722e-07
8.69997628318881e-08
1.83567435501338e-06
-6.12041144040676e-07
9.64316817145161e-08
2.09754148484279e-06
-8.94681130831656e-07
1.7859923058642e-07
2.34502237148501e-06
-1.71989350689533e-06
4.4552227900617e-07
2.49638776777054e-06
-4.45311561921866e-06
1.38802405226555e-06
2.2710271351613e-06
-1.76355009636891e-05
3.12867484650253e-06
9.12067859486301e-06
-4.26422119241606e-07
1.01668308233016e-06
2.75721980089156e-06
-5.47408018507778e-07
5.79564424848976e-07
1.67815726056337e-06
-5.75765305525537e-07
3.91478102815503e-07
1.55725166281419e-06
-5.78832823713031e-07
2.67175839914405e-07
1.69480033711066e-06
-5.60743438558661e-07
1.95518293543679e-07
1.9463959595588e-06
-5.61553327810484e-07
1.74018194951425e-07
2.26107289703191e-06
-6.65462085601048e-07
1.93999746240873e-07
2.61195965461261e-06
-1.04162741665022e-06
2.49309433247998e-07
2.95927059254423e-06
-2.05738144066457e-06
4.21000172115473e-07
3.22986584219742e-06
-5.27047790128174e-06
9.73310847256297e-07
3.36672406296983e-06
-2.08949331400349e-05
3.02422891346455e-06
9.37133641780898e-06
-3.701171544472e-07
1.08238349257939e-06
2.873496510487e-06
-5.48671174677677e-07
6.57176283928629e-07
1.77671702476119e-06
-6.06193233913605e-07
4.96372485520489e-07
1.65750803662466e-06
-6.199064954555e-07
3.85453072400611e-07
1.7912476623706e-06
-6.04842034187917e-07
3.12150653625007e-07
2.04972161854017e-06
-5.81081864874155e-07
2.77772594745453e-07
2.38898714256798e-06
-5.95983356518807e-07
2.77423183762567e-07
2.79191341675721e-06
-7.437484715398e-07
2.99444843336169e-07
3.24584940362834e-06
-1.22292954437324e-06
3.3510450068686e-07
3.75742323642922e-06
-2.48357669033383e-06
4.56381562843297e-07
4.55628670127057e-06
-6.35235342547275e-06
5.72028495125112e-07
6.81118582886699e-06
-2.75826238438901e-05
2.91085716710744e-06
9.64255890198025e-06
-3.61073586772029e-07
1.07652953488331e-06
3.0144742326295e-06
-5.26462098565105e-07
7.19650679322557e-07
1.89516106804963e-06
-6.26104295400302e-07
5.85934162421253e-07
1.77119287602458e-06
-6.61913608693063e-07
4.89992816766687e-07
1.89698934687066e-06
-6.61128453985313e-07
4.21310090840788e-07
2.15206709025302e-06
-6.34965345921109e-07
3.82796898831157e-07
2.49878188919546e-06
-6.11278501474745e-07
3.7316428229702e-07
2.92258177309405e-06
-6.41005524855843e-07
3.85685336893752e-07
3.41853713144149e-06
-8.28065703557368e-07
4.09101833261042e-07
4.00142205597833e-06
-1.38331706090682e-06
4.43156334036489e-07
4.80434612624635e-06
-2.65445033022328e-06
6.06940130253225e-07
6.44943296589297e-06
5.05308084617776e-06
-1.87939862058394e-06
1.38749257217916e-06
4.28473985504533e-06
-3.82414909786954e-06
1.61322349252886e-06
4.34621691355566e-06
-1.3892261326035e-06
2.75501731254999e-06
4.41206637455844e-06