/*--------------------------------*- C++ -*----------------------------------*\
  =========                 |
  \\      /  F ield         | OpenFOAM: The Open Source CFD Toolbox
   \\    /   O peration     | Website:  https://openfoam.org
    \\  /    A nd           | Version:  12
     \\/     M anipulation  |
\*---------------------------------------------------------------------------*/
/*   Windows 32 and 64 bit porting by blueCAPE: http://www.bluecape.com.pt   *\
|  Based on Windows porting (2.0.x v4) by Symscape: http://www.symscape.com   |
\*---------------------------------------------------------------------------*/
FoamFile
{
    format      ascii;
    class       volVectorField;
    location    "100";
    object      U;
}
// * * * * * * * * * * * * * * * * * * * * * * * * * * * * * * * * * * * * * //

dimensions      [0 1 -1 0 0 0 0];

internalField   nonuniform List<vector> 
10103
(
(-0.000121760162691719 -0.000182215171684199 -0.00133914700921491)
(-0.000100728719774776 -0.00016146909851993 -0.00153855146627185)
(-0.00024131178675238 -0.000514236056059408 -0.000847908515433451)
(-0.000337018347659876 -0.000114981805161855 -0.00136255926122746)
(-7.45711479646917e-05 -0.000138310219591093 -0.00172741314569017)
(-0.000218205463804921 -0.000503845748714877 -0.00101059708919194)
(-0.000319399118377355 -9.46188483622536e-05 -0.00154353112989611)
(-0.000197503088982579 -0.000817823345365164 -0.000505045541387272)
(-0.000510418437209624 -0.000309152500786621 -0.000724001669898293)
(-0.000588530989292349 -5.3596212861555e-05 -0.00105583195061953)
(-5.23275705416652e-05 -0.000121743929513497 -0.00189944605540491)
(-0.000190620577021929 -0.000479256194266516 -0.00116049608775399)
(-0.000293271561012487 -6.88462931219401e-05 -0.00171592987810794)
(-0.000179063009427069 -0.000817903068162353 -0.000632310301211376)
(-0.000492910449963131 -0.000294152619601683 -0.00085219598437742)
(-0.000572733117061425 -3.67867587718448e-05 -0.00119229305543182)
(-0.000135133995405905 -0.000975452040563315 -0.000368222898759194)
(-0.000443130719913312 -0.000487085291286349 -0.000441760712149154)
(-0.000701622917208962 -0.00020210467083949 -0.000540406708380468)
(-0.000900498186996015 -5.24704003015819e-05 -0.000747940866457876)
(-3.34210949365484e-05 -0.000111835149248501 -0.00205617432932865)
(-0.000172549201163777 -0.00046246948809456 -0.00130186351628523)
(-0.000272099388147827 -4.95087483252612e-05 -0.00187446391736721)
(-0.000160252287747726 -0.000796552665711297 -0.000751499504968679)
(-0.000467619910333456 -0.000267057590455107 -0.000971007133895325)
(-0.000546062110858996 -1.32131806482859e-05 -0.0013351023281819)
(-0.000124541500606971 -0.000982859679715779 -0.000480457742763108)
(-0.00043245216496561 -0.000481027375975505 -0.000550088804011463)
(-0.000690856114826549 -0.000188779958797792 -0.000650243839088098)
(-0.000896480762947636 -3.80546703005571e-05 -0.000862096319251387)
(-8.59983166265018e-05 -0.00102652970487642 -0.000272902942478275)
(-0.000317256156939721 -0.000600968928342488 -0.000311688746491045)
(-0.000573703057595114 -0.000288876371453188 -0.000316535149177155)
(-0.000855674492960937 -0.000135320439503571 -0.000388474347867939)
(-0.00119320113934737 -3.96103801700428e-05 -0.000543773018513855)
(-1.43191318566225e-05 -0.000107936850561591 -0.00219728878550867)
(-0.000157312369864232 -0.00045145819642369 -0.0014372889713311)
(-0.000252133069914243 -3.68730947635758e-05 -0.00201848587571441)
(-0.000146531260328693 -0.000780830255442609 -0.000861215028702717)
(-0.000447812731454394 -0.0002452832615643 -0.00107988165164776)
(-0.000526143836620936 6.36752831157003e-06 -0.00146836864561038)
(-0.000115263919808609 -0.000968726828822255 -0.000583739794491602)
(-0.000417633722548905 -0.000461335273724403 -0.000649410877356779)
(-0.000669904199356482 -0.000168175179432237 -0.000754616820702624)
(-0.000875907461912952 -1.91472038111863e-05 -0.000985263052987169)
(-7.74442251560568e-05 -0.00103580158167939 -0.000370913515260298)
(-0.000311598969223308 -0.000599560937867641 -0.00040659707472187)
(-0.000570409524010691 -0.000286220980599092 -0.000409871661490119)
(-0.000853731297168606 -0.000129010267545149 -0.000483486468601936)
(-0.00119802515180154 -2.95917909199707e-05 -0.000646884032662955)
(-4.77650499687295e-05 -0.00102582156816333 -0.000195525201576198)
(-0.000206783559713642 -0.000661732681783485 -0.000231144277414509)
(-0.000420275049628085 -0.000334356879352893 -0.000206679375280112)
(-0.000650537714553309 -0.000157008668024525 -0.000220509036522603)
(-0.000996476987680057 -6.1183559457524e-05 -0.000292083826061601)
(-0.00136132626365852 -9.52889256449009e-06 -0.000412418633707471)
(6.37924286198941e-06 -0.000110228509798512 -0.00231793695260017)
(-0.000142107307119244 -0.000444221569706408 -0.00157108913894815)
(-0.000228417292243634 -3.07872329375934e-05 -0.00214874236118177)
(-0.000133577988647938 -0.000769174670172963 -0.000966403299122356)
(-0.000430401480860123 -0.000230083715110878 -0.00118125299676707)
(-0.00050862473317589 2.07807246395022e-05 -0.00159262148839907)
(-0.000108526017478547 -0.000957534573195878 -0.000678020153828231)
(-0.000403547235737928 -0.000442800964790258 -0.000740245356491577)
(-0.000649175038352617 -0.000152489624611571 -0.000851775074547787)
(-0.000856497203230888 -2.39206452509241e-06 -0.00110168266893297)
(-7.19570881049945e-05 -0.00102615323705521 -0.00045982660764566)
(-0.000303832833645085 -0.000584526183427763 -0.000494152396009334)
(-0.000559032043844467 -0.000274921658213823 -0.000496905327046035)
(-0.000837102660766251 -0.000117064821047019 -0.000576230857426102)
(-0.00118002535437144 -1.90818748544686e-05 -0.000756963527077167)
(-4.27803911823616e-05 -0.00103789870102309 -0.00028194779644875)
(-0.000202181305973059 -0.000663888872933381 -0.000315317185157429)
(-0.000420136315770483 -0.000335962657112427 -0.000287314928768632)
(-0.000652161404540434 -0.000157050638744233 -0.0003021004809056)
(-0.00100108192989428 -5.95524375784275e-05 -0.000378428374331256)
(-0.00137219902096783 -5.38464744621622e-06 -0.000511635746730517)
(-1.22871951943052e-05 -0.000997795859731785 -0.00012835737981428)
(-0.000127345868421659 -0.000689006633810879 -0.000170003311658048)
(-0.000286345319196567 -0.000348517997633493 -0.000140530257586743)
(-0.000474566395110143 -0.000155781497176312 -0.000136228520445629)
(-0.000704807508043829 -4.31327033549311e-05 -0.000160213530309195)
(-0.00107757943180651 1.55769735856324e-05 -0.000226183172525438)
(-0.00140333406964209 5.7515105991181e-05 -0.000336729058519666)
(2.91266885344963e-05 -0.000119013153506754 -0.00241333174064617)
(-0.00012695405907203 -0.000440693356118615 -0.00170047453068416)
(-0.000200278953170878 -3.14338196489971e-05 -0.00226082575620886)
(-0.000120093614656503 -0.000758478456460994 -0.00107128339862842)
(-0.000411665444130199 -0.0002191244039387 -0.00127773365136548)
(-0.00048322494301202 2.99734886983084e-05 -0.00170933404440321)
(-0.000101628355623951 -0.00094852785733557 -0.00076746823601501)
(-0.000389651302235079 -0.00042839182465703 -0.000826389080396377)
(-0.000629659535936829 -0.000140903656707752 -0.000944245442971534)
(-0.00084135347932024 8.59062979565837e-06 -0.00121388080942582)
(-6.84459548572713e-05 -0.00101893854351146 -0.000540346564147798)
(-0.000295867701824022 -0.000569343642060748 -0.000574659641712028)
(-0.000545593073192601 -0.000263776536058784 -0.000577918497197398)
(-0.000817007089130718 -0.000108164434607322 -0.000663952681858441)
(-0.00116203874271033 -9.6017471662533e-06 -0.000863166634746938)
(-3.99792455201975e-05 -0.00103338508723813 -0.000360066104586954)
(-0.000197590162650934 -0.00065364353913836 -0.00039286878003641)
(-0.000414482110010338 -0.000329064900871497 -0.000363025450435875)
(-0.00064298980077078 -0.000151956253612373 -0.0003793541497513)
(-0.000988369282182558 -5.50381497825493e-05 -0.000463879043155363)
(-0.00135791136998104 4.91431827733943e-07 -0.000615248794125653)
(-1.25145943402784e-05 -0.00100764674679168 -0.000210020957304087)
(-0.00012554433324339 -0.000693795729327958 -0.000244679380392241)
(-0.00028689220875716 -0.000353338222366521 -0.000211547886715181)
(-0.000477134597403426 -0.000159426132216037 -0.000206723149337242)
(-0.000710455882605696 -4.59419786640519e-05 -0.000233826243788492)
(-0.00108723376607078 1.37105541175388e-05 -0.000307536181679633)
(-0.00142659682708565 5.35544046008168e-05 -0.000432466471224198)
(7.08152623795191e-06 -0.000951396449211156 -6.9621271274005e-05)
(-6.41573070379377e-05 -0.000688241301183817 -0.000118216790419891)
(-0.000178686158638704 -0.000341260236965295 -9.14033878176568e-05)
(-0.000328791585989581 -0.000135462823944341 -8.45310573230434e-05)
(-0.000499180430839362 -7.45458456626242e-06 -9.23699575567985e-05)
(-0.000717989793809275 7.94237465509875e-05 -0.000116100701506017)
(-0.00107653367955606 0.000116699241209557 -0.000177631398536876)
(-0.00141700603196646 0.000151857980325936 -0.000294545281850446)
(5.32901066944753e-05 -0.000133126314900734 -0.00248019171092877)
(-0.000111467590586788 -0.000439959197846652 -0.00182161519026301)
(-0.000168452625990309 -3.84335743706176e-05 -0.00235422431395641)
(-0.000106234841989032 -0.000748275690425432 -0.00117568675855747)
(-0.000390671850687952 -0.000212018673486657 -0.00136785940755471)
(-0.000449649164439001 3.39628486845954e-05 -0.0018154360984761)
(-9.37500372340383e-05 -0.000939614882795143 -0.000856189896990511)
(-0.000375035522032386 -0.000416489405284513 -0.000909602523982602)
(-0.000607305487078067 -0.000132225223823629 -0.00103339461092181)
(-0.000815302826907652 1.69251797079993e-05 -0.00132377016543561)
(-6.43943155390042e-05 -0.00101158779418337 -0.000616698813198922)
(-0.000287866554759275 -0.000556764004387448 -0.000651228075258568)
(-0.00053174755973504 -0.000256100101759428 -0.000655641542192917)
(-0.000798226019205863 -0.000102349837614996 -0.000749257373254057)
(-0.00114408945092101 -6.0242200911086e-06 -0.000969682541816804)
(-3.8045546119239e-05 -0.00103216129462173 -0.000428233762845843)
(-0.000193339349582204 -0.000642348021997952 -0.000464068766847424)
(-0.000406706218238099 -0.000321211027347504 -0.000433840965946953)
(-0.000630067872648086 -0.000147064751074299 -0.000452625761204558)
(-0.000970320813122234 -5.16915408631832e-05 -0.000546060123691348)
(-0.00134421225541062 5.34067828518456e-06 -0.000719015662138446)
(-1.19093398913443e-05 -0.00100863664811265 -0.000282501471996506)
(-0.00012305391762754 -0.00068812251793818 -0.000313573665983382)
(-0.00028405309323663 -0.000350202981686434 -0.000278332738120733)
(-0.000473287447077179 -0.000157776824707601 -0.000273651855193491)
(-0.00070470788893853 -4.57351665402985e-05 -0.000304520832221373)
(-0.00107836348891124 1.36078855423248e-05 -0.000388797216054135)
(-0.00141771214031797 5.57822667078727e-05 -0.000532473378076639)
(6.61584759628169e-06 -0.000964900682259372 -0.000152721927521914)
(-6.50365567793288e-05 -0.000694307617439906 -0.000185987805137455)
(-0.000179941056466089 -0.000348318352022907 -0.000153964196214739)
(-0.000332177630796297 -0.000141776458359919 -0.000146327449674405)
(-0.000504313127188489 -1.34719495461121e-05 -0.000155874992283057)
(-0.00072751175911005 7.33310106146879e-05 -0.00018414541181207)
(-0.00109091411091961 0.000110339045412964 -0.000254740787293238)
(-0.00144128141072359 0.000144951720351241 -0.000387089708624686)
(1.67453966537914e-05 -0.000910164442704341 -2.34909458925819e-05)
(-1.90142672003946e-05 -0.000669536605441011 -7.21328866886736e-05)
(-9.34266082060825e-05 -0.000318820329110707 -5.00218016184941e-05)
(-0.000209814065544286 -0.0001034581060604 -4.49630478548192e-05)
(-0.000343427064953216 3.93275906015874e-05 -4.92485964567094e-05)
(-0.000491050184387664 0.000147667925670169 -5.83170422409593e-05)
(-0.000685416536812567 0.000224323951686458 -8.00950471483956e-05)
(-0.00102290991276175 0.000244407024991726 -0.000136887712786607)
(-0.0013659229694067 0.000246683897968257 -0.000247012579255991)
(7.63434262622696e-05 -0.000149718616763575 -0.00251417570328053)
(-9.59667767851569e-05 -0.000441841266927848 -0.00193268854955261)
(-0.000132925448677036 -5.05008018374046e-05 -0.00242790479735241)
(-9.23964148073501e-05 -0.000738365838948333 -0.00128034541674995)
(-0.000368032255668792 -0.000209126470196826 -0.00145090311973634)
(-0.00041108988124239 3.28411424212208e-05 -0.00191130474779862)
(-8.57055345534512e-05 -0.00093076429596274 -0.000944072872285005)
(-0.000358699326349112 -0.000406739703141255 -0.00098962034722461)
(-0.00058124684186033 -0.000125401677460288 -0.00111762541747583)
(-0.000778153745662391 2.23404060055872e-05 -0.00142421062416645)
(-5.98713701205897e-05 -0.00100311827089794 -0.000692388095294258)
(-0.000279434629677235 -0.000545865268157396 -0.00072533675343317)
(-0.000517123115172773 -0.000251404054392183 -0.00073088015217397)
(-0.000775330791179267 -9.87605444052665e-05 -0.000832840363492696)
(-0.00111731967995993 -2.0279580759633e-06 -0.00107690966581628)
(-3.54934879788667e-05 -0.00103019469440285 -0.000490042983721898)
(-0.000189378329463205 -0.000632436860500466 -0.000531661009646768)
(-0.000398436773571462 -0.000315659236513688 -0.00050184809689526)
(-0.000617499648639561 -0.000145480924015946 -0.000523220512325328)
(-0.000951231053319657 -5.19501009037869e-05 -0.000627430163038291)
(-0.00131551849149639 5.42747256657845e-06 -0.000822685458460021)
(-1.19132744946078e-05 -0.00101557783720141 -0.000341243685118035)
(-0.000120324507512887 -0.00068177239643945 -0.000376042376599131)
(-0.000280026636535729 -0.000345448546907122 -0.000340748527953255)
(-0.000466276989963418 -0.000155718172829796 -0.000337469317644491)
(-0.000693930428545161 -4.59159920306174e-05 -0.000372442805129624)
(-0.00106352425562214 1.21801369422784e-05 -0.000468452326339947)
(-0.00141210052198617 5.78493070203931e-05 -0.000638658497509844)
(6.50801187675001e-06 -0.000969531337331893 -0.000224343742496989)
(-6.52450348477269e-05 -0.000692939975480383 -0.000248359169904413)
(-0.000179719591506065 -0.000348340563067293 -0.000212579253729048)
(-0.000331823844143203 -0.00014313582886236 -0.000205112410825435)
(-0.000502244326693817 -1.62952988696613e-05 -0.000216870731625087)
(-0.000724468113087989 6.9719716730639e-05 -0.000250703956874493)
(-0.00108612921975354 0.000106816189394788 -0.000332141016190221)
(-0.00143931916442038 0.000144923708806814 -0.000483829099350806)
(1.78434179280005e-05 -0.000936364663934392 -0.000110268459649568)
(-1.99684179304872e-05 -0.000678038717086968 -0.000136280214967564)
(-9.60428552885317e-05 -0.000327271364679388 -0.000105180382031849)
(-0.000213730483163009 -0.000111647634080479 -9.90626096502918e-05)
(-0.000348625886344178 3.10649180640395e-05 -0.0001046783152729)
(-0.000498337473324057 0.000138773292757884 -0.000116373888936153)
(-0.000698128042922503 0.000215098342930749 -0.000142981668546724)
(-0.0010421565143772 0.000235039237670573 -0.000209151263541573)
(-0.00140311026288032 0.000238899531892469 -0.00033302332468619)
(2.36076241914055e-05 -0.000863494476815075 -2.17419499478998e-06)
(1.47532304296897e-05 -0.00064589846670135 -3.35875274277504e-05)
(-2.82017181456828e-05 -0.000288772498481255 -1.25578811186923e-05)
(-0.000113477648170986 -6.60480948449636e-05 -1.04083056282668e-05)
(-0.000218799748326546 8.96850676806812e-05 -1.51368037094688e-05)
(-0.000331196064361276 0.00021552095439566 -2.03477514247655e-05)
(-0.000453288703170974 0.00032263324321299 -2.7023714548471e-05)
(-0.000617123793706435 0.000401086202893445 -4.46030414098891e-05)
(-0.000927890988399262 0.000390429766147491 -9.43555382345315e-05)
(-0.00121718575368522 0.000384359881800487 -0.000195046273108209)
(9.56378204785698e-05 -0.000167305504018443 -0.00251228222057399)
(-9.46116841101735e-05 -6.64721645121372e-05 -0.00247905671127441)
(-8.19162693627291e-05 -0.000446571381348812 -0.00203024607870771)
(-7.918829438882e-05 -0.000728945968540677 -0.00138158889504519)
(-0.000343815926301392 -0.000210529375916842 -0.00152664056776416)
(-0.000365534834077072 2.73672314776068e-05 -0.0019967877792126)
(-7.77723982868268e-05 -0.000922127030976528 -0.00103045397428242)
(-0.000341278876737064 -0.000398867155072511 -0.00106629543236149)
(-0.000552814549060031 -0.000121702332007359 -0.00119645653488093)
(-0.000736483833653914 2.38844958876044e-05 -0.001519910829015)
(-5.52718050288344e-05 -0.000994970281223086 -0.000767146030459299)
(-0.000270492700083362 -0.000536584050777419 -0.000797155131795573)
(-0.000500742311874019 -0.000248861719077643 -0.000803375042769894)
(-0.000747104542137758 -9.74262719968947e-05 -0.000912690848189654)
(-0.00107386165244122 -1.17751995354037e-06 -0.0011733417122244)
(-3.23487453227734e-05 -0.0010234837214783 -0.00055169444825016)
(-0.000185247862240973 -0.000623448735264233 -0.000597259760584777)
(-0.00038958799954508 -0.000312170572015281 -0.00056771664549544)
(-0.000603638531914955 -0.000145890503640782 -0.000591952529513248)
(-0.00092804934317414 -5.37563989032761e-05 -0.000708493893483772)
(-0.00128480583540772 3.31853241727817e-06 -0.000929662256947514)
(-1.15891299728784e-05 -0.00101889123595441 -0.000387737814502622)
(-0.000117655106567184 -0.000676052160537332 -0.000434409898248255)
(-0.000275922987693269 -0.00034220102968522 -0.000400591671469867)
(-0.000458300764374496 -0.000155935589104978 -0.000399309011579934)
(-0.000682236576395438 -4.89281817503646e-05 -0.000439353708453562)
(-0.00104091725584485 9.38715659492662e-06 -0.000545327108562805)
(-0.00141230342782534 5.69112653503479e-05 -0.00074774069205435)
(5.41835265019438e-06 -0.000981150821017248 -0.00027572995844462)
(-6.56092531251742e-05 -0.000692405523252529 -0.000302976044983492)
(-0.000178796095554699 -0.000346888401323582 -0.000267272120968527)
(-0.000329135795510519 -0.000143569958334574 -0.000261192312757591)
(-0.000496514360398897 -1.88104128568538e-05 -0.000275495365323504)
(-0.000715775396516886 6.55668906810457e-05 -0.000315248818133123)
(-0.00107483390877223 0.000101885057002508 -0.000409419792723203)
(-0.00143631035259486 0.000144487618082407 -0.000585746579240631)
(1.72018075419132e-05 -0.000940221201491667 -0.000181002944141703)
(-2.19619363270403e-05 -0.000679952899024328 -0.000194692623934673)
(-9.82949295377495e-05 -0.000330027446256891 -0.000156737103001196)
(-0.000215085726955861 -0.00011537842209648 -0.000150529895183802)
(-0.000349300794431922 2.5845681678371e-05 -0.000158000421660731)
(-0.000498104542646301 0.000132237958947433 -0.000172856458344817)
(-0.000698139107795383 0.000208176866193155 -0.000204962229567089)
(-0.00104339356412827 0.000228356780010728 -0.000281980782145082)
(-0.00141380647290501 0.000236485131010462 -0.000423076567623026)
(2.2669566040942e-05 -0.000907013084637606 -7.4303852562355e-05)
(1.26945086218363e-05 -0.000660958279180849 -9.46576261140623e-05)
(-3.1079886067144e-05 -0.000298899797031351 -6.21078359102325e-05)
(-0.000117951488829818 -7.5475544570237e-05 -5.75221674426138e-05)
(-0.000224345515378909 7.9909617943064e-05 -6.34063601503274e-05)
(-0.000337782177722678 0.0002049305850507 -7.06210857680675e-05)
(-0.000462406752379165 0.000311293432962157 -8.01117656827874e-05)
(-0.000632969600515742 0.000389162022505869 -0.000102581289261419)
(-0.000953822737453655 0.00037715203866884 -0.000160322668864384)
(-0.00127029467085655 0.000370713612598652 -0.000271972617159372)
(2.93117027482478e-05 -0.000784595468940215 -3.10742072719465e-05)
(3.84211767439781e-05 -0.000612928800429028 -9.49549595061398e-06)
(2.14802780403177e-05 -0.000255813969440386 2.03025477881264e-05)
(-3.61931093994266e-05 -2.75169712941932e-05 2.15374838604828e-05)
(-0.000117170554545125 0.000138466822131992 1.54154046025605e-05)
(-0.000206893825406733 0.000279114315735808 1.03672041477604e-05)
(-0.000298166118707196 0.000407705433450436 7.88212566411377e-06)
(-0.000392934404589491 0.000525641423994224 5.08435808131388e-06)
(-0.000521275362827069 0.00061050047142543 -7.30416436341299e-06)
(-0.000776586775413498 0.000578910501589845 -4.86898802055426e-05)
(-0.00099503748242974 0.000682875069477752 -0.000140849834584172)
(0.000109869998185114 -0.000186165803432079 -0.0024733506298268)
(-5.5131829583394e-05 -8.61503311032506e-05 -0.00250670111329189)
(-6.94787793388046e-05 -0.000454204939761916 -0.00211028868118001)
(-0.000314266599153676 1.76350609565062e-05 -0.00206794022404037)
(-0.000318977802962643 -0.000215397068104271 -0.00159349845453367)
(-6.71620482458665e-05 -0.000720606712180826 -0.0014765944490089)
(-6.99845403487029e-05 -0.000913599671530584 -0.00111395498165973)
(-0.000323490938213184 -0.00039320388257304 -0.00113870884070028)
(-0.000521498031233723 -0.000122915195890795 -0.00127027678386225)
(-0.000686365422925365 2.17233767615878e-05 -0.00161415320235969)
(-5.05105344919144e-05 -0.000987617586487806 -0.000839580020180219)
(-0.000261177665298648 -0.000529037329431918 -0.000866413599472851)
(-0.000482962589206224 -0.000247231250901493 -0.000873127252106311)
(-0.000715689722348684 -9.72999315649107e-05 -0.000989656773729014)
(-0.00102954853644867 -3.57124052019661e-06 -0.00127099324756921)
(-2.95901766321822e-05 -0.00101660874676485 -0.000615018357812068)
(-0.00018089437307908 -0.000615894508430803 -0.000661222263202381)
(-0.000380002663095824 -0.000310733622346941 -0.000631494625517148)
(-0.000587235329947495 -0.000148083466297087 -0.000659296507267305)
(-0.000898398067220729 -5.70991246646994e-05 -0.000785662716022331)
(-0.00124337193927997 2.35434992932418e-06 -0.0010299965624319)
(-1.01786555243946e-05 -0.00101259766932007 -0.000434123145749879)
(-0.000115072563107645 -0.000669722382457407 -0.000491185720632743)
(-0.000272109393888586 -0.000340698124695072 -0.000458682510332808)
(-0.000449610064754274 -0.000158082494621689 -0.00045938724163062)
(-0.000668407856471715 -5.37169040817094e-05 -0.000505248761353115)
(-0.00101932235098144 4.26274543365662e-06 -0.000624184500871107)
(-0.00139259049136382 5.00826168762872e-05 -0.000851782197966114)
(4.8331253204576e-06 -0.000987695063510683 -0.000304664535980945)
(-6.57309472996e-05 -0.000691737056158538 -0.000351342102003157)
(-0.000177648512772887 -0.000346568028926356 -0.000319367467493013)
(-0.000325329350519114 -0.000145788320049736 -0.000315540514656653)
(-0.00048966055773496 -2.41101980419431e-05 -0.000333062876817359)
(-0.000705161121615518 6.01023680759763e-05 -0.000378877548229191)
(-0.00106192887987932 9.48468236026777e-05 -0.000485640680918163)
(-0.00143883373301929 0.000140488535650228 -0.000685188029172684)
(1.43039995558614e-05 -0.000941741671006439 -0.000227162222897277)
(-2.46539480990985e-05 -0.000682893541466887 -0.000242367503748743)
(-0.000100054483076011 -0.000332187788665088 -0.000204187530959949)
(-0.000215051648254848 -0.000118243233796689 -0.000199508555570416)
(-0.000347410369770973 2.0885230177552e-05 -0.000209382946128774)
(-0.000493934584130368 0.000125513780996435 -0.000227478205542927)
(-0.000692358063126828 0.000200520298308136 -0.00026582354442426)
(-0.00103789472752469 0.000220028854647103 -0.000354864502159788)
(-0.00142335872228594 0.000233487715422006 -0.000518476243173004)
(2.31818833650134e-05 -0.000909093845366619 -0.000124859945322547)
(1.01049972107446e-05 -0.000663622413845773 -0.000148846517993243)
(-3.44328178278192e-05 -0.000303925057612195 -0.00010825283050429)
(-0.000120961109685645 -8.11313404090335e-05 -0.000102316353926775)
(-0.000226912841184382 7.2881103482452e-05 -0.00010987594946983)
(-0.000339712734956334 0.000196277787105187 -0.000119435896426635)
(-0.000464117576984316 0.000301487376863746 -0.00013206399774373)
(-0.000636739601121733 0.000378935673054811 -0.000159796189900456)
(-0.000962232012797676 0.000366703873735609 -0.000227017484947904)
(-0.00129360049706608 0.000365942817018201 -0.000354137568421859)
(2.27872253878858e-05 -0.000814984785384758 -4.84783611828115e-05)
(3.50517855923143e-05 -0.000638095411901605 -6.03343227087887e-05)
(1.86781536461422e-05 -0.000269365176904335 -2.4025820564825e-05)
(-4.07518115534414e-05 -3.81709485956355e-05 -1.94860346902083e-05)
(-0.000123031422463337 0.000127648364558599 -2.62848335835517e-05)
(-0.000213521511030453 0.000267289424123293 -3.31503274952239e-05)
(-0.000305850614665408 0.000394712978768532 -3.76599797559765e-05)
(-0.000403849807138728 0.000511637150535546 -4.30521553253565e-05)
(-0.000540658400094872 0.000595104142713822 -5.97081359982984e-05)
(-0.00080954574945237 0.000561088694444796 -0.000107082318827387)
(-0.00106332435763581 0.000671320232514056 -0.000204202835824657)
(3.51801842984819e-05 -0.000700679327671733 -3.42009103114649e-05)
(5.24884880352952e-05 -0.000556541987684408 -5.42605869134059e-06)
(5.63183427258787e-05 -0.000217146018632873 4.57157422713424e-05)
(2.47020282930943e-05 1.10244046600882e-05 5.07030632155162e-05)
(-3.41148097109827e-05 0.000183668117801981 4.41037530741796e-05)
(-0.00010575650975876 0.000335540854209916 3.82929820875656e-05)
(-0.000180321676738019 0.00048000651385054 3.62998554135744e-05)
(-0.000251042007037009 0.000621988677337579 3.77765955724331e-05)
(-0.000316931477808973 0.000757791330727618 3.93833129517509e-05)
(-0.000396695102931414 0.000866629796186564 3.25278414244994e-05)
(-0.000574090250227375 0.000843335234220883 8.47577706612976e-07)
(-0.000589904757450892 0.00162958018058329 -7.63059000772569e-05)
(0.000117487277543519 -0.000205190385992426 -0.00239772254054925)
(-1.65810353911085e-05 -0.000108658143812673 -0.00251372898092162)
(-5.86887827068528e-05 -0.000463762844204957 -0.00216906312159615)
(-0.000261104085987859 3.0277667241093e-06 -0.00212490332748823)
(-0.000294120867123298 -0.000223759001725745 -0.00164869308903133)
(-5.72860100738568e-05 -0.000714318383306927 -0.00156257739167168)
(-0.000628725437737868 1.53651312660144e-05 -0.00170177614164029)
(-0.000487244495610986 -0.000128206397924482 -0.00133775676829349)
(-0.000305437770390384 -0.000390429887424355 -0.00120536210367438)
(-6.30191814670259e-05 -0.000905571667191742 -0.00119309992748229)
(-4.62072521189838e-05 -0.000980201781252755 -0.000908949645386801)
(-0.000251640370472743 -0.00052350572869707 -0.000932479923883379)
(-0.000463358350961079 -0.000248223678623808 -0.000939632650166827)
(-0.000681115249748607 -9.96054563068328e-05 -0.00106446926516324)
(-0.000976454858210349 -7.81591190468769e-06 -0.0013710378322457)
(-2.73158320457702e-05 -0.00101244685288396 -0.000675925245520947)
(-0.000176360394263729 -0.000610260630638967 -0.000722975993056488)
(-0.000369783219603676 -0.000311458154448878 -0.000693110194171401)
(-0.000568683918245762 -0.000151372948691262 -0.000724859806673159)
(-0.000865162375863938 -6.26112010067686e-05 -0.000860893488256645)
(-0.0012113591572273 1.15211489611747e-08 -0.00113073312091796)
(-8.80504346430173e-06 -0.00100640385061331 -0.000487147787538147)
(-0.000112575302102534 -0.000664322695369361 -0.000547367016461759)
(-0.000267957615542714 -0.000341294860184955 -0.000515233953716551)
(-0.000439898463607366 -0.000162440314581605 -0.000517623638553464)
(-0.000652026195708946 -6.04131275222235e-05 -0.000569179978756712)
(-0.000991468671452842 -1.4970408523403e-06 -0.000700506916080312)
(-0.00135780065461261 4.70731157683009e-05 -0.000956241448397399)
(5.26512184640395e-06 -0.000978707137695163 -0.000335229822242919)
(-6.53075770401652e-05 -0.000687930787120163 -0.000398370772859276)
(-0.000176169351318564 -0.000347455290638438 -0.000369947555028034)
(-0.000320958905857086 -0.00015010273149064 -0.000368385514097704)
(-0.000482076721742233 -3.12008810115856e-05 -0.00038944515491579)
(-0.000693327875461413 5.2221376211598e-05 -0.000441846632665708)
(-0.00104551143487383 8.59016111137591e-05 -0.000561031633517206)
(-0.00142819411821097 0.000131851183452685 -0.000781190714294633)
(1.13282232861373e-05 -0.00093893752263347 -0.00023899598937824)
(-2.70783611098805e-05 -0.000685124673088646 -0.000279506674656692)
(-0.000101393705656207 -0.000335308608307673 -0.000248520282421162)
(-0.000214684181602491 -0.000122713441811745 -0.000246895241593659)
(-0.000344805255171788 1.37947169378782e-05 -0.000259590206566061)
(-0.00048866441289454 0.000116555079054732 -0.00028119575837057)
(-0.000685238083388594 0.000190974406348814 -0.000325882149757848)
(-0.00103156145248649 0.000208780145635626 -0.000426373835505702)
(-0.00143705835651012 0.000226582328817945 -0.000611095734270005)
(2.06565222172195e-05 -0.000902522446378264 -0.000166796839846839)
(6.02460230459042e-06 -0.000662337677056932 -0.000189839027459679)
(-3.80514854222675e-05 -0.000308639191542119 -0.000149162910480304)
(-0.000123203178043118 -8.63800244819818e-05 -0.000144721436986355)
(-0.000227833336642217 6.59563584124726e-05 -0.000154688224607847)
(-0.000339062268831221 0.000187325218771005 -0.000166865828507012)
(-0.000461976175060745 0.000290696303521959 -0.000182956737980729)
(-0.000634999946031515 0.000367507113049826 -0.000216219962794181)
(-0.000964339557966113 0.000354327289914325 -0.000294309426531679)
(-0.00131656241992709 0.00035911289538679 -0.000441951824217042)
(2.18529434653677e-05 -0.000809855990755772 -5.15687796340148e-05)
(3.27046359482516e-05 -0.00064079815475164 -0.000101775531077306)
(1.45587281815593e-05 -0.000275585260793864 -6.48293813167864e-05)
(-4.4970932661417e-05 -4.54763039589598e-05 -5.84621553368927e-05)
(-0.000127022313437267 0.000119151603786114 -6.64511958902656e-05)
(-0.000217098862341683 0.000257088025745933 -7.5402848959681e-05)
(-0.00030904017869556 0.000382825128969555 -8.21736976342028e-05)
(-0.000407713441012737 0.00049851334186926 -9.03824888528524e-05)
(-0.00054827090524156 0.000581174973473296 -0.000111523270311765)
(-0.000824799303893121 0.000546759649115905 -0.000167115062152323)
(-0.00110585636952421 0.000658997958941109 -0.00028104822348386)
(3.04035617424637e-05 -0.000715037218769961 -2.65220607242692e-05)
(4.52140177698142e-05 -0.000583138964475533 -3.35651054585475e-05)
(5.27637713888446e-05 -0.000235380794613267 9.14229853711715e-06)
(2.02712748122884e-05 -1.4605105207952e-06 1.53628257617314e-05)
(-4.00462641574271e-05 0.000171931457124747 8.39152713238124e-06)