/*--------------------------------*- C++ -*----------------------------------*\
  =========                 |
  \\      /  F ield         | OpenFOAM: The Open Source CFD Toolbox
   \\    /   O peration     | Website:  https://openfoam.org
    \\  /    A nd           | Version:  12
     \\/     M anipulation  |
\*---------------------------------------------------------------------------*/
/*   Windows 32 and 64 bit porting by blueCAPE: http://www.bluecape.com.pt   *\
|  Based on Windows porting (2.0.x v4) by Symscape: http://www.symscape.com   |
\*---------------------------------------------------------------------------*/
FoamFile
{
    format      ascii;
    class       volVectorField;
    location    "0";
    object      U;
}
// * * * * * * * * * * * * * * * * * * * * * * * * * * * * * * * * * * * * * //

dimensions      [0 1 -1 0 0 0 0];

internalField   nonuniform List<vector> 
10228
(
(5.65416605316381e-05 0.0110785868443961 -4.91582304641236e-06)
(0.000126695087485104 0.0111970044104116 1.24213948300334e-06)
(-5.6623757835462e-05 0.0109489259980277 -1.82223214564541e-05)
(6.42386126453849e-05 0.011009459468884 -5.83560978295298e-05)
(0.000204411901649563 0.011123191720694 -2.28715186688253e-05)
(0.000176341581939183 0.0115089345280958 3.32988892687324e-05)
(-0.000162162533619427 0.0111721670192138 5.70373729279154e-05)
(-0.000148909300369322 0.010885539012407 8.96566606040307e-05)
(-4.46397794658028e-06 0.0110122028795021 -0.000110263862950299)
(0.000141967881253095 0.0108676147236547 -3.08371392299195e-05)
(3.57974965472682e-05 0.011108202153811 -4.22186510910113e-05)
(0.000379257932582964 0.0113426836458731 -5.91540574575557e-07)
(0.000409822945384465 0.0109269066411608 -1.38917191879962e-05)
(0.000177404844612016 0.0119525229271169 0.000117903162374303)
(-0.000218123357324655 0.0115148405414753 0.000175933080993318)
(-0.000367319928563291 0.0111434254726913 0.000198193961189894)
(-0.000119919634661119 0.0107710082255604 0.000140041308624565)
(-3.70388545277e-05 0.0109875261881205 -9.7152675164987e-05)
(0.00011541414469027 0.0108682738279195 -6.79408769829035e-05)
(0.00016602237015514 0.0105239889971612 -2.65233779117742e-06)
(0.000354792494623042 0.010890185958796 -2.43295429695711e-05)
(-7.07767254390899e-05 0.0110895832513183 4.74554973826731e-06)
(0.000152928775803123 0.0113026445395791 4.17003432028255e-05)
(0.000593673970852936 0.0117139082099193 6.35230901566573e-05)
(0.000689679440576626 0.0110587100632588 2.60813668247555e-05)
(0.000516846476453862 0.010563646504171 1.14383966964499e-05)
(0.000208082895590128 0.0126170395352538 0.000120131093746352)
(-0.000196184843211337 0.011961778711099 0.000362383842995337)
(-0.000457241475531539 0.0114875103191948 0.000391737862816211)
(-0.000367037792134321 0.0110380558748408 0.000324509237781084)
(-0.000178486420432133 0.010726789883923 0.000117385383388724)
(-5.43912657925012e-05 0.0109989058221134 -6.60653059436382e-05)
(0.000112883574465201 0.0108888707299102 -7.0380931790818e-05)
(0.000175060983635206 0.0105187470986727 -2.24712563455648e-05)
(0.000190367623859828 0.0100683164956885 -5.63542929499141e-06)
(0.000329432594060986 0.0108783828990633 1.28471820118442e-05)
(0.000630367529686766 0.0109867335356227 8.22973378832822e-05)
(0.00050421244496413 0.0105208940739461 2.97875953976645e-05)
(-6.95462869889791e-06 0.0112779011547767 0.000152841739746851)
(-0.000126246504863128 0.0110759539186594 0.000109344283993286)
(0.000360961022930147 0.0116341874430654 0.000181979337875027)
(0.000860615203432979 0.0122143369145363 8.47910639069877e-05)
(0.00101042919124955 0.0113063171984317 6.81539045527505e-05)
(0.000873288981761147 0.0106303220396928 4.31932026409926e-05)
(0.000558656970434817 0.0100826841548958 1.83249107419644e-05)
(0.000333541218864726 0.0134463795622626 0.000126317436928751)
(-8.64796956472108e-05 0.0126031401410875 0.000393393443133953)
(-0.000434427403702423 0.0119352824286393 0.000593036705770273)
(-0.00052741355854136 0.0113760311806711 0.000550049245843411)
(-0.000455773911838751 0.0109512488474296 0.000355222928096322)
(-0.00015306540176957 0.0106506893659686 8.93969719892821e-05)
(-8.46144877207143e-05 0.010965470461067 -7.37983778248822e-06)
(0.000104556831886301 0.0108995454056854 -6.18832018538281e-05)
(0.000165829315134369 0.0105278843977831 -4.83588868314586e-05)
(0.00017675366544952 0.0100743257681798 -2.54070204097435e-05)
(0.000183604105525625 0.00957667109305654 -3.76108177772776e-06)
(0.000584292904604351 0.0109535561247978 0.00015078888917031)
(0.000305853652175722 0.0108824103253559 7.8602370045321e-05)
(0.000477191836647994 0.0105064198777668 4.75256531248042e-05)
(0.000835856471198294 0.0105687410274495 0.000105394314928486)
(0.000965133953808223 0.0112134269048357 0.000178998100050697)
(0.000523670465755623 0.0100716953127237 4.33374583577189e-05)
(0.000201907178928556 0.011596275936958 0.000302869926904471)
(-8.77179992040061e-05 0.011244432463786 0.000276572915619181)
(-0.000181337523016813 0.0110380487226691 0.000189893540190602)
(0.000697493095410512 0.0121363138198531 0.000245496281388391)
(0.00127555088153859 0.0130318238895166 5.64001493337541e-05)
(0.00141493019623554 0.0117018552522992 8.43922293279219e-05)
(0.00126871925128603 0.0107777421293705 6.36252804532454e-05)
(0.000943957032081311 0.0101116372524238 3.29153062213046e-05)
(0.00055705283303312 0.00957192830023143 1.23736912721745e-05)
(0.000453435948672608 0.0147137209097621 -6.50433001909092e-06)
(0.000155391950671006 0.0134160829728934 0.000371910924795788)
(-0.000292763456506288 0.0125872315345579 0.000667960892286068)
(-0.000538508524393652 0.0118116565558251 0.000739436750129832)
(-0.000575922032084219 0.0112527298987332 0.000572065524553189)
(-0.000422629424305986 0.0108748959175337 0.000296333011571206)
(-0.000171558676680646 0.0106563384316125 2.30025640131247e-05)
(-8.49207000149532e-05 0.010964320658141 4.13590647432879e-05)
(9.03734829529336e-05 0.0109050508146486 -2.56171772326643e-05)
(0.000149614524443422 0.0105399089284189 -4.59517247087557e-05)
(0.000160824596007312 0.0100744906090447 -3.47118411206525e-05)
(0.000171869922663475 0.00959762390375807 -1.04713301086461e-05)
(0.000180228961971441 0.00908777425419626 -1.02564120991178e-05)
(0.00055368958699259 0.0109493807786996 0.000212361297201636)
(0.000800226432915325 0.0105412016804244 0.00013966304060443)
(0.000933372211549283 0.0111656240556977 0.000256967012822131)
(0.00044337530186983 0.0105189423892289 7.02716032282445e-05)
(0.00028027503343607 0.0108891271496859 0.000128868118776143)
(0.000489586520655119 0.0100640075555518 5.15403544402202e-05)
(0.000900653409952534 0.0100900687500785 8.28986850868415e-05)
(0.00123700277683949 0.0107102716034436 0.000157162760302338)
(0.00138410381319172 0.0116037327095888 0.000226782425309826)
(0.000519412984629455 0.00958490540980166 3.40134672863659e-05)
(0.000610667711797973 0.0121061967640818 0.000374046245307085)
(0.000115230824674396 0.0115536725766935 0.000407220550831661)
(-0.000135926925157962 0.0112057514208804 0.000348361643906917)
(-0.000187505650181652 0.0110232700364773 0.000214853132029929)
(0.00112071977799583 0.01291492537205 0.000181983892353744)
(0.00186325756819951 0.0142370418532618 8.64560398706912e-05)
(0.00205683814079294 0.0123434321135747 4.19586445080476e-05)
(0.00179622241263823 0.0110308571959426 6.95899023084078e-05)
(0.00139238389999593 0.0101724258013972 4.26036734113171e-05)
(0.000949388643078374 0.00956531484204591 2.1310770126731e-05)
(0.000534353369157836 0.00907192903385626 9.03731970352687e-06)
(0.000634814816981593 0.0160344595197931 -4.54600132075585e-05)
(0.000373443761906747 0.0145270576822558 0.000113967765619268)
(1.09260878256032e-06 0.0135038033950288 0.000598471955593629)
(-0.000426533420482384 0.0124618054357153 0.000821491810471636)
(-0.000578214262677214 0.0116632653222446 0.000732204769068161)
(-0.000562764466794804 0.0111682251596441 0.000474877046866031)
(-0.000440971279683083 0.0108618603452561 0.000199517902886573)
(-0.000159523212977898 0.0106805792068763 1.16350896828658e-05)
(-9.02875058104041e-05 0.0109496035582003 6.35098445526208e-05)
(8.83396207463944e-05 0.0109196264337275 2.84267904825327e-05)
(0.000132043826205846 0.0105575121470546 -1.6254692313954e-05)
(0.000144896654351485 0.0100910704493622 -1.81099090417612e-05)
(0.000157540712368024 0.00960349665993764 -1.0560827260067e-05)
(0.000161210552257862 0.00911535881156703 -1.73915678801454e-05)
(0.000162332018213529 0.00863328112770549 -4.92588903688794e-06)
(0.00053186558754491 0.0109588115104455 0.00024298292301408)
(0.000907472594571373 0.0111541220592836 0.000302283110832731)
(0.000767188550334556 0.0105517957778012 0.000159352480605312)
(0.00086312525982043 0.0100791109008017 0.000103018387180316)
(0.00120798963098095 0.0106748321363905 0.000199590373853385)
(0.00141503818116502 0.0115427355677033 0.000310628191124979)
(0.00041283225261544 0.0105395308836374 9.12798910396015e-05)
(0.00045757253271586 0.0100774807303365 5.44566794150141e-05)
(0.00027634448235831 0.010903089226957 0.000153292051201476)
(0.000488058704766155 0.00958908232541526 4.48778257866778e-05)
(0.000904473395080466 0.00957320336125856 5.4941761357252e-05)
(0.00136171252948555 0.0101433363907929 0.000102328172478477)
(0.00178743506422274 0.0109666501944132 0.00017700287897568)
(0.00195575574551494 0.012278697980333 0.000169911233529801)
(0.000492321352406181 0.00909722541907162 2.58006837228912e-05)
(0.00122105707843677 0.0129036007905234 0.000287215233813789)
(0.000518902819486408 0.0120683774549094 0.00045433064079301)
(6.36929495411148e-05 0.0115134311833381 0.000454442652761574)
(-0.000148234651502612 0.0111832768711219 0.000350029537552491)
(-0.00019238076737226 0.0110115182891155 0.000199083387068747)
(0.00196973980132444 0.0140564060239131 -0.000116605575981912)
(0.00228116900268747 0.016195095180901 -0.000158786167069144)
(0.0031308851103436 0.0132844251391054 2.80061437971351e-06)
(0.00260779941649336 0.0114103365575579 5.14990474163505e-05)
(0.00196981742040188 0.0102693602248808 4.67235994183265e-05)
(0.00139973735937255 0.009555964809394 2.53814072424627e-05)
(0.000905278069106001 0.00903897432312764 1.35729553138487e-05)
(0.000487720289991302 0.0086079908727876 5.19183923066766e-06)
(0.00035987474854309 0.0183723318039532 7.99822141250215e-05)
(0.000517830651992122 0.015587769120383 7.31607237256396e-05)
(0.000314085897701978 0.0148032183416606 0.000350972197941249)
(-0.000205743774763688 0.013421232889087 0.000764576424735414)
(-0.000496619577747078 0.0122954797915014 0.000808208182208828)
(-0.000577451292454443 0.0115648179591391 0.000597257506118551)
(-0.000555094586162134 0.0111431946029678 0.000331297341382403)
(-0.000416892860472248 0.0108869153369255 0.000110559297782729)
(-0.000156063436509079 0.0107400446175311 -4.85210871957441e-07)
(-8.4658017682325e-05 0.0109720760461402 6.58531157033053e-05)
(9.12778525361924e-05 0.0109291378545395 6.87154243401341e-05)
(0.00012521530721741 0.0105796915422027 3.11615027458193e-05)
(0.000142022978403211 0.0101150333587517 1.99219871859239e-05)
(0.000145229917538571 0.00961805011738097 1.1633487222364e-05)
(0.000149797349484754 0.00912807014097204 -2.09318672734933e-07)
(0.000149023885540734 0.00865285647766737 -5.49015530497842e-06)
(0.000143822047664322 0.00821566586186212 6.72959243277793e-07)
(0.000744233641176387 0.0105788773141991 0.000163675937582496)
(0.000527674428685913 0.0109748960926663 0.000241765305415531)
(0.000887971331554222 0.0111652806769325 0.000311473074694329)
(0.00118486253749677 0.0106802037748596 0.000210194348497683)
(0.00140859956179543 0.0115215343120263 0.000336500048405137)
(0.000829793199212557 0.0100950750972465 0.000106554989616979)
(0.000869757072646074 0.00957794369689469 6.9263101826595e-05)
(0.00132635591831341 0.0101301786017601 0.000123760374327514)
(0.00178628217745815 0.0109142652814807 0.000223466103142992)
(0.00214751937838757 0.012170849286559 0.000240201033192367)
(0.000447478991354975 0.0100992429830255 6.76556357529305e-05)
(0.000401645981767358 0.0105623747424593 0.000106246334012682)
(0.000463414443924541 0.00960458942490246 5.11416602382005e-05)
(0.000283319454855433 0.0109177455673031 0.000154298988702791)
(0.000466783093411957 0.00911023327560771 3.96612483264284e-05)
(0.00136649568249306 0.00955954548075634 6.17419869690442e-05)
(0.000862463121101101 0.00906507619397285 3.85222614994376e-05)
(0.00197694481344397 0.0102357406997808 0.000107528887890949)
(0.00260006489240509 0.011391803465942 0.000165532350646779)
(0.00308298072862156 0.0133750642390829 -0.000112357561914187)
(0.000455158067513659 0.00863326197063612 1.89899592284012e-05)
(0.00189673306510298 0.0141902725720807 -0.000261282757756122)
(0.00113742841659514 0.0128599062885777 0.000368052645519987)
(0.000434727655468777 0.0120309943137076 0.000489947822522657)
(4.50785159034898e-05 0.0114895580344765 0.000433092876164481)
(-0.000145969969941481 0.0111754056461501 0.000300300351620219)
(-0.000179738566833204 0.0110311287168526 0.000154873440033762)
(0.00263214632628431 0.015506311354578 -0.000363784548947376)
(0.00141049012506433 0.0194296901233011 1.91326978151176e-05)
(0.00476748169154109 0.015148505830423 0.000341155733408184)
(0.00407099442631933 0.0119960765619685 -0.000116588186553016)
(0.0027689666826601 0.0103788832872076 4.96651656262149e-05)
(0.00194914229123158 0.00953133527851784 2.71915222886231e-05)
(0.00132530542597681 0.00898261339151265 1.44628824382668e-05)
(0.00082938709169799 0.008558742085137 7.67915024090937e-06)
(0.000433403246597181 0.00818894367144996 4.019110479585e-06)
(0.000333110295121259 0.0180652398827914 0.000194373364989317)
(0.000492072996384686 0.0163137140703135 0.000266875006269955)
(4.82153165313982e-05 0.0147029004146165 0.00058005154284211)
(-0.00033347790830303 0.0132519761560445 0.00079464030019763)
(-0.000515720284611109 0.0121822742498817 0.000661014675483565)
(-0.000562750384793907 0.011533104020218 0.00041365050180773)
(-0.000532341280908169 0.0111706804299319 0.000197081998395495)
(-0.000405940932766635 0.0109457527677332 5.16726259087699e-05)
(-0.000149879706080655 0.0107976489348969 1.53846867318046e-06)
(-8.0894937218455e-05 0.0110087632403842 6.37819937870297e-05)
(9.68168935524591e-05 0.0109527923148906 8.49603364712282e-05)
(0.000125436481276317 0.0106084403090938 6.81773850016097e-05)
(0.00014409735182196 0.0101465632524607 5.41658705039864e-05)
(0.000147580116880887 0.00963739798166814 4.40609725035782e-05)
(0.000141601413928638 0.00914273323658843 2.57646777145801e-05)
(0.000139550039659988 0.00866956561530684 1.28873915151572e-05)
(0.000134930412660686 0.00822946331607707 5.87894019373803e-06)
(0.000125362075948465 0.0078418128540162 3.82090515407229e-06)
(0.000814523456947981 0.0101241446331281 0.000105858284356104)
(0.0007374020246124 0.0106092098654139 0.000155956069145595)
(0.0011711191626782 0.0107091077463633 0.000202431413343014)
(0.000535263289485267 0.0109955509064552 0.000214946067577261)
(0.000881186428243283 0.0111854797421053 0.000291612165169262)
(0.00138721255056802 0.0115350932783405 0.000331835766333962)
(0.00129625798474084 0.0101463980015725 0.00012764705894982)
(0.0017686887836213 0.0109039675976203 0.000228339712889699)
(0.00211007186833833 0.0121079597629804 0.000263827452839218)
(0.000843224259400378 0.00959835468453866 7.45446315742698e-05)
(0.000833056934682322 0.00908005836607054 5.31654987297466e-05)
(0.00133332319716659 0.00956420853573212 7.2299319330573e-05)
(0.00193480898822729 0.0102138585937816 0.000126984287231686)
(0.00266490205070627 0.01127326956792 0.000219695712301071)
(0.00329017698737174 0.0131554593886889 -0.000189975780101474)
(0.00046384065057129 0.00963159695918254 6.38865309509836e-05)
(0.000451813878820426 0.0101288311044682 8.36692986414272e-05)
(0.000404151592877058 0.0105926584607538 0.000112153657366836)
(0.0004504519968961 0.00912886712708679 5.29772846604697e-05)
(0.000296272509123918 0.0109427105192591 0.000135563157906896)
(0.000433960326861766 0.00865151242339793 3.56370668217702e-05)
(0.00194101839114915 0.00952682996470789 6.16870889147353e-05)
(0.00129244502369064 0.00900811489174039 3.95662839906424e-05)
(0.000794096372231163 0.00858980076274931 2.70599987283581e-05)
(0.00285642670554175 0.0103585080841678 0.000120135037468957)
(0.00367908007087219 0.0122101337468745 0.000173090126122859)
(0.000411171069031422 0.00820827589282364 1.64485786610258e-05)
(0.00221733661181719 0.0162582446763191 -0.000370629655458514)
(0.00172924445459815 0.0140968929418811 7.80546809262265e-05)
(0.000978351593637443 0.0128263706864846 0.000442554256494004)
(0.000398531096750926 0.012008122666839 0.000466437611475392)
(4.68041325127274e-05 0.0114839626247626 0.000360849210596403)
(-0.00013283846283662 0.0111948401357608 0.000224896547588473)
(-0.000168203562071994 0.0110663537517997 0.000108963613180383)
(0.00153121586818575 0.0193712645210221 -0.000229445676014974)
(0.00529152221602065 0.02203452837964 0.000266029959526721)
(0.00683694994064567 0.0128112180281357 3.71662584824864e-05)
(0.00395881836383555 0.010494718638922 5.09640629400388e-05)
(0.00263319553506688 0.00945139925169716 3.17151960990527e-05)
(0.00181361678094693 0.00888468119252063 1.4665781717328e-05)
(0.00120679359569158 0.00847650354116641 8.17901389604879e-06)
(0.000739279204169476 0.00813370202697273 4.06491868184215e-06)
(0.000379045951581909 0.0078160742414744 5.28502200901276e-06)
(0.000297866096701375 0.0186383142897734 0.000366273596520881)
(0.000170390682284293 0.0163330015623613 0.00041150913360698)
(-9.83686167099682e-05 0.0145540013867701 0.000701176540821241)
(-0.000378546690310795 0.0131267468054706 0.000673725714793049)
(-0.000511024554194868 0.0121439219289345 0.000460005600148929)
(-0.000545300201704709 0.0115607786375606 0.000248410271253536)
(-0.000517224997716862 0.0112321082892366 0.000104851885121637)
(-0.000394242092283305 0.0110079859545655 2.7736482008547e-05)
(-0.000147655792957185 0.0108507933006243 7.67817613349117e-06)
(-7.29768343757798e-05 0.0110508416838271 6.37778964244554e-05)
(0.000101922649216599 0.0109743140452763 9.20789803227425e-05)
(0.000126704767023395 0.010630387693333 9.25832881511579e-05)
(0.000146510056713321 0.0101799950552517 8.29477750092585e-05)
(0.000148607708867088 0.00966761928887801 7.12729368349267e-05)
(0.000137981178375941 0.00916424298338759 5.37112112906291e-05)
(0.000134872112747142 0.008689351248039 3.70978704832938e-05)
(0.00012814434362901 0.0082470890043598 2.18083676473763e-05)
(0.000119809129889362 0.00784994728022358 1.24275498881974e-05)
(0.000107878111296589 0.00750922541460157 8.43925257064735e-06)
(0.000818771050420761 0.0101587641533659 0.000103924496707661)
(0.00128403899817147 0.0101793960685467 0.000120487748403892)
(0.000836999324135329 0.0096284025593333 7.86065046310609e-05)
(0.00116840883934859 0.0107454166987322 0.000181554964459465)
(0.000742496384922957 0.0106442112839447 0.000140821239787243)
(0.00176151533121644 0.0109304348908325 0.0002165978735657)
(0.000549442191508338 0.0110224099249131 0.000173419257961251)
(0.000886323995284581 0.0112113814168967 0.000248724322244266)
(0.00137176134289761 0.0115608726362853 0.000307468537971107)
(0.00208334789737948 0.0121196378579619 0.00029639994083281)
(0.00130774723639188 0.00958917495608742 7.52551056798658e-05)
(0.00190025826055 0.0102245374256774 0.000133678001897155)
(0.00262384922513999 0.0112313052488739 0.000228586363800667)
(0.00309826798584665 0.0130753623048213 1.97158875907552e-05)
(0.000814941959552629 0.00910335522658415 6.33392888600355e-05)
(0.00077082641487141 0.00861107373168576 4.52443586813557e-05)
(0.00126622850639268 0.00902559147637233 5.16075691174955e-05)
(0.00190548327303094 0.00953210216529442 6.86240426077056e-05)
(0.0027600518144929 0.0103059080480439 0.000150953539293194)
(0.00415570979708239 0.0118508267890615 0.000378318975781516)
(0.00485056462286858 0.0149538417677862 -0.000762655082381072)
(0.000468040672342101 0.0096660368311646 8.04359466993889e-05)
(0.000445260000652475 0.00915744415641564 6.90204022550543e-05)
(0.000458280684944234 0.0101618379310502 9.33306997285289e-05)
(0.000408309659947405 0.0106187892443959 0.000109905069119599)
(0.000424037974927546 0.00867277161508797 5.38273072706259e-05)
(0.000308588210434224 0.0109682501841969 0.000111408371255205)
(0.000395053830025509 0.00822852753065825 3.49257389766813e-05)
(0.00179599285226772 0.00890450015462544 3.62688409871663e-05)
(0.00265298785138801 0.00943002518712896 7.42071615381937e-05)
(0.00117837150519412 0.00851025593732591 2.68500123155811e-05)
(0.000713931437985298 0.00815970776681577 2.02561555684627e-05)
(0.0041690544187863 0.0105192794018756 0.000186373813507208)
(0.000364546878812397 0.00782832538482478 1.84425038859321e-05)
(0.001321609682232 0.0195146981215654 -0.000456437364632223)
(0.00203480796947816 0.0160278909803536 -9.90518822387009e-05)
(0.00161102166462764 0.0140271826960707 0.000340275942578421)
(0.000921300286249017 0.0128044386390097 0.000456296769341191)
(0.000392518827895815 0.0120036951163184 0.000390088377471673)
(5.60645954836847e-05 0.0115050828246752 0.000265917342663596)
(-0.00011752399789082 0.011231775344704 0.000152646113759664)
(-0.00015311864930223 0.0111093353204307 7.60377296648462e-05)
(0.00427748467713434 0.0227630703629076 -0.000576936888557966)
(0.0172859220843475 0.00815628702124168 -0.000262598542053336)
(0.00926278160795759 0.00885940561379754 -0.000175733863412806)
(0.00550133344406981 0.0101421794386901 0.000220467597263218)
(0.00347083329148488 0.00924058959877209 4.71208759239035e-05)
(0.00237549881525499 0.00870836489133258 1.77649729195717e-05)
(0.00162746104328101 0.0083440004604527 7.50771373411807e-06)
(0.00107183238018283 0.00804154786540182 3.23919126182222e-06)
(0.000647701925477327 0.00776140833963703 4.02526870627023e-06)
(0.00032767461668954 0.00748571598783148 7.06253198557985e-06)
(9.40454467161048e-05 0.018451257544194 0.000352993979785308)
(0.000131822016537912 0.0161978031361141 0.00053788183168392)
(-0.000158980370063671 0.0144263605914764 0.000628523525789845)
(-0.000387105869664849 0.0130823478873555 0.000479146969002208)
(-0.000503623217975285 0.0121692748130369 0.000277911535117323)
(-0.000531659535111412 0.01162588041618 0.000133688116889203)
(-0.000506681251832012 0.0112986628355916 5.17665236115131e-05)
(-0.000387356237806418 0.0110638768952625 2.20046263565287e-05)
(-0.000146297066755957 0.0108989587848239 1.49171988848904e-05)
(-6.76035433435327e-05 0.0110939480044302 6.04604990648949e-05)
(0.000110176381179072 0.0110017958860382 9.51608110080768e-05)
(0.000131751044850772 0.0106448191178051 0.000110082765501386)
(0.000151045193491193 0.0101978855070947 0.000109071323813816)
(0.000151042818641295 0.00969090410286344 9.87697802477035e-05)
(0.000136775953585132 0.00918857337219231 8.22922512560621e-05)
(0.000131842064048113 0.00871431568479902 6.34751407318319e-05)
(0.000123665309564358 0.00826921891806258 4.34915397400596e-05)
(0.000114590442072893 0.00786689091819067 2.85754747054199e-05)
(0.000104497351318596 0.00751438117408915 2.31702281378184e-05)
(9.27863566451431e-05 0.00721361913851655 1.07725028124643e-05)
(0.000827723307304523 0.0101924127022276 0.000103283580035289)
(0.000843653637924727 0.00966211597654227 8.58535385412886e-05)
(0.00128918163766578 0.0102185427583562 0.000110387884725318)
(0.00130157961065833 0.00962329685270749 7.79656771920852e-05)
(0.00189352800619264 0.0102578118461604 0.000126418142646201)
(0.000811394514857663 0.0091321741455763 7.48512236924115e-05)
(0.00176163067039468 0.010972059550517 0.000191535883701074)
(0.001173754079565 0.0107847382147899 0.000154990225771412)
(0.000749142824486193 0.0106715928358892 0.00012439704225966)
(0.00262022176894004 0.0112515215063148 0.00022099288423657)
(0.000564110295554483 0.0110500934961985 0.000133275685889573)
(0.000897079235294573 0.0112409278117248 0.000194680901920438)
(0.00137182959672079 0.0115915181678094 0.000262556904128755)
(0.00206399435334595 0.0121513877188173 0.000297102620580213)
(0.00306300202552138 0.013069579636175 0.00019664227239395)
(0.00187558828231938 0.00956049342041997 7.22409521825085e-05)
(0.00124946060296719 0.00905369024478746 5.98509080276247e-05)
(0.00270107854089507 0.0103024186244739 0.000161030209391568)
(0.00402964916556454 0.0116650297468022 0.000263472821040071)
(0.00452355944871143 0.0146174963244675 -0.000122745438370989)
(0.000759267821733536 0.008635168235388 6.13604143016879e-05)
(0.000695951428864799 0.00818316078643128 4.14843889076552e-05)
(0.00115947134312512 0.00853468900750126 4.2676580423217e-05)
(0.00177304304553124 0.00892523602272193 4.3960655542281e-05)
(0.00260782812314289 0.00944413746564278 8.9604623555415e-05)
(0.00393751700012152 0.0104198923481007 0.000298383524947163)
(0.00685708387079391 0.0126541641207747 0.000289672986690132)
(0.00526768077065448 0.0219057582940264 -0.00107235773038261)
(0.000474401501830489 0.00969199239814278 9.9970167208777e-05)
(0.000446527430725738 0.00918607703884422 8.72081773379114e-05)
(0.000420393868477865 0.0086977602257289 7.33710444898086e-05)
(0.000466619258644294 0.0101809583143349 0.000108638114819194)
(0.000418145651948224 0.0106352379141063 0.000112391586218203)
(0.000386691776109752 0.00825046854501355 5.62009196706428e-05)
(0.000324220748455858 0.0109948391584467 9.77126501914375e-05)
(0.000351895964742274 0.00784754495631607 3.71429529709312e-05)
(0.00160958759709208 0.00837494955240892 2.24684961772849e-05)
(0.00237175634655515 0.00871430068303163 3.93507926308809e-05)
(0.00351479460675046 0.00917496275725495 9.2625088661326e-05)
(0.00104958183962596 0.00807175212985864 1.83286701507578e-05)
(0.00063056769819082 0.00777881187031497 1.96467760092742e-05)
(0.00579856281760793 0.00955333473613985 0.000258432529628506)
(0.000318299278564302 0.0074935732777209 2.19120409367196e-05)
(0.00127630020934319 0.0192940420977396 -0.000256577708371098)
(0.00200450526176174 0.0159117903155798 0.000180313298735978)
(0.00156147347111741 0.0139940224227602 0.00040952377131768)
(0.000907515007368225 0.0128000974829915 0.000396288427724836)
(0.000394522024519855 0.0120261595368421 0.000288132435489143)
(6.90911637123106e-05 0.0115440058028936 0.000178000824225048)
(-0.000103912920488104 0.0112767878654168 9.93248217066802e-05)
(-0.000141328986422019 0.0111528976520282 6.17978777083883e-05)
(0.0193386830042114 0.00696159791954446 0.000236835115379528)
(0.012638979269291 0.00284907178716353 -2.4431870321008e-05)
(0.00907061085410122 0.00524642690658305 9.52341769164073e-05)
(0.00670253161075389 0.0081964212358233 0.000115077166376622)
(0.00437707098567554 0.00865071510723507 7.47370194119825e-05)
(0.00299069925611593 0.00839288737118173 2.42420281252706e-05)
(0.00208375755855054 0.00813288669698061 8.99089279127053e-06)
(0.00142997614801428 0.00789860183453465 4.38024821010725e-06)
(0.000936277422496835 0.00766981880008302 3.08406648800463e-06)
(0.000561189846898049 0.00743487011225802 5.5266574980955e-06)
(0.000281960938852975 0.00719306027572084 9.83665022131643e-06)
(0.000121915102034725 0.0183193388019409 0.000280794974951801)
(6.52908891346387e-05 0.0160686705377953 0.00049202214323337)
(-0.000164591529913516 0.0143811291893576 0.000458968359244221)
(-0.000392063512793528 0.0131043727316157 0.000293679037299891)
(-0.000497707577529868 0.0122369308795205 0.000150173791925957)
(-0.000523485599412652 0.0116969438574042 6.73769299253373e-05)
(-0.000499614777820244 0.0113604733646086 2.80372564818396e-05)
(-0.000384052130464859 0.0111133559014752 1.9606558048483e-05)
(-0.000145641254387006 0.010945453975394 1.85075228998391e-05)
(-6.57324529423763e-05 0.0111382824644607 5.79206261423054e-05)
(0.000113684788464796 0.0110342450105331 9.43939665730306e-05)
(0.000133946829797687 0.0106641031587437 0.000118091087205449)
(0.000153164639789841 0.0102122297827098 0.000126808981810277)
(0.000153205629555898 0.00970650910717125 0.000123219927201163)
(0.000139672609704224 0.00920583856651719 0.000111669393068837)
(0.000132738377517174 0.00873307309459505 9.40795748778023e-05)
(0.000121215928638061 0.00828924472564624 7.30093160396529e-05)
(0.000110108441276015 0.00788558104371487 5.42144520722875e-05)
(0.000100537790311685 0.00752709952206243 4.21348489223389e-05)
(9.02715467349194e-05 0.00721770144215505 3.06093032402338e-05)
(7.95841796969511e-05 0.00695220739118374 1.23114693478315e-05)
(0.00129837835702625 0.0102521384665979 0.000107781787936675)
(0.000851250737889835 0.00968571963243993 0.00010247230975988)
(0.000834641619078634 0.0102102953941532 0.00011420772183644)
(0.000817459799494142 0.00915917388203567 9.0998452808951e-05)
(0.00130965339284497 0.00965734863181272 8.52427112679926e-05)
(0.00190006706907402 0.0103005243063353 0.000113045765375677)
(0.00124799858028661 0.00908494349593055 7.03764957156337e-05)
(0.00187074085803259 0.00959720473335652 7.62747047163209e-05)
(0.00270218972474468 0.0103285142922809 0.0001457218789453)
(0.000758690379475238 0.00866068856383336 7.73762593140917e-05)
(0.00262128238709049 0.0112983498936887 0.000196103460746452)
(0.00176577177752312 0.0110156930570609 0.000161270188314244)
(0.00118049752739836 0.0108122772637668 0.000132773885630377)
(0.000757954145977705 0.0106878259018588 0.000119336300517625)
(0.00401804892235396 0.011697575695595 0.000227760977042566)
(0.000578240184084818 0.011076480391048 0.000108020179617756)
(0.000910116486330427 0.0112695271019871 0.000146524141778738)
(0.00137748140474101 0.0116244346975354 0.000205540390486512)
(0.00205991573534944 0.0121861771166843 0.000263220682036172)
(0.00305200490420281 0.0131020331415326 0.000260048758229395)
(0.00445307640522649 0.0146195478282597 0.000118762055647618)
(0.00256831508760115 0.00947730045990949 9.34840134346071e-05)
(0.00175609708300479 0.00895933236273056 5.20258439835033e-05)
(0.00115042977906864 0.00856236909360343 5.76151364918015e-05)
(0.00380097938072162 0.0103044199802233 0.000264580077658257)
(0.00666382264370631 0.0124747495671506 0.000266287424491471)