/*--------------------------------*- C++ -*----------------------------------*\
  =========                 |
  \\      /  F ield         | OpenFOAM: The Open Source CFD Toolbox
   \\    /   O peration     | Website:  https://openfoam.org
    \\  /    A nd           | Version:  12
     \\/     M anipulation  |
\*---------------------------------------------------------------------------*/
/*   Windows 32 and 64 bit porting by blueCAPE: http://www.bluecape.com.pt   *\
|  Based on Windows porting (2.0.x v4) by Symscape: http://www.symscape.com   |
\*---------------------------------------------------------------------------*/
FoamFile
{
    format      ascii;
    class       volScalarField;
    location    "800";
    object      k;
}
// * * * * * * * * * * * * * * * * * * * * * * * * * * * * * * * * * * * * * //

dimensions      [0 2 -2 0 0 0 0];

internalField   nonuniform List<scalar> 
10228
(
7.22028537275198e-11
7.37328450994746e-11
1.14723797302906e-09
1.16731729642358e-09
1.22565875025149e-09
7.838293630164e-11
1.21560858150028e-09
5.7941844345742e-09
3.12591711251703e-08
6.2981227615127e-09
3.22567198345946e-08
1.26740720312464e-09
6.44911421256999e-09
7.32895564588063e-11
1.25282307700493e-09
5.90995018760743e-09
1.3985756964747e-08
1.65437854251421e-07
1.77911026523989e-07
1.80987159659279e-08
1.81343431446547e-07
1.6743354668555e-07
3.28202647971592e-08
1.24493262413625e-09
6.62444308012625e-09
1.91238551732781e-08
7.09786179522998e-11
1.2309031117347e-09
5.96428393612417e-09
1.45754585308938e-08
2.63514694075164e-08
4.2370089975331e-07
9.93019115894077e-07
5.32065602734419e-07
4.02141603831685e-08
9.92821231775838e-07
1.83256236531536e-07
5.41355717519147e-07
1.67269338336895e-07
4.2407174962439e-07
3.21878752472142e-08
1.14614329591503e-09
6.51852257691119e-09
1.98249103511622e-08
4.11414911676208e-08
5.50631035574432e-11
1.13205734574202e-09
5.81280072906521e-09
1.46651082132923e-08
2.62593199403197e-08
3.93962294735476e-08
7.74090034830395e-07
2.41158905316761e-06
2.65854658536582e-06
1.11452054987016e-06
6.84918298866888e-08
9.8059754475384e-07
2.38970341405272e-06
2.65309163537272e-06
5.46970434102562e-07
1.78245100835787e-07
1.12586814067269e-06
1.61613098069561e-07
4.18220025832489e-07
7.62041596352671e-07
2.92252030411233e-08
9.31225053962659e-10
5.8992952749781e-09
1.94910372744713e-08
4.23660025199371e-08
7.09384136177753e-08
3.89280538481697e-11
9.12162220617331e-10
5.27038319332089e-09
1.41105136658094e-08
2.58558625649416e-08
3.9605661012006e-08
5.61927161528289e-08
1.18016360787247e-06
4.00122850475243e-06
5.42643247111214e-06
4.70748167483538e-06
1.86005925140225e-06
1.06114308975539e-07
2.33786203858315e-06
2.6196996846735e-06
9.38116731261967e-07
5.3930760034907e-06
3.95193520570177e-06
4.69555015033496e-06
1.13664886410525e-06
5.31319087870332e-07
1.60306807069238e-07
1.87078590078526e-06
1.45649953698158e-07
3.99199486283973e-07
7.43871984170633e-07
1.15306244815303e-06
2.35363563888281e-08
6.77802658341848e-10
4.79743551044921e-09
1.76404758462001e-08
4.17591619404161e-08
7.33802968442282e-08
1.08696310148532e-07
1.0065227375444e-11
5.65335750098335e-10
4.26409491445782e-09
1.26746564209321e-08
2.4525086513124e-08
3.88989056161008e-08
5.54833445486892e-08
7.39892190848503e-08
1.63527816489977e-06
5.55900709082407e-06
8.02331033435574e-06
8.45876474479503e-06
6.81835160123421e-06
2.71606364686959e-06
1.48398007286645e-07
3.85638448247244e-06
2.22444970679658e-06
5.2980353838744e-06
4.64493929565762e-06
2.51505615372327e-06
8.42008396148903e-07
7.97542417178616e-06
8.42859522492538e-06
5.49651005592222e-06
6.80582535726607e-06
1.88874612243723e-06
1.10916084846661e-06
4.78785536813252e-07
1.28236735295764e-07
2.73040092853925e-06
1.17000889536048e-07
3.576412921765e-07
7.04369392231484e-07
1.12006337239526e-06
1.59683991235035e-06
1.5025061739352e-08
1.75598480385127e-10
3.62040118179168e-09
1.4480516361256e-08
3.82597302398921e-08
7.27078590501176e-08
1.12361015704905e-07
1.51924693371819e-07
9.80272338430918e-13
1.4758491410179e-10
2.56087394336382e-09
1.02451887305477e-08
2.18442832093034e-08
3.66651843111389e-08
5.42928601179332e-08
7.30204666528363e-08
9.41120556552384e-08
2.11284924659371e-06
7.0589165694265e-06
1.04180761058947e-05
1.17496145247942e-05
1.13661087641882e-05
8.88137529607903e-06
3.60590728979777e-06
1.96353174838533e-07
7.82931894213966e-06
5.36522493137478e-06
3.66889787727077e-06
5.08755252606114e-06
2.0084706716515e-06
8.30836832824047e-06
6.74536812542474e-06
4.49256386328304e-06
2.28958754292815e-06
6.76751657318449e-07
1.16993985819842e-05
1.03498315968538e-05
1.13305278129801e-05
6.98256128945946e-06
8.86878665653254e-06
1.85462440587361e-06
2.75940900382472e-06
1.01587114371942e-06
3.86652815422001e-07
8.60319915874882e-08
3.63527215759895e-06
7.23282322860681e-08
2.8711962873012e-07
6.27902076148182e-07
1.05620024287142e-06
1.55063420442257e-06
2.07188029380484e-06
3.87400368791054e-09
1.5493438801059e-11
8.36597142931312e-10
1.1173026498291e-08
3.25205225230868e-08
6.76531822842552e-08
1.12045609622097e-07
1.57767324339369e-07
2.01180897369608e-07
1.06434211649643e-11
7.32006229873554e-10
6.31243274815373e-09
1.75437462630845e-08
3.24831147242056e-08
5.10839148148572e-08
7.16504845207077e-08
9.27481722798007e-08
1.15302788193469e-07
2.61395839257173e-06
8.5014472831263e-06
1.26589158628524e-05
1.47487549796654e-05
1.52403475435536e-05
1.41555640768414e-05
1.08728022026063e-05
4.50855529180212e-06
2.46718770079004e-07
1.15236971634499e-05
1.01560043567635e-05
7.52919351844699e-06
6.81936188209008e-06
5.11228857262298e-06
3.33288496684232e-06
8.04068027079204e-06
4.6991052778292e-06
1.64990848146191e-06
1.11915224390112e-05
8.80376466002484e-06
6.56954271420497e-06
4.17491037099882e-06
1.89954200955688e-06
4.26803448904428e-07
1.51834528095841e-05
1.46756060694037e-05
1.25723827555859e-05
1.41144876305466e-05
8.41743697683538e-06
1.08622299609777e-05
1.7329611954687e-06
2.72615073172826e-06
3.68027396999098e-06
8.53939921432738e-07
2.6822158534139e-07
4.54872481511621e-06
2.15242579779502e-08
1.78748307510596e-07
5.02399595564487e-07
9.39486532529486e-07
1.46247375528008e-06
2.015947202164e-06
2.56740041814193e-06
2.05028181187263e-10
5.84816656777142e-11
3.5038387713747e-09
2.65560702564281e-08
5.94193625512774e-08
1.05521863345188e-07
1.58303048329382e-07
2.09385513596176e-07
2.53623890504748e-07
5.389958338668e-11
1.79813436196554e-09
1.08634466988789e-08
2.60329886745561e-08
4.52161294489362e-08
6.7558238458629e-08
9.08603872823401e-08
1.13890640212203e-07
1.37678079640416e-07
3.12817286815289e-06
9.89546834899224e-06
1.47718609161366e-05
1.75384217256127e-05
1.87332113950411e-05
1.85622293462261e-05
1.6829708129734e-05
1.27906553015232e-05
5.40744354348098e-06
2.99204885842606e-07
1.44484297452215e-05
1.11629767957368e-05
1.4986380148491e-05
9.77622547860291e-06
1.23365041940334e-05
7.01013140439002e-06
8.22960614936885e-06
6.50817188588192e-06
4.66971546054616e-06
2.78264942327825e-06
1.08922584263887e-05
7.56484304403676e-06
4.06699174475623e-06
1.09699399679945e-06
1.39617470768253e-05
1.0796134422884e-05
8.61838710425656e-06
6.21802167995509e-06
3.64072364636739e-06
1.28026750054358e-06
1.58498143577701e-07
1.8651446844412e-05
1.84971149176171e-05
1.74439855671805e-05
1.46714586804695e-05
1.67855705473297e-05
9.80371166525812e-06
1.27831752652777e-05
2.58577544064521e-06
1.52856345548624e-06
3.65356294048469e-06
4.61141118769509e-06
6.40993067483828e-07
5.45785316707518e-06
1.1277875723468e-09
5.188735499979e-08
3.11480482467323e-07
7.52334627363144e-07
1.30158370103288e-06
1.90496822438027e-06
2.50388720896118e-06
3.07686678011655e-06
9.45712671046494e-10
8.94920038098455e-11
1.67878569933003e-09
1.88157687703798e-08
4.93726751137376e-08
9.45450396527144e-08
1.5055953472357e-07
2.1101682667398e-07
2.6484863518286e-07
3.08201637655229e-07
1.13272550053513e-10
3.1463192459301e-09
1.61457005745421e-08
3.62043327499564e-08
5.98668667009693e-08
8.56801615903981e-08
1.11767306330204e-07
1.36143612241679e-07
1.60854230299763e-07
3.64968048443449e-06
1.12418927356331e-05
1.67755086585741e-05
2.01576676696674e-05
2.19705270451249e-05
2.24959536344623e-05
2.17411189420885e-05
1.93934412158844e-05
1.4634691724826e-05
6.29512112524759e-06
3.5287173234737e-07
1.71702565091573e-05
1.84005802726711e-05
1.40054760735853e-05
1.45922893770268e-05
1.05627057422076e-05
1.82816197911063e-05
9.1415391297253e-06
1.18861846230464e-05
1.44006362898761e-05
6.19888689419173e-06
9.59420379420701e-06
7.86927994120305e-06
5.97020965364392e-06
3.94928929313008e-06
1.89708972784967e-06
1.03839592148233e-05
1.36442236888773e-05
6.83085097983067e-06
3.11747713126479e-06
3.65642092561351e-07
1.66229677237789e-05
1.27184804684064e-05
1.06054813415898e-05
8.25955409256671e-06
5.67027592851872e-06
2.81758019768399e-06
7.1320713269287e-07
6.59941405617087e-09
2.18652767129941e-05
2.2403438099193e-05
2.16695470539054e-05
2.00467140848859e-05
1.6664265512406e-05
1.93483968842817e-05
1.1143110796899e-05
1.46306367288817e-05
3.50354590132225e-06
2.35061954307233e-06
1.27447272307062e-06
4.59471796091635e-06
5.53683055707769e-06
4.54789316427565e-07
6.35314711348326e-06
2.34390237315447e-09
8.95146425506751e-08
4.67330545643364e-07
1.04319610509719e-06
1.70033979851603e-06
2.37194697302884e-06
3.00499258010819e-06
3.59338650958857e-06
1.08792038063813e-09
1.09799800988199e-10
1.63524890233447e-09
1.22602379777396e-08
3.89244349057608e-08
8.16314380951599e-08
1.37015199584664e-07
2.01964352006386e-07
2.68095947192821e-07
3.22627440201859e-07
3.64115874834141e-07
2.02456580640552e-10
4.67782533044306e-09
2.24016492854605e-08
4.8031087545226e-08
7.59960747599803e-08
1.05540714432988e-07
1.33788988419748e-07
1.59210054828665e-07
1.84634771122933e-07
4.17268554945266e-06
1.25393730913851e-05
1.86821112859829e-05
2.26316694992469e-05
2.50073261518621e-05
2.61264431106108e-05
2.60886976263081e-05
2.47901069291707e-05
2.18524959896625e-05
1.64056781399363e-05
7.16232163819979e-06
4.0712588151997e-07
1.66538119592208e-05
2.15653499240238e-05
1.9733830591224e-05
2.21305648511566e-05
1.79236548589966e-05
1.32943787008273e-05
1.78643748462873e-05
1.39626388142259e-05
9.68427880760239e-06
2.14380947571005e-05
8.16680860332579e-06
1.11465345235741e-05
1.38890351799079e-05
1.63638423655262e-05
4.94596390702248e-06
1.09136344731862e-05
9.18929601092198e-06
7.24730989144918e-06
5.1011314146158e-06
2.76376446903117e-06
6.34851674733133e-07
9.65057213586664e-06
1.31243992408321e-05
1.62911958490755e-05
5.82295888343267e-06
1.68682768882111e-06
1.29856720253097e-08
1.91782503715757e-05
1.45675404490481e-05
1.25238660442152e-05
1.02386694535046e-05
7.7277347564749e-06
4.95919752306676e-06
1.99761678649912e-06
2.38739548940055e-07
9.29322651376763e-09
2.48839092447962e-05
2.60084717447044e-05
2.59868489657604e-05
2.47143001671568e-05
2.25082679662049e-05
1.85616395314092e-05
2.18073852427107e-05
1.24338153131664e-05
1.64044824750342e-05
3.24765885705681e-06
4.43900148765379e-06
2.0602221733419e-06
1.01549197839897e-06
5.52860403812687e-06
6.44696590165623e-06
2.93069103320437e-07
7.22759266833374e-06
4.0566690021396e-09
1.32963028717275e-07
6.47509571205321e-07
1.36961442522669e-06
2.12461509462751e-06
2.85221517743798e-06
3.51368524816304e-06
4.11064028891531e-06
1.67448683360417e-09
8.17778192270173e-11
1.24967807514991e-09
8.61297325703402e-09
3.8091792766478e-08
2.98527411065086e-08
6.86171949289852e-08
1.21280522151516e-07
1.85415668504664e-07
2.58158576474781e-07
3.27618165062241e-07
3.81823721561191e-07
4.20621810726132e-07
2.9314834360156e-10
6.49697506712574e-09
2.97513264878697e-08
6.10893293834441e-08
9.36692364526229e-08
1.26491287752095e-07
1.56627326377233e-07
1.82860990354365e-07
2.08771050799389e-07
4.68937838596181e-06
1.37852929652063e-05
2.04983020044457e-05
2.49775607022785e-05
2.78750613119271e-05
2.95279331036135e-05
3.00821840229836e-05
2.95353359162923e-05
2.77182379656433e-05
2.42114894688944e-05
1.81041715517016e-05
8.0044225667904e-06
4.61569416963047e-07
1.91530804388515e-05
1.58415382192513e-05
2.10144883623366e-05
2.45428553809254e-05
2.56839127265508e-05
2.21626753601981e-05
2.56933077474495e-05
2.1627339276459e-05
1.71881041002584e-05
1.22752271624169e-05
2.09993053118876e-05
1.72193719921152e-05
1.30925768380103e-05
8.49176203948377e-06
2.44688041125324e-05
6.66404323250052e-06
1.00217183687309e-05
1.30552774390493e-05
1.57979408412851e-05
1.82349529759184e-05
2.85888392823827e-06
1.21855792544846e-05
1.04676148496101e-05
8.49000312074957e-06
6.24209894270538e-06
3.66033862786219e-06
9.51436785526586e-07
2.29458012824594e-08
8.7246764048048e-06
1.24056094682607e-05
1.57577950164187e-05
1.88322012631294e-05
4.58509840009851e-06
5.65768726008655e-07
1.87420290420132e-08
2.1630330728905e-05
1.63421240008978e-05
1.43678688076981e-05
1.21454493074503e-05
9.70194759743392e-06
7.06258522269364e-06
4.17727843546962e-06
1.30572961408726e-06
1.82017814934702e-07
7.94724668733626e-09
2.93905838581369e-05
2.77382263122503e-05
2.99529498240058e-05
2.9426365160728e-05
2.76393133460542e-05
2.48440222713445e-05
2.03693301048473e-05
2.41661990738277e-05
1.36730699154529e-05
1.81050877463922e-05
2.93115627947196e-06
4.16435339297644e-06
5.36515867045879e-06
1.75580556257527e-06
7.83185702789184e-07
6.44580879671588e-06
7.33453440639386e-06
2.07996867807959e-07
8.07862360978421e-06
5.96911018157395e-09
1.83543056103762e-07
8.55788329912031e-07
1.72093237334093e-06
2.56328361882974e-06
3.34058727110688e-06
4.02322904044097e-06
4.62294792912894e-06
1.30667212979333e-09
6.23367975820987e-11
9.76251433428158e-10
6.36795849422929e-09
3.1454713484941e-08
2.34761305161761e-08
5.66846764937077e-08
1.05334674696683e-07
1.66142785626802e-07
2.3889074735527e-07
3.16759936673637e-07
3.88553272879276e-07
4.41518224437221e-07
4.77177939369633e-07
4.16940309974708e-10
8.57293252336065e-09
3.79726401780898e-08
7.52409124360754e-08
1.12401753892244e-07
1.48235848859776e-07
1.8002613297919e-07
2.06862518571965e-07
2.32995930142136e-07
5.19608226073736e-06
1.49763259661432e-05
2.22264340096074e-05
2.72054475608678e-05
3.05936992107341e-05
3.27402487616152e-05
3.38160512038735e-05
3.38739795310688e-05
3.28493770013882e-05
3.05316404415976e-05
2.64734678389371e-05
1.97310207053105e-05
8.81988470580386e-06
5.15973921156492e-07
1.82492086301418e-05
2.15251911220116e-05
2.39275156536802e-05
1.46910117639421e-05
2.0182826356098e-05
2.51050278274338e-05
2.73632104020775e-05
2.90232784333055e-05
2.96045266576021e-05
2.44699246887822e-05
2.91135971335659e-05
2.51630201809777e-05
2.08750569444965e-05
1.61937231005044e-05
1.08992883666803e-05
2.03333727753272e-05
2.4007245277597e-05
1.63579175954805e-05
1.20097958746971e-05
6.97824844060102e-06
2.73805398831673e-05
8.29606053497596e-06
4.08633712413447e-06
1.17940816373746e-05
1.48786363295378e-05
1.76195916501477e-05
2.00183892967498e-05
9.95331884362437e-07
1.34069515966147e-05
1.17010668952504e-05
9.69652004427152e-06
7.36106904059881e-06
4.56536452094395e-06
1.31339052096895e-06
3.40738303036467e-08
3.26730591145544e-08
1.15238930928573e-05
7.67128361476798e-06
1.5031183757459e-05
1.82785479753386e-05
2.12686476859404e-05
3.24642294336461e-06
4.55537752379761e-07
1.75732881943369e-08
2.39818085547454e-05
1.80422369825268e-05
1.61356766333995e-05
1.39739776503447e-05
1.15906465310151e-05
9.03541905961712e-06
6.3126079842198e-06
3.41042090666931e-06
1.01187695803836e-06
1.53506757676107e-07
6.03810474005856e-09
3.25888225869894e-05
3.36663941522056e-05
3.04461971838315e-05
3.37356706897196e-05
3.27345037057886e-05
3.0449737160914e-05
2.70628708890597e-05
2.20893487390425e-05
2.6427491391704e-05
1.48576455903008e-05
1.9733415096411e-05
2.58954717080923e-06
3.82127543353289e-06
5.06828372556578e-06
6.27341502792537e-06
1.46743998122332e-06
6.17758010115595e-07
7.3387007200532e-06
8.19713252890614e-06
1.68610089658417e-07
8.90031166921917e-06
8.37898418985543e-09
2.41996142135378e-07
1.08580535134466e-06
2.08900375937643e-06
3.01056167336763e-06
3.83036587006522e-06
4.52791680100225e-06
5.12591840480123e-06
1.00578793567388e-09
4.64835825552904e-11
7.30777752456115e-10
4.96456353450458e-09
2.48869822180555e-08
1.85740871761925e-08
4.65447602381077e-08
8.99202961615913e-08
1.46767875338627e-07
2.16048006187516e-07
2.94587980977546e-07
3.7670176087904e-07
4.49873591528864e-07
5.01116550992756e-07
5.33620243193423e-07
5.50014453353883e-10
1.09122803684853e-08
4.69262155473715e-08
9.03945367698963e-08
1.31868633271719e-07
1.70518097565293e-07
2.03740297275236e-07
2.30931158505588e-07
2.5703000243237e-07
5.6881218764231e-06
1.61091237346636e-05
2.38661336579734e-05
2.93198352195403e-05
3.31747356549458e-05
3.57869296549267e-05
3.73403703196157e-05
3.7920048241771e-05
3.7521457562124e-05
3.60387088593169e-05
3.32338761280645e-05
2.86403092176538e-05
2.1287173141764e-05
9.60722891162087e-06
5.70032948838292e-07
1.69774773431412e-05
2.30087612839254e-05
2.05376467884002e-05
2.37810408662999e-05
2.66912836889766e-05
2.83792364141807e-05
1.31469171141414e-05
1.90724911612686e-05
2.42572994599566e-05
2.89950360340218e-05
3.00419103411985e-05
3.218665471611e-05
3.32733443129483e-05
3.33643887588477e-05
2.66627687588757e-05
3.24032081688297e-05
2.8553788359443e-05
2.438399155005e-05
1.98908691198495e-05
1.49662886563223e-05
9.14733733682455e-06
2.33117936986109e-05
1.94560885910405e-05
2.6894563642362e-05
1.53148333500738e-05
1.07596854377104e-05
5.24131632530325e-06
3.01775376494544e-05
9.86682282003006e-06
5.31729439393695e-06
1.50331255573384e-06
1.34924973581594e-05
1.6621246845815e-05
1.93570245558393e-05
2.171553016473e-05
8.05094151695236e-07
1.28860205948642e-05
1.45743941774372e-05
1.08627027348282e-05
8.45222380188571e-06
5.47232917692777e-06
1.72019742825195e-06
4.85143576422209e-08
4.76956637480012e-08
3.01167115014484e-08
1.41445067782295e-05
1.05250026204031e-05
6.56120593269297e-06
1.75266295474709e-05
2.06895024159086e-05
2.36028480176404e-05
2.5240944094843e-06
3.78410870915218e-07
1.43563633296544e-08
2.62349264693674e-05
1.96688786204459e-05
1.78272370247533e-05
1.57231804343796e-05
1.33932407992627e-05
1.09002080450575e-05
8.28003612510997e-06
5.53135894977193e-06
2.81301472189424e-06
8.67450601927299e-07
1.22233340516534e-07
4.63276295080079e-09
3.56244447497472e-05
3.71761391291243e-05
3.77602666840679e-05
3.30178622703292e-05
3.73752720631675e-05
3.59181840054356e-05
3.31486943369312e-05
2.91687792993932e-05
2.37212684481102e-05
2.85931280140042e-05
1.59841840701855e-05
2.1290317239469e-05
3.44342982379822e-06
2.24536036820489e-06
4.69400417985577e-06
5.95286797830371e-06
7.15609527144244e-06
1.21667345522608e-06
4.94924283085355e-07
8.20482036305869e-06
9.02831342811438e-06
1.33725800275413e-07
9.69255984443389e-06
1.11065724353924e-08
3.07622877145184e-07
1.33077928484661e-06
2.46591755963502e-06
3.46034114620182e-06
4.31585500890954e-06
5.02276094730192e-06
5.61436596920003e-06
7.39480520526315e-10
3.22314689916559e-11
3.72777150911591e-09
5.15360514596127e-10
1.85898933232703e-08
1.44518501890624e-08
3.76938625246887e-08
7.54797431817705e-08
1.27480805874035e-07
1.92368113114509e-07
2.67971073201223e-07
3.51501560537921e-07
4.36946797182142e-07
5.10972335629484e-07
5.60494279573162e-07
5.89665630613332e-07
7.05984972341941e-10
1.34585180689846e-08
5.64428029638149e-08
1.06204332804833e-07
1.51832745560898e-07
1.93100486507256e-07
2.2754341288954e-07
2.5477671051984e-07
2.80563263766771e-07
6.16141938084284e-06
1.71802301009638e-05
2.54155963165995e-05
3.13215065772241e-05
3.5623254948518e-05
3.86807973639787e-05
4.06836740931098e-05
4.17347347585751e-05
4.1866592859929e-05
4.10353955368594e-05
3.91073524560073e-05
3.58267021291365e-05
3.07132630855236e-05
2.27735084735764e-05
1.03649902759021e-05
6.23526932566976e-07
1.52788302289669e-05
1.91533765391896e-05
2.1790328059018e-05
2.74459770262879e-05
2.56928509716202e-05
2.2715940091954e-05
2.59262130255835e-05
2.93188974902745e-05
3.14859518068006e-05
3.25966871194964e-05
1.11853279441115e-05
1.77101892653614e-05
2.31614143285278e-05
2.81171185725148e-05
3.27206158819949e-05
3.51924599680065e-05
3.25870223089157e-05
3.67471678628935e-05
3.73421137318353e-05
3.6981610704184e-05
2.87442991626946e-05
3.55683181387052e-05
3.18118054835049e-05
2.77373727597306e-05
2.33776161109112e-05
1.87094419969944e-05
1.35460550892251e-05
7.11347350864699e-06
2.61636264842265e-05
2.23990756348675e-05
1.83992901598609e-05
2.96656351983856e-05
1.41294656112051e-05
9.40875235766768e-06
4.18146268102913e-06
3.28625267238583e-05
1.13815012323818e-05
6.53467339574979e-06
2.08452896752023e-06
1.21758774059772e-06
1.51192080456804e-05
1.82848365918196e-05
2.10109101279004e-05
2.33257701573085e-05
6.70676734976751e-07
1.40190325049514e-05
1.19843724203464e-05
1.56845305464475e-05
9.51024363738666e-06
6.36824669226818e-06
2.16015344902747e-06
6.46009792646343e-08
6.73418156029744e-08
4.49468733582632e-08
2.47676983345202e-08
1.6608020323636e-05
1.31332585766311e-05
9.45836994675743e-06
5.59490051782737e-06
1.99022158332726e-05
2.29945613855808e-05
2.58371572296348e-05
2.08623364458506e-06
2.98562266780608e-07
1.09746853550368e-08
2.83915802793029e-05
1.94437866733124e-05
2.12230658704147e-05
1.73937011656704e-05
1.51116026761931e-05
1.26673963955021e-05
1.0111312882545e-05
7.47220977582991e-06
4.79196069635461e-06
2.34162702793171e-06
7.01716029470243e-07
9.15441112275391e-08
3.39715894978873e-09
4.05081108132309e-05
3.85086226869317e-05
4.15598877355118e-05
4.16978104448979e-05
3.54576224901008e-05
4.0881577748076e-05
3.89809871827545e-05
3.57378854334586e-05
3.11623772947476e-05
2.52633190606981e-05
3.06644604806709e-05
1.70493216389992e-05
2.27769083166728e-05
4.27904617605418e-06
3.04967187663418e-06
1.91441014574987e-06
5.54497207695617e-06
6.81096760701653e-06
8.01059210239236e-06
9.96337203340308e-07
3.90199318033429e-07
9.03808007717853e-06
9.82858416676594e-06
1.00827929093517e-07
1.04545603147499e-05
1.42392902919792e-08
3.79002041407602e-07
1.58540633074575e-06
2.84660712736417e-06
3.9071821644847e-06
4.79211866968798e-06
5.50448375122601e-06
6.08353133019717e-06
5.1369994148834e-10
2.0921621360157e-11
1.08538371281698e-08
2.64404754433641e-09
3.37381947480762e-10
1.30665489032061e-08
2.96944722547194e-08
6.19485748696881e-08
1.08493021392167e-07
1.6835279212194e-07
2.40118079576318e-07
3.2097572201563e-07
4.08673695786568e-07
4.96867048385041e-07
5.71760629691579e-07
6.19423382335651e-07
6.45064741125978e-07
8.71922043022856e-10
1.61654613448082e-08
6.63772830455582e-08
1.2244203985316e-07
1.72078674652766e-07
2.15762674542431e-07
2.51099048826855e-07
2.78118708177938e-07
3.03292321820612e-07
6.61198898016355e-06
1.81863222549493e-05
2.68723083849458e-05
3.32091478139305e-05
3.79401206397303e-05
4.14271474918906e-05
4.38608921403456e-05
4.53526501503072e-05
4.5957117493955e-05
4.56703261277184e-05
4.44209634531301e-05
4.20568629014675e-05
3.83109089773307e-05
3.26932770948528e-05
2.41907166996827e-05
1.10918418509596e-05
6.75353163918482e-07
1.73111896759183e-05
2.03010965260928e-05
1.31286846662838e-05
2.12263306648216e-05
2.43730406138975e-05
2.62466783594054e-05
3.04748885263795e-05
3.16314738329794e-05
2.82464296882961e-05
2.47884631062485e-05
2.79629522210894e-05
3.18166527363011e-05
3.44408454310278e-05
3.6012749073993e-05
3.66280751087198e-05
8.89087641668464e-06
1.61350895127269e-05
2.18528760811617e-05
2.69955527526539e-05
3.17996064983458e-05
3.63009060156197e-05
4.00486412948845e-05
3.80496348251801e-05
3.50019048721314e-05
4.11044635170167e-05
4.1254755343852e-05
4.04654343914726e-05
3.07148458231182e-05
3.86121787195541e-05
3.49438241783112e-05
3.09513310274973e-05
2.66864317285246e-05
2.21755520641021e-05
1.73652274806711e-05
1.19920292839899e-05
5.78569423002203e-06
2.88955625080943e-05
2.52045845712928e-05
2.12987173188801e-05
1.71933953336338e-05
3.23234661150509e-05
1.28432137082015e-05
8.16155780240852e-06
3.48503808599304e-06
3.54372266769525e-05
1.28382352864702e-05
7.73050842298964e-06
2.71270544229346e-06
1.69498739758282e-06
1.01846108802101e-06
1.66744544646946e-05
1.9869408054066e-05
2.2580391017287e-05
2.48473350123895e-05
5.29142198855755e-07
1.50966950269965e-05
1.30578641005262e-05
1.05305007668242e-05
1.6734251610937e-05
7.24292947197308e-06
2.61656473731027e-06
8.32134873261481e-08
8.85221761400114e-08
6.31743045464035e-08
3.73481735157497e-08
1.90525851620812e-08
1.89378472048586e-05
1.55532888945273e-05
1.20314702607062e-05
8.39237909641876e-06
4.77713455107964e-06
2.21660437761636e-05
2.51972054815275e-05
2.79738268083286e-05
1.69539180621889e-06
2.23462150781074e-07
8.03437306526291e-09
3.04533463831414e-05
2.09867614668226e-05
1.89874739178999e-05
2.27062287092366e-05
1.67481525275632e-05
1.43438240037724e-05
1.18321676762119e-05
9.25095593742583e-06
6.64584505558893e-06
4.10085002783809e-06
1.91571964107061e-06
5.36894351147048e-07
6.4504743133524e-08
2.36060314179848e-09
4.36754051447347e-05
4.51662220573521e-05
4.12458807940166e-05
4.57726990725438e-05
4.54927186984208e-05
3.77661339923134e-05
4.42593389674499e-05
4.19243983291652e-05
3.8218194123714e-05
3.30423554050465e-05
2.67130494354126e-05
3.26425811058845e-05
1.80497676657584e-05
2.41940444767176e-05
3.83766975100469e-06
5.08870922409567e-06
2.64949497050085e-06
1.59782206929835e-06
6.3686815680506e-06
7.63999411685401e-06
8.83189971674834e-06
7.95114416196572e-07
2.95406124722172e-07
9.83910190457303e-06
1.05974812171381e-05
7.15718753001239e-08
1.11850495418157e-05
1.76176537274695e-08
4.54739210745771e-07
1.84558726800477e-06
3.2266066138035e-06
4.34645182415557e-06
5.25573133745377e-06
5.96663082251277e-06
6.52992636144249e-06
3.32239426820641e-10
1.23411740291213e-11
2.24689190248338e-08
7.71291119419424e-09
1.73260424258813e-09
1.96121016282914e-10
8.49370724942042e-09
4.92487742679043e-08
8.99750886577743e-08
1.44154708771355e-07
2.11518297419416e-07
2.88790782822226e-07
3.74197038506867e-07
4.65438876986301e-07
5.56377721614887e-07
6.32004038656706e-07
6.77621383556968e-07
6.98831736062184e-07
1.04846963160071e-09
1.8991450491836e-08
7.6599373192588e-08
1.38929040702181e-07
1.92395891088294e-07
2.38226995809977e-07
2.74153335893732e-07
3.00647135790909e-07
3.24924306431156e-07
7.03603697202473e-06
1.91242210636247e-05
2.82334853543297e-05
3.49804033898663e-05
4.01238186522472e-05
4.40265202419262e-05
4.68778632698536e-05
4.8791690288265e-05
4.98342624360648e-05
5.00265133255019e-05
4.93383289635388e-05
4.76799019921271e-05
4.48874716442072e-05
4.06868932790144e-05
3.45811774606988e-05
2.55392400111859e-05
1.17853168482271e-05
7.24909033596845e-07
1.92497581587279e-05
2.27635669923354e-05
1.49882641173004e-05
2.48184384739489e-05
1.85811129453109e-05
1.06033521993695e-05
2.68309749911456e-05
2.31998043662499e-05
2.91787649832865e-05
3.04048094795455e-05
3.33576329326873e-05
3.49689176089739e-05
3.56159061268189e-05
3.06746150123376e-05
2.67568410989865e-05
2.98912802313988e-05
3.4186964986331e-05
3.7250849307327e-05
3.92626425092994e-05
4.03306390026463e-05
4.05000588885742e-05
7.33507111753665e-06
1.43992587156495e-05
2.03632738120051e-05
2.56623021143906e-05
3.06266476637845e-05
3.53292337027908e-05
3.97461388446319e-05
4.31883546483314e-05
4.4679394371714e-05
4.07615354541843e-05
3.72868441891454e-05
4.52907570145869e-05
4.50245068682268e-05
4.38203797975005e-05
3.2573075479933e-05
4.15363126676701e-05
3.7953565201122e-05
3.40356364964879e-05
2.98442212327608e-05
2.54302722367515e-05
2.08040603891542e-05
1.58910282641708e-05
1.05070350458131e-05
4.87356057219987e-06
2.78844201754581e-05
3.15120250007855e-05
2.40462261384802e-05
2.00365882313686e-05
1.58662895512594e-05
3.48701773595137e-05
1.15178752998384e-05
7.06177563848203e-06
2.86156798536287e-06
3.79027365963129e-05
8.89260058693849e-06
1.42350277294197e-05
3.37491148648187e-06
2.21709534342394e-06
1.42391053659829e-06
8.04319465590324e-07
1.81574723251015e-05
2.1373789862781e-05
2.40636636442298e-05
2.62778688333781e-05
3.96521586703135e-07
1.61159986086593e-05
1.40797892119819e-05
1.15090000214505e-05
8.09206723239366e-06
1.77202562102532e-05
3.08158377257308e-06
1.02964879957533e-07
1.12693514435347e-07
8.40146396519901e-08
5.26105386778786e-08
2.88257481196856e-08
1.39633935321339e-08
1.78245003013162e-05
2.11484051161349e-05
1.4387945507424e-05
1.08740229915775e-05
7.35797466198295e-06
4.01796369540442e-06
2.43239398693457e-05
2.73006050656342e-05
3.00148824688451e-05
1.31792312896237e-06
1.5780380564421e-07
5.58967642692392e-09
3.24215894995505e-05
2.24579991090191e-05
2.05066206562828e-05
1.83060589367849e-05
2.4119506499614e-05
1.59348023261562e-05
1.3455143609227e-05
1.09093140469714e-05
8.33899849843188e-06
5.81290926141993e-06
3.43582059912449e-06
1.5059127431878e-06
3.86078219824944e-07
4.19305084555035e-08
1.52381159982914e-09
4.66830180037928e-05
4.85951466430219e-05
4.96379538493103e-05
4.38365328542124e-05
4.98326118827332e-05
4.91516887902587e-05
3.99418800274574e-05
4.75102541088177e-05
4.47487448305139e-05
4.05901406791406e-05
3.48064081332059e-05
2.80677250315114e-05
3.45284369678529e-05
1.89823574712823e-05
2.5542336693163e-05
3.37561772250015e-06
4.59719971430655e-06
5.87054151629799e-06
2.24703571648732e-06
1.29336433283841e-06
7.16274194462369e-06
8.43641388722749e-06
9.62017310669781e-06
6.09619550027619e-07
2.10960701715382e-07
1.06079117119376e-05
1.13339469028665e-05
4.67686950289413e-08
1.18819389745663e-05
2.12102663956613e-08
5.33694373297548e-07
2.10783604439042e-06
3.60184416582755e-06
4.7744127190793e-06
5.70192476808251e-06
6.40640902441843e-06
6.94998643553326e-06
1.9126403450142e-10
5.7402356565708e-12
3.75707612163815e-08
1.6069629196488e-08
5.05022580477902e-09
9.99174902038571e-10
9.2526395539039e-11
4.87391261386525e-09
7.2167633399611e-08
1.20248886343592e-07
1.822325608758e-07
2.55444090428727e-07
3.37646789076725e-07
4.2694174889963e-07
5.21691172991413e-07
6.15280739064091e-07
6.91464561767066e-07
7.34065354685939e-07
7.5032840044797e-07
1.23130473478902e-09
2.19060981692763e-08
8.70222750255916e-08
1.55497921612424e-07