/*--------------------------------*- C++ -*----------------------------------*\
  =========                 |
  \\      /  F ield         | OpenFOAM: The Open Source CFD Toolbox
   \\    /   O peration     | Website:  https://openfoam.org
    \\  /    A nd           | Version:  12
     \\/     M anipulation  |
\*---------------------------------------------------------------------------*/
/*   Windows 32 and 64 bit porting by blueCAPE: http://www.bluecape.com.pt   *\
|  Based on Windows porting (2.0.x v4) by Symscape: http://www.symscape.com   |
\*---------------------------------------------------------------------------*/
FoamFile
{
    format      ascii;
    class       volScalarField;
    location    "800";
    object      nut;
}
// * * * * * * * * * * * * * * * * * * * * * * * * * * * * * * * * * * * * * //

dimensions      [0 2 -1 0 0 0 0];

internalField   nonuniform List<scalar> 
10228
(
2.46145183942339e-11
2.49043333841295e-11
3.87121586611314e-10
4.71702416887568e-10
5.01808912387405e-10
2.66429047159333e-11
4.06151283760443e-10
1.95970832737015e-09
4.74542192190003e-08
2.56840741247076e-09
4.89270955207509e-08
5.27102941176688e-10
2.65899784200288e-09
2.42489354970233e-11
4.17561196719825e-10
1.94749882316256e-09
4.59487076990791e-09
3.22383633896572e-07
3.81366927724447e-07
7.22145585999303e-09
3.91574371553822e-07
3.23638050305679e-07
5.00923358437594e-08
5.23378533797699e-10
2.80080529561831e-09
7.90641841090318e-09
2.38671161247824e-11
4.1043567561543e-10
1.95882570999356e-09
4.73425073622532e-09
8.73029906403395e-09
8.36093889053696e-07
4.4877219687655e-06
1.20012274196765e-06
1.62578652967047e-08
4.50126081750878e-06
4.03318860846551e-07
1.24762974186524e-06
3.24589190614465e-07
8.35381871700614e-07
4.94394629402369e-08
4.86124509844593e-10
2.82105753026591e-09
8.50347370867948e-09
1.71067679407401e-08
1.8017416931887e-11
3.79286065693039e-10
1.92409469331781e-09
4.77194250625975e-09
8.50036190593077e-09
1.28866829771317e-08
1.53059794851449e-06
1.3196292943093e-05
1.57590423094373e-05
2.59656402933968e-06
2.74513934902921e-08
4.49163933496992e-06
1.31272623473874e-05
1.59136156622785e-05
1.29850505829106e-06
3.98283443096893e-07
2.68260311540229e-06
3.16507169214086e-07
8.29764822119744e-07
1.49639836628795e-06
4.50535632268056e-08
3.91818508882456e-10
2.57213616960501e-09
8.60396414233272e-09
1.82950474976857e-08
2.94827431030931e-08
1.26483156939034e-11
3.04403638464155e-10
1.75530452201833e-09
4.63680154554958e-09
8.36127185346561e-09
1.2757857342642e-08
1.84763048041646e-08
2.31589949330674e-06
2.23920126518711e-05
4.63386951310068e-05
3.0250883825927e-05
4.40841668872066e-06
4.28374909869385e-08
1.29585494318619e-05
1.59941028704425e-05
4.33550019145032e-06
4.63248766895321e-05
2.21687061096103e-05
3.063300323908e-05
2.80014172120829e-06
1.28762619668876e-06
3.58672599449725e-07
4.54992051979527e-06
2.86899142249836e-07
8.01137865083869e-07
1.46963858681656e-06
2.25193562804178e-06
3.60561382980303e-08
2.95549715482464e-10
2.06867344766786e-09
7.86103616222986e-09
1.85905781894318e-08
3.17434389204743e-08
4.52916011987292e-08
2.9494586352739e-12
1.8369182067603e-10
1.42069955312113e-09
4.1927536267518e-09
8.00463776834802e-09
1.25362939459264e-08
1.78912596499813e-08
2.42789406939318e-08
3.20590842327377e-06
3.05534323548906e-05
7.42809876065578e-05
8.40689769124515e-05
4.45810086155424e-05
6.54359695474731e-06
5.98995391842999e-08
2.18231920400181e-05
1.24439005163631e-05
4.59675746509173e-05
3.09743342450777e-05
1.55496823662216e-05
3.89374788731025e-06
7.41512653095665e-05
8.43947403615991e-05
3.03986239208879e-05
4.53505251176138e-05
4.76057784006015e-06
2.79833568941485e-06
1.16143082820259e-06
2.81074186530953e-07
6.74988036301853e-06
2.30639528456528e-07
7.22463927182295e-07
1.40707526997345e-06
2.2012000392155e-06
3.11627941097844e-06
2.25577965657461e-08
7.47607068048996e-11
1.64771055644752e-09
6.3888450368909e-09
1.72279890122052e-08
3.24253718024397e-08
4.86709182904033e-08
6.34250189276117e-08
2.47473073604648e-13
4.35703878025468e-11
8.28947975862347e-10
3.37849351910739e-09
7.16496670977962e-09
1.19119716478606e-08
1.74910351993824e-08
2.35691901901611e-08
3.09405026451304e-08
4.11828738228938e-06
3.79971121280282e-05
9.65667107303075e-05
0.000134820863739009
0.000117921516758942
5.77279626424765e-05
8.70773626952953e-06
7.94684157492335e-08
7.33206994622651e-05
2.99768920853847e-05
2.09623718217133e-05
4.45326880860218e-05
1.12710378959238e-05
8.41130429951323e-05
4.6062375222423e-05
3.04569086477309e-05
1.4142618050778e-05
3.07361623554512e-06
0.000134653240303094
9.63332200862932e-05
0.000118487241239358
3.78169375882343e-05
5.87361631947735e-05
4.79688192512717e-06
7.07273787884687e-06
2.5711425346324e-06
9.1455529566303e-07
1.77385212103668e-07
9.06114540222926e-06
1.40594401806326e-07
5.78409790248602e-07
1.26077371815258e-06
2.09666763659627e-06
3.04412654378421e-06
4.04037159122375e-06
4.68863933719941e-09
6.26221517560313e-12
3.45511738364523e-10
5.20148521136437e-09
1.45990813336669e-08
3.05428122119774e-08
5.00249944797752e-08
6.85038715671535e-08
8.41911595319705e-08
2.67117577955679e-12
2.16295245545952e-10
2.014341260247e-09
5.71112359520935e-09
1.05867008109294e-08
1.65781893835035e-08
2.31224149375027e-08
2.99955904043118e-08
3.79184558737438e-08
5.07923864615613e-06
4.48997868675447e-05
0.000115347107321319
0.000175969604629972
0.000190750193007016
0.000147354288698946
6.96316748231528e-05
1.08628619899187e-05
9.99399965000289e-08
0.000133338291220674
9.51462273702591e-05
7.09686925442373e-05
3.73102782078314e-05
2.8852468295502e-05
1.91043588929356e-05
8.21967160984314e-05
4.11722155532103e-05
9.09526307985631e-06
0.000118421696325261
5.9774407362911e-05
4.57472085689388e-05
2.83738359990701e-05
1.14115597212379e-05
1.73815481048522e-06
0.000190524567022896
0.000175409460834468
0.000115036008687788
0.000148115565020652
4.47652702726082e-05
7.09195747133722e-05
4.51209303411293e-06
7.17951183479631e-06
9.5226984159971e-06
2.12163922439855e-06
5.98481111075713e-07
1.13203301423859e-05
3.15723495623799e-08
3.45872246198784e-07
1.00106822058811e-06
1.87176454888691e-06
2.89867579363101e-06
3.95838056259041e-06
4.9919228931593e-06
8.46158015381563e-11
1.74947414743133e-11
1.45948672884737e-09
1.2282255852943e-08
2.68168417395685e-08
4.7687342449282e-08
7.08509549020072e-08
9.11508985905779e-08
1.06308443179538e-07
1.36945556708821e-11
5.22779231031002e-10
3.40639548108969e-09
8.40440826954092e-09
1.47051892710341e-08
2.195554541322e-08
2.93851954212126e-08
3.68828021271881e-08
4.52932418038761e-08
6.05931536375473e-06
5.14456988664008e-05
0.00013186043801915
0.000209727464182817
0.000252210494878391
0.000239474249935383
0.000173081250741636
8.04700658717592e-05
1.29698799663754e-05
1.21272424799683e-07
0.000173224070360791
0.000129715252643476
0.000188940688171142
9.20561958430666e-05
0.000113582175446811
6.60048112337742e-05
4.42269673577498e-05
3.59619680071479e-05
2.64362600812762e-05
1.56337636140326e-05
0.000116511118903581
7.75003873355865e-05
3.4741290985258e-05
5.24517630417462e-06
0.000148322290554017
7.22862923252637e-05
5.9753418481605e-05
4.36314417398958e-05
2.42314735873786e-05
6.94072454688268e-06
3.20463452490435e-07
0.000251279748374589
0.000239258702459836
0.000208917762048545
0.000131531989535996
0.000174061330358844
5.1323046792784e-05
8.19809772516335e-05
6.87352730320644e-06
3.93912977627636e-06
9.72230414151425e-06
1.19254683157593e-05
1.54631701246988e-06
1.35233118539925e-05
4.81553950948614e-10
7.61839373912521e-08
5.9273791193003e-07
1.48469091791302e-06
2.58704412103953e-06
3.776636046131e-06
4.90987506564019e-06
5.96392483390109e-06
2.84099252043009e-10
1.96652235140294e-11
7.15588617449157e-10
8.76061750092131e-09
2.20953502831879e-08
4.27009696196278e-08
6.8204190826014e-08
9.47163163649414e-08
1.15527425242114e-07
1.29309537283529e-07
2.80759019622472e-11
9.00930346887375e-10
5.01634428777206e-09
1.16528240223165e-08
1.94873167342023e-08
2.79053448675531e-08
3.62120314526705e-08
4.412754711003e-08
5.29168516422223e-08
7.04950040322685e-06
5.76504043335896e-05
0.000146777349578107
0.000238385325869636
0.00030296852554483
0.000320130988972909
0.000281678205345268
0.000195836094101915
9.03834037087947e-05
1.50162973030593e-05
1.43042853399589e-07
0.000206096446037688
0.000248286553031835
0.00016810609767118
0.000184720470918757
0.000122345609491479
0.000237645940696854
8.57717796586116e-05
0.000109909159773555
0.000129904157634784
5.66690930035001e-05
5.07698718620487e-05
4.27107318808594e-05
3.30903855178851e-05
2.18963134102044e-05
9.19623665617885e-06
0.000111619695405923
0.000146687893407986
6.87323085337404e-05
2.34887739504801e-05
7.85803070977231e-07
0.000174581099280456
8.36542431695339e-05
7.25580501302651e-05
5.79343852999409e-05
3.95051737219517e-05
1.75219350032953e-05
2.87570542845534e-06
2.1862000552632e-09
0.000301556235887342
0.00031896181433213
0.000281558447361277
0.000237429780249195
0.000146439916927122
0.000197025316982802
5.75364251192686e-05
9.20868580214816e-05
9.42892328221314e-06
6.21602556406744e-06
3.21872323968302e-06
1.2237846985572e-05
1.42563207306336e-05
1.05681505988632e-06
1.56544863751394e-05
9.65183491777379e-10
1.30517795653613e-07
8.79799656318484e-07
2.05150753875152e-06
3.38001911020515e-06
4.70091961960935e-06
5.87441805576538e-06
6.94547276657971e-06
2.16929299644156e-10
3.53955699047097e-11
7.19071557671172e-10
5.69023944765206e-09
1.72115230289964e-08
3.66978472865043e-08
6.20454226057637e-08
9.17777843389378e-08
1.20617095827045e-07
1.40906494808562e-07
1.52838067255973e-07
5.03954834209265e-11
1.32721293834041e-09
6.93752032971376e-09
1.54658115255123e-08
2.4785654883946e-08
3.44384647572035e-08
4.33978634157952e-08
5.16251960061721e-08
6.07386060010653e-08
8.03767581238524e-06
6.35304696348627e-05
0.000160436020148514
0.000263435583724773
0.000345571118642245
0.000388006034863287
0.000379494662123236
0.000318561957777743
0.000216177071780204
9.94852088628327e-05
1.69812942290536e-05
1.65042744809741e-07
0.00019980175597058
0.000297494765079684
0.000234161257113269
0.000315535392083398
0.000241863796505847
0.000158348945098338
0.000233388666407839
0.000176498332081759
0.000109292154699219
0.000280090518096008
7.40779070503864e-05
0.000102541046641397
0.000125778678649658
0.000144684446629701
3.93694933748563e-05
5.69575488469052e-05
4.91186779251348e-05
3.94478072720079e-05
2.77241736112007e-05
1.32267269815578e-05
1.3831884863584e-06
0.000103005910931645
0.000142198110421118
0.000173307048235799
5.46192651283633e-05
7.80704898145751e-06
3.93075762334242e-09
0.000197853125996136
9.40218301205375e-05
8.42106700927807e-05
7.09879993363708e-05
5.43605384220409e-05
3.37158824217766e-05
1.10491925564546e-05
3.70615677485347e-07
1.99483078147342e-09
0.000343852745612669
0.0003861512560234
0.000378253900474702
0.000318580832067846
0.000262384516630315
0.000160091158909225
0.000217553489381143
6.34230606146397e-05
0.000101354622746987
8.73175473593528e-06
1.1984983935058e-05
5.38635986540693e-06
2.50989603942834e-06
1.46638680460648e-05
1.65060816397242e-05
6.53810731268642e-07
1.76992169540331e-05
1.68248049385372e-09
1.92418465228718e-07
1.21306203695692e-06
2.69332398397393e-06
4.22579817587372e-06
5.636962913916e-06
6.85030200658837e-06
7.92433849845121e-06
5.26047282716159e-10
2.77227490499924e-11
5.28928046030913e-10
3.92160768680446e-09
5.52878817352276e-08
1.31785103893978e-08
3.07437630968822e-08
5.47471312086748e-08
8.42430841306563e-08
1.17622420287136e-07
1.47616477977943e-07
1.66871080494358e-07
1.76590550645302e-07
7.20978187494542e-11
1.8407379942882e-09
9.21566341075602e-09
1.97035455291825e-08
3.06044997037755e-08
4.1327103232166e-08
5.08389838080608e-08
5.93046958266092e-08
6.86759836511196e-08
9.01084897191047e-06
6.90878755532417e-05
0.00017303783281374
0.00028578626192786
0.000382169304738847
0.00044519374679905
0.000463471089692521
0.000431452352911239
0.000351151007780934
0.00023450753540031
0.000107860136780288
1.88595182575442e-05
1.87112365149708e-07
0.000226959153045595
0.00018808224738902
0.000289282374090694
0.000339026218687851
0.000381299242097046
0.000258783100758583
0.000374719009939608
0.000308611373150957
0.000230433055355304
0.000141448486570968
0.000276078781891249
0.000225364055668637
0.000162979505513599
8.7873883030505e-05
0.000317331379453673
5.24342079654713e-05
8.89319865049466e-05
0.000117509745995706
0.00014019122584461
0.000158223761536213
1.36470167657668e-05
6.28207543361547e-05
5.51831011534874e-05
4.55173645427073e-05
3.33157900050641e-05
1.72792705729838e-05
2.06071506400747e-06
7.07915974459277e-09
9.04664940355242e-05
0.000134576869584438
0.000169293168224528
0.000196929196934819
3.57197372439566e-05
9.23666153628413e-07
3.71048149148095e-09
0.000218652602764655
0.000103514512169245
9.48099770020288e-05
8.28552432688016e-05
6.77210831940068e-05
4.95258575793071e-05
2.72999148455391e-05
5.7837585063893e-06
3.37461852488279e-07
2.52683293175371e-09
0.00044289331830212
0.000380242817797027
0.000461403036173697
0.000430243916053151
0.00035131077615282
0.000284660721924955
0.000172683353794226
0.00023604391821703
6.89867876381245e-05
0.000109873151990029
7.83762070235032e-06
1.12718365317114e-05
1.44328680110015e-05
4.53945139038779e-06
1.90613085998234e-06
1.70004667409734e-05
1.86595998916744e-05
4.61469220456618e-07
1.96559453806974e-05
2.46702794675584e-09
2.64858236020506e-07
1.60229546817832e-06
3.38709159429222e-06
5.08841806190053e-06
6.58516316662103e-06
7.82391623335063e-06
8.8903391482517e-06
4.39456609263931e-10
2.14294086656144e-11
4.14631126444649e-10
2.78734623533204e-09
4.86375211399258e-08
1.04555845407731e-08
2.54134930338744e-08
4.74883867577624e-08
7.52621226086929e-08
1.08849033984104e-07
1.44570643483373e-07
1.75215934587517e-07
1.930192696607e-07
2.00348531684229e-07
1.0306703605346e-10
2.42896285051401e-09
1.17794609288263e-08
2.430828287944e-08
3.67707264182519e-08
4.84666361857854e-08
5.84519297488094e-08
6.70928544212008e-08
7.6643038703165e-08
9.96194320684376e-06
7.43265982242903e-05
0.000184703453243993
0.000305995892384802
0.000414261837968221
0.000494090069570475
0.000534944144901368
0.000530089396074735
0.000477259398631629
0.000380212027189308
0.000251122469696372
0.00011558609778645
2.06516749404839e-05
2.09165233326766e-07
0.000213653917155241
0.000250857592996593
0.000329426119628451
0.000168042042077762
0.000275130158385385
0.000372134139819377
0.000374848500937061
0.000437006509979674
0.000456203777225563
0.000280788256223196
0.000426778132242097
0.000367798614759549
0.000296978041255794
0.000212250138190856
0.000113931838634878
0.000268592531210077
0.000313639711798806
0.000212920084321228
0.000143144958162721
5.81791309709291e-05
0.000350278799873803
6.38638494297985e-05
1.94761969588776e-05
0.000102273545435372
0.000131157896281182
0.000153409894861871
0.000170714067936378
1.65425728948902e-06
6.83628415503244e-05
6.09327085253566e-05
5.12802717496075e-05
3.86972009474233e-05
2.12443698891388e-05
2.84353436299446e-06
1.04647893647804e-08
6.57221322597039e-09
0.000124104167514858
7.47422731528071e-05
0.000162481800619268
0.000193310361701414
0.000218019235233046
1.79217916762776e-05
8.77661536440959e-07
5.38757556522761e-09
0.000237369633230455
0.000112225457247844
0.000104492942387935
9.35978822647709e-05
7.97691764153611e-05
6.33150581378888e-05
4.39300253603057e-05
2.12225934113299e-05
4.53270633170163e-06
3.04013281161292e-07
2.01684214683467e-09
0.000491484404799013
0.000532336236861623
0.000412174827679485
0.00052796282502772
0.000476118280051543
0.000380494010011192
0.000304804619332273
0.000184337760870902
0.000252792306322167
7.42298149969354e-05
0.000117722914125887
6.88768169140808e-06
1.03338258110981e-05
1.36801833142002e-05
1.67859394085971e-05
3.76612347691455e-06
1.50497007870635e-06
1.92317693529967e-05
2.07155526586978e-05
3.79353110345041e-07
2.15158173681795e-05
3.47747262095432e-09
3.48772841557074e-07
2.0346576631423e-06
4.11321476447587e-06
5.96281994130749e-06
7.53229097096055e-06
8.78436481382068e-06
9.8350933916537e-06
3.45398494926048e-10
1.60467569146752e-11
3.11036231170841e-10
2.18023787145584e-09
3.90840706555383e-08
8.32198114046693e-09
2.09491769080199e-08
4.05728377567392e-08
6.63997586392081e-08
9.81556267671941e-08
1.34483400856767e-07
1.72093018009349e-07
2.02948196001012e-07
2.1910188897057e-07
2.24051327858589e-07
1.35765447660892e-10
3.0962168601058e-09
1.45788492979982e-08
2.92386551212181e-08
4.31704694435191e-08
5.57721609794239e-08
6.61601739848678e-08
7.4900479633311e-08
8.45480164018536e-08
1.08822920042342e-05
7.92456174956347e-05
0.000195512574951815
0.000324414036660476
0.000442837869272242
0.000536602448620123
0.000596214802099856
0.000615015929591201
0.000589057145164717
0.000517946887442386
0.000406307635971465
0.000266249613976043
0.000122729316877715
2.23587552429096e-05
2.31078368767238e-07
0.000191058619756053
0.000313065461172129
0.000236244424305508
0.000272256004062847
0.000364153209607038
0.00042607813825125
0.000135752631833232
0.000253001871245526
0.000357327016052797
0.00044677415805148
0.000406327539060534
0.000484828377874094
0.000525918295650323
0.000522686175703631
0.000300696958211307
0.000472773115643249
0.000420063847729366
0.00035659906105952
0.000279719403317011
0.000185852156322532
7.61098548656584e-05
0.000306671930696127
0.00025735625832251
0.000346872540838296
0.000195943422041255
0.000117635037928455
3.01530645731774e-05
0.000379643031664212
7.42900795007808e-05
2.51725516838943e-05
2.50358193178039e-06
0.000114508857962259
0.000143706169456055
0.000165611476926143
0.000182273596162197
1.55729693310519e-06
6.63686070688229e-05
7.35838314303639e-05
5.67490314493458e-05
4.38495673788251e-05
2.5144179280294e-05
3.72416983352763e-06
1.50379349722259e-08
9.53491653976196e-09
9.21960349255744e-09
0.000153352075064552
0.000111485580842912
5.8496095333867e-05
0.000187025131959355
0.000214678674423716
0.000236961763909909
1.39208905090792e-05
7.69631948958703e-07
4.76712169122088e-09
0.00025430152780759
0.000120238979573127
0.000113358845107389
0.000103377412978721
9.05808003002768e-05
7.55518142449624e-05
5.8236797565267e-05
3.8168460720933e-05
1.74629800415231e-05
4.04174314362705e-06
2.45673945527885e-07
1.57130367625673e-09
0.000533761247961476
0.000593238786279257
0.000612293477119202
0.00044061454958744
0.000586935238993414
0.000516868896873712
0.000406687568074522
0.000323162180534212
0.000195134399936363
0.000268029995170435
7.91511290642739e-05
0.000124972869059998
9.29705201781403e-06
5.95138719805629e-06
1.26759807498247e-05
1.59897159128084e-05
1.90285900741186e-05
3.1197825046628e-06
1.21471297057666e-06
2.13564194185927e-05
2.26640286182119e-05
3.03893785598443e-07
2.32836540589477e-05
4.61744644290841e-09
4.43420311378844e-07
2.49559006677465e-06
4.84916792514417e-06
6.83848364195065e-06
8.46705776835418e-06
9.72200868732146e-06
1.07495259268716e-05
2.54035458992414e-10
1.10465698248353e-11
1.64075429960853e-09
2.19422354275202e-10
2.92593691238288e-08
6.48859829357896e-09
1.70302077615172e-08
3.41183575459568e-08
5.76912660520854e-08
8.7272892424141e-08
1.21991123405431e-07
1.60638052906944e-07
1.99708850384484e-07
2.30550411098283e-07
2.45075089219068e-07
2.47584343682544e-07
1.74600354750087e-10
3.8231187923498e-09
1.75542898434857e-08
3.43765504616923e-08
4.97246589832789e-08
6.31684547609123e-08
7.38933380504476e-08
8.26348542843349e-08
9.22886826997215e-08
1.17656461448461e-05
8.38437614589008e-05
0.000205518780349284
0.000341268449204692
0.000468545005199496
0.000574092451816027
0.000649372687939355
0.000688253254600488
0.000686373021928873
0.000641489099718925
0.000554308443001933
0.000429862541072015
0.00028007068500978
0.000129345890076951
2.3981127150481e-05
2.52763291714315e-07
0.000154925376555524
0.000211520654659119
0.000287714151754857
0.000408643324631942
0.000345991445990778
0.000256529443815163
0.000291636001924986
0.000394731712822374
0.000472504020240428
0.000514485138001068
9.17118745940928e-05
0.000221264063041674
0.000335810526905696
0.000432199788204505
0.000513317723217117
0.000526493745820506
0.00043438347568819
0.000585912375794643
0.000605685977652668
0.000581682946928245
0.000318843708378731
0.000513627066123168
0.000466281653361489
0.00040940104211068
0.000340722770043263
0.000256519221435892
0.00015223749665046
4.06181937309472e-05
0.000340286489484649
0.000296325070407871
0.000242642634884621
0.000376448792804866
0.000175345306397565
9.16969501413266e-05
2.37924778678e-05
0.000405972106209025
8.39664427047522e-05
3.06153513703453e-05
3.49827664684613e-06
2.35262408298089e-06
0.000125809433653605
0.000155302633892128
0.000176906637534419
0.000192981025395649
1.36020107979379e-06
7.1490218664717e-05
6.19236430275151e-05
7.84822986245009e-05
4.8746880696085e-05
2.8926571639461e-05
4.68481849519227e-06
2.00711253542361e-08
1.35847746854268e-08
1.3733191301143e-08
8.17020352421456e-09
0.000178627819395121
0.000142552673914689
9.83257047946528e-05
4.93309882295375e-05
0.000208685443930575
0.000233798890053613
0.000254060513740162
1.18091310175073e-05
6.13320774825417e-07
3.68409806871773e-09
0.000269685601550263
0.00012149752875062
0.000127628758757128
0.000112304904864286
0.000100368865150476
8.63986258857675e-05
7.06294658121713e-05
5.28479945389233e-05
3.31935808020473e-05
1.47437640532568e-05
3.31866342998057e-06
1.83859628455611e-07
1.1507432513824e-09
0.000646112114194085
0.000571052041073431
0.000685129157182844
0.000683619843181999
0.000466200664205299
0.00063937975917658
0.000553275253349248
0.000430318071608514
0.000339960377368003
0.000205127688646409
0.000281943148844445
8.37511350003965e-05
0.000131682737064225
1.15723592840132e-05
8.22964906809111e-06
5.0685420196937e-06
1.49100408731207e-05
1.8187121534458e-05
2.11591658410997e-05
2.55999881810475e-06
9.62300343591644e-07
2.33655021900808e-05
2.45121273499179e-05
2.30274726192014e-07
2.4961852304502e-05
5.9389721855432e-09
5.46419483989798e-07
2.97357636192317e-06
5.58803021736457e-06
7.70465755700007e-06
9.38011181141109e-06
1.06318381446661e-05
1.16259186114e-05
1.75697496283179e-10
7.13296341101189e-12
4.88086239612297e-09
1.16536995054146e-09
1.43790780520035e-10
2.05557837407123e-08
1.34420731318344e-08
2.80462789232905e-08
4.91361593995468e-08
7.63739520432932e-08
1.0915513217843e-07
1.46290851219366e-07
1.86865196041998e-07
2.27141983990467e-07
2.57995107068659e-07
2.70845727580999e-07
2.70844641068027e-07
2.15694452749462e-10
4.59585454921816e-09
2.06570852902469e-08
3.96467132811821e-08
5.63646133888258e-08
7.05864552189355e-08
8.154423615659e-08
9.02061259901537e-08
9.97652607618294e-08
1.26059318420039e-05
8.81224032760717e-05
0.000214761644158047
0.000356714284933838
0.000491815595574921
0.000607500551309023
0.000696028543649775
0.000751897533396261
0.000770881661690324
0.000750064829949488
0.000688305563188185
0.000586958784706231
0.000451209659611395
0.000292733663047642
0.000135481761972795
2.5519387396433e-05
2.73772446260135e-07
0.000172182143831411
0.000251682871409798
0.000105848324988465
0.000229983465537502
0.000317991685086344
0.000383552099834912
0.000452910954439882
0.000497050288080741
0.000375065491052873
0.000274935504433226
0.00030931155019379
0.000422019612490079
0.000513025858208197
0.000572878695992173
0.000594174080514166
5.01044143318279e-05
0.000181316123237111
0.000307249055051514
0.000412038023772609
0.000499210465477556
0.000572450455749844
0.000638061151641098
0.000563269438018003
0.000459633015636946
0.00067752854250937
0.000676965102330756
0.00063415428563584
0.000335450613128555
0.000550095094040777
0.000507292673502784
0.000456036236060264
0.000394646403136167
0.000320352808454947
0.000228638477967384
0.000118642318705932
3.25773340330802e-05
0.000370095212114128
0.000330477891971688
0.0002829943757169
0.000225273865112852
0.000402913444260237
0.000154153805256475
7.78604433724703e-05
2.02528097217309e-05
0.000429696747892517
9.29654020524933e-05
3.58410041829093e-05
4.57804683015527e-06
3.28407202855136e-06
2.06088835009108e-06
0.00013627593941122
0.000166045244910139
0.000187370541446511
0.000202890811488831
1.08175833166138e-06
7.62961851527007e-05
6.68022891257725e-05
5.33882195043282e-05
8.30614913603361e-05
3.25565226368064e-05
5.67031594487295e-06
2.5997681581267e-08
1.79129152988784e-08
1.93763922363129e-08
1.23004516650061e-08
6.35244703579455e-09
0.00020062077405087
0.00016868334298408
0.000130986528858627
8.74943572666044e-05
4.27988796004907e-05
0.000227935347478671
0.000250996586151914
0.000269563526745614
9.73638093059357e-06
4.58050318186673e-07
2.69037170540137e-09
0.000283715494002129
0.000128988716939695
0.000120478696685537
0.00013445953038433
0.00010926794304755
9.61374054229532e-05
8.148590047428e-05
6.52508309521344e-05
4.74801925808003e-05
2.87111378008305e-05
1.22144141141827e-05
2.55312914799031e-06
1.29178735451974e-07
7.96970119236943e-10
0.000692525563713146
0.000748463002166791
0.000604284506926414
0.000767708995205831
0.000747296340217057
0.000489362394195031
0.000686194717876051
0.000585950785432205
0.000451722760517255
0.000355354439800893
0.000214358221605721
0.000294683793995578
8.80313389624094e-05
0.000137901044837095
1.04072221683055e-05
1.37129691382241e-05
7.15079668627887e-06
4.22913234112105e-06
1.70317476373196e-05
2.02707018693232e-05
2.31713118426218e-05
2.04469886332423e-06
7.30615735751946e-07
2.52671263156999e-05
2.62636964448744e-05
1.64110367009754e-07
2.65513566756564e-05
7.36193504676943e-09
6.5560140903508e-07
3.46019669209963e-06
6.32236527445897e-06
8.55274281260743e-06
1.02663739801033e-05
1.1502759728602e-05
1.24573675311715e-05
1.13314587570719e-10
4.22093497090283e-12
1.01804393208183e-08
3.47386340858061e-09
7.6493273039502e-10
8.36039251673553e-11
1.33690077980428e-08
2.23141724945804e-08
4.07713880505395e-08
6.54160169280915e-08
9.61393527841658e-08
1.31438968408047e-07
1.70646522525352e-07
2.12870440400969e-07
2.54367512797473e-07
2.85185042924035e-07
2.96295024499927e-07
2.93419506065699e-07
2.59439434857338e-10
5.40161480584154e-09
2.38459156294607e-08
4.49925939323681e-08
6.30239173608332e-08
7.79374844614642e-08
8.90325032994852e-08
9.75118453672064e-08
1.06880960627823e-07
1.3395904408834e-05
9.20815094943543e-05
0.000223272308947109
0.000370863002304342
0.000512948482374431
0.000637479362367615
0.000737357890502954
0.00080768511039018
0.000844579638770224
0.000845002085398439
0.00080703094507151
0.000730254133188994
0.000616387388691544
0.000470617768960902
0.0003043598142894
0.00014117338526483
2.69703463523163e-05
2.93861421193449e-07
0.000187884110836131
0.000278450084917257
0.000118864617352115
0.000350537853217811
0.000206710012911181
5.90963887505252e-05
0.000344845318359563
0.000246791856336787
0.00042485089350619
0.000473167389712575
0.000491634006038859
0.000553057103855516
0.000577085981581717
0.000401065504015319
0.000291744168023857
0.000325494041754166
0.000446598147006201
0.000548833271541067
0.000623708832500303
0.000664287858969165
0.00066550164709089
4.06429771259358e-05
0.000141745998922735
0.000273293210564055
0.000386514156653565
0.000480237439067307
0.000558731434997108
0.000625007510725267
0.000683861769016328
0.000740066221883615
0.000596053393818852
0.000482495135335147
0.000760008394237349
0.000740612462455066
0.000680958780047404
0.000350670870967414
0.000582789971522257
0.000543831698884759
0.0004972870049583
0.000441989169711532
0.000376127733221706
0.000296557549121322
0.000200367978126795
0.000101024283222506
2.80108531010741e-05
0.000360545954726437
0.000396666203487395
0.000317855487310041
0.00026732037573824
0.000206879658398715
0.000426709377376199
0.000137469714672595
6.82309768598533e-05
1.68636863455638e-05
0.000451162798649526
4.07807157614602e-05
0.000101343561111799
5.727916792422e-06
4.30895970450244e-06
2.88726140274085e-06
1.63941652916843e-06
0.000145985057851082
0.000176002081036683
0.000197056438769798
0.000212044606353652
8.08569235619781e-07
8.07908486109167e-05
7.13845489603129e-05
5.77712087725946e-05
3.60228332604334e-05
8.7322127467352e-05
6.66910916216972e-06
3.22520719345969e-08
2.29474889596685e-08
2.58815780533987e-08
1.7374547767137e-08
9.59545495622414e-09
4.64268891486829e-09
0.000190990586931023
0.000219960384990844
0.00015770918104143
0.000119713437108495
7.80108343910269e-05
3.67435549116692e-05
0.00024515452345083
0.000266540667654532
0.000283675829985216
7.62315966245009e-06
3.22482403938383e-07
1.8664654115574e-09
0.000296550203371423
0.000135902739774644
0.000127985777899955
0.0001173896544022
0.000140783836093522
0.000104945083001023
9.1124610119378e-05
7.60112385250911e-05
5.95418084089067e-05
4.20847865685728e-05
2.43331737615978e-05
9.68489279423028e-06
1.84249303454596e-06
8.38501321442755e-08
5.13881842132873e-10
0.000733639888995657
0.000803983194959343
0.000841083338113628
0.000634106711305157
0.00084180116581421
0.000804234183860755
0.00051039734364789
0.000728123788419581
0.000615388605051674
0.000471174757171793
0.000369455973900259
0.000222857411412971
0.000306376385557663
9.19891031655722e-05
0.000143667063999652
9.18289118019483e-06
1.24317121877109e-05
1.57412012030296e-05
6.0629304583277e-06
3.41825061743711e-06
1.90398607594719e-05
2.22374738378776e-05
2.50723406539497e-05
1.56800127284624e-06
5.23035507986725e-07
2.70667787202669e-05
2.79205510789204e-05
1.07714951910619e-07
2.80503917500035e-05
8.87352624532454e-09
7.69198010817859e-07
3.94873596482578e-06
7.04490846113756e-06
9.3769945900999e-06
1.11173819321731e-05
1.23297050134784e-05
1.32381547873205e-05
6.51480013863915e-11
1.94114583560425e-12
1.70303182263376e-08
7.29178038374895e-09
2.2795484363649e-09
4.40544954675485e-10
3.91133761011964e-11
7.67358169834106e-09
3.2705974629315e-08
5.45741324903183e-08
8.28410908035818e-08
1.16243539868009e-07
1.53769086463796e-07
1.94749730096215e-07
2.38619411312468e-07
2.81304876430382e-07
3.12019296387744e-07
3.2097329320128e-07
3.15041613071991e-07
3.04660655653773e-10
6.23189909801341e-09
2.70945744705352e-08
5.03618881332278e-08