/*--------------------------------*- C++ -*----------------------------------*\
  =========                 |
  \\      /  F ield         | OpenFOAM: The Open Source CFD Toolbox
   \\    /   O peration     | Website:  https://openfoam.org
    \\  /    A nd           | Version:  12
     \\/     M anipulation  |
\*---------------------------------------------------------------------------*/
/*   Windows 32 and 64 bit porting by blueCAPE: http://www.bluecape.com.pt   *\
|  Based on Windows porting (2.0.x v4) by Symscape: http://www.symscape.com   |
\*---------------------------------------------------------------------------*/
FoamFile
{
    format      ascii;
    class       volScalarField;
    location    "800";
    object      p;
}
// * * * * * * * * * * * * * * * * * * * * * * * * * * * * * * * * * * * * * //

dimensions      [0 2 -2 0 0 0 0];

internalField   nonuniform List<scalar> 
10228
(
83333.3296124712
83333.3296124725
83333.3296124087
83333.3296125216
83333.3296125225
83333.3296124743
83333.3296124102
83333.3296122695
83333.3296124588
83333.3296126368
83333.3296124596
83333.3296125238
83333.3296126369
83333.3296124766
83333.3296124122
83333.3296122711
83333.3296120457
83333.329612315
83333.329612576
83333.3296128308
83333.3296125746
83333.3296123161
83333.3296124604
83333.3296125255
83333.3296126368
83333.3296128298
83333.3296124796
83333.3296124145
83333.3296122738
83333.3296120478
83333.3296117425
83333.3296120859
83333.329612429
83333.3296127723
83333.329613105
83333.3296124278
83333.3296125733
83333.3296127691
83333.3296123176
83333.3296120872
83333.3296124617
83333.3296125279
83333.3296126367
83333.329612827
83333.3296131019
83333.3296124837
83333.3296124173
83333.3296122772
83333.3296120516
83333.3296117462
83333.329611377
83333.3296117789
83333.3296121917
83333.3296126295
83333.3296130457
83333.3296134473
83333.3296124266
83333.3296121912
83333.329612625
83333.3296127643
83333.3296125722
83333.3296130415
83333.3296123198
83333.3296120896
83333.3296117811
83333.3296124639
83333.329612532
83333.3296126373
83333.3296128227
83333.3296130953
83333.3296134437
83333.3296124896
83333.3296124209
83333.3296122813
83333.3296120571
83333.3296117516
83333.329611381
83333.3296109596
83333.3296114107
83333.3296118706
83333.3296123854
83333.329612917
83333.3296133898
83333.3296138508
83333.3296121913
83333.3296126193
83333.3296124258
83333.3296123815
83333.3296118721
83333.3296129098
83333.3296130339
83333.3296127587
83333.3296125718
83333.3296133846
83333.329612323
83333.3296120936
83333.3296117851
83333.3296114136
83333.3296124678
83333.3296125399
83333.3296126403
83333.3296128184
83333.3296130857
83333.3296134346
83333.3296138448
83333.3296124955
83333.3296124238
83333.3296122871
83333.3296120636
83333.3296117587
83333.3296113874
83333.3296109652
83333.3296105053
83333.3296109945
83333.3296114925
83333.3296120504
83333.3296126751
83333.3296132707
83333.3296137935
83333.329614301
83333.3296118746
83333.3296121922
83333.3296123771
83333.3296128999
83333.329612613
83333.3296124262
83333.3296120499
83333.3296126673
83333.3296114956
83333.3296132619
83333.3296133749
83333.3296130239
83333.329612753
83333.3296125736
83333.329613787
83333.3296123304
83333.3296120993
83333.329611792
83333.3296114194
83333.3296109986
83333.3296124711
83333.3296125466
83333.3296126537
83333.3296128162
83333.3296130739
83333.3296134207
83333.3296138342
83333.329614294
83333.3296125028
83333.3296124226
83333.3296122933
83333.329612073
83333.3296117685
83333.3296113968
83333.3296109737
83333.3296105113
83333.3296100194
83333.3296105407
83333.3296110733
83333.3296116654
83333.3296123324
83333.3296130274
83333.329613676
83333.329614245
83333.3296147912
83333.3296120496
83333.3296115007
83333.3296118787
83333.3296123724
83333.3296121952
83333.329612657
83333.3296132488
83333.3296128881
83333.3296126073
83333.3296124308
83333.3296123286
83333.3296116678
83333.3296130167
83333.3296110779
83333.3296136652
83333.3296133607
83333.3296137751
83333.3296130104
83333.3296127481
83333.3296125796
83333.3296142366
83333.3296123419
83333.3296121089
83333.3296118009
83333.3296114287
83333.3296110057
83333.3296105457
83333.3296124562
83333.32961255
83333.3296126855
83333.3296128238
83333.329613063
83333.3296134028
83333.3296138175
83333.329614282
83333.3296147829
83333.329612432
83333.329612296
83333.3296120843
83333.329611782
83333.3296114099
83333.3296109854
83333.3296105209
83333.329610026
83333.3296095077
83333.3296100557
83333.3296106199
83333.3296112457
83333.329611936
83333.3296126811
83333.3296134279
83333.329614124
83333.3296147355
83333.3296153146
83333.3296123228
83333.3296116708
83333.3296120485
83333.329611085
83333.3296115078
83333.3296118851
83333.329612645
83333.3296123691
83333.3296122012
83333.3296130008
83333.3296136495
83333.3296132323
83333.3296128739
83333.3296126019
83333.3296124421
83333.3296126734
83333.3296119367
83333.3296112496
83333.3296134141
83333.3296106254
83333.3296141108
83333.3296133418
83333.3296137577
83333.3296142228
83333.3296129958
83333.3296127462
83333.3296147253
83333.329612337
83333.3296121216
83333.3296118134
83333.329611441
83333.329611017
83333.329610554
83333.3296100612
83333.3296124708
83333.3296126635
83333.3296128674
83333.3296130598
83333.329613384
83333.3296137957
83333.3296142637
83333.3296147695
83333.3296153056
83333.3296123052
83333.3296120949
83333.3296117991
83333.3296114275
83333.3296110016
83333.3296105349
83333.3296100363
83333.3296095141
83333.3296089718
83333.3296095435
83333.3296101362
83333.3296107939
83333.3296115065
83333.3296122747
83333.3296130801
83333.3296138691
83333.329614609
83333.329615259
83333.3296158687
83333.3296119357
83333.3296123139
83333.3296126612
83333.3296116729
83333.3296112549
83333.3296120477
83333.3296106339
83333.3296110947
83333.3296115176
83333.329611894
83333.3296129834
83333.3296126322
83333.3296123655
83333.329612208
83333.3296133945
83333.3296140927
83333.3296136295
83333.3296132121
83333.3296128556
83333.3296125958
83333.3296124267
83333.3296122723
83333.3296130683
83333.3296115094
83333.3296107986
83333.329613853
83333.3296101421
83333.3296145937
83333.3296137354
83333.3296133192
83333.3296142031
83333.3296147098
83333.3296129899
83333.3296152476
83333.3296123468
83333.3296121306
83333.3296118296
83333.3296114577
83333.3296110325
83333.3296105663
83333.3296100705
83333.3296095493
83333.3296125662
83333.3296128352
83333.3296129282
83333.3296130817
83333.3296133741
83333.3296137709
83333.3296142391
83333.3296147493
83333.329615291
83333.3296158591
83333.3296121057
83333.3296118164
83333.3296114492
83333.3296110228
83333.3296105537
83333.3296100515
83333.3296095245
83333.3296089779
83333.329608413
83333.3296090063
83333.3296096246
83333.3296103113
83333.3296110468
83333.3296118321
83333.3296126673
83333.32961352
83333.3296143474
83333.3296151275
83333.3296158121
83333.3296164512
83333.3296115117
83333.3296122656
83333.3296119306
83333.3296126448
83333.3296123025
83333.3296130505
83333.3296116746
83333.3296112597
83333.3296108055
83333.3296120466
83333.3296101515
83333.3296106453
83333.3296111072
83333.3296115307
83333.3296119056
83333.3296129636
83333.329613373
83333.3296126161
83333.32961236
83333.3296122132
83333.3296138305
83333.3296145735
83333.3296140701
83333.3296136056
83333.3296131868
83333.3296128359
83333.3296125794
83333.3296124404
83333.3296118331
83333.3296126607
83333.3296135052
83333.3296110511
83333.3296103164
83333.3296143296
83333.3296096307
83333.3296151107
83333.3296141779
83333.3296137089
83333.3296133063
83333.3296146879
83333.3296152304
83333.3296130236
83333.3296157998
83333.3296121408
83333.3296118476
83333.3296114782
83333.3296110529
83333.3296105845
83333.3296100846
83333.3296095591
83333.3296090121
83333.3296127213
83333.3296128962
83333.3296129682
83333.3296130985
83333.3296133727
83333.3296137484
83333.3296142094
83333.3296147222
83333.3296152689
83333.3296158431
83333.3296164408
83333.329611829
83333.3296114715
83333.3296110479
83333.3296105777
83333.3296100723
83333.3296095406
83333.3296089885
83333.3296084191
83333.3296078328
83333.3296084461
83333.3296090873
83333.3296097987
83333.3296105558
83333.3296113596
83333.3296122134
83333.3296131031
83333.3296139971
83333.3296148609
83333.329615677
83333.329616393
83333.3296170605
83333.3296115102
83333.3296118309
83333.3296110551
83333.3296126481
83333.3296122526
83333.3296119213
83333.3296130292
83333.3296126258
83333.3296122868
83333.3296134834
83333.329611676
83333.3296112639
83333.3296108125
83333.3296103241
83333.3296120439
83333.3296096405
83333.3296101643
83333.3296106606
83333.3296111239
83333.3296115467
83333.3296119235
83333.3296129392
83333.3296133488
83333.3296138059
83333.3296125947
83333.3296123554
83333.3296122228
83333.3296143044
83333.3296150883
83333.3296145485
83333.3296140436
83333.3296135776
83333.3296131603
83333.329612833
83333.3296126385
83333.3296125816
83333.329611362
83333.329612211
83333.3296130931
83333.32961398
83333.3296105622
83333.3296098047
83333.3296148416
83333.3296090937
83333.3296156588
83333.3296141479
83333.3296146599
83333.329613684
83333.3296133055
83333.3296152064
83333.329615781
83333.3296130351
83333.3296163798
83333.3296118614
83333.3296115001
83333.3296110767
83333.3296106078
83333.3296101046
83333.3296095747
83333.3296090225
83333.3296084519
83333.3296128171
83333.3296129272
83333.3296129915
83333.3296131143
83333.329612891
83333.3296133675
83333.3296137285
83333.3296141774
83333.3296146885
83333.3296152391
83333.3296158191
83333.3296164236
83333.3296170495
83333.3296114868
83333.3296110721
83333.3296106046
83333.3296100982
83333.3296095626
83333.3296090049
83333.3296084297
83333.3296078388
83333.3296072319
83333.3296078644
83333.3296085261
83333.3296092591
83333.329610036
83333.3296108569
83333.3296117272
83333.3296126405
83333.3296135773
83333.3296145096
83333.3296154075
83333.3296162555
83333.3296170015
83333.3296176965
83333.3296110559
83333.3296115034
83333.3296118218
83333.3296113628
83333.3296122031
83333.3296105674
83333.329613076
83333.3296126296
83333.3296122354
83333.3296119066
83333.3296134585
83333.3296130051
83333.3296126012
83333.3296122631
83333.3296139551
83333.329611676
83333.3296112671
83333.3296108185
83333.3296103326
83333.329609813
83333.3296120507
83333.3296091039
83333.3296096548
83333.3296101816
83333.3296106797
83333.3296111422
83333.329611569
83333.3296119351
83333.3296129098
83333.3296133203
83333.3296137788
83333.3296142772
83333.3296125772
83333.3296124067
83333.3296123456
83333.329614814
83333.3296156344
83333.329615061
83333.3296145194
83333.3296140129
83333.3296135473
83333.329613141
83333.3296128455
83333.3296127232
83333.3296126637
83333.3296117272
83333.3296108613
83333.3296126348
83333.3296135649
83333.3296144909
83333.329610043
83333.3296092654
83333.3296153868
83333.3296085324
83333.3296162362
83333.3296141148
83333.329614626
83333.3296151756
83333.3296136619
83333.3296132973
83333.3296157548
83333.3296163596
83333.3296130385
83333.3296169877
83333.3296115167
83333.3296111005
83333.3296106342
83333.3296101298
83333.3296095961
83333.3296090389
83333.3296084625
83333.32960787
83333.329612856
83333.329612945
83333.329613005
83333.3296131291
83333.3296129189
83333.3296133599
83333.3296137062
83333.3296141437
83333.3296146493
83333.3296152015
83333.3296157865
83333.3296163976
83333.329617031
83333.3296176848
83333.3296110868
83333.3296106301
83333.3296101267
83333.32960959
83333.3296090276
83333.3296084463
83333.3296078493
83333.3296072381
83333.3296066121
83333.3296072626
83333.3296079427
83333.3296086943
83333.3296094889
83333.3296103261
83333.3296112112
83333.3296121423
83333.3296131082
83333.3296140879
83333.3296150561
83333.3296159859
83333.3296168629
83333.3296176376
83333.3296183589
83333.3296110517
83333.3296105699
83333.3296113573
83333.3296114901
83333.3296118072
83333.3296121887
83333.3296108635
83333.3296117228
83333.3296126225
83333.3296100496
83333.3296135445
83333.3296130537
83333.3296126071
83333.3296122114
83333.3296118832
83333.3296134311
83333.3296139273
83333.3296129756
83333.3296125696
83333.3296122454
83333.3296144632
83333.3296112678
83333.3296116854
83333.329610823
83333.3296103404
83333.3296098226
83333.3296092742
83333.3296120957
83333.3296085429
83333.3296091188
83333.3296096733
83333.3296102023
83333.3296106988
83333.3296111642
83333.3296115844
83333.3296120355
83333.3296132875
83333.3296128793
83333.3296137477
83333.3296142475
83333.3296147842
83333.3296125853
83333.3296124759
83333.3296124217
83333.329615357
83333.32961621
83333.3296156047
83333.329615029
83333.3296144856
83333.3296139782
83333.3296135174
83333.3296131246
83333.3296128716
83333.3296127616
83333.3296127057
83333.3296112122
83333.3296121396
83333.3296103311
83333.3296131001
83333.3296140737
83333.3296150359
83333.3296094959
83333.3296087006
83333.3296159638
83333.3296079488
83333.3296168426
83333.3296140795
83333.3296145867
83333.3296151378
83333.3296157212
83333.3296136368
83333.3296132862
83333.3296163313
83333.329616966
83333.3296130556
83333.3296176231
83333.3296111168
83333.3296106586
83333.3296101573
83333.3296096223
83333.329609061
83333.3296084792
83333.3296078807
83333.3296072679
83333.3296128777
83333.3296129558
83333.3296130126
83333.3296131348
83333.3296129356
83333.3296133542
83333.3296136829
83333.3296141073
83333.3296146054
83333.3296151564
83333.3296157449
83333.3296163621
83333.329617003
83333.3296176651
83333.3296183468
83333.3296106453
83333.3296101531
83333.3296096195
83333.3296090558
83333.3296084692
83333.3296078658
83333.3296072485
83333.3296066182
83333.3296059748
83333.3296066419
83333.3296073385
83333.3296081059
83333.329608916
83333.329609768
83333.3296106668
83333.3296116126
83333.3296126002
83333.3296136139
83333.3296146335
83333.3296156356
83333.3296165951
83333.329617499
83333.3296183009
83333.3296190478
83333.3296110404
83333.3296113456
83333.3296105674
83333.3296100537
83333.3296108608
83333.3296117125
83333.3296114688
83333.3296117852
83333.3296121688
83333.3296126043
83333.3296103345
83333.3296112107
83333.3296121311
83333.3296130844
83333.3296095032
83333.3296140504
83333.3296135191
83333.3296130276
83333.329612578
83333.3296121801
83333.3296118669
83333.3296138973
83333.3296133989
83333.3296144328
83333.3296129406
83333.3296125366
83333.3296122499
83333.3296150058
83333.3296108237
83333.3296112755
83333.3296117243
83333.3296103459
83333.3296098316
83333.3296092845
83333.3296087095
83333.3296121598
83333.3296085582
83333.3296079593
83333.3296091378
83333.3296096948
83333.3296102214
83333.3296107185
83333.3296111796
83333.3296116672
83333.3296121089
83333.329613712
83333.3296132534
83333.329612856
83333.3296142138
83333.3296147517
83333.3296153248
83333.3296126153
83333.3296125205
83333.3296124717
83333.3296159319
83333.3296168148
83333.3296161779
83333.3296155698
83333.3296149918
83333.3296144465
83333.3296139407
83333.329613487
83333.3296131204
83333.329612894
83333.3296127856
83333.3296127339
83333.3296106685
83333.3296116114
83333.329612595
83333.3296097729
83333.329613604
83333.3296146178
83333.3296156139
83333.3296089226
83333.329608112
83333.3296165715
83333.3296073444
83333.3296174778
83333.3296145426
83333.3296140417
83333.329615093
83333.3296156796
83333.3296162948
83333.3296136124
83333.3296132816
83333.3296169357
83333.3296176002
83333.3296130638
83333.3296182856
83333.3296106744
83333.3296101815
83333.3296096502
83333.3296090879
83333.3296085016
83333.3296078973
83333.3296072784
83333.3296066468
83333.3296128913
83333.3296129623
83333.3296131347
83333.3296130161
83333.3296129459
83333.3296133458
83333.3296136594
83333.3296140687
83333.3296145573
83333.3296151045
83333.3296156943
83333.3296163165
83333.3296169646
83333.3296176353
83333.3296183263
83333.3296190353
83333.3296101682
83333.3296096462
83333.3296090859
83333.3296084976
83333.3296078887
83333.3296072649
83333.3296066285
83333.3296059805
83333.3296053215
83333.3296060034
83333.329606715
83333.3296074955
83333.3296083187
83333.3296091837
83333.3296100951
83333.3296110536
83333.3296120583
83333.3296130979
83333.329614156
83333.3296152129
83333.3296162471
83333.3296172347
83333.3296181637
83333.3296189916
83333.3296197609
83333.3296110216
83333.3296105582
83333.3296113261
83333.3296116955
83333.3296108515
83333.3296100523
83333.3296095083
83333.3296103335
83333.3296112035
83333.329612117
83333.3296114527
83333.3296117558
83333.3296121417
83333.3296125807
83333.3296130631
83333.3296106683
83333.3296097771
83333.3296116063
83333.3296125834
83333.3296135854
83333.3296089302
83333.3296145917
83333.3296140223
83333.3296134902
83333.3296129958
83333.3296125432
83333.3296121482
83333.3296118667
83333.3296143999
83333.3296138628
83333.3296133618
83333.3296149728
83333.3296129047
83333.3296125116
83333.3296122826
83333.3296155813
83333.3296103463
83333.3296108284
83333.3296113074
83333.3296117878
83333.3296098379
83333.3296092943
83333.3296087203
83333.329608121
83333.3296122085
83333.3296079747
83333.3296085776
83333.3296073547
83333.3296091599
83333.3296097139
83333.3296102389
83333.3296107346
83333.3296112519
83333.3296117397
83333.3296121634
83333.3296141751
83333.3296136738
83333.3296132219
83333.3296128575
83333.3296147148
83333.3296152891
83333.3296158971
83333.3296126442
83333.3296125523
83333.3296125079
83333.3296165377
83333.3296167804
83333.3296174486
83333.3296161399
83333.3296155288
83333.3296149481
83333.3296144027
83333.3296139015
83333.3296134625
83333.3296131217
83333.3296129083
83333.3296128025
83333.329612754
83333.3296110533
83333.3296100971
83333.3296120549
83333.3296130907
83333.3296091885
83333.3296141443
83333.3296151956
83333.3296162238
83333.3296083251
83333.3296075013
83333.3296172095
83333.3296067205
83333.3296181415
83333.3296150415
83333.3296144943
83333.3296140028
83333.3296156295
83333.3296162492
83333.3296168962
83333.32961359
83333.3296132757
83333.3296175679
83333.3296182616
83333.3296130665
83333.3296189755
83333.3296101966
83333.329609674
83333.329609116
83333.3296085288
83333.3296079197
83333.3296072948
83333.3296066569
83333.329606008
83333.3296129002
83333.3296129658
83333.3296133328
83333.3296131302
83333.3296130168
83333.329612952
83333.3296136333
83333.3296140281
83333.3296145054
83333.3296150464
83333.3296156351
83333.3296162606
83333.329616915
83333.3296175941
83333.3296182948
83333.3296190138
83333.3296197475
83333.3296096617
83333.3296091126
83333.3296085278
83333.329607917
83333.3296072875
83333.3296066446
83333.3296059904
83333.3296053267
83333.3296046534
83333.3296053484
83333.3296060732
83333.3296068647
83333.3296076988
83333.3296085748
83333.3296094971
83333.329610467
83333.3296114852
83333.3296125453
83333.3296136333
83333.3296147328
83333.3296158252
83333.3296168898
83333.3296179042
83333.3296188571
83333.3296197081
83333.329620497
83333.3296105413
83333.3296112993
83333.3296110047
83333.3296100448
83333.3296108346
83333.3296116712
83333.3296111893
83333.3296120964
83333.3296103265
83333.3296095082
83333.3296089361
83333.3296097773
83333.3296106635
83333.3296115954
83333.3296125661
83333.3296114478
83333.3296117264
83333.329612109
83333.3296125508
83333.3296130367
83333.3296135612
83333.3296110504
83333.3296100974
83333.3296091929
83333.3296120467
83333.3296130763
83333.329614123
83333.3296083327
83333.3296151668
83333.3296145609
83333.3296139907
83333.3296134562
83333.3296129588
83333.3296125082
83333.3296121242
83333.3296119007
83333.3296149368
83333.3296143626
83333.3296138233
83333.3296133226
83333.3296155456
83333.3296128735
83333.329612517
83333.3296123189
83333.3296161886
83333.3296098381
83333.3296103484
83333.3296108542
83333.329611372
83333.3296118407
83333.3296093012
83333.3296087306
83333.3296081319
83333.3296075102
83333.3296122486
83333.32960737
83333.3296079942
83333.3296085997
83333.3296067304
83333.329609179
83333.3296097299
83333.3296102548
83333.3296108007
83333.3296113259
83333.3296117976
83333.3296122076
83333.3296146721
83333.3296141322
83333.3296136358
83333.3296132006
83333.3296128656
83333.3296152484
83333.3296158581
83333.3296165003
83333.3296126664
83333.3296125783
83333.3296125371
83333.3296171736
83333.3296174119
83333.3296167392
83333.3296181107
83333.3296160949
83333.3296154802
83333.329614898
83333.3296143552
83333.3296138633
83333.3296134423
83333.3296131208
83333.329612917
83333.3296128154
83333.3296127693
83333.3296104671
83333.3296114832
83333.3296094993
83333.3296125398
83333.3296136243
83333.3296085793
83333.3296147196
83333.3296158062
83333.3296168648
83333.3296077047
83333.3296068701
83333.3296178773
83333.3296060782
83333.3296188339
83333.3296149839
83333.3296155711
83333.3296144428
83333.3296139632
83333.3296161939
83333.3296168465
83333.3296175255
83333.329613566
83333.3296132659
83333.3296182274
83333.3296189503
83333.3296130645
83333.3296196912
83333.3296096888
83333.3296091393
83333.329608557
83333.3296079469
83333.3296073169
83333.329606673
83333.3296060176
83333.3296053528
83333.329612906
83333.3296129671
83333.3296136029
83333.3296133158
83333.3296131243
83333.3296130159
83333.329612955
83333.3296139849
83333.3296144501
83333.3296149828
83333.3296155681
83333.3296161946
83333.3296168539
83333.3296175405
83333.3296182509
83333.3296189806
83333.3296197247
83333.3296204839
83333.3296091284
83333.3296085542
83333.3296079469
83333.3296073154
83333.3296066669
83333.3296060061
83333.3296053361
83333.3296046582
83333.3296039715
83333.3296046782
83333.3296054143
83333.3296062148
83333.3296070577
83333.3296079428
83333.3296088744
83333.3296098541
83333.3296108834
83333.3296119594
83333.3296130712
83333.3296142047
83333.3296153434
83333.3296164694
83333.3296175634
83333.3296186041
83333.3296195787
83333.3296204467
83333.3296212603
83333.3296100295
83333.3296108106
83333.3296105246
83333.3296116418
83333.3296112728
83333.3296109966
83333.3296103116
83333.3296095022
83333.3296111681
83333.3296120692
83333.3296106519
83333.3296115777
83333.3296125426
83333.329609772
83333.3296089371
83333.3296083389
83333.329609194
83333.3296100945
83333.329611042
83333.3296120327
83333.3296130562
83333.3296114827
83333.3296117057
83333.329612077
83333.3296125157
83333.3296130042
83333.329613532
83333.3296140961
83333.3296104655
83333.3296114775
83333.3296095
83333.3296085838
83333.3296125289
83333.3296136072
83333.3296146955
83333.3296077122
83333.3296157745
83333.3296151333
83333.3296145262
83333.3296139538
83333.3296134169
83333.3296129204
83333.3296124788
83333.329612132
83333.3296119427
83333.3296148958
83333.3296155062
83333.3296143198
83333.3296137804
83333.3296132854
83333.3296161502
83333.3296128554
83333.3296125311
83333.3296123507
83333.3296168269
83333.3296098389
83333.3296093016
83333.3296103701
83333.3296109206
83333.329611429
83333.3296118883
83333.3296087381
83333.3296081426
83333.3296075211
83333.3296068786
83333.3296122846
83333.3296067453
83333.3296073892
83333.3296080162
83333.3296086188
83333.3296060877
83333.3296091936
83333.3296097454
83333.3296103182
83333.3296108763
83333.3296113875
83333.3296118489
83333.3296122467
83333.329614624
83333.329615201
83333.3296140872
83333.3296136015
83333.3296131873
83333.3296128726
83333.3296158131
83333.3296164577
83333.3296171336
83333.3296126845
83333.3296126011
83333.329612562
83333.3296178395
83333.3296180719
83333.3296173675
83333.3296166898
83333.3296188016
83333.3296160411
83333.3296154238
83333.3296148424
83333.3296143056
83333.3296138258
83333.3296134218
83333.3296131158
83333.3296129225
83333.3296128255
83333.3296127812
83333.3296098545
83333.3296108824
83333.3296119554
83333.3296088766
83333.3296130639
83333.329614194
83333.329607947
83333.3296153284
83333.3296164486
83333.3296175366
83333.3296070631
83333.3296062198
83333.3296185755
83333.3296054189
83333.3296195545
83333.3296149209
83333.3296155049
83333.3296161288
83333.3296143883
83333.3296139217
83333.3296167857
83333.3296174717
83333.3296181822
83333.329613539
83333.3296132517
83333.3296189145
83333.3296196648
83333.3296130607
83333.3296204297
83333.3296091541
83333.3296085798
83333.3296079748
83333.3296073437
83333.3296066946
83333.3296060331
83333.3296053619
83333.3296046824
83333.3296129095
83333.3296129673
83333.3296139388
83333.3296135707
83333.3296132972
83333.3296131169
83333.3296130141
83333.3296129564
83333.3296143912
83333.329614914
83333.3296154938
83333.3296161193
83333.3296167815
83333.3296174742
83333.3296181936
83333.3296189342
83333.3296196896
83333.3296204604
83333.3296212477
83333.3296085701
83333.3296079728
83333.3296073448
83333.3296066942
83333.329606028
83333.329605351
83333.3296046668
83333.3296039758
83333.3296032768
83333.329603994
83333.3296047395
83333.329605547
83333.3296063968
83333.3296072891
83333.3296082282
83333.3296092161
83333.3296102548
83333.329611343
83333.3296124735
83333.3296136343
83333.3296148107
83333.3296159867
83333.3296171453
83333.3296182682
83333.329619335
83333.3296203244
83333.3296212107
83333.3296100142
83333.3296102906
83333.3296094886
83333.3296111423
83333.329610788
83333.3296105145
83333.3296120373
83333.3296116139
83333.3296112562
83333.3296110325
83333.3296097592
83333.3296106336
83333.3296089324
83333.3296115536
83333.3296125128
83333.329611027
83333.329610085
83333.3296120122
83333.3296130298
83333.32960919
83333.329608341
83333.3296085857
83333.3296077186
83333.3296094981
83333.329610459
83333.3296114661
83333.3296125122
83333.3296135843
83333.3296115292
83333.3296117152
83333.3296120511
83333.3296124801
83333.3296129667
83333.3296134967
83333.3296140637
83333.3296146657
83333.3296108783
83333.3296098532
83333.3296119471
83333.3296088775
83333.3296079514
83333.3296130505
83333.3296141741
83333.3296153013
83333.3296070702
83333.3296164139
83333.3296157381
83333.3296150951
83333.3296144858
83333.3296139113
83333.3296133748
83333.3296128852
83333.329612465
83333.3296121508
83333.3296119831
83333.3296148485
83333.3296154609
83333.3296161071
83333.3296142721
83333.3296137366
83333.3296132542
83333.3296167857
83333.3296128488
83333.3296125464
83333.32961238
83333.3296174958
83333.3296093019
83333.3296098583
83333.3296087391
83333.3296104384
83333.3296109814
83333.3296114831
83333.3296119336
83333.3296081506
83333.3296075321
83333.3296068894
83333.3296062278
83333.3296123181
83333.329606102
83333.329606764
83333.3296074109
83333.3296080353
83333.3296086321
83333.3296054278
83333.3296092091
83333.3296098085
83333.3296103957
83333.3296109413
83333.3296114449
83333.3296118972
83333.3296122824
83333.3296145715
83333.3296151468
83333.3296157603
83333.3296140419
83333.3296135706
83333.3296131754
83333.3296128771
83333.3296164082
83333.3296170875
83333.3296177968
83333.3296127002
83333.3296126212
83333.3296125836
83333.3296185357
83333.3296187608
83333.3296180244
83333.3296173138
83333.3296166306
83333.3296195207
83333.3296159782
83333.3296153602
83333.3296147823
83333.329614254
83333.3296137874
83333.3296133988
83333.3296131086
83333.3296129258
83333.3296128335
83333.3296127906
83333.3296092166
83333.329610254
83333.3296113403
83333.3296124677
83333.3296082303
83333.3296136252
83333.3296147983
83333.329607293
83333.3296159698
83333.3296171224
83333.3296182395
83333.3296064017
83333.3296055516
83333.3296193045
83333.3296047437
83333.3296202998
83333.3296148532
83333.3296154316
83333.3296160544
83333.329616714
83333.3296143307
83333.3296138778
83333.3296174057
83333.3296181245
83333.3296188665
83333.3296135097
83333.3296132356
83333.3296196271
83333.3296204024
83333.3296130561
83333.3296211941
83333.3296085945
83333.3296079971
83333.329607371
83333.3296067207
83333.3296060539
83333.3296053766
83333.3296046908
83333.3296039978
83333.3296129116
83333.3296129667
83333.329614329
83333.3296138907
83333.3296135384
83333.3296132799
83333.3296131101
83333.329613012
83333.3296129569
83333.3296148404
83333.3296154127
83333.3296160351
83333.3296166984
83333.3296173955
83333.3296181224
83333.3296188734
83333.3296196407
83333.329620424
83333.3296212238
83333.3296079886
83333.3296073699
83333.3296067227
83333.3296060545
83333.329605372
83333.3296046809
83333.3296039838
83333.3296032807
83333.3296025702
83333.3296032969
83333.3296040502
83333.3296048627
83333.3296057175
83333.3296066152
83333.3296075601
83333.3296085544
83333.3296096006
83333.3296106987
83333.3296118435
83333.3296130259
83333.3296142331
83333.3296154505
83333.3296166624
83333.3296178529
83333.3296190051
83333.3296200929
83333.3296210924
83333.3296094751
83333.3296100034
83333.3296102727
83333.3296106115
83333.3296097414
83333.3296089207
83333.3296115255
83333.329611119
83333.3296107748
83333.3296105518
83333.3296120058
83333.3296124781
83333.3296115924
83333.3296112672
83333.3296110827
83333.3296091795
83333.3296100694
83333.3296110061
83333.3296083373
83333.3296119853
83333.3296129968
83333.3296114483
83333.3296104464
83333.3296094905
83333.3296124886
83333.3296135547
83333.3296085827
83333.3296077215
83333.3296079538
83333.3296088762
83333.3296070767
83333.3296098484
83333.3296108689
83333.329611933
83333.3296130309
83333.3296141483
83333.3296115765
83333.329611738
83333.3296120424
83333.3296124485
83333.329612927
83333.3296134557
83333.3296140247
83333.3296146297
83333.3296152685
83333.329610251
83333.3296113338
83333.3296092156
83333.3296124571
83333.3296082315
83333.3296072972
83333.3296136092
83333.3296147755
83333.3296159395
83333.3296064084
83333.3296170845
83333.3296163744
83333.3296156961
83333.3296150504
83333.3296144389
83333.3296138646
83333.3296133329
83333.3296128575
83333.3296124632
83333.3296121735
83333.3296120225
83333.3296154083
83333.329614795
83333.3296160571
83333.3296167387
83333.3296142212
83333.3296136944
83333.3296132289
83333.3296174517
83333.3296128444
83333.3296125614
83333.3296124077
83333.3296181958
83333.3296087392
83333.3296093204
83333.3296099282
83333.3296081525
83333.3296105024
83333.3296110409
83333.3296115364
83333.3296119774
83333.3296075403
83333.3296069003
83333.3296062381
83333.329605559
83333.3296123493
83333.3296054412
83333.3296061199
83333.3296067851
83333.3296074297
83333.3296080474
83333.3296086477
83333.3296047519
83333.329609273
83333.3296098872
83333.3296104637
83333.3296110038