/*--------------------------------*- C++ -*----------------------------------*\
  =========                 |
  \\      /  F ield         | OpenFOAM: The Open Source CFD Toolbox
   \\    /   O peration     | Website:  https://openfoam.org
    \\  /    A nd           | Version:  12
     \\/     M anipulation  |
\*---------------------------------------------------------------------------*/
/*   Windows 32 and 64 bit porting by blueCAPE: http://www.bluecape.com.pt   *\
|  Based on Windows porting (2.0.x v4) by Symscape: http://www.symscape.com   |
\*---------------------------------------------------------------------------*/
FoamFile
{
    format      ascii;
    class       surfaceScalarField;
    location    "800";
    object      phi;
}
// * * * * * * * * * * * * * * * * * * * * * * * * * * * * * * * * * * * * * //

dimensions      [0 3 -1 0 0 0 0];

internalField   nonuniform List<scalar> 
29052
(
-2.72304849539606e-09
7.31781490946981e-08
-7.0460227060972e-08
-9.07315049568556e-08
-4.44017733799795e-09
9.24317553977664e-08
-3.22893334646082e-09
1.56645864348996e-07
-8.02353079981957e-08
-2.68733059499037e-09
8.8885187681025e-08
-1.56662566859754e-07
1.17634088452915e-07
-4.86539066358018e-09
-2.06226764080532e-07
-1.00635822197719e-07
-5.54694670243111e-09
1.01757170657239e-07
-1.06988021519275e-07
-4.1574276837718e-09
2.00351229777473e-07
-5.14287111404942e-09
2.29860702956563e-07
-6.80789618996483e-08
-1.56312310407413e-09
1.83046892571471e-07
-1.72824264230299e-07
-4.72056828981365e-10
8.59025723777737e-08
-2.42108600789481e-07
-2.40165831978071e-07
2.51560504517814e-07
-2.28714389036448e-09
1.33953870106492e-07
-6.12191728129988e-09
-2.33336293235025e-07
1.18534011802423e-07
-1.83838526155228e-10
-3.25060892562461e-07
-1.11894924990591e-07
-6.36642561106829e-09
1.12711414851394e-07
-1.20578442795154e-07
-4.52653560975371e-09
2.22658773928794e-07
-9.68772844248267e-08
-5.78011743929545e-09
2.97815526734699e-07
-6.1262809232606e-09
2.83075205640705e-07
-4.71107095559956e-08
-1.0080884355833e-09
2.45677259890037e-07
-1.29689344368767e-07
3.90825576344306e-09
1.54937303210806e-07
-2.45756836788425e-07
1.81341158708237e-09
6.984340209661e-08
-3.13760495423327e-07
2.23996005954657e-07
7.22333467179398e-09
-3.48942339771349e-07
-1.91236236988125e-07
-1.39752953500459e-09
3.46303269457149e-07
-2.76204138080419e-07
2.89375759058929e-07
-2.09669885656869e-09
1.51158587830191e-07
-7.40819887756105e-09
-2.6177679215599e-07
1.38682920544771e-07
-3.16909900017662e-10
-3.71902167822873e-07
1.00408109934608e-07
6.1841645400778e-09
-4.29902253354248e-07
-1.17961944042609e-07
-7.87959778254035e-09
1.19483575483039e-07
-1.34165921533289e-07
-4.90835388942627e-09
2.47266645796169e-07
-1.1173671496805e-07
-5.69532000208339e-09
3.34293353295648e-07
-7.38891859213099e-08
-9.46629962152062e-09
3.75038640585056e-07
-9.852474782943e-09
3.18574237912533e-07
-2.56373057694884e-08
3.27543426070657e-10
2.66215730550727e-07
-6.7951888234743e-08
6.04328555865815e-09
1.51253593620465e-07
-1.32064072174118e-07
6.49024236215126e-09
9.42609474841343e-08
-2.76681861373072e-07
6.06085999559943e-09
4.67984675524356e-08
-3.66614395424589e-07
1.12833632426503e-08
2.29726373861085e-07
-2.02264123061628e-07
2.6510108379556e-07
-4.04716674294514e-07
9.32508581380006e-09
1.4600420255068e-07
1.33434608314183e-08
-4.01407615216441e-07
-2.24290197950451e-07
-1.52745169664695e-09
4.02025057997331e-07
-1.14049251742321e-07
-9.16377445922423e-10
3.87692372843889e-07
-3.10825950512495e-07
3.26906039701393e-07
-1.07235078734838e-09
1.63199418104026e-07
-7.87145475300333e-09
-2.80701941158723e-07
1.60172432158617e-07
-1.95269579082906e-09
-4.20293102705562e-07
1.19143866104766e-07
1.09183216338843e-08
-4.95796618812312e-07
7.18091209840529e-08
1.21494830399603e-08
-5.07806037777519e-07
-1.20838681743675e-07
-8.9783587331396e-09
1.21913706616616e-07
-1.42104934928517e-07
-6.06172016230048e-09
2.62742033809169e-07
-1.25885413503592e-07
-6.82464119350567e-09
3.74267964002903e-07
-8.90509395872252e-08
-1.06569226536383e-08
4.2453597762683e-07
-4.93337270911943e-08
-1.37491851187121e-08
4.28244890076786e-07
-1.04328467358575e-08
3.36829348690855e-07
-7.82470354811686e-09
-4.92580896627429e-10
2.53199811789917e-07
-1.21356658681714e-08
7.54956502585882e-09
1.01446850589708e-07
-2.56985544541827e-08
6.54913131380879e-09
4.18657940584838e-08
-8.6211965329661e-08
1.04338947878503e-08
2.91493058655615e-08
-2.69471734731501e-07
9.34490719981528e-09
2.32207655270165e-08
-3.99196823543201e-07
2.74537006411027e-07
-2.366752689039e-07
1.41874558578287e-08
1.27363944725963e-08
-6.14108020175774e-08
1.7190454427105e-07
1.3363544585028e-08
8.14061272992394e-08
-1.44464275597245e-07
1.74170465047962e-07
-4.67319629557925e-07
2.08737901883135e-08
3.0598522291277e-07
-4.5750973294607e-07
1.01681404853742e-08
6.09842211410006e-08
2.02186754478414e-08
-4.00366266953851e-07
-2.54233483967698e-07
-2.65376577547949e-09
4.56313660643245e-07
-1.36347010101036e-07
-3.79528756369924e-09
4.52216956785737e-07
-4.23988330334286e-08
-4.19253487962198e-09
3.84429572155314e-07
-3.32804354393659e-07
3.51986784387707e-07
8.05383154268462e-10
1.70085704564537e-07
-1.00096412800043e-08
-2.88824285626204e-07
1.77890909882246e-07
-8.24083473442819e-09
-4.52353633365097e-07
1.40636891867437e-07
1.38591642372753e-08
-5.6391782015893e-07
8.56010654410265e-08
2.01608055758504e-08
-5.89426754539292e-07
4.34716690253992e-08
1.83692106381269e-08
-5.60325716734032e-07
-1.18304538034908e-07
-8.29644668321942e-09
1.1761971712113e-07
-1.42478809273082e-07
-3.2472133893274e-09
2.61564104722317e-07
-1.33697025211964e-07
-9.17024126270511e-09
3.98761630392181e-07
-1.02174292084785e-07
-1.2785106316714e-08
4.78561507890822e-07
-5.93329210601557e-08
-1.61444634745045e-08
4.86280605442265e-07
-2.80558736355655e-08
-1.64235984279212e-08
4.62300769479258e-07
-1.24593146252698e-08
3.45789579828975e-07
3.476904450851e-09
-2.04464327136225e-09
2.20255764382449e-07
2.71641005867531e-08
6.42887098741635e-09
4.0237762233798e-08
4.26412978814079e-08
6.9286209690874e-09
-2.08631723080062e-08
3.00989614330902e-08
6.17160768145061e-09
-3.32062538472652e-08
-3.00330755231945e-08
1.10812566499116e-08
-2.14874271867363e-08
-2.35847664606573e-07
1.27123735935631e-08
4.5214445073486e-09
-4.16424379892863e-07
2.07381939860277e-07
1.47997998984116e-08
-7.13029581102754e-08
9.64518081293763e-08
-1.66711396711853e-07
2.11033741538484e-08
3.19600961922402e-07
-2.68636837041068e-07
1.49757600978974e-08
1.36487542717153e-08
1.9964684455862e-09
1.12779165339224e-08
1.04308279060996e-08
2.64781375373737e-08
9.90345884855816e-08
1.36874402664568e-08
-1.71842934049999e-08
-7.38340313976531e-08
7.34669278416865e-08
-4.65781355882812e-07
3.07984233069779e-08
2.04676430837193e-07
-5.30289842111239e-07
2.96341959749598e-08
3.39236707505012e-07
-4.94426041568603e-07
1.040508270398e-08
-3.81849103614133e-09
2.32589890393797e-08
-3.6526391719877e-07
-2.74950272873211e-07
-1.50334532397409e-09
4.92113577621116e-07
-1.56148860315645e-07
-8.2358118759365e-09
5.14720302613361e-07
-5.35116216909251e-08
-9.9821360449e-09
4.52134911955357e-07
8.00497388087829e-09
-8.15380743563136e-09
3.54501240119132e-07
-3.39992793081525e-07
3.57209471790867e-07
1.12185430919063e-08
1.95552390429808e-07
-2.99762164188792e-09
-3.20885018752349e-07
1.93048067589078e-07
-2.37562542184824e-08
-4.66355173450238e-07
1.62149901491506e-07
6.88218729624356e-09
-6.0748334231867e-07
1.02119312126809e-07
2.82029347619794e-08
-6.74127873523536e-07
5.23815679464197e-08
2.82357746218153e-08
-6.51690186343092e-07
1.95986126699588e-08
2.38106671942377e-08
-5.91002295937318e-07
-1.09099479394535e-07
-8.58921943899619e-09
1.09397878841507e-07
-1.2700227179391e-07
3.11870088197798e-09
2.38257649124407e-07
-1.35414658723002e-07
-7.26619811289098e-09
3.95091380746044e-07
-1.06725496021969e-07
-1.77780553441916e-08
5.10479638897719e-07
-6.53499359940959e-08
-2.08710370256013e-08
5.48644738794289e-07
-3.43867578963337e-08
-2.11533701082614e-08
5.25361328239812e-07
-1.23001164159122e-08
-1.93624248734146e-08
4.81513925947011e-07
-1.18898326340272e-08
3.47136450115781e-07
1.05246319973075e-08
-4.54048841556507e-09
1.77739223063135e-07
5.05471953881943e-08
4.37938661096637e-09
-1.98161986659886e-08
8.2836345366093e-08
6.26592621483923e-09
-7.64376976648516e-08
9.19498832446035e-08
5.44077676895628e-09
-8.76876124840631e-08
7.91368671625305e-08
6.22541517842913e-09
-8.19998090660484e-08
2.42528381277175e-08
1.23021889692165e-08
-5.51250299407997e-08
-1.8851863158002e-07
1.47489012336611e-08
-9.91035243580142e-09
-4.2127164994317e-07
3.0733129800624e-08
1.22379848883448e-07
1.11957332840152e-08
2.4452969643065e-07
-8.05853503243304e-08
1.4313089990152e-08
8.19346686232676e-10
2.01214884435104e-08
1.78820034605872e-08
-2.13838424553326e-08
-8.16928675838487e-08
2.35031038546836e-08
1.15013158592659e-07
-1.88269974448398e-07
3.0333291582351e-08
3.60192569946592e-07
-2.97617778919131e-07
1.66849846924947e-08
1.23835261972341e-08
8.84306421739517e-08
-6.60870648463938e-08
1.10662064783172e-08
-8.45759176729395e-08
7.30518676592441e-08
6.91524064660881e-09
7.65639471543721e-08
2.79289264631436e-08
1.33464689087372e-08
-7.75278430457796e-08
-7.25068205246647e-09
-2.43452055126565e-09
3.61734044145874e-08
-4.23897718470355e-07
8.93484240938515e-08
-5.28436833828212e-07
4.1715467965261e-08
2.3721832336294e-07
-5.75343304379732e-07
3.54318819667132e-08
3.63737307174334e-07
-5.16816587348941e-07
1.66262063460779e-08
-4.59786096142793e-08
2.44026957824483e-08
-3.11814653486864e-07
-2.88744981042553e-07
3.54047931989107e-09
5.0547410949756e-07
-1.71240318358505e-07
-8.52930702234602e-09
5.56827711626447e-07
-6.27580410080568e-08
-1.603136773896e-08
5.18166783738206e-07
4.44555649493061e-09
-1.58740996888527e-08
4.21017091802424e-07
3.87552594834239e-08
-1.1173699372786e-08
3.10005185698792e-07
-3.13847505068707e-07
3.45580696787876e-07
4.79721967061133e-08
1.87156335210642e-07
-7.41378577782506e-09
-2.91812258496602e-07
2.35388242798028e-07
-4.36902432170312e-08
-5.36371611924981e-07
1.88007032926641e-07
-2.30423360003058e-08
-6.24466049263175e-07
1.22332203068904e-07
3.1223387881105e-08
-7.32827173781686e-07
6.29704076819059e-08
3.87917089827177e-08
-7.47705317630012e-07
2.48355225670837e-08
3.43235883166639e-08
-6.87025505124298e-07
1.55129555764078e-09
2.80711841544942e-08
-6.05889368443404e-07
-8.65404592603352e-08
7.79376854775066e-08
-7.13807369463707e-08
-1.21887446374831e-08
1.9608904711231e-07
-1.26670363368466e-07
-2.98593031433475e-11
3.57681093807876e-07
-1.09644048867665e-07
-1.81060656913679e-08
5.05047516976487e-07
-6.82386357820001e-08
-2.79022405215698e-08
5.85772521454699e-07
-3.86183064552632e-08
-2.76419377581752e-08
5.93706572341977e-07
-1.84474469683368e-08
-2.4900873333457e-08
5.49390383170514e-07
-1.18984959698001e-09
-2.07198291215268e-08
4.91533494473615e-07
-1.16022529226186e-08
3.442088354416e-07
1.45084255083853e-08
-6.29664000791549e-09
1.3141558299091e-07
6.31598177224993e-08
2.44605680522938e-09
-7.64711322185008e-08
1.04758183919548e-07
4.80040643119244e-09
-1.26480355537788e-07
1.28075547551944e-07
4.86337889825358e-09
-1.34982410736815e-07
1.34380559339884e-07
4.14563041715915e-09
-1.30404939913092e-07
1.2339167365538e-07
5.44465894647737e-09
-1.12475544791977e-07
7.61573995843877e-08
1.20051956429789e-08
-7.55114916971609e-08
-1.34914774574859e-07
1.6687390307478e-08
-1.97161227851439e-08
-4.18244306932372e-07
1.06234613366334e-07
-7.97660325837904e-08
1.74763785675204e-08
8.75678024509774e-08
3.96061080464484e-08
6.5508615742365e-09
3.46069390714458e-08
1.4872678834192e-07
9.60711961709844e-09
3.89876923772807e-09
2.3839103028747e-08
2.67994851111966e-08
2.81897979176526e-07
-9.34518983102531e-08
1.48580092748147e-08
-1.02299928799079e-07
1.75843893785807e-08
9.22572596858295e-08
-9.0909965602508e-08
-2.75191188907452e-09
2.28633865693664e-08
-2.11984624604123e-08
-8.96132302408621e-08
3.53987839069149e-08
1.41325272501869e-07
-2.11325272850129e-07
3.98731168271194e-08
4.06832041933173e-07
-3.34142939176783e-07
1.89078251209233e-08
9.89188415632369e-09
1.39781264621547e-07
-1.40956075732565e-07
9.41118207530534e-09
1.31189286532671e-07
-1.25318679937632e-07
8.92045325682918e-09
-1.35573034226989e-07
1.26316050578526e-07
3.63518633788919e-09
1.04239821813867e-07
-3.87554772328925e-08
1.20864094039095e-08
-1.14465738655193e-07
5.46060908916472e-08
1.96633117546599e-09
4.95725560423027e-08
-4.80794704722867e-07
-5.13518793329388e-08
3.8086602483609e-08
-3.61444451614035e-07
1.11911460254176e-07
-5.78645379437167e-07
5.54497664938501e-08
2.86750876027653e-07
-6.09574490154481e-07
2.93823554441731e-08
3.71365101816415e-07
-4.66855103802691e-07
-7.18180258369336e-08
2.43284564751107e-08
-2.50792020488317e-07
-2.95076092435348e-07
3.38542981737394e-08
4.83709122780009e-07
-1.83789853390085e-07
-2.6408314777179e-09
5.7372580933868e-07
-7.14955879539829e-08
-2.00276343394331e-08
5.6406677553274e-07
1.76575213422936e-09
-2.43975305380913e-08
4.86263190874086e-07
3.96704866391195e-08
-2.04639532585721e-08
3.72158773148556e-07
5.63269758052674e-08
-1.35512575268078e-08
2.59719831314914e-07
2.35165418690447e-07
-3.11238887386159e-08
1.19150054019417e-07
-2.13097771245035e-07
6.4580962002209e-08
-4.62959208709514e-07
2.33180781832912e-07
-1.44086877788916e-07
-6.48564851570333e-07
1.50133602463571e-07
1.00497370288508e-08
-7.53422436554849e-07
7.73396772707817e-08
4.50534605904905e-08
-8.16429215953361e-07
3.08348359324224e-08
4.5273661419781e-08
-7.89528413954645e-07
3.97351726291508e-09
4.06906581310921e-08
-7.0360052575158e-07
-1.1116310269434e-08
3.17960351582809e-08
-6.09916823535243e-07
-7.80863960759322e-08
1.4386011979674e-07
-8.57364223063706e-08
-1.10784601985547e-08
2.92871491193678e-07
-1.03901122958536e-07
-1.37623429472093e-08
4.5721740262547e-07
-7.07964940843638e-08
-3.24759748647897e-08
5.80377743053213e-07
-4.04689183313169e-08
-3.61538118891093e-08
6.34749398137685e-07
-2.05396824506838e-08
-3.28560617975455e-08
6.22165193768821e-07
-6.09430539003428e-09
-2.81562824193472e-08
5.62911708839533e-07
5.8798390509897e-09
-2.11097895467214e-08
4.95173561512401e-07
-1.13206191499474e-08
3.38476562988181e-07
1.70427105813114e-08
-7.50483827261793e-09
8.41962662534198e-08
6.92193136624468e-08
9.56430824291383e-10
-1.29476365666586e-07
1.15216500185583e-07
3.43223995553448e-09
-1.72708980937111e-07
1.47548558123163e-07
4.01489304522454e-09
-1.77621630940949e-07
1.6670288580201e-07
3.79635277492418e-09
-1.72406569707623e-07
1.72584478094378e-07
3.3418727404746e-09
-1.57398126217438e-07
1.64975121794268e-07
4.62594967034075e-09
-1.30076014116804e-07
1.26095021468108e-07
1.16165197842586e-08
-8.68913634551959e-08
-7.93585279763744e-08
1.7945668109308e-08
-2.6147163452338e-08
-4.10038756499488e-07
-1.68113292156752e-07
1.50981332841556e-08
1.6683244711399e-07
1.52898516680829e-07
1.32688777180189e-08
-1.48973861688862e-07
1.22580093191097e-07
-8.84406381538068e-08
2.18248341170235e-08
1.18727627445853e-07
-3.80864984069196e-08
2.2729872203492e-09
9.7604998279354e-08
5.54273423586092e-08
4.02183064489116e-09
3.35762774061671e-08
1.79275660299569e-07
7.08733751847967e-09
-1.15241924605793e-07
1.09387554333345e-07
2.60720718962579e-08
1.73995325669336e-08
2.38418588020976e-08
3.34166570325296e-08
3.32331794789915e-07
-1.17479864197502e-07
2.3026485859953e-08
-1.60038216621527e-07
1.56421896190858e-08
1.54659990498973e-07
-1.3285820144986e-07
6.9766856150754e-08
2.10698970495499e-08
-1.00497081399789e-07
8.32412254492375e-10
3.48693739742132e-08
-1.11729173402937e-08
-1.02122490794349e-07
4.9298316048895e-08
1.92461315153329e-07
-2.51349145884615e-07
5.13875787997592e-08
4.58675419268963e-07
-4.4981333710061e-07
8.62948774405207e-08
7.89510115216638e-09
-1.84334686860925e-07
1.84443882488995e-07
8.13287285625799e-09
1.76368590314765e-07
-1.9025720126611e-07
6.61225798570651e-09
1.54755007587307e-07
-1.79016309293573e-07
7.78268647693298e-09
-1.67300297503033e-07
1.74704441823219e-07
1.03282031479375e-09
1.18388230742238e-07
-1.00882270754347e-07
1.08530014891608e-08
-1.36411713803447e-07
1.12971364460074e-07
1.31379796796938e-08
-5.27876208418143e-07
6.29895597300295e-08
-5.42917564683258e-08
5.22125028130976e-08
-4.09821673171012e-07
-8.13322734604354e-08
3.84203380222848e-08
-2.90193807627853e-07
1.60464247461341e-07
-6.13961858331493e-07
4.94782570789271e-08
4.01457913236084e-07
-6.0476951752104e-07
-8.67465409911644e-08
2.39972430926598e-08
-1.87576347856455e-07
-1.80987951965642e-07
-2.3832597739664e-08
3.8814070477534e-07
-1.95768362820478e-07
1.72322863043118e-09
5.71230527311513e-07
-8.29148163476303e-08
-2.19893851867758e-08
5.87819947858069e-07
-3.08896846734691e-09
-3.08443858762492e-08
5.33116477651827e-07
4.07164934103301e-08
-2.94507761057958e-08
4.34037734644594e-07
6.02311342563431e-08
-2.33160733455203e-08
3.15592491904835e-07
6.56162440773913e-08
-1.54305659783257e-08
2.07897167675798e-07
1.82753202202669e-07
-1.72845680650073e-07
1.14553036032302e-07
-2.63059890844605e-07
-1.35251121711479e-07
-4.94882115984071e-07
1.75727656725591e-07
-8.23923251389285e-08
-7.31832361761653e-07
9.76786815630891e-08
3.71366063177134e-08
-8.4318811045175e-07
3.89000537321012e-08
5.4294463443989e-08
-8.64292836984281e-07
7.22398643347319e-09
5.16629983426109e-08
-8.07740413162762e-07
-1.09682997062413e-08
4.67546744365875e-08
-7.07568809432859e-07
-1.96032352196356e-08
3.47495982482921e-08
-6.07094070947655e-07
-8.22243829364553e-08
2.15016857108829e-07
-9.05900546031908e-08
-1.19095539480761e-08
3.81595714391534e-07
-7.7581501569427e-08
-2.82963181417881e-08
5.30567725973568e-07
-4.42505829252752e-08
-4.20417128537607e-08
6.30524636890287e-07
-2.2854649998805e-08
-4.20149590621125e-08
6.66769134590586e-07
-9.08689264796864e-09
-3.67767470905737e-08
6.39917690831674e-07
3.46425474961121e-09
-3.00402419584059e-08
5.68374642990409e-07
1.0407502314426e-08
-2.1346124275615e-08
4.94816955171797e-07
-1.12335704506036e-08
3.31102859176681e-07
1.86161949254504e-08
-8.02136564848688e-09
3.79434833171654e-08
7.13074204814219e-08
-7.16165118632861e-11
-1.78939729906739e-07
1.18756103498953e-07
2.39360539521188e-09
-2.15905462425851e-07
1.56017228668443e-07
2.95993869723126e-09
-2.16925686769925e-07
1.83890476027121e-07
3.12235347238748e-09
-2.09957358151459e-07
2.01132607945841e-07
3.09697050821811e-09
-1.9601623987787e-07
2.08103618150078e-07
2.79630132209011e-09
-1.7273757380129e-07
2.04838315488558e-07
3.99674750271614e-09
-1.38942427389882e-07
1.74149278734866e-07
1.12042404504731e-08
-9.23764088349217e-08
-2.4334355157189e-08
1.89641695233284e-08
-3.03480022688042e-08
-3.98634199635333e-07
-2.24790927965318e-07
2.05383855707976e-07
1.23309198245014e-08
-1.89837021411795e-07
1.91168733862437e-07
2.11057122626517e-08
-2.16107455571617e-07
1.22893063022724e-08
2.1849992161874e-07
1.72500481187644e-07
1.6840531170254e-08
-1.66889158764292e-07
1.78390616707868e-07
9.39434752008647e-09
-2.11423950687047e-07
1.31848112529831e-07
-8.56688794210276e-08
2.66371844422052e-08
1.34861770323936e-07
-1.10691183814994e-07
-1.00915367603139e-09
1.31680194484571e-07
-3.21085896105054e-08
-1.16663960464009e-09
1.01674665350923e-07
7.84749914115003e-08
4.43869548386728e-11
2.15939689490256e-08
2.28919685033886e-07
6.01252123537109e-09
-1.79333426232853e-07
2.39378840795246e-08
1.7991982024898e-07
-1.16867785294096e-07
1.18290665264314e-07
3.73149674174419e-08
5.24321316723396e-08
9.98669938791628e-09
4.59252082428038e-08
4.35400087614e-07
-1.75289578978624e-07
2.58138914300061e-08
-1.95120537439282e-07
1.38646437048918e-08
2.10842910359464e-07
-1.57926687833129e-07
1.37783386151893e-07
1.9426517994435e-08
-1.47679724314909e-07
8.30456209163323e-08
3.22317084169412e-08
-1.01034541307311e-07
-1.38158890340788e-09
4.82951338273056e-08
1.90640658470331e-08
-1.28307531203659e-07
6.7647924386157e-08
2.87303466919515e-07
-3.81649819586587e-07
9.73604125528937e-08
4.73945394841298e-07
-4.7551931332566e-07
-3.56695207437869e-08
6.39670699777642e-09
-2.27075671362229e-07
2.15831063836134e-07
6.62983748137887e-09
-2.11403512663934e-07
2.25013648670409e-07
6.1059855741533e-09
1.964018610112e-07
-2.3505102479751e-07
4.40054286918863e-09
1.66083556916056e-07
-2.28718857897089e-07
6.85661366773728e-09
-1.86044863271953e-07
2.20282501928503e-07
-9.44416471271165e-10
1.24193584372485e-07
-1.5857794001434e-07
9.96088408920233e-09
-1.48228527647365e-07
1.68490638689423e-07
-5.11505062436175e-08
-4.49492337340199e-07
6.38185211831975e-08
4.00007911161201e-08
-5.61023744316756e-07
6.77629153899988e-08
-8.88215569760278e-08
5.36393008789828e-08
-3.29009952434819e-07
-9.88960079950003e-08
3.83590911487501e-08
-2.16663687186132e-07
3.01903806608588e-07
-6.10774709346111e-07
-7.06976318312475e-08
-9.44989905926807e-08
2.36202916831247e-08
-1.25113864273185e-07
-1.90113601140334e-07
2.66811904677252e-07
-2.01090518483293e-07
-9.49494622235322e-09
5.09901522056639e-07
-1.11697272620597e-07
-2.09550635168341e-08
6.04313699193538e-07
-1.4461519089315e-08
-3.64477498904399e-08
5.63593740105868e-07
3.86666522481764e-08
-3.82891052321116e-08
4.80405204165628e-07
6.35272763134514e-08
-3.30655195464575e-08
3.71201416329684e-07
7.15211781382016e-08
-2.47888211246093e-08
2.56909469531454e-07
6.97557496171786e-08
-1.64550701608005e-08
1.56986715955862e-07
1.53179895343546e-07
-2.05796089594613e-07
-2.552188773086e-07
1.1804306162186e-07
-1.25904025840887e-07
-6.75466493666684e-08
-3.63465394268078e-07
1.33513862864252e-07
-7.35536871019421e-08
-6.37281095328355e-07
1.18510216186414e-07
1.07436089202395e-08
-8.24024245060504e-07
5.16561189473899e-08
5.63918027207414e-08
-8.96937640765275e-07
1.17990431179741e-08
6.04552379747072e-08
-8.84862603793616e-07
-1.01908607673567e-08
6.10674865094999e-08
-8.11867459686933e-07
-2.11013394221107e-08
5.18387422144459e-08
-7.03563634844495e-07
-2.53629920138213e-08
3.70301037778594e-08
-5.99796907707632e-07
-7.98958638966223e-08
2.83002656906309e-07
-8.44035541552527e-08
-1.44352954530546e-08
4.52120546835555e-07
-5.39414388648881e-08
-3.80913574160884e-08
5.80563857399881e-07
-2.79015414629414e-08
-4.77298630139407e-08
6.64178235857215e-07
-1.16927608536006e-08
-4.59921048070698e-08
6.87646241401514e-07
1.82377366746705e-09
-3.97289276652472e-08
6.47747854952853e-07
9.52323113427996e-09
-3.13156603386965e-08
5.68817666832855e-07
1.31961829415031e-08
-2.15410128126644e-08
4.9190410629826e-07
-1.11587284684117e-08
3.22951639560848e-07
1.93186743896199e-08
-7.83488249248498e-09
-6.46103642153454e-09
7.0862647959261e-08
-8.15222625384531e-10
-2.24938998289429e-07
1.18112185698723e-07
1.57694316786215e-09
-2.5638046950134e-07
1.57655125252661e-07
2.09476050541307e-09
-2.53598761756743e-07
1.90595988669537e-07
2.42416344937878e-09
-2.44225965752341e-07
2.15734413257525e-07
2.54382218103591e-09
-2.29968065216486e-07
2.32539554051642e-07
2.62251797357166e-09
-2.09031400371385e-07
2.4177449141081e-07
2.47015049348676e-09
-1.79811285734222e-07
2.43236579415522e-07
3.60856277575574e-09
-1.41993001690163e-07
2.20157660780317e-07
1.08384042455894e-08
-9.40971265550823e-08
2.85659673586311e-08
1.95823568826888e-08
-3.30979608942106e-08
-3.85126860649487e-07
9.55656993323505e-09
2.26341182788353e-07
-2.76186761236517e-07
-2.64695737412379e-07
2.50621451233231e-07
9.74468452157624e-09
-2.53239951748121e-07
2.31053196522073e-07
1.71772746728952e-08
-2.42184476884701e-07
2.4835179283003e-07
1.79518644977342e-08
-1.99268674940319e-07
2.05775866376867e-07
2.95778236556165e-08
-2.45561870290127e-07
1.06048754788634e-08
2.64963935601412e-07
1.84406607651588e-07
2.0603833424019e-08
-1.72167779860592e-07
1.99277398371951e-07
1.21612397692686e-08
-2.37246822198945e-07
1.90898539501097e-07
6.18814902263521e-09
-2.69255089649338e-07
1.30957826790718e-07
-6.20784455999764e-08
3.18019170269736e-08
1.41695985060956e-07
-1.78180377849703e-07
-3.63735824853323e-09
1.492556400159e-07
-1.14356835927605e-07
-4.51040579572011e-09
1.37996044917776e-07
-1.69626329581608e-08
-5.06657690694893e-09
9.55021243143852e-08
1.24223225713612e-07
-5.23614755361635e-09
-2.411293959607e-08
3.53674188646907e-07
1.46572812394776e-10
-1.87824518298691e-07
3.41928635267675e-08
1.94814409504494e-07
-2.17763245548186e-07
2.11666359600782e-08
2.4270810986772e-07
-1.02049447337326e-07
1.15216954746017e-07
5.31875431385142e-08
1.44856025968475e-07
-3.66617221292053e-08
4.9702411992033e-08
6.41157536660872e-07
-3.44290782402807e-07
1.83524428528151e-09
-2.16225663752324e-07
1.25305128057846e-08
2.6346341147754e-07
-1.7175340326308e-07
2.02311388132954e-07
1.82820286741274e-08
-1.75960251562674e-07
1.59631500301862e-07
2.99800456643878e-08
-1.5371817079986e-07
8.91307447739694e-08
4.4274897023546e-08
-8.94162202019573e-08
-1.38732636414284e-08
6.32810432169603e-08
9.18873057539119e-08
-1.7680466484359e-07
7.27623349517992e-08
4.43939223357932e-07
-5.51727475327086e-07
-1.70840578779646e-07
2.28090254339961e-07
-3.00622833260572e-07
4.82079264293623e-09
-2.65642343168053e-07
2.32573677492801e-07
5.30168968325746e-09
-2.49698137605833e-07
2.51363709821911e-07
5.83221963487889e-09
-2.27178392694025e-07
2.62935591875016e-07
4.21174393935021e-09
2.05479062186682e-07
-2.76565477354983e-07
2.71808228941978e-09
1.69420292896076e-07
-2.75087375209514e-07
6.28399811971506e-09
-1.95545411085468e-07
2.63785581639159e-07
-2.3724397789717e-09
1.24726995533919e-07
-2.1199862179505e-07
9.42182469775925e-09
-1.53136776969853e-07
2.21319275694793e-07
-9.0744923252913e-08
6.8137350280217e-08
-3.61440457686489e-07
-3.96262979104718e-08
-4.79658641809749e-07
7.37267100155533e-08
9.51895707570252e-08
-5.70911279282315e-07
5.12522273092698e-08
-1.09270544675437e-07
5.44091071516362e-08
-2.45956316548218e-07
-1.08244302416089e-07
3.82297725061495e-08
-1.44119401046305e-07
4.79163580067506e-07
-5.09837196520144e-07
-6.61311296961602e-09
-9.76791339834454e-08
2.3307908675487e-08
-6.52546091229385e-08
-1.72661335029257e-07
3.50099690558622e-07
-1.64164749662699e-07
-1.13316293581805e-08
5.80108364920765e-07
-4.85214295745088e-08
-3.57933710984822e-08
5.98150700201807e-07
2.74585025358743e-08
-4.55364129272053e-08
5.1544401849539e-07
6.28984869506087e-08
-4.31964921623418e-08
4.15924723474229e-07
7.67657404142141e-08
-3.52857015263101e-08
3.06731748560278e-07
7.69281691233287e-08
-2.58734011452755e-08
1.98858787010279e-07
7.0542805544107e-08
-1.63885009601114e-08
1.08211772523143e-07
1.252081118582e-07
-1.66205425754463e-07
-1.8015375615226e-07
1.15728991391897e-07
-6.14719133065136e-08
-5.62677927907093e-08
-3.55815663688993e-07
1.6438598698576e-07
1.59128577358989e-07
-1.87055903186201e-08
-5.77480798651011e-07
1.32442925526139e-07
1.85307122417739e-08
-7.77551797938829e-07
6.64337483224977e-08
5.81488385537977e-08
-8.92193570945126e-07
1.82098869412397e-08
6.80598094652089e-08
-9.227916157747e-07
-7.96757723682144e-09
7.39270550181921e-08
-8.89762337268126e-07
-2.21180125927354e-08
6.9049458902736e-08
-8.06998589943316e-07
-2.818676079768e-08
5.58648232830153e-08
-6.94202602170954e-07
-2.95077900936019e-08
3.86372930465935e-08
-5.89379695729647e-07
-7.49237552213994e-08
3.43465443049808e-07
-7.19233588406718e-08
-1.85929948013683e-08
5.04555955557867e-07
-4.01988083554026e-08
-4.21764684397759e-08
6.15230973207906e-07
-1.78575819840515e-08
-5.07194677222284e-08
6.86730649017919e-07
-1.37170520818652e-09
-4.87066520738869e-08
6.98004628563774e-07
8.37807929478965e-09
-4.14960195718148e-08
6.49566553030186e-07
1.29465645690374e-08
-3.19840754948311e-08
5.66284652218583e-07
1.46741319505608e-08
-2.15400180779139e-08
4.87588373228493e-07
-1.10843727319157e-08
3.14771881658445e-07
1.9253925179976e-08
-7.65533989559059e-09
-4.82520689652501e-08
6.87598917989447e-08
-1.23507955380733e-09
-2.67559557216487e-07
1.1471047043069e-07
1.18247219760687e-09
-2.94376397844128e-07
1.54926253423868e-07
1.65220050844289e-09
-2.88143097326489e-07
1.90546842199024e-07
1.70812335525982e-09
-2.75900934221155e-07
2.20562916429104e-07
1.91457490726321e-09
-2.60361241530849e-07
2.44212774332333e-07
2.15686226768659e-09
-2.40400743595006e-07
2.61752047730953e-07
2.35193770849722e-09
-2.14336582846495e-07
2.73948261404564e-07
2.31994531381365e-09
-1.8119817992687e-07
2.80124436062922e-07
3.40528703511361e-09
-1.41177304692625e-07
2.63830358618122e-07
1.05656287128473e-08
-9.34194448019922e-08
7.83334031631056e-08
2.01495440199986e-08
-3.42338135048871e-08
-3.71059808221816e-07
-3.10414578644749e-07
1.35871271169661e-08
2.5242254333598e-07
7.28749763169823e-09
-3.08556745774601e-07
2.67735620037558e-07
6.78316677088199e-09
2.36097365836976e-07
-3.23954931156796e-07
-2.88847860203768e-07
2.91133651898129e-07
8.08073949934516e-09
-2.95934664860187e-07
2.80750384345455e-07
1.38039542984424e-08
-2.68415931143154e-07
2.46418745648766e-07
2.43218005807602e-08
-2.73725684359504e-07
2.9962735654804e-07
1.52930056327049e-08
-2.55808829711093e-07
2.66335051469338e-07
2.53719611211761e-08
-1.94300806532243e-07
2.09720762782936e-07
4.30725356022079e-08
-2.63181725399637e-07
9.47241650419629e-09
3.08281470693601e-07
1.87592216012122e-07
2.38819376647145e-08
-1.57449129468699e-07
2.11970506846481e-07
1.52787089182143e-08
-2.49259129764247e-07
2.1249473126736e-07
8.11540547694807e-09
-3.02418187628491e-07
1.94694434542495e-07
3.79205942585031e-09
-3.23328864286856e-07
1.10446973092802e-07
1.7373693277524e-08
2.47009660242077e-08
1.42428237484547e-07
-2.40823482961167e-07
-5.22091286129511e-09
1.56775257148639e-07
-1.9093660490456e-07
-7.0857791672278e-09
1.56836118257222e-07
-1.06623079353039e-07
-8.80398814431811e-09
1.34653121090641e-07
2.3383004661352e-08
-1.14054102252041e-08
6.02288974461382e-08
2.5463700821207e-07
-1.50215108296611e-08
-1.85202476326112e-07
6.70011765112854e-07
-7.62250503156768e-09
-1.84816448939713e-07
4.69589895160148e-08
1.97852737534568e-07
-2.29332841017824e-07
2.94414890770104e-08
2.62162264411354e-07
-2.4114704108299e-07
1.91557091386949e-08
3.01265874779944e-07
-6.00329199114202e-08
9.472936353645e-08