/*--------------------------------*- C++ -*----------------------------------*\
  =========                 |
  \\      /  F ield         | OpenFOAM: The Open Source CFD Toolbox
   \\    /   O peration     | Website:  https://openfoam.org
    \\  /    A nd           | Version:  12
     \\/     M anipulation  |
\*---------------------------------------------------------------------------*/
/*   Windows 32 and 64 bit porting by blueCAPE: http://www.bluecape.com.pt   *\
|  Based on Windows porting (2.0.x v4) by Symscape: http://www.symscape.com   |
\*---------------------------------------------------------------------------*/
FoamFile
{
    format      ascii;
    class       volVectorField;
    location    "800";
    object      U;
}
// * * * * * * * * * * * * * * * * * * * * * * * * * * * * * * * * * * * * * //

dimensions      [0 1 -1 0 0 0 0];

internalField   nonuniform List<vector> 
10228
(
(2.12489495559453e-09 -7.46310724597336e-06 8.18509752470401e-06)
(2.33445939874576e-07 -8.77404637589682e-06 9.34743487296391e-06)
(2.09051209296108e-07 -8.69250972171876e-06 2.8149637220158e-05)
(1.45020398451169e-08 -2.70207915646313e-05 1.05047649651591e-05)
(3.48850683839474e-07 -3.23084715437403e-05 1.25721731539169e-05)
(6.10452214930168e-07 -9.36116952003672e-06 9.86405526902662e-06)
(1.02185403345449e-06 -1.08633199257784e-05 3.2661612124386e-05)
(-3.38047657750012e-07 -7.63068551305841e-06 4.52085781183839e-05)
(1.27059177096373e-07 -3.14543110715495e-05 3.60214213354013e-05)
(4.5803862242503e-07 -4.74534664480463e-05 1.09924340888938e-05)
(1.6382698765342e-06 -3.82094886301692e-05 4.20022104947073e-05)
(1.23278113642772e-06 -3.32712947104477e-05 1.33072142853247e-05)
(6.01315211094146e-07 -5.60776867453078e-05 1.29391442875762e-05)
(8.94149109613529e-07 -9.32170165511801e-06 9.80985980959778e-06)
(1.75780984109296e-06 -1.17119688855034e-05 3.32560303644839e-05)
(1.02767793901419e-06 -1.01385835443425e-05 5.22034181222396e-05)
(-5.63795337567221e-07 -4.63660753391205e-06 5.38929407835454e-05)
(-4.21456635668527e-07 -2.16508666474099e-05 5.23907138922209e-05)
(2.42894181901859e-07 -5.11062860253357e-05 3.01936251557658e-05)
(6.75172011985107e-07 -6.36621387789462e-05 8.02840507837101e-06)
(2.19519422416322e-06 -6.11960888504444e-05 3.57146495483047e-05)
(1.85952898164842e-06 -2.75872595491104e-05 6.152648322213e-05)
(3.64124105838211e-06 -3.89664664332991e-05 4.28336405260103e-05)
(2.32534063187504e-06 -3.36446593778536e-05 1.37477207436379e-05)
(1.84985124457939e-06 -5.71422489045155e-05 1.34645807104071e-05)
(1.2049881131799e-06 -7.58351842559541e-05 9.54575487513553e-06)
(1.23992932768742e-06 -9.55847633841103e-06 1.02125021337497e-05)
(2.26360222166124e-06 -1.20746395029649e-05 3.36716705115439e-05)
(1.7912163412488e-06 -1.09135167906459e-05 5.27180221319873e-05)
(6.55442766127816e-07 -7.11380145005637e-06 6.3631740412824e-05)
(-9.26252191689456e-07 -2.98118136303709e-06 5.35720912507796e-05)
(-1.11893231265981e-06 -5.89855813817008e-06 5.00215913687542e-05)
(-1.36792139880688e-07 -2.30688276521062e-05 3.01193413542199e-05)
(8.17335877086154e-07 -5.72916351368962e-05 1.43024355118882e-05)
(1.14021668811698e-06 -7.16701658377719e-05 5.05084099183354e-06)
(2.58313970962192e-06 -2.90467567573505e-05 3.54912952791238e-05)
(4.98724040714351e-06 -6.07020265168487e-05 3.58022285332325e-05)
(2.89389929471444e-06 -6.82150353158092e-05 1.7678499957735e-05)
(4.01126436053336e-06 -2.76480845092241e-05 6.11744259732965e-05)
(1.35685099034619e-06 -1.03915789201389e-05 6.02714022052844e-05)
(5.51532883250722e-06 -3.89418493479718e-05 4.32649864107338e-05)
(3.34589047068809e-06 -3.34567713797917e-05 1.40131562859648e-05)
(3.74086486722468e-06 -5.75052041363067e-05 1.40746074042386e-05)
(3.3612099314559e-06 -7.68029023048632e-05 1.01469072090822e-05)
(2.43530410071111e-06 -8.58988559120009e-05 6.21167669989606e-06)
(1.2547133418074e-06 -9.0047045989769e-06 9.93534781139975e-06)
(2.82813111909066e-06 -1.1947289624604e-05 3.37881788833875e-05)
(2.15573066430685e-06 -1.13501693492454e-05 5.3005710788122e-05)
(1.09215882396299e-06 -8.36060150707855e-06 6.38746821930125e-05)
(-6.19139033280238e-07 -5.01720688603235e-06 6.52494112522885e-05)
(-1.04922811442435e-06 -1.43777247078294e-06 4.48271292291318e-05)
(-1.51254692920243e-06 9.30123029290068e-06 3.03530857219087e-05)
(-3.89873296716317e-07 1.16289074176803e-05 6.49313720272399e-06)
(4.91919682413715e-07 -5.34999472003271e-06 -5.97886161221924e-06)
(1.3928849034998e-06 -4.60494219741226e-05 -5.52346821231255e-06)
(1.46764738512689e-06 -6.91710418012759e-05 3.06936495314697e-06)
(5.63678067776924e-06 -2.65474724662774e-05 3.32417173858923e-05)
(2.3910505270732e-06 9.50213867421034e-06 9.16000436766501e-06)
(3.08084239719971e-06 -7.6800748327417e-06 -5.72661475953751e-06)
(6.49906627277438e-06 -6.57604054562003e-05 1.6300710573555e-05)
(8.21633947641702e-06 -5.96205070063917e-05 3.60456461886988e-05)
(3.73998211267897e-06 -5.577093409798e-05 -4.60321211209926e-06)
(5.69808634915683e-06 -2.71608946331591e-05 6.0718816412874e-05)
(3.19310107586703e-06 -1.00265347878285e-05 5.84592116147822e-05)
(2.79778345382088e-08 6.17964235695146e-06 4.07309800732141e-05)
(7.40998765594939e-06 -3.80715905397729e-05 4.34536103354201e-05)
(3.79231234237108e-06 -3.24425599514031e-05 1.40554490862884e-05)
(5.43640970945198e-06 -5.6686069631307e-05 1.44436284302893e-05)
(6.23648194751497e-06 -7.71406567124284e-05 1.09985001263614e-05)
(5.25519551190684e-06 -8.70037146934174e-05 7.33460132984099e-06)
(3.69057095444162e-06 -8.52923520846991e-05 4.45048691294256e-06)
(1.158298233603e-06 -8.80655342576612e-06 1.02586755721988e-05)
(3.50254852220307e-06 -1.11813361638749e-05 3.31956661435492e-05)
(2.45294834520754e-06 -1.12009025756915e-05 5.26562257596533e-05)
(1.01010303193752e-06 -9.22612072505006e-06 6.40743086557244e-05)
(-4.02908085978388e-07 -6.55010657969124e-06 6.54589698543029e-05)
(-1.56080837836091e-06 -3.52772716402025e-06 5.90168110753617e-05)
(-7.14579924445539e-07 2.27006048837407e-07 3.07911814402589e-05)
(-1.4889411199822e-06 2.09353254883111e-05 -2.90199782578947e-07)
(-5.09919922647308e-07 3.67023723665682e-05 -2.57948120092078e-05)
(3.69193918505823e-07 3.65181108311648e-05 -3.52162124485308e-05)
(8.65231643079807e-07 1.9991619418331e-05 -3.57755408069409e-05)
(1.63998297629431e-06 -2.22856669193581e-05 -2.2363526357504e-05)
(1.42389785660424e-06 -5.81055691885752e-05 3.67577660765947e-07)
(5.12741913793838e-06 1.28232357056437e-05 4.62332228546258e-06)
(6.41772485978457e-06 -2.13336031771128e-06 -9.95755403906147e-06)
(8.78182354009125e-06 -2.40857096468272e-05 3.19254913776462e-05)
(2.8151556765772e-06 3.84570413956437e-05 -3.82251844806942e-05)
(1.55641731576681e-06 3.63783872323677e-05 -2.54679207287833e-05)
(3.25704149494102e-06 2.10510142522171e-05 -3.79943112451696e-05)
(7.65111267323076e-06 -5.14628845031968e-05 -6.70042141847593e-06)
(1.11358179896126e-05 -6.33628278177767e-05 1.60358011150503e-05)
(1.15204849183573e-05 -5.80450467762344e-05 3.6866044528942e-05)
(4.41167738313331e-06 -3.03953720221818e-05 -2.22651817563097e-05)
(7.27163845051514e-06 -2.62414206505795e-05 6.0153738322043e-05)
(4.31616820039305e-06 -9.47282552678182e-06 5.68441577228147e-05)
(1.38493594005603e-06 6.42117068522914e-06 3.78439069500978e-05)
(-1.10359889598185e-06 1.85685466092807e-05 9.7472282423827e-06)
(9.68332388005349e-06 -3.6169787578008e-05 4.30052436637946e-05)
(4.13022950955973e-06 -3.24472695775059e-05 1.56377800557488e-05)
(5.69094726633734e-06 -5.46428579641881e-05 1.44783597366016e-05)
(8.81029080427684e-06 -7.58915674893685e-05 1.16257826355227e-05)
(9.07325967725838e-06 -8.77850205359785e-05 8.27371699612021e-06)
(6.94514637007057e-06 -8.64266572465968e-05 5.26345738425831e-06)
(4.55231478722562e-06 -7.51976175967142e-05 1.58934291806943e-06)
(1.92048459691446e-07 -7.67579490291157e-06 9.86450028754502e-06)
(4.13845074174714e-06 -9.52444001974861e-06 3.19663768026238e-05)
(2.75144481808156e-06 -1.05102367156217e-05 5.1223563628579e-05)
(7.25945561641875e-07 -9.42368290482729e-06 6.33799863605182e-05)
(-8.17394724688687e-07 -7.90814508632523e-06 6.57097202003142e-05)
(-1.96512060821856e-06 -4.75994324950525e-06 5.91463161936085e-05)
(-2.42228161723648e-06 -1.72102122995613e-06 4.67311191448858e-05)
(-7.68204605784269e-07 1.25478376651371e-06 1.36032944206897e-05)
(-1.23154956621426e-06 2.83312180003473e-05 -3.65212687303352e-05)
(-4.15901708422238e-07 5.24755994144551e-05 -6.08777861469828e-05)
(2.80984678935809e-07 6.19813890987543e-05 -6.41155474440837e-05)
(5.71548155209407e-07 5.99648619755769e-05 -6.32837312833518e-05)
(9.2251665040645e-07 4.79062933349613e-05 -5.62423765559503e-05)
(1.59044769703013e-06 9.09166893577783e-06 -3.42464271635107e-05)
(1.55442380686133e-06 -4.09369224586355e-05 -2.49666800114482e-06)
(3.74842947043851e-06 3.94187445745334e-05 -3.15138607012246e-05)
(7.47004294588742e-06 1.56585640328998e-05 1.68200918216009e-06)
(5.54549146662807e-06 4.45350064683604e-05 -4.45693163168776e-05)
(6.35973382480926e-06 2.8631562240929e-05 -4.27669701009293e-05)
(1.03649481284993e-05 2.25491641395108e-06 -1.23363068044525e-05)
(1.19327262527585e-05 -2.28888293418255e-05 3.26760619714409e-05)
(2.20872615960325e-06 6.46385351400039e-05 -6.88706530118768e-05)
(2.66667021741895e-06 6.43667285499404e-05 -6.76060971284209e-05)
(7.72792712805385e-07 5.2662746713474e-05 -6.22254175330573e-05)
(3.21554886549224e-06 5.10976354589842e-05 -5.89750931602445e-05)
(8.3113701535108e-06 -2.45666026603968e-05 -2.45434256972328e-05)
(1.31883668006273e-05 -4.81467660203604e-05 -7.64415427116252e-06)
(1.59464533167133e-05 -6.16443414799447e-05 1.75473319334178e-05)
(1.43935614120058e-05 -5.5338007035699e-05 3.81355740719041e-05)
(4.77859220448275e-06 2.43604801894727e-06 -3.4604330774572e-05)
(8.82813108644037e-06 -2.48816804435234e-05 5.93656188561009e-05)
(5.15767410697327e-06 -9.06794237109989e-06 5.55773731412944e-05)
(1.78803399642106e-06 6.77807178687953e-06 3.54470226243107e-05)
(-6.15466140539845e-07 1.85380351644903e-05 6.28413717698561e-06)
(-1.91456184640417e-06 2.65771554295704e-05 -2.71227516005445e-05)
(1.49289283796775e-05 -3.27002262996668e-05 4.20150880235686e-05)
(1.45923781813618e-06 -3.10423476421834e-05 1.74312515948809e-05)
(2.49632696429855e-06 -5.29914691432643e-05 1.66352217680732e-05)
(9.62248336608545e-06 -7.30801730017239e-05 1.16675699328609e-05)
(1.27682546483679e-05 -8.71188652159243e-05 9.03804096278749e-06)
(1.11349885272062e-05 -8.77384494723739e-05 5.64675913706616e-06)
(7.97836233766613e-06 -7.59953516360636e-05 1.99354094402331e-06)
(5.12220366094796e-06 -5.84950653260603e-05 -1.5718109156328e-06)
(-3.91959627456385e-07 -5.92260189415775e-06 7.73296641022087e-06)
(1.66299430551262e-06 -5.43242254207605e-06 2.92851786175929e-05)
(2.88446309748761e-06 -9.39053312263964e-06 4.82325154408729e-05)
(1.77995604554149e-07 -8.78446293246424e-06 6.13966915331615e-05)
(-1.76258632712814e-06 -8.39291422071391e-06 6.4892593162883e-05)
(-2.96723576982672e-06 -5.72642795600808e-06 5.93691195978043e-05)
(-3.58004203222298e-06 -2.57116971486014e-06 4.684729329963e-05)
(-3.0236037083589e-06 -2.62095860207737e-07 3.06774586218055e-05)
(-8.45970187400424e-07 2.09690395810948e-06 -5.3820663132668e-06)
(-1.0964335407927e-06 3.26957424806561e-05 -7.43595670101229e-05)
(-2.77639145948482e-07 6.14864526549476e-05 -9.62383845038341e-05)
(2.85389795714899e-07 7.75967635642176e-05 -9.29924651236397e-05)
(4.43165010043149e-07 8.39552198543956e-05 -8.8675331266975e-05)
(5.42585495016099e-07 8.33990938373111e-05 -8.26647239072434e-05)
(8.74148128418023e-07 7.67927646632632e-05 -6.9444172796096e-05)
(1.55410366039205e-06 4.43057638479981e-05 -4.21641670780139e-05)
(1.69837990883749e-06 -1.97845268711982e-05 -5.02190173128798e-06)
(4.41640836307154e-06 6.98000769764909e-05 -7.62367405837683e-05)
(2.27128324546611e-06 5.51001347568923e-05 -6.9112754658304e-05)
(5.38248387539655e-06 4.2004930853492e-05 -3.56889878384048e-05)
(8.40785169543616e-06 4.94196848604308e-05 -4.88166474381094e-05)
(9.84191838724235e-06 1.6573140784352e-05 1.77617969429826e-06)
(5.08949448619633e-06 7.19581896316866e-05 -7.37751540043256e-05)
(5.98909746388856e-06 5.98043974984597e-05 -6.33315715560659e-05)
(1.03995334928765e-05 3.44090229453027e-05 -4.57080491010857e-05)
(1.48963514704557e-05 3.46140870516196e-06 -1.10708697489767e-05)
(1.52749349603805e-05 -2.29163622399249e-05 3.67546440009647e-05)
(2.10808491627096e-06 8.80755635072078e-05 -9.38034133642009e-05)
(1.66001630770031e-06 7.97969554573205e-05 -9.86466721781967e-05)
(2.39102037254028e-06 8.90360929780332e-05 -8.65879271962517e-05)
(1.68770504859411e-07 6.17708945421505e-05 -9.87533367328075e-05)
(3.13554817562867e-06 8.13008576565834e-05 -7.20615986907654e-05)
(1.37586354147741e-05 -2.04273590819329e-05 -2.59652169046252e-05)
(8.54880104050873e-06 9.33602095975611e-06 -3.67550589343021e-05)
(1.92960575560544e-05 -4.70503435620685e-05 -6.27435623914069e-06)
(1.98154363601164e-05 -6.03386272445477e-05 2.18776392701772e-05)
(2.15946681881074e-05 -4.70135601540376e-05 3.79313335246865e-05)
(4.97063406265158e-06 3.90726661547695e-05 -4.27043713848875e-05)
(1.32084618686622e-05 -2.32942439103345e-05 5.77063626164754e-05)
(5.90187659598219e-06 -8.54322233553948e-06 5.52487663655038e-05)
(1.79973155280813e-06 6.92239303373511e-06 3.38816415401995e-05)
(-1.00729493298036e-06 1.87824921752083e-05 3.49174928053516e-06)
(-2.28702654041541e-06 2.65450865180662e-05 -3.09710415859872e-05)
(-2.55054815186961e-06 3.13232373905447e-05 -6.57120570432526e-05)
(6.6883385281058e-06 -1.5220365488117e-05 3.7151190373375e-05)
(-2.43300172464554e-06 -2.19159523476956e-05 1.20194446389717e-05)
(5.99640439151719e-06 -4.8075513036159e-05 1.7789071461569e-05)
(3.05260754384554e-06 -6.99471402504794e-05 1.21585720670918e-05)
(1.44500432335393e-05 -8.49926356098168e-05 9.44014466289747e-06)
(1.53306332054773e-05 -8.82668073213935e-05 6.07885235848124e-06)
(1.22316677756355e-05 -7.75289072406568e-05 1.98844729000569e-06)
(8.62858327834804e-06 -5.85130722591115e-05 -1.52024724980891e-06)
(5.71663112351533e-06 -3.74302642137072e-05 -4.27117696970958e-06)
(-7.37778281711894e-07 -4.78942720135946e-06 2.26699881428744e-05)
(1.02236480726533e-06 -6.62561897625517e-06 4.31324812820749e-05)
(-5.23077498276835e-07 -7.60716567223001e-06 5.78486950876612e-05)
(-3.03381738636543e-06 -7.83010201035392e-06 6.26625461772852e-05)
(-4.43777731690856e-06 -6.05325857148178e-06 5.84753822012165e-05)
(-5.02120919064734e-06 -3.15519408300535e-06 4.71761652724426e-05)
(-4.84618541754899e-06 -7.9728974801715e-07 3.09354187986595e-05)
(-3.50371562386694e-06 8.72551395876768e-07 1.25956987710126e-05)
(-1.05367517736519e-06 2.62597667133632e-06 -2.50410641305743e-05)
(-1.07840583567597e-06 3.4884586180589e-05 -0.000111819823523001)
(-2.22230161601406e-07 6.59041771854962e-05 -0.000130420640347564)
(3.05679926503187e-07 8.64276398273372e-05 -0.000121271027604571)
(4.00821565683909e-07 9.9146150134456e-05 -0.000113129222325406)
(4.05299314643088e-07 0.000104886497429723 -0.000106372776783464)
(4.80130660517641e-07 0.000106680687759998 -9.55046672622693e-05)
(8.17357615832439e-07 0.000105980815337961 -7.72908760646957e-05)
(1.52778839234197e-06 8.09591587152146e-05 -4.68485034453431e-05)
(1.88258309110186e-06 3.93715784191097e-06 -6.86379121747166e-06)
(4.04573594062688e-06 9.42294244161842e-05 -0.000100429859190315)
(3.36544739629695e-06 8.37221004789934e-05 -0.000106394164971101)
(6.61070157291286e-06 7.4043700254902e-05 -8.15242246478279e-05)
(9.72749806660787e-07 6.36659803934694e-05 -0.000106175203197345)
(3.25784141662771e-06 5.71995172003831e-05 -7.4066007464686e-05)
(6.93385194866084e-06 4.2907280011315e-05 -3.6622156041218e-05)
(7.86671309878751e-06 7.79754509083289e-05 -7.80700580290165e-05)
(1.16852185527973e-05 5.14714982067425e-05 -4.93489178923068e-05)
(1.30583562971444e-05 1.52526211594184e-05 6.73518901694722e-06)
(4.43223249042721e-06 9.72686380795688e-05 -9.17975668447933e-05)
(5.61174061460725e-06 9.06135293108033e-05 -7.5881036586988e-05)
(9.57846669030921e-06 6.6514670452492e-05 -6.63747862184602e-05)
(1.52960602431223e-05 3.65196663918429e-05 -4.54480078219836e-05)
(2.04092544520308e-05 8.04022394746811e-07 -3.80137139965489e-06)
(2.44305606673765e-05 -2.4889621278348e-05 4.61999374161475e-05)
(1.83356084556872e-06 0.000109633715120747 -0.000110563585358145)
(1.64259198668629e-06 0.000102169153292152 -0.000118501928945578)
(1.21359542721474e-06 8.80799366806463e-05 -0.000127375065008049)
(2.1641117129691e-06 0.000112868684175023 -9.88081552682484e-05)
(-3.341633209123e-07 6.61636340069482e-05 -0.000133874722117373)
(3.05081990339601e-06 0.000111381963304147 -7.97748408102652e-05)
(2.00030521775261e-05 -1.95404229786986e-05 -2.55532275987893e-05)
(1.34115522775321e-05 1.41749659716696e-05 -3.83844038410306e-05)
(8.5079150420423e-06 4.68410741657366e-05 -4.47592757700727e-05)
(2.34105733208168e-05 -4.79067389693645e-05 -1.20531188025371e-06)
(1.5991411790783e-05 -5.53516137796554e-05 2.84222603722588e-05)
(5.06702409476582e-06 7.69886561515677e-05 -4.75568097473123e-05)
(7.70962173677131e-06 -1.55545777812062e-05 5.1855703543212e-05)
(6.25296496144601e-06 -8.67797480571149e-06 5.67894806941604e-05)
(1.48448694916252e-06 6.7436455561174e-06 3.38372617571431e-05)
(-1.94643305923445e-06 1.87004268480671e-05 1.69799306710683e-06)
(-3.52183916069882e-06 2.67694271906672e-05 -3.39756503837749e-05)
(-3.61930040938617e-06 3.13368952020204e-05 -7.00113080570659e-05)
(-3.11202131311677e-06 3.37446963271708e-05 -0.000103815813400592)
(-4.44002591225379e-06 -1.69715535504541e-05 2.98327618490907e-05)
(-7.59280995391702e-06 -3.10715845678001e-05 1.36327640957448e-05)
(-1.05104400932255e-06 -5.87775232135279e-05 4.92754854895736e-06)
(1.10066381256216e-05 -8.22352037538996e-05 8.18082861128533e-06)
(1.74312956259769e-05 -8.74732973379311e-05 6.90489374565846e-06)
(1.6614726804972e-05 -7.88458094566139e-05 2.15229423099448e-06)
(1.27949074843565e-05 -5.96825154123677e-05 -1.70987657302787e-06)
(9.25111950728029e-06 -3.65768454820563e-05 -4.50051710980265e-06)
(6.09277927784183e-06 -1.35814354564068e-05 -6.20204991982857e-06)
(-3.09339240240335e-07 -5.96023529531794e-06 3.43996477683253e-05)
(-1.18760577833444e-06 -6.06444089971415e-06 5.32625569397703e-05)
(-4.01855031618403e-06 -6.57386325524389e-06 5.9520469793535e-05)
(-6.13445766946992e-06 -5.76190958029343e-06 5.63005673916673e-05)
(-6.92603658167502e-06 -3.43597261138191e-06 4.64278043298009e-05)
(-6.8432902191581e-06 -8.40925578303423e-07 3.14678288026088e-05)
(-5.72047090459792e-06 4.93194985933918e-07 1.29015782788716e-05)
(-3.85171125422316e-06 1.59670818157319e-06 -6.33929268642518e-06)
(-1.23901662434042e-06 3.04197043000661e-06 -4.46868390644118e-05)
(-1.18991435277934e-06 3.56002159775631e-05 -0.000147688152635086)
(-2.62056382356187e-07 6.72151868522612e-05 -0.000162814182380466)
(2.81373030066454e-07 9.04096891037208e-05 -0.000148424175912906)
(3.8593672212126e-07 0.000107854772380829 -0.000136639748983732)
(3.43445820915358e-07 0.000118870004735603 -0.000128239652519991)
(3.42354132697003e-07 0.000124932298655476 -0.00011844984061069)
(4.24275785225137e-07 0.000129771402904713 -0.000103103099712217)
(7.74894327577142e-07 0.000134932139355037 -8.12255303210823e-05)
(1.51840021372481e-06 0.000117408561119932 -4.91540659507099e-05)
(2.04093827955611e-06 2.9092796345593e-05 -8.97042671884594e-06)
(3.17137820469653e-06 0.000106706142398318 -0.000125112286062422)
(6.13547353340185e-06 9.92575248425119e-05 -0.000105294390259594)
(3.41672938812474e-06 0.000116148851977658 -0.000115918503858351)
(5.02342484597582e-06 8.69876531063147e-05 -0.000112193159011584)
(2.41638559828694e-06 9.10067103165428e-05 -0.000135267230229042)
(9.00584091043499e-06 7.62219530644552e-05 -8.35558932099753e-05)
(-1.20188411318029e-07 6.76570177611806e-05 -0.000141753661290622)
(1.3795833805619e-06 6.52890038999138e-05 -0.000111679648122827)
(4.05150909275319e-06 5.78672464299124e-05 -7.60097364254992e-05)
(8.92853197961692e-06 4.15635248804124e-05 -3.28387178503499e-05)
(6.76304227488949e-06 0.000103891193370942 -9.55942597201957e-05)
(1.10658164483583e-05 8.11922625695744e-05 -7.94435797206725e-05)
(1.60818350532343e-05 5.01873322205307e-05 -4.47590691746219e-05)
(1.61524468100999e-05 9.12307713683008e-06 2.08568221584936e-05)
(3.90198674037887e-06 0.000121317089608583 -0.000103135794381718)
(5.30140603731341e-06 0.000121073269328101 -8.31998840450625e-05)
(8.67024428924875e-06 9.79076524306839e-05 -7.8795689180306e-05)
(1.3837876486216e-05 6.98013033427589e-05 -6.71955260572921e-05)
(2.08132297327536e-05 3.42083251182069e-05 -4.02423451288878e-05)
(2.89491319542477e-05 -1.03133321894589e-05 1.65542159934886e-05)
(1.88644862562901e-05 -2.15818970551639e-05 4.46596019718013e-05)
(1.39557010884891e-06 0.000122189350965757 -0.000132357268810261)
(1.60714672950829e-06 0.000129885646097619 -0.000121757561149994)
(1.28338780828463e-06 0.000109966682907741 -0.000142025769889584)
(8.10333948401417e-07 9.16642298095853e-05 -0.000154841112149987)
(2.00731696522607e-06 0.000136236902568684 -0.000106021326434042)
(-7.91815877873617e-07 6.74222868568546e-05 -0.000167095127168577)
(2.98142645546953e-06 0.000141036564885069 -8.3655612133257e-05)
(1.90093760595669e-05 1.57039541186031e-05 -3.87636714718255e-05)
(2.44871794598902e-05 -2.09312567530034e-05 -2.25343830312535e-05)
(1.28857255492387e-05 5.23502831112113e-05 -4.64785087828432e-05)
(8.41675266284073e-06 8.55644465766219e-05 -4.95916249868602e-05)
(1.92731267059273e-05 -5.19645340307871e-05 9.55687798194788e-06)
(5.08120026340649e-06 0.000114642759641911 -4.99734897187071e-05)
(-2.49428064844001e-06 -1.56549374813843e-05 4.24513970445804e-05)
(4.14016396755028e-06 -9.90513068598495e-06 5.85806403352186e-05)
(7.03394371190137e-07 4.08345334370634e-06 3.88989664719705e-05)
(-3.09084121509682e-06 1.78014994310225e-05 1.9038350719149e-06)
(-5.29098818191806e-06 2.65834546154678e-05 -3.60494344219707e-05)
(-5.5475128724172e-06 3.16548618435755e-05 -7.34304939018846e-05)
(-4.86588459952533e-06 3.37644448118251e-05 -0.000108575085185289)
(-3.59321220309463e-06 3.4568992374091e-05 -0.000140271341330263)
(-7.54526038323797e-06 -1.82707388098134e-05 2.73627653944925e-05)
(-5.95495581729816e-06 -2.98581802982014e-05 1.3615674191896e-05)
(9.80312008783882e-06 -4.12317852974444e-05 9.54593012475613e-06)
(1.30241656325945e-05 -7.30198284444971e-05 3.82389940610309e-06)
(1.82452194598601e-05 -8.43973625741452e-05 7.36906515756944e-06)
(1.99637067835032e-05 -7.90554068426376e-05 3.0884587833391e-06)
(1.72210073910997e-05 -6.10293804204797e-05 -1.67890670675445e-06)
(1.3322962811222e-05 -3.7077473318662e-05 -4.90160290282807e-06)
(9.69989753654945e-06 -1.17577131953213e-05 -6.61480574086866e-06)
(6.38961369938279e-06 1.18665653924847e-05 -8.39845607921782e-06)
(-3.93508196137552e-07 -5.11564316709173e-06 4.45226272040103e-05)
(-3.45563653073651e-06 -5.44433857357115e-06 5.71597732878607e-05)
(-7.16880811580227e-06 -5.00599016293842e-06 5.40002161470395e-05)
(-8.83206473565462e-06 -3.39596915801327e-06 4.45099763419983e-05)
(-8.98529173965447e-06 -9.70976040811534e-07 3.09326950419937e-05)
(-8.16720446749125e-06 5.1156741960734e-07 1.36315094796209e-05)
(-6.39422788740358e-06 1.35364532861298e-06 -6.16696276483713e-06)
(-4.15852789758404e-06 2.104321651434e-06 -2.54123229164072e-05)
(-1.3998552032352e-06 3.30714882407224e-06 -6.38600563919988e-05)
(-1.29830166524609e-06 3.52404519446555e-05 -0.000181401972566123)
(-3.57941448206415e-07 6.64365371592987e-05 -0.000193143609789297)
(2.04203051849756e-07 9.10038534846638e-05 -0.000174204222053422)
(3.47011551595219e-07 0.000111599873456685 -0.000159055644500523)
(3.11806493481169e-07 0.000126921728305935 -0.00014864145737694)
(2.70095414664753e-07 0.000137060571594509 -0.000138783559969197)
(2.91280063393726e-07 0.000144347135472196 -0.000125578320369119)
(3.95475494893629e-07 0.000152486845672225 -0.000106631636915284)
(7.56503071693304e-07 0.000163154710566276 -8.23603797519424e-05)
(1.51765335090402e-06 0.000152737712491383 -4.97847371254937e-05)
(2.10881800503984e-06 5.48738014384742e-05 -1.14072074100725e-05)
(2.42803127771566e-06 0.000113252914520591 -0.000148495221189105)
(2.62187843169275e-06 0.000126941126216193 -0.000137523538110493)
(4.7959332709091e-06 0.000110464554389233 -0.000130156668743298)
(5.08134141269116e-06 0.00012154186685497 -0.000119918309263027)
(8.4210216987492e-06 0.000102252642881748 -0.000107655854569648)
(2.88712011249416e-06 0.000136460776245238 -0.000126069938366138)
(6.81672711532619e-06 8.87327317547541e-05 -0.000115318115989855)
(3.619319922356e-06 9.34131144869454e-05 -0.000141368798387417)
(1.57814022963846e-06 9.38931750806796e-05 -0.000162854061896178)
(1.22253536723617e-05 7.58795422960913e-05 -8.15421345435671e-05)
(-1.05931114096428e-06 6.86350942874007e-05 -0.000175437347918137)
(-2.12738659284322e-07 6.88821541864392e-05 -0.000147756006457464)
(1.60559458138401e-06 6.56972421623954e-05 -0.000114627119980602)
(5.27876392424732e-06 5.65552743709791e-05 -7.37518094513274e-05)
(1.05418431019644e-05 3.43413207660585e-05 -1.72819818412001e-05)
(9.38520426327555e-06 0.000107999731163307 -9.7387571494208e-05)
(5.82838281144827e-06 0.000128263827600166 -0.000106451383578216)
(1.50252737291921e-05 8.12335295047254e-05 -7.71259502007089e-05)
(2.16162003128808e-05 4.33923859402438e-05 -3.12797006228983e-05)
(1.61327245975278e-05 -4.78026683433592e-06 4.46550171189853e-05)
(3.56161508868332e-06 0.000144769431291943 -0.000109789356514866)
(5.09747188388142e-06 0.000151063503123793 -8.68564041099062e-05)
(7.98005984836068e-06 0.000128743573953712 -8.59810474781789e-05)
(1.21520753103119e-05 0.000102194362584225 -8.0232179961198e-05)
(1.82940304874019e-05 6.95822822472725e-05 -6.51841291451083e-05)
(2.56778384183701e-05 2.45321375117499e-05 -2.50337583031222e-05)
(2.44234894271214e-05 -2.58037063715091e-05 4.16485850769326e-05)
(-6.77157470192013e-06 -1.61395269416845e-05 3.97726417389803e-05)
(1.0580306528196e-06 0.000129158124885057 -0.000152600826702618)
(1.17162283005067e-06 0.000140448336467647 -0.000141881206329636)
(1.44879941118158e-06 0.000149359732681936 -0.000128380199886909)
(9.65592561247372e-07 0.000113144258294936 -0.000164450636031682)
(4.28645023026582e-07 9.19755972612509e-05 -0.000180919533936281)
(1.92072455339566e-06 0.000159165254932595 -0.000109393160970356)
(-1.20289124477803e-06 6.65805171217e-05 -0.000198190023140547)
(2.93895070648084e-06 0.000169915361016088 -8.47865257726078e-05)
(1.78506898357466e-05 5.47495212143026e-05 -4.73095990436774e-05)
(2.4113965705811e-05 1.47400970855465e-05 -3.75495132777901e-05)
(2.70022115582358e-05 -2.25516423638073e-05 -1.60103738196686e-05)
(1.24269870924867e-05 9.1695340176162e-05 -5.1421426921546e-05)
(8.31419581247524e-06 0.000123986887136343 -5.20011526054046e-05)
(2.48526281941319e-05 -4.33579451654286e-05 2.14095931513517e-05)
(5.06009693269781e-06 0.00015113384156654 -5.07156633640799e-05)
(2.16905229074042e-08 -1.18762859774459e-05 5.23590653901454e-05)
(4.04143378571526e-07 -2.83886152659064e-06 5.08521556117542e-05)
(-3.92377222585107e-06 1.36074921366493e-05 9.63828115134921e-06)
(-6.92525587401832e-06 2.51826233437495e-05 -3.578396674588e-05)
(-7.95742913240861e-06 3.13880488430546e-05 -7.58838330789031e-05)
(-7.25205359839264e-06 3.40284168748624e-05 -0.000112518003800742)
(-5.83751918573667e-06 3.45706403510892e-05 -0.000145516202512203)
(-3.98457463393074e-06 3.42612679688902e-05 -0.000174518106119217)
(-4.65645772951514e-06 -1.8319484404225e-05 2.68136624119862e-05)
(-2.38530793320246e-06 -1.60953233173962e-05 1.19818840380194e-05)
(9.54139131419953e-06 -3.96188800630455e-05 1.36237576094483e-05)
(2.13448458187732e-05 -6.48289131271319e-05 7.31409354649909e-06)
(2.17229222845317e-05 -7.81469454334747e-05 7.95869461663921e-06)
(2.24836011794206e-05 -7.71254964663128e-05 4.26744761568346e-06)
(2.12369733614964e-05 -6.17970283047147e-05 -1.05091521684571e-06)
(1.76454818563921e-05 -3.80640494582953e-05 -4.98377451520314e-06)
(1.37691377891908e-05 -1.16000709269412e-05 -7.17659554789397e-06)
(1.00406103469791e-05 1.4695961725386e-05 -9.05192839561272e-06)
(6.47256778284251e-06 3.80152740675121e-05 -1.12512001391824e-05)
(-7.07568631317781e-07 -4.61668295883241e-06 5.15985060401693e-05)
(-5.69086768960382e-06 -4.57395104774761e-06 5.51329337890954e-05)
(-9.63876742448276e-06 -3.19793236671985e-06 4.32729209508593e-05)
(-1.08829815276023e-05 -1.30051079528853e-06 2.93051850082593e-05)
(-1.06139461535728e-05 4.14323779809728e-07 1.33307134401849e-05)
(-9.18646972759596e-06 1.37148280311804e-06 -5.46305916288924e-06)
(-6.90995942160612e-06 1.9456460197881e-06 -2.54129054524525e-05)
(-4.41998668325555e-06 2.44544689059318e-06 -4.40599293475416e-05)
(-1.52794331317495e-06 3.48266495739608e-06 -8.22129931503104e-05)
(-1.39081962566984e-06 3.41010279757586e-05 -0.000212693502812356)
(-4.68115649234748e-07 6.42129613787013e-05 -0.00022134112832829)
(9.79668101213794e-08 8.92258588518492e-05 -0.000198522317421377)
(2.66553596268226e-07 0.000111710500056935 -0.000180352791214658)
(2.75905857923701e-07 0.000130159688342616 -0.000167767248965009)
(2.26237576876836e-07 0.000143974741257597 -0.000157114447101304)
(2.13920475609196e-07 0.000154150839603307 -0.000144920543120244)
(2.67803710178062e-07 0.000163165380349187 -0.000128644501164127)
(3.93298428341008e-07 0.000174604261263098 -0.000107129042905926)
(7.51299693156654e-07 0.000190309352828126 -8.15348231366816e-05)
(1.4962809609494e-06 0.000186409666705281 -4.93747312341187e-05)
(2.1317464421328e-06 8.06668977473075e-05 -1.28995527688269e-05)
(3.67283327357843e-06 0.000115959461047082 -0.000153598622140202)
(1.97226238538498e-06 0.000132578841598708 -0.000157529109301267)
(1.79536866729528e-06 0.000115593236266044 -0.000170840057083797)
(2.11343163152028e-06 0.000145225176390455 -0.000145952915356181)