/*--------------------------------*- C++ -*----------------------------------*\
  =========                 |
  \\      /  F ield         | OpenFOAM: The Open Source CFD Toolbox
   \\    /   O peration     | Website:  https://openfoam.org
    \\  /    A nd           | Version:  12
     \\/     M anipulation  |
\*---------------------------------------------------------------------------*/
/*   Windows 32 and 64 bit porting by blueCAPE: http://www.bluecape.com.pt   *\
|  Based on Windows porting (2.0.x v4) by Symscape: http://www.symscape.com   |
\*---------------------------------------------------------------------------*/
FoamFile
{
    format      ascii;
    class       volScalarField;
    location    "200";
    object      k;
}
// * * * * * * * * * * * * * * * * * * * * * * * * * * * * * * * * * * * * * //

dimensions      [0 2 -2 0 0 0 0];

internalField   nonuniform List<scalar> 
10068
(
0.000239801727915838
0.000239703949028897
0.000678656261147917
0.000240508268732951
0.000239570406355714
0.000678377361046591
0.000240414245893554
0.000995364982714532
0.000678867905516672
0.000241490502338929
0.000239386594160922
0.000677963529876482
0.000240282480760336
0.000994931479733713
0.000678603020044405
0.000241397502352977
0.00125033305584764
0.000994638870533556
0.00067772505475051
0.000239984765711439
0.000239139008672724
0.000677403105893151
0.000240098953238985
0.000994277126837542
0.000678191079643193
0.000241266741887304
0.00124976204587883
0.000994226498583851
0.000677469939011338
0.000239892546375223
0.00147050467983089
0.00124885082900702
0.000989796816615322
0.000671822541583188
0.000235176801715362
0.000238814434587238
0.000676663890877637
0.000239850508475419
0.000993398575495812
0.00067763093375385
0.000241082742960703
0.00124890051707239
0.000993576863078846
0.000677059092223523
0.000239762884366197
0.0014698114132035
0.00124830778420489
0.000989399522899673
0.000671572072873726
0.000235084976231162
0.00166697186329463
0.00146799541606355
0.00124106607408061
0.000978641564772191
0.000659139010784695
0.000227927761055479
0.000238399229979508
0.000675707606881834
0.000239524892840217
0.000992258310468596
0.000676890163761196
0.000240832460708649
0.00124775460875871
0.000992700665410046
0.000676497738749521
0.000239579761186205
0.00146876779135531
0.00124745457092558
0.000988755995222161
0.00067116364569006
0.000234957028674321
0.00166616897302551
0.00146733570045024
0.00124054401720395
0.000978252056285134
0.000658892981146182
0.000227836838598351
0.00184524246589423
0.00166322211404089
0.00145752852369829
0.00122530707194723
0.000959660772873994
0.000640310143939589
0.000219286131395205
0.000237877215297008
0.00067449579178356
0.000239108344037724
0.00099080821783044
0.000675933110196794
0.000240504016047
0.00124628015207195
0.000991561485352946
0.000675754579347041
0.000239329277734105
0.00146738648336479
0.00124631156939739
0.000987882409458714
0.000670604126015612
0.000234776152969382
0.00166496278335535
0.00146630306442181
0.0012397016363349
0.000977614885676731
0.000658489263812164
0.000227711032589404
0.00184434101390536
0.00166245793464029
0.0014568949506834
0.00122479610903243
0.00095927651753601
0.00064006854349014
0.000219196560324336
0.00200860009211418
0.00184043400992509
0.00165015322955381
0.001437637565949
0.00120074689605372
0.000933213014197949
0.000616964037102745
0.000209668691127456
0.00023722905848607
0.000672979604110821
0.000238583739561877
0.000988987151057838
0.000674719780834327
0.000240083636042807
0.00124441706954193
0.000990110796491397
0.000674794065894463
0.000238999876594782
0.00146561823846175
0.00124483849525941
0.000986743894335842
0.00066986127196937
0.000234527755971782
0.00166337060520466
0.00146492613073283
0.00123856393433742
0.00097674617404406
0.000657934880617479
0.000227533084815631
0.00184298857337771
0.0016612651901814
0.00145587709911629
0.00122396433721588
0.000958647096227152
0.000639671181876109
0.00021907309493982
0.00200761038200421
0.00183957599100186
0.00164941986296547
0.00143701833584908
0.00120024284010335
0.000932834203605161
0.000616727318317536
0.000209580645561606
0.00215928483951395
0.00200308603607194
0.00182514778559572
0.00162652372542876
0.00140801626645789
0.00116790156510379
0.000900513448389299
0.000590124896838467
0.000199063914500338
0.00023643137075616
0.000671106135354713
0.000237933865927889
0.000986726702133859
0.000673202529927354
0.000239553805097982
0.00124209219879832
0.000988289512962211
0.000673575885027301
0.000238578001458075
0.00146339463881877
0.00124297647167413
0.000985292523434404
0.000668900255106744
0.000234200620487447
0.00166133987545823
0.00146316092896887
0.00123709392126083
0.000975611725319745
0.000657197449526975
0.000227288476770467
0.00184120654710411
0.00165967934054176
0.00145450830757364
0.00122283519199515
0.000957787469156365
0.00063912531114117
0.000218898438346434
0.00200612613263893
0.00183823920442998
0.00164824545970889
0.00143601504154867
0.0011994223399361
0.000932214959573001
0.000616337604022486
0.00020945922283036
0.00215821631442588
0.00200214379659465
0.00182432480364089
0.00162580787308097
0.0014074060660825
0.00116740445414937
0.000900141147383738
0.000589894094155762
0.000198977462512352
0.00229881697138442
0.00215333799236242
0.00198612912738186
0.00179836683156286
0.0015923964582034
0.00136945535598984
0.00112777463144684
0.000862434967316938
0.000560108317602331
0.000187830161019984
0.000235459374180013
0.000668808522218699
0.000237133086478692
0.000983943928228258
0.000671325758263089
0.000238898375833789
0.00123921946057478
0.000986028454091956
0.000672052485800879
0.000238047656870722
0.0014606315484937
0.00124065296982739
0.000983470261022772
0.000667680939059647
0.000233782404375644
0.00165879436741003
0.00146094029950567
0.00123523419727472
0.000974164441434983
0.000656242717409024
0.000226967127729526
0.0018389385762893
0.00165765337406404
0.00145274889200032
0.00122137306733327
0.000956663835913642
0.000638398599654078
0.000218659505905505
0.00200417198634304
0.00183646496851947
0.00164667065755341
0.00143465854296674
0.00119830639284082
0.000931369501830258
0.000615802518922413
0.000209289436979343
0.00215661285380481
0.00200067689540928
0.00182300942385667
0.001624651643311
0.00140641760016443
0.00116659769076029
0.000899535007852112
0.000589513064435789
0.000198858651159666
0.00229767823316626
0.00215232036529172
0.00198522558123298
0.00179756432801145
0.00159169194480723
0.0013688540542847
0.00112728600038459
0.000862070875057714
0.00055988755534823
0.000187745973431558
0.0024281506628852
0.00229257994712774
0.0021351540695143
0.00195683950064847
0.00176039297110929
0.00154877567572647
0.00132291566590551
0.00108105522950849
0.000819346063302877
0.000527172202805615
0.000184667619438362
0.000234285370336756
0.000666015830251192
0.000236157727333917
0.000980548261960505
0.000669024755849113
0.000238089179918639
0.00123569771468954
0.000983246373601036
0.000670168667320321
0.000237389851423441
0.00145722791464476
0.00123778182003163
0.000981208302524428
0.000666157528135151
0.000233257323450001
0.00165563992330091
0.00145818050274274
0.00123291321479024
0.000972347315322452
0.000655033515453871
0.000226557240607068
0.00183610234554574
0.00165511292192217
0.00145053362208104
0.00121952184840818
0.000955230030073105
0.000637459980580226
0.00021834676067742
0.00200168871141849
0.00183420332750229
0.00164465323311168
0.00143291086391897
0.00119685982002528
0.000930264653399404
0.000615093652746287
0.000209060115038501
0.00215450246718062
0.00199873166497079
0.00182124861074227
0.00162309263864227
0.00140507840079497
0.0011655006018005
0.000898709000735326
0.000588993859950924
0.000198701281558199
0.00229596701026149
0.00215073566721574
0.00198378252519069
0.00179627024396504
0.00159055391160449
0.00136788283350129
0.00112649652099887
0.000861481431012617
0.00055951842666636
0.000187639484279098
0.00242694942993609
0.002291495035587
0.00213417823290992
0.0019559590223545
0.00175960404410423
0.00154808218457603
0.00132232509978739
0.00108057719265208
0.000818993141843484
0.000526962540271737
0.00018457975247821
0.00254784098055595
0.00242168168546035
0.002273442142154
0.00210386546448383
0.00191565687931889
0.00171237453762338
0.00149663248530249
0.00126898765698495
0.00102807548790922
0.000771402185882298
0.00049224509754426
0.000174590534597694
0.000232878812760391
0.0006626487361731
0.000234979899329321
0.000976434744029963
0.000666228489580648
0.000237105279434825
0.00123141185678023
0.000979851126383817
0.000667860675248466
0.000236579825291363
0.00145306638914343
0.00123426231061964
0.000978426227563842
0.000664275539853095
0.000232605963531232
0.00165176368798209
0.00145478112700851
0.00123004546857719
0.000970092394710431
0.000653524435795139
0.000226043114060223
0.00183259455037777
0.00165196440763494
0.0014477798323927
0.00121721120545716
0.000953430201470031
0.000636272938995937
0.000217948033753287
0.00199858762523899
0.00183137368433113
0.00164212117274016
0.00143070840906819
0.00119502760620531
0.000928855212353859
0.000614179850352051
0.000208759029154758
0.00215182227107087
0.00199625548003924
0.0018189977448854
0.0016210905398757
0.00140335087557442
0.00116407846134599
0.000897630759724823
0.000588309672061399
0.000198503247179976
0.00229371370775335
0.00214863469892317
0.00198185241877134
0.00179452812338628
0.00158901601068884
0.00136656694172304
0.00112542442742752
0.000860680641688456
0.000559019794124826
0.000187545474068146
0.00242514062394759
0.00228980364262013
0.00213261930946361
0.00195453979627165
0.00175833114887121
0.00154696474168023
0.00132137502461098
0.00107980924854707
0.000818425013426239
0.000526609669467092
0.000184517330164194
0.00254658415704564
0.00242053682743049
0.0022724016455159
0.0021029148883123
0.00191479195547867
0.00171159868963153
0.00149595203338568
0.00126841025767807
0.00102761085585651
0.000771062554654083
0.000492038033535348
0.000174479873426457
0.00265821036763408
0.00254116153577759
0.00240174097931174
0.00224049772974865
0.0020599838684499
0.00186384162611581
0.00165532716993248
0.00143651546394457
0.00120797016882375
0.000969010336084608
0.000718666919312361
0.000452182423212678
0.000150893766256554
0.000231205629250257
0.000658620056270826
0.000233568615242099
0.000971487332960217
0.000662857639221101
0.000235917757642235
0.00122623165789149
0.000975738307964282
0.000665057050907554
0.000235595544512706
0.00144801234122092
0.0012299792932959
0.000975031923494689
0.000661971118943534
0.000231806630525843
0.00164703335389165
0.00145062491779949
0.00122653101420846
0.000967320242005929
0.000651661282121051
0.000225406243649227
0.00182829137031579
0.00164809531916203
0.00144438809469947
0.00121435681205324
0.000951197728366458
0.000634792742593646
0.000217448887971768
0.00199475778064482
0.00182787369200072
0.00163898221261619
0.0014279699623337
0.00119274081844511
0.0009270868210012
0.000613024876328889
0.000208374139959879
0.00214847857491225
0.00199316195440576
0.00181617881245282
0.00161857525419474
0.00140117271562713
0.00116227741223059
0.000896256257218397
0.000587429148786871
0.000198223948259166
0.00229085313147252
0.00214596214272126
0.00197938839426467
0.00179229545406476
0.00158703827186005
0.00136486912371962
0.00112403570267895
0.000859636032283416
0.000558353921842968
0.000187391426219698
0.00242275690730456
0.00228756036289948
0.00213053456920702
0.00195263055638648
0.00175661336277282
0.00154545426212127
0.00132008913922828
0.00107876865081016
0.000817652786667749
0.00052611485033784
0.000184628331568012
0.00254468704056219
0.00241874879060279
0.00227073757327976
0.00210138182576342
0.00191339642664476
0.00171034942255438
0.00149485936153456
0.00126748604433858
0.00102686929229554
0.000770517211842204
0.000491695558991204
0.00017434519447974
0.00265690406591251
0.0025399633129975
0.00240064279002184
0.00223948433515917
0.00205905052428901
0.00186299162502923
0.00165456655484482
0.00143585075161617
0.00120740882731444
0.000968561835534503
0.00071833880178927
0.000451978985305336
0.000150785476909886
0.00275947645908867
0.00265133173816849
0.00252050669443471
0.00236736439614951
0.00219429186069235
0.00200486793579783
0.00180248381497313
0.00158980300706289
0.00136870463876061
0.00114006065820015
0.00090396630132747
0.000660551364515045
0.000406344949709974
0.000123570658244493
0.000229230243808373
0.000653834870648068
0.000231889847851055
0.000965579590062303
0.00065882481217989
0.000234495210344169
0.00122001285185607
0.000970792085947989
0.000661678494142101
0.000234408201302087
0.00144191394386656
0.00122480280779729
0.000970921547753696
0.000659173276837041
0.000230834621157829
0.00164129720296336
0.00144557743565277
0.00122225531670532
0.000963939629523591
0.000649381379756679
0.000224625065633101
0.00182304769715486
0.00164337380252666
0.00144024202106003
0.00121086002715915
0.000948454585372644
0.000632966027214978
0.00021683042712483
0.00199006557670444
0.00182358000882578
0.0016351249214173
0.00142459758465616
0.00118991679609271
0.000924894450617134
0.000611584804497847
0.000207893569508408
0.00214435330337676
0.00198934100180111
0.00181269104727848
0.0016154562204481
0.00139846436980171
0.00116003021458785
0.000894532504727249
0.000586314421855841
0.00019786082734435
0.00228728624968024
0.00214262648161705
0.00197630699031287
0.00178949636808744
0.00158455205871272
0.00136272839389581
0.00112227796012803
0.000858306202708812
0.000557513503201966
0.000187157150112316
0.0024197303859798
0.00228470760649431
0.00212787499131345
0.00195018673874552
0.00175440853834946
0.00154351104179759
0.0013184308815953
0.00107742200399236
0.000816639581268436
0.000525346458692149
0.000180467986503969
0.00254218418147831
0.0024163754795825
0.00226851137707319
0.00209931954467185
0.00191151411871291
0.00170866267479802
0.0014933834957349
0.00126623735453211
0.00102586587154124
0.000769763749704323
0.000491150759312189
0.000174232664293287
0.00265492708722667
0.00253808779891139
0.00239888337413373
0.00223784777635221
0.00205754322899315
0.00186162235898022
0.00165334536809851
0.00143478800220715
0.00120651573622632
0.000967850425214904
0.000717814152143718
0.000451656812437484
0.000150642332183046
0.00275812601802274
0.00265008596812072
0.00251935708636617
0.00236629486484587
0.002193297107273
0.00200395111085896
0.00180165102543243
0.00158906059634707
0.00136805877280113
0.00113951852592385
0.000903535474921672
0.000660236979715367
0.000406151220218896
0.000123474551484699
0.00285183120445421
0.0027524099091413
0.00263002786491793
0.0024848543425876
0.00231911066480588
0.00213626894402949
0.00193969465131314
0.0017321724002642
0.00151608088448937
0.00129340724409244
0.00106543006730058
0.000832951760686378
0.000597217163766909
0.000355250687074936
9.55879230971727e-05
0.000226916163845221
0.00064819241989337
0.000229908773642412
0.000958574131537511
0.000654035284175555
0.000232803998528304
0.00121259682151528
0.000964885740382391
0.00065763778253517
0.000232986513951667
0.00143460257194293
0.00121858854235118
0.000965979887928963
0.000655803551948835
0.00022966280986588
0.001634384815037
0.00143948708962177
0.00121708920461294
0.000959847859874267
0.000646615048841956
0.0002236753504193
0.00181669698096442
0.00163764859186271
0.00143520809441375
0.00120660767260958
0.000945111199276423
0.000630731990168725
0.000216072578305109
0.00198435427425464
0.00181834793757851
0.00163041857243918
0.00142047647833315
0.00118645878549117
0.000922201996740707
0.00060980817587337
0.000207296630341998
0.00213930403759327
0.00198465957251854
0.00180841235784519
0.00161162372659678
0.00139512986740295
0.00115725625469479
0.000892396280119798
0.000584924775740999
0.000197399665687017
0.00228288875817579
0.00213851061225766
0.00197249981983923
0.00178603203197814
0.0015814687066789
0.00136006712503935
0.00112008583838195
0.000856638830709324
0.000556453784728942
0.000186792412938173
0.00241595794131544
0.00228114904670128
0.0021245521679237
0.00194712724876691
0.00175164240495194
0.00154106788595912
0.00131634089148452
0.00107571926795302
0.000815360684142322
0.00052454510866693
0.000179973406093961
0.00253900539372282
0.00241335711283239
0.0022656720637081
0.00209668153652892
0.00190910085351152
0.00170649651970155
0.00149148539356516
0.00126462858552211
0.00102456686989435
0.000768738308589747
0.000489548167986174
0.000174073292865651
0.00265231554872121
0.00253559573096289
0.00239652781146553
0.00223564527209638
0.00205550994754975
0.00185977416126303
0.00165169735550103
0.00143335457341153
0.00120531151830186
0.000966885691124664
0.00071706331347423
0.000451237077587464
0.000150458657732088
0.00275607679406367
0.00264813132808463
0.00251751131334148
0.00236456434179087
0.00219168803662789
0.00200247232783112
0.00180031277011733
0.00158787303613824
0.00136703166130552
0.00113866182420388
0.000902857201654459
0.000659748267188019
0.000405844434331162
0.000123347790965221
0.00285044074692666
0.00275112158758384
0.0026288323762626
0.0024837347132936
0.00231806096302692
0.00213529208020668
0.00193879678555245
0.00173136003940549
0.00151536003403984
0.00129278372371139
0.00106491023561048
0.000832541472589718
0.000596920537164101
0.000355074474678185
9.55096283954544e-05
0.0029354809414153
0.0028445899649206
0.00273051607003226
0.00259322452745716
0.00243476805196322
0.00225849545234529
0.00206768952053959
0.00186510343484426
0.00165320008091431
0.00143437351413725
0.00121082109494473
0.000984222346662172
0.00075607218966827
0.000528316625050669
0.000299862282085953
6.80806391875705e-05
0.0002242251218562
0.000641587449158941
0.00022758787170435
0.000950325484268127
0.000648388403450095
0.000230808762559983
0.00120381377121052
0.000957882310462591
0.000652840551579398
0.000231297234792906
0.00142589365168937
0.00121117844767949
0.000960080816684938
0.000651775332164036
0.000228260571840599
0.00162610608907126
0.00143218548451407
0.00121088926828933
0.000954931058937169
0.000643285128047081
0.000222531403867964
0.0018090513643195
0.00163074926417641
0.001429135752739
0.00120147217504721
0.000941066836394213
0.000628023125162534
0.000215151628105785
0.00197744384289102
0.00181201132406302
0.00162471308981189
0.00141547487964301
0.00118225575261167
0.000918922329383905
0.000607637209258841
0.00020656656169591
0.00213316349728438
0.00197896139105596
0.00180319929735633
0.00160694892271385
0.00139105667612209
0.00115386121967586
0.000889774236204886
0.000583209249372349
0.00019682438216686
0.00227751018621741
0.00213347270520305
0.0019678352014046
0.00178178227964613
0.00157768073842445
0.00135679174189888
0.00111738104508972
0.000854573585056894
0.000555143096136517
0.000186452281117856
0.00241130917036855
0.00227676121851323
0.00212045080027571
0.00194334579298736
0.00174821822552906
0.00153803826749898
0.00131374375862305
0.00107359693405926
0.000813763020778844
0.000523581255029638
0.000179441917816703
0.0025350436060168
0.00240959314985393
0.00226212668607202
0.00209338193224831
0.00190607726294105
0.00170377823345829
0.00148909960524252
0.00126260252019769
0.00102292929436873
0.000767509832372726
0.000488727160935945
0.000173719196648439
0.00264899718342055
0.00253242534844414
0.00239352326269614
0.00223282848899962
0.00205290457675745
0.00185740303813633
0.00164958121787897
0.00143151246588523
0.00120376158099592
0.000965630481970383
0.00071589437208663
0.000450664286276122
0.000150214654804937
0.00275336619015694
0.00264553094295294
0.00251503756783861
0.00236223346769631
0.00218951621415265
0.00200047573965034
0.00179850692161907
0.00158627217974283
0.00136564889948589
0.00113750859778758
0.000901933603526542
0.000659090009045489
0.000405443944869875
0.000123169145139101
0.00284832598038006
0.00274909534314819
0.00262690844324649
0.0024819190051938
0.00231635937825117
0.002133713441196
0.00193735157456098
0.00173005873632084
0.00151421227398508
0.00129179833436011
0.00106409528965592
0.000831905301642859
0.000596466057874666
0.000354793216770865
9.54108862730998e-05
0.0029340538355752
0.00284326310740493
0.00272927943524957
0.00259206013912318
0.00243366926164024
0.00225746481768776
0.0020667331481418
0.00186422798161108
0.00165241176483149
0.00143367796947874
0.00121022369936184
0.000983728539594128
0.000755686531063115
0.000528042896544144
0.000299711418613299
6.80263264014522e-05
0.00301066304471877
0.00292807987244095
0.00282216449501589
0.00269267347691297
0.00254148634457464
0.00237182075940704
0.00218685128236877
0.00198924228309527
0.00178140736845056
0.00156578469298624
0.00134488532986036
0.00112111774156895
0.00089652992578598
0.000673141685463372
0.00045392018326905
0.000240741744156027
4.22005549007261e-05
0.0002211171231666
0.000633912439959066
0.000224888752421537
0.000940681136487868
0.000641778683854052
0.00022847221831568
0.00119348241772851
0.00094963626575003
0.000647186560566927
0.000229305479209248
0.00141558825158823
0.00120240241356364
0.000953088201277049
0.000646995275153391
0.000226595424373248
0.00161625362862488
0.00142348837908879
0.00120349860905635
0.000949064544315006
0.000639306716043576
0.000221163735556644
0.00179990245555609
0.00162248636740948
0.00142185781847775
0.00119531195489628
0.000936209736380592
0.00062476448374972
0.000214044018268962
0.00196913120162283
0.00180438277194281
0.00161783924347671
0.00140944421125687
0.00117718257364808
0.00091495734245107
0.000605006942118793
0.000205680225020639
0.00212573943224947
0.00197206687846628
0.00179688705580809
0.00160128381010195
0.00138611560896419
0.00114973700309009
0.0008865824057302
0.000581115580872553
0.000196123161147946
0.0022709736683944
0.00212734597755108
0.00196215821739755
0.00177660575162883
0.00157306188391914
0.0013527925809159
0.00111407245663124
0.000852039685095498
0.00055350096418485
0.000185901212187022
0.00240562629658795
0.00227139429565545
0.00211543050927064
0.00193871277260208
0.00174401828798167
0.00153431739235377
0.00131054869256022
0.0010709795146349
0.000811790451404549
0.000522501162252363
0.000184096295185134
0.00253016299342349
0.00240495423209422
0.00225775364584727
0.00208930765597953
0.00190233929885673
0.0017004133952853
0.00148614206726248
0.00126008623149148
0.00102089156380306
0.000766007974247039
0.000487924375148357
0.000173159975543355
0.00264486146098866
0.00252847223916761
0.00238977266606705
0.00222930718017228
0.00204964307795835
0.00185443124902232
0.00164692609017722
0.0014291983950276
0.00120181223700838
0.000964065924611117
0.000714710427012505
0.000449953536051641
0.000149848731470805
0.00274992028567489
0.00264222125945585
0.00251188130431382
0.00235925219599863
0.00218673371714567
0.00199791539135015
0.00179619008506485
0.00158421777383275
0.00136387380169037
0.00113602523871051
0.000900712892926116
0.000658217742927403
0.000404932706512218
0.000122925164936111
0.00284552531610334
0.00274639627712853
0.00262432688692691
0.00247947078735924
0.00231406058881747
0.00213158049865529
0.00193540046993256
0.00172830424674865
0.00151266750811092
0.00129047463829895
0.0010630004702771
0.000831052177910796
0.000595862834939865
0.000354419078031398
9.52613227711036e-05
0.0029318792577365
0.00284117187166028
0.00272728471913299
0.00259016727062742
0.00243188372788951
0.00225579531279162
0.00206519031309917
0.00186282266927437
0.00165115402553223
0.00143257662945171
0.00120928644847154
0.000982962477702316
0.000755096782019713
0.000527627705059579
0.000299470130877712
6.79642620987622e-05
0.00300920156268354
0.00292671756015973
0.00282089054949515
0.00269146889478587
0.00254034365885004
0.00237074205498982
0.00218584248229601
0.00198831008295536
0.00178055819235509
0.00156502442064612
0.00134421923807429
0.00112055073789711
0.000896066565934465
0.000672785634093651
0.000453675831652809
0.00024062511190889
4.21752947918334e-05
0.00307764825563233
0.0030031176088201
0.00290518064667712
0.00278338862489056
0.00263944511070794
0.00247643181014228
0.00229740340289067
0.00210490816565793
0.00190125949033991
0.0016888281498572
0.00147012665812902
0.00124778167672
0.00102437745441909
0.000802240263220774
0.000584020029007153
0.000374365526379573
0.00017869681293204
2.01302468138304e-05
0.000217553130337185
0.000625053711001282
0.000221772413504353
0.000929483420956923
0.000634097380222949
0.000225754906434947
0.0011814137644997
0.000939995167227444
0.000640570566957957
0.000226974534275186
0.00140347592047591
0.00119207960440708
0.000944857319312619
0.00064136438544541
0.000224634058372701
0.00160460369619499
0.0014131972782397
0.00119474816098985
0.000942113820553199
0.000634588565438859
0.000219541231384319
0.00178902191282031
0.00161265278153631
0.00141319145934626
0.00118797219519822
0.000930417615894599
0.000620873923154778
0.000212720990821514
0.00195919072695113
0.00179525424105759
0.00160960912241382
0.00140221957097514
0.00117110046559233
0.000910198241144301
0.000601845782869173
0.000204615139861925
0.00211681492113093
0.00196377342868842
0.00178928972458941
0.00159446147481338
0.00138016101304262
0.00114476170806003
0.0008827261179577
0.000578582326605189
0.000195274561619328
0.00226307584788046
0.00211993866817593
0.00195529076119956
0.00177033996493477
0.00156746708479696
0.00134794378469993
0.00111005554560126
0.000848957246119514
0.000551495239828341
0.000185221353964854
0.00239872372764735
0.00226487192777502
0.00210932595543021
0.00193307551961205
0.00173890406627733
0.00152978219284589
0.00130664952423627
0.00106777966078371
0.000809363854747154
0.000520962263632838
0.000183826645961989
0.00252419908596445
0.00239928322765994
0.00225240463067885
0.002084320528586
0.00189775999347916
0.00169628720880218
0.00148251111071653
0.00125699212364488
0.00101838115324874
0.000764185818577114
0.000487826001758225
0.000172711420617074
0.00263976739164195
0.00252360168210587
0.00238514865191477
0.0022249620736539
0.00204561474339747
0.00185075720324797
0.00164364019419226
0.00142633113506725
0.00119939336662477
0.000962130889606364
0.000713336199206052
0.000449049275334604
0.000149365527998111
0.00274562493905386
0.00263809435497422
0.00250794170342898
0.00235552627494176
0.00218325221491999
0.00199470893591113
0.00179328643556194
0.00158164120858819
0.0013616458195279
0.00113416486874075
0.00089923057927855
0.000657146788085579
0.000404256472908506
0.000122601131442723
0.00284196284160321
0.00274295922375225
0.00262103158840007
0.00247633841373508
0.00231111495789619
0.00212884543918241
0.00193289808283797
0.00172605421211715
0.00151068686860612
0.00128877751797016
0.00106159223845615
0.000829950701498983
0.000595086468002203
0.000353936990223625
9.5056043271273e-05
0.00292899623439421
0.00283838294731069
0.00272460492148434
0.00258761196070688
0.00242946878920661
0.00225353727725146
0.00206310557598672
0.00186092663066767
0.00164946046545948
0.00143109726024455
0.00120803072017841
0.000981938970552836
0.000754312392732207
0.000527077799097708
0.000299139399161802
6.78520911757124e-05
0.00300697149383099
0.00292456693426071
0.00281883153209492
0.00268950609375876
0.00253848202723828
0.00236899002906036
0.00218421073377576
0.00198680975029145
0.00177919980466575
0.00156381732832383
0.0013431713133694
0.00111966869832928
0.000895355508792047
0.000672247820322459
0.000453309517904654
0.000240436866400256
4.21571233596741e-05
0.00307615330356451
0.00300172184390502
0.00290387226746673
0.00278214755639838
0.00263826298059674
0.00247531010210611
0.00229634771581665
0.00210392509838542
0.00190035556191325
0.00168800949201692
0.00146939885534666
0.00124714962285047
0.001023845602403
0.000801812518525536
0.000583699322588962
0.000374158977493389
0.000178631283040311
2.01326849791797e-05
0.00313673594576673
0.00306997394879614
0.00297980092076819
0.00286557347576306
0.00272882061862259
0.00257248564653617
0.00239949815320073
0.00221227788465639
0.00201301254682871
0.00180396349620864
0.00158755502084656
0.00136636778846333
0.00114310665609124
0.000920465448294692
0.000701094754179716
0.000488798643105026
0.000290592533617613
0.000115232947343643
5.18989394539523e-06
0.000213492579324658
0.000614900267882715
0.000218197745575082
0.000916573522977808
0.00062523253914316
0.000222619999694787
0.00116741371836528
0.000928801649443968
0.000632883439980988
0.000224264866827783
0.00138933624875632
0.00118002105043534
0.000935236529040722
0.000634778647259809
0.000222339704936032
0.00159091912049493
0.00140110169472849
0.00118445835886271
0.000933935915749234
0.000629034199288139
0.000217631193628467
0.00177616431428534
0.00160102531748107
0.00140293971691897
0.00117928605749552
0.000923558667350185
0.000616263149683992
0.000211153270374466
0.0019473763093487
0.0017843981604872
0.0015998172692885
0.00139362068994955
0.00116385770588041
0.000904526067632398
0.000598074694574766
0.000203346788187018
0.00210614924345974
0.0019538561240411
0.00178020094708765
0.00158629666895568
0.00137303131173876
0.00113880022457252
0.0008781000055433
0.000575541336048231
0.000194263264996973
0.00225358724657325
0.00211103439531813
0.00194703187918703
0.00176280162646954
0.00156073275050977
0.00134210346240413
0.00110521246878143
0.000845236191910686
0.000549075474433825
0.000184407053795284
0.00239038797747777
0.00225699126226232
0.00210194694363013
0.00192625844622255
0.00173271630828365
0.00152429131153036
0.00130192440767647
0.0010638971377782
0.000806412282090351
0.000519049730527327
0.00018301478711075
0.00251695833049697
0.0023923950607885
0.00224590479408724
0.00207825758741728
0.00189218971143456
0.00169126462368469
0.0014780874658943
0.00125321817042209
0.00101531247680846
0.000761893769646172
0.000486468720824573
0.000171979400602137
0.00263354456591566
0.00251764987472412
0.00237949565662302
0.00221964715234502
0.00204068416513095
0.00184625703518641
0.00163961211889174
0.00142281259967389
0.0011964208898366
0.000959753661571471
0.000711805562817921
0.000447991908956084
0.000148802484101057
0.00274033512057468
0.0026330105937687
0.00250308612813582
0.00235093076385843
0.00217895490616392
0.00199074824099489
0.0017896971898878
0.00157845377486509
0.00135888697305481
0.00113186060739152
0.000897415950466004
0.000655824149290792