/*--------------------------------*- C++ -*----------------------------------*\
  =========                 |
  \\      /  F ield         | OpenFOAM: The Open Source CFD Toolbox
   \\    /   O peration     | Website:  https://openfoam.org
    \\  /    A nd           | Version:  12
     \\/     M anipulation  |
\*---------------------------------------------------------------------------*/
/*   Windows 32 and 64 bit porting by blueCAPE: http://www.bluecape.com.pt   *\
|  Based on Windows porting (2.0.x v4) by Symscape: http://www.symscape.com   |
\*---------------------------------------------------------------------------*/
FoamFile
{
    format      ascii;
    class       volScalarField;
    location    "200";
    object      omega;
}
// * * * * * * * * * * * * * * * * * * * * * * * * * * * * * * * * * * * * * //

dimensions      [0 0 -1 0 0 0 0];

internalField   nonuniform List<scalar> 
10068
(
3.13561378486108
3.13494202736862
1.07636042449955
3.08552972042451
3.13404308303498
1.07602523694031
3.08489781423685
0.659931873656025
1.06080976354563
3.02968598275558
3.13281743752027
1.07557546674574
3.08401906777162
0.659677075625727
1.06048984122789
3.02907408573118
0.502950554507956
0.654073382663506
1.03978004230094
2.97293180904018
3.13117930497313
1.07501656944654
3.08280979681184
0.659360098927044
1.06006363590749
3.02821461111857
0.502732293299783
0.653829088203031
1.03945782390855
2.97232702237938
0.426120494726419
0.500487463004416
0.644828724407184
1.01967862935655
2.92358377874963
3.12904392331222
1.07432120265383
3.08119096232891
0.658982796448423
1.05950991985251
3.02702500473326
0.502472773265608
0.653518996467745
1.03905212252483
2.97148304865063
0.425923806507641
0.500277430800595
0.644591303701302
1.01935480478647
2.92298173030682
0.383178193638994
0.425042544774396
0.495934314450834
0.634762215232868
1.00303707041767
2.87731058926934
3.12631976915518
1.07347181699666
3.07908337688818
0.658530655691739
1.05882484920508
3.02542831648661
0.502170290569217
0.653143861684521
1.03851213083587
2.97031081407425
0.425694227619617
0.500021004210473
0.644288160868055
1.01895834742151
2.92214632230281
0.382995047251945
0.424853073433284
0.495730500590521
0.634528150271055
1.00270462016309
2.87670861947351
0.357266728611502
0.382680512196404
0.42255565584061
0.490206026078544
0.625247870664023
0.98801985821111
2.82573864234014
3.12289235954922
1.07243486019176
3.0763953936624
0.657986554256715
1.05798674390052
3.02334796462178
0.501814778169826
0.65269432903775
1.03783634202546
2.96873329703828
0.425430560267634
0.499719989918676
0.643916735201902
1.01842332086675
2.92098561205752
0.38278334464678
0.424625703510748
0.49547771868259
0.634229434308679
1.00231076320487
2.87587867470993
0.357092296611522
0.382504026032493
0.422371491646299
0.490005585472124
0.625014469915575
0.987681231539314
2.82513600563604
0.340902672312236
0.356983633540026
0.381142273722981
0.418967821949794
0.48400310634012
0.615988890418504
0.971655856134321
2.76471702046538
3.11863724400937
1.07117582415484
3.07301999218653
0.657333118983552
1.05696375229151
3.02069650394133
0.501393964965701
0.652154802581282
1.03700885335256
2.96668044739487
0.425124959603973
0.499365813863134
0.643470530198475
1.0177558559055
2.91943133858675
0.382542790526717
0.424362968587435
0.495178638681548
0.633860981166267
1.00178166000175
2.87473242411605
0.356892166913111
0.382294220928364
0.422146800353894
0.489755638440443
0.624718052357575
0.987291485842726
2.82431879511994
0.340733975106913
0.356815556083302
0.380970580552156
0.418786516788867
0.483804302870334
0.615755340482933
0.971313617412781
2.76411601126854
0.330314984186185
0.340687102086734
0.35586611707826
0.378659236128448
0.414638777526634
0.477462692896555
0.606039816017667
0.952336939636766
2.69395959323197
3.11339733870661
1.06964573008799
3.06884619205864
0.65654702618702
1.05571946790908
3.01738636469971
0.500893600716222
0.651506513080629
1.03600075715463
2.96410301497366
0.424767350026631
0.498946602295986
0.642935383019667
1.01693933490276
2.9174517774291
0.382266749688525
0.424057950660945
0.494825881026269
0.633417962624029
1.00112415305138
2.87325443141727
0.356666597512953
0.382054301576038
0.421885312622084
0.489458395440465
0.624352159921587
0.986770127816899
2.82325523672934
0.340541704141189
0.356617187592881
0.380763070307375
0.418564037381596
0.483556248945924
0.615460952147878
0.970931930357561
2.76336605934596
0.330150148489083
0.340524593947716
0.355702586642972
0.378490100868471
0.414459031664969
0.477264871184296
0.605806465986612
0.951995040469003
2.69328789797108
0.323430402242776
0.330123582815248
0.339755988956518
0.353960698660815
0.375449593923324
0.409797197761549
0.470386246993698
0.594745878626789
0.929564064254387
2.6148861031238
3.10700045599484
1.06779986835782
3.06372323284186
0.655603740085356
1.05421396701391
3.01328827270019
0.500296621496269
0.650727104017502
1.03477771300873
2.96085482516983
0.424345747697752
0.49844809396035
0.642292698571624
1.01594855395413
2.9149029550044
0.381946685673568
0.423700916435883
0.494408147724124
0.632886885463697
1.00032328623437
2.87129066400317
0.356409874162135
0.381778558255878
0.421580866102021
0.489107040035631
0.623912438788539
0.986127233505928
2.82180053427653
0.340326496622981
0.356392154976693
0.380524063667809
0.418303820614393
0.483260618939585
0.615098130971407
0.970426764087777
2.76237818646548
0.329963419450484
0.340334033890219
0.355506347536751
0.378284507521709
0.414238181172836
0.477018374319504
0.605515271937615
0.951630775489994
2.69267897628055
0.323268205690701
0.329964837951202
0.339597919758519
0.353799611462219
0.375281937143893
0.409618622607618
0.470189510940067
0.594515425200288
0.929142856994959
2.61414430741579
0.319024945975645
0.32325690417781
0.329291124291977
0.338172200674148
0.351444598135768
0.371751190375652
0.404522242832643
0.46258109689974
0.581796652944725
0.900630812524657
2.19480229569329
3.09925240319618
1.06557924500613
3.05745844080253
0.65447161903181
1.05239878905185
3.00823738817972
0.499583802621714
0.649791242440327
1.03329691434047
2.95680481066342
0.423846320118719
0.497853485008754
0.641520417041132
1.01474190304959
2.91168236432395
0.381572206441883
0.423280010829095
0.493911354665727
0.632249391019638
0.99934140748973
2.86875891838331
0.356114367826077
0.38145866971436
0.421224098737981
0.488690664774418
0.623385455592384
0.985333269709327
2.81985552244682
0.340083192325507
0.356135591929924
0.380248510917747
0.417999978209852
0.482910723164134
0.614662231914614
0.969787919822109
2.76095539296384
0.329755655729414
0.340119317828592
0.355282087140304
0.378046470887788
0.413979153303385
0.476724477355531
0.605156568976878
0.951132997787945
2.69176073462643
0.323085477881372
0.329779791666606
0.339409424239024
0.353605154344886
0.37507781054554
0.409399163101143
0.469944898505045
0.594229014644133
0.928778983237021
2.61362669780585
0.318864566605381
0.323100739287762
0.329136772517742
0.3380165519849
0.351284980624371
0.371584765986473
0.404344927883229
0.462386677696713
0.581544987263314
0.900112429887579
2.19480464668431
0.316327519421591
0.318871266828128
0.322495496030453
0.327914494836529
0.336115596011403
0.348550255058915
0.367741939009138
0.398845638296649
0.453966516280801
0.566544642663814
0.844825502766168
2.19513011128507
3.08993696928682
1.06291969228444
3.04985953019984
0.653116894781619
1.05021434495241
3.00205757903029
0.498732725408568
0.648668728870958
1.03150692287657
2.95181093979267
0.423253025913245
0.497143500668704
0.640592896603418
1.01327514450014
2.90766639976488
0.381131168642103
0.422781368899521
0.493318855923415
0.631482895772623
0.9981414160605
2.86555937925326
0.355770817603059
0.38108433537637
0.420803334020165
0.488195353364602
0.622751645516431
0.984355310666171
2.81734470401247
0.339804895159886
0.355840116450117
0.379928373208767
0.417643394889205
0.482495764441122
0.614138527981667
0.968994613930327
2.75903336653306
0.329522159105056
0.339876143520061
0.355025548502205
0.377771127460112
0.413676042046778
0.476376330576533
0.604722712625094
0.950460245806814
2.69053466641033
0.322883270856363
0.329572519371995
0.339195425199963
0.353381711075302
0.374840715516824
0.409141390888049
0.469653072534005
0.593869753529867
0.928206041114551
2.61336014031833
0.31868479085978
0.322919682911935
0.328953765153518
0.33782978266136
0.351091901396253
0.371381937095305
0.404126988926659
0.462144554835582
0.58125134935233
0.899671099117553
2.19480258600432
0.316168390766581
0.318716885370607
0.322343705615082
0.327762573478159
0.335961440001142
0.348391916624357
0.367576858864969
0.398670119820956
0.453769970532407
0.566261700182477
0.844355207443958
2.19512597727103
0.314823856774998
0.316194986240234
0.318172252629966
0.321275265188434
0.326191251664369
0.333815282395099
0.345484679382406
0.363559694585294
0.39284254918934
0.444511966775263
0.547431300361557
0.815553269813643
2.19485513046577
3.07882024143657
1.05975059420792
3.04071566697843
0.651501637871031
1.04759666922431
2.99456459578818
0.497718402978895
0.647325554612053
1.0293543476653
2.94570391574601
0.422547672591656
0.496295925586778
0.639480402997866
1.01150395246602
2.90271103286023
0.380609716823032
0.42218902501498
0.492611435384117
0.63056177163238
0.996683581195941
2.86156987034722
0.355368326887665
0.380643454294208
0.420304784973694
0.487604522280525
0.62198880582352
0.98315900542589
2.81416887005494
0.339483102457632
0.355496509719258
0.379553490927447
0.417222547303557
0.482001772544605
0.613507524796886
0.968017349496152
2.7565369861345
0.329256513045542
0.339597813336158
0.354729610729338
0.377450617020224
0.413319814390225
0.47596304102058
0.60420113788606
0.949643883789245
2.68862914531321
0.322657171998746
0.329339130913446
0.338952212512135
0.353125178621677
0.374565714458241
0.408839279377609
0.469306654576108
0.593422177250513
0.927662122916775
2.61518493573133
0.318486812750206
0.322717954679163
0.328747191024315
0.337616521300969
0.35086923999865
0.371145844610127
0.403870700747797
0.461853679824826
0.58085254433972
0.89950200737072
2.19479693971644
0.315990824709972
0.318538772507276
0.322164677059521
0.327581268500277
0.335775997709733
0.348200065889694
0.367375419045956
0.398454060586451
0.453527256286491
0.565928602161108
0.844184301863585
2.19512400803879
0.314665579952769
0.316041838578477
0.318022239405089
0.321125922835937
0.326040851154464
0.333662440911668
0.345327742602168
0.363396262135566
0.392668491707964
0.444310488325724
0.547147051278916
0.81521308346404
2.19485278168063
0.314155392288262
0.314711976149282
0.315553474046632
0.317082555084766
0.31981404704428
0.324352118674432
0.331484064050245
0.342433491866277
0.359373590120817
0.386688009208076
0.434346808613651
0.530067125057395
0.793165196419867
2.19192953800729
3.06568119715241
1.05599617884323
3.02979598510628
0.649583550312956
1.0444762602915
2.98555192576053
0.496512908060499
0.64572393891206
1.02677693022725
2.93830257003321
0.421709927304245
0.495285818580436
0.638149745949446
1.00937621749586
2.89665658237587
0.379992206736465
0.421484839460935
0.491767105387904
0.629457330754328
0.994924852253549
2.85664919766479
0.354894461405548
0.380122164739843
0.41971256402464
0.486899088197097
0.621072128675598
0.981708617257755
2.81020803237083
0.339107825858118
0.355093899519548
0.379111833343346
0.416723743200411
0.481412282509275
0.612747724355792
0.966828439087624
2.75339188163571
0.32895080555364
0.339275880481672
0.354385163933204
0.377074902941721
0.412899017203258
0.475470609977908
0.603573302401778
0.948664144443977
2.68611368506881
0.322401172557479
0.329073422636576
0.338673326697187
0.352828586439303
0.374244994962828
0.408483792250182
0.468895337966239
0.592895034410903
0.926848868770034
2.61340753137147
0.318266459467926
0.322491957602213
0.328513731392292
0.337373201614072
0.350612802829854
0.370871421552152
0.403569888501397
0.461505197066458
0.580413045624762
0.901150638906523
2.60155775720739
0.315796129267932
0.318341266260047
0.321963631099359
0.327375383380219
0.335563405191389
0.347978223569293
0.367140513420876
0.398199261440078
0.453226957624906
0.565584920990472
0.846117905155576
2.1951186532329
0.314489683772905
0.315865929009195
0.317846146766442
0.320948582716639
0.325860837570643
0.333478164775612
0.345137192244898
0.36319646850382
0.392453986983748
0.444059056476717
0.546869428738976
0.814988954751183
2.19485091981598
0.313997676267341
0.314559673659422
0.315404694619533
0.316935006413435
0.319666249871418
0.324203056611361
0.33133265398099
0.34227818712522
0.359212051529384
0.386515185297616
0.434146392735529
0.529832684688627
0.79286846359355
2.19192921999986
0.314064328581783
0.314062501438919
0.314122835174188
0.314577176987458
0.315838214517413
0.318347719086463
0.322610810818989
0.329328906895352
0.339620705327414
0.355455595135474
0.380754982524094
0.424716243136087
0.515310900460105
0.770967895144119
2.18619138570763
3.05020896773262
1.05157665767412
3.01684894015563
0.647317565309678
1.04077774416973
2.97479108549786
0.495085933012078
0.643822224748444
1.0237056847681
2.92940335502779
0.420717314196048
0.494085461205374
0.636563666774197
1.00682936768325
2.88932127374584
0.37926110971802
0.420648515845251
0.490761159980361
0.628137029639919
0.992812339779482
2.85063921402959
0.354335255202893
0.379504811188666
0.419008629175047
0.486057350425266
0.619973567107593
0.979961214639429
2.80532702287764
0.338667694211791
0.354619853920346
0.378589573526758
0.416131191348694
0.480708456207543
0.611835292766382
0.965390865285668
2.74946009271279
0.328595743350075
0.33890037452165
0.353981388243832
0.37663203040123
0.41240003761585
0.474882729057884
0.602818479785769
0.947515123529155
2.68308114379855
0.322107809323046
0.328767533090211
0.338350421796718
0.352482922800605
0.373868582574847
0.408063480424086
0.468405278768599
0.592272027620297
0.925916061500119
2.61031680561734
0.318018014773503
0.32223587227906
0.328247415289861
0.33709349826453
0.350315644616595
0.370550832336878
0.403215628350915
0.461094428808744
0.579891424586146
0.900699159220618
2.60054523360674
0.315580317037464
0.318120998475657
0.32173753793068
0.327141737223936
0.335320000336909
0.347722056312682
0.366866961742907
0.397899274038033
0.452876474606523
0.565433457010498
0.870581887674301
2.19512401637889
0.31429756983794
0.315671696319496
0.317649307038256
0.320748185227155
0.32565552980973
0.333266234866968
0.344916308135202
0.362962966269381
0.392198725388432
0.443762222641049
0.546820251271618
0.81508166706547
2.19484773371416
0.313823044162208
0.31438542900473
0.315230798132825
0.316760589536001
0.319490170152889
0.324024148526757
0.331149588132733
0.342089132873696
0.359014113501459
0.386300911294933
0.433905695369609
0.529578269262882
0.792636218858721
2.1919279559253
0.313906950747639
0.313910759354412
0.313974903997432
0.314430875216427
0.315692229584086
0.318201275864511
0.322463190289422
0.329179123818288
0.339467283882694
0.355296234473934
0.380584895916894
0.424531193797181
0.515105225606444
0.770660807274393
2.18619278453803
0.314361760356638
0.313988299756647
0.313520062954355
0.313245830148572
0.313517124808756
0.31468165922799
0.317091338605013
0.321185161515458
0.32760638637161
0.337376269525005
0.352263636334605
0.375827470720807
0.41693810709471
0.502541933468143
0.747668499032711
2.18721550682668
3.03210703841007
1.04639876579835
3.00160275429689
0.64465485722333
1.03641989372368
2.96203484934637
0.493404176787884
0.641575340295496
1.02006639202278
2.9187826955923
0.419545397386702
0.49266451320885
0.634681086328463
1.00379670445094
2.88050506348672
0.378397344013338
0.419657643376215
0.489566139240783
0.626564151526269
0.990285186497521
2.84336151639163
0.353675242099511
0.378773939255761
0.418172789853815
0.485054892818848
0.618660949857282
0.977862152565931
2.79937419782103
0.338149997054906
0.354060404717664
0.377971091890643
0.415426973404399
0.479868864060155
0.610742546368636
0.963659308999565
2.74463661080671
0.328180780533795
0.338459922268821
0.353505873664508
0.376108227046652
0.411807194947269
0.474180863056107
0.601912762626865
0.946111770775656
2.67919918322959
0.321768343359072
0.32841218485557
0.337973569880545
0.35207742257121
0.373424575283126
0.407564779577557
0.467820116578863
0.591534741855999
0.92466437044706
2.60696202990891
0.317734393044139
0.321942294268461
0.327940476759766
0.33676914909383
0.349968796209413
0.370174105034066
0.402796466825372
0.460608040900218
0.579300797066666
0.899319647002958
2.58889973648915
0.315337914541192
0.317872446898898
0.321480801241712
0.326874484983028
0.335039469653616
0.347424576313738
0.36654690737281
0.397546381974162
0.452468674834618
0.565004932523394
0.871826310632132
2.19512648022011
0.314085401193271
0.315455954265591
0.317428914263398
0.320521836245195
0.325421648269212
0.333022842686978
0.344660633686306
0.362690464277101
0.391899160709799
0.44344115104973
0.548237901559048
0.816983714625953
2.19485076709353
0.313632976632634
0.314193768060098
0.315037214162316
0.316564359134042
0.319290267741345
0.323819360200722
0.330938406483641
0.34186940781086
0.358781907094974
0.386046834822662
0.433645267368925
0.529339114061353
0.792388031406963
2.19192713703308
0.313733262560504
0.313737774692546
0.31380266504274
0.314258640714363
0.315519042757541
0.318026242056849
0.322285397228444
0.328997413823548
0.339279960511164
0.355100233865474
0.380374882175697
0.424305870760932
0.514871571850752
0.770425809700842
2.18619261248582
0.314204531997698
0.313836896692601
0.313372696318972
0.313100386445639
0.313372400067598
0.314537038043345
0.316946336928751
0.3210391513475
0.327458428616149
0.337224996023611
0.352107062393443
0.375663704230446
0.416765926744499
0.502345819359679
0.747324098990271
2.18721754078353
0.314907833477044
0.314300412015735
0.313486827284625
0.312729671148355
0.312343992216273
0.312622150945263
0.313830255320887
0.316269754304769
0.320352287714336
0.32668502324973
0.336213648569153
0.350567070650844
0.373114184733152
0.412218343267875
0.492789848706049
0.726372068454563
2.21610560966242
3.01106175020335
1.04036335920348
2.98376888027474
0.641542282724198
1.03131471061526
2.94701702237268
0.491432575704314
0.638934731170674
1.01577874645643
2.90619912099478
0.418167941122896
0.490990038968743
0.632457474242453
1.00020527541701
2.86998942960913
0.377380196698575
0.418487826381165
0.488151929988299
0.624698374141523
0.987278146115959
2.83461927519729
0.352897557609142
0.377910436897798
0.417182752851665
0.483864555712321
0.617098135626338
0.975351812257432
2.79217115346511
0.337540741137523
0.3534000865958
0.377238997781627
0.414591036051321
0.478869341804855
0.609437356862415
0.961579981912071
2.73877236399345
0.327694185695612
0.337941805716422
0.352944666103994
0.37548792810747
0.41110269605995
0.473343819102164
0.600828466858009
0.944409876224068
2.67442815174237
0.32137289201541
0.32799682770303
0.337531410195776
0.351599704493992
0.372899252251254
0.406972125689717
0.467121501991143
0.590645355919532
0.923287253239676
2.60316637655819
0.317407306644644
0.321602498180536
0.327583675521982
0.336390266510658
0.349561521274155
0.369729353666419
0.402298781796662
0.460029359119346
0.578554061778516
0.896136870609099
2.194800143637
0.315062144131661
0.317588578599984
0.321186110237659
0.326565935652817
0.334713577182272
0.347076801203008
0.366170342878956
0.397129194489604
0.451993815073377
0.564353206018744
0.86809736685056
2.19513152157042
0.313847902621636
0.315213422094926
0.317179667141499
0.320264059202444
0.325153350836573
0.332741617188879
0.344363117281618
0.362371292478481
0.39154841851122
0.443051966272336
0.548033332942884
0.816735664949453
2.19485284636983
0.313423757871534
0.313981653321767
0.314821315992084
0.316343642947066
0.319063547568039
0.323585260641977
0.330695166071166
0.341614445190364
0.35851057378295
0.385751359721196
0.433444305861584
0.529293540326736
0.792191685033609
2.19192752941128
0.313544813693812
0.313548149334981
0.313611633423084
0.314065626477756
0.31532322984703
0.317826725350967
0.322081156026333
0.328787118818186
0.33906156585987
0.354869779437884
0.380127702152881
0.424043936394508
0.514598983756051
0.770141595297948
2.18619390161759
0.314031515925546
0.313664852305715
0.313201709516826
0.31292979428947
0.313201364927113
0.314364839390468
0.316772322893734
0.320862571243715
0.327278246673048
0.337039633553885
0.35191408521408
0.375461214108168
0.416554839204972
0.502123441698849
0.747051058689286
2.18721857164121
0.314750570136512
0.31414915780268
0.313339802967158
0.312584798952377
0.312200134523263
0.312478796022914
0.313687071733742
0.316126339756826
0.320208039635516
0.326539064099038
0.33606482076868
0.350414293630697
0.372957042586799
0.412054290212574
0.492595271275711
0.72597653556609
2.21610688980994
0.315598612558833
0.314859115447163
0.313834483546809
0.312771525436826
0.311963947671154
0.311671673692174
0.312112293249431
0.313514277097892
0.316174148428164
0.320507710137804
0.327120552109883
0.336948127073029
0.351614389457337
0.374427927447456
0.413205275461614
0.490871630082955
0.716377495366333
2.2870039387159
2.98673080249989
1.03337251056947
2.96304644722949
0.637923751841506
1.02536738591717
2.9294592069595
0.489133627429886
0.635848155811269
1.01075721336727
2.89139161478212
0.416557078446885
0.489026946943208
0.629844864188756
0.995976288519476
2.85754068021915
0.376187698901215
0.417112852895407
0.486485935664125
0.622495781031667
0.983719382562841
2.82420219686537
0.351984190389486
0.3768936339549
0.416014238266892
0.482456558734544
0.615245432079924
0.972365796007655
2.78352983020933
0.336824812279535
0.35262205166524
0.376374221016566
0.413601237139067
0.47768303602414
0.607884150031992
0.959091618937736
2.73167392633032
0.327123123434249
0.337332030406583
0.35228232036244
0.374753809003941
0.41026662252027
0.47234759790355
0.599533659487682
0.942361619136537
2.66867306203745
0.320910515699557
0.327509719403361
0.337011226153858
0.351035834739246
0.372277102371928
0.406267839734084
0.466288395045039
0.589576574881172
0.921628296915121
2.59830433300361
0.317027419572815
0.321206595319575
0.327166466780184
0.335945501470954
0.349081455623935
0.369202895257057
0.4017071139734
0.45933740660899
0.577676928866566
0.894534919035003
2.19479707530322
0.314745095026953
0.31726111949209
0.320844772416402
0.326206878874682
0.334332445585042
0.346667986869404
0.365725343868135
0.396633846320898
0.451419688892149
0.563328229546615
0.843341636293355
2.19512552922416
0.313578560810075
0.314937372980533
0.316894622071475
0.319967611600147
0.324842960437364
0.332414292809505
0.34401472287935
0.361995398757518
0.391135407957505
0.44257684854546
0.547109986451042
0.81559454847999
2.19485588205261
0.313190285358917
0.313744004047725
0.314578041778717
0.316093255500098
0.318804529041982
0.323315938761736
0.330413409322194
0.341317153703478
0.358192730912191
0.385405792166487
0.433084418058917
0.528918555727144
0.791721554589666
2.1919287875397
0.313337992736368
0.31333896968021
0.313399330081372
0.313849338044282
0.3151020152874
0.317599574738543
0.32184689233579
0.328544170596906
0.338807510872083
0.354600339585326
0.379845026275148
0.423759130315334
0.514296509932409
0.769774614623632
2.18619245461413
0.31384432588886
0.313476835599923
0.313012693183354
0.312739292686195
0.313008694042693
0.314169287190249
0.316573162865657
0.320658946995219
0.327068975187687
0.336822824610849
0.351686770945836
0.375221313652092
0.416303694660457
0.50185802246468
0.746767893668588
2.18722093687263
0.314577973252868
0.313977782373975
0.313169748102159
0.312415442808334
0.312030710949972
0.31230869394596
0.313515802275314
0.31595339944638
0.320032777923307
0.326360560079088
0.335881803158878
0.350225561151591
0.372762550602506
0.411852847037446
0.492370979548918
0.725627182516094
2.21610874385065
0.315441106250054
0.314707823845426
0.313687609552682
0.312627000061057
0.311820667249165
0.311529189390186
0.311970370940522
0.313372657362085
0.316032436533913
0.320365321464332
0.326976707128303
0.336802037287954
0.351465701854227
0.374276444756163
0.413047522007407
0.490676471686004
0.715737745257567
2.28699341886412
0.316356959180006
0.315560670441766
0.314423802772955
0.313183911179737
0.312122729937089
0.311481694785833
0.311451397442969
0.312222297867663
0.314035239653774
0.317219634423621
0.322239652412738
0.329776752314109
0.340905634633991
0.357508964948859
0.3832900513649
0.426551936978791
0.510633529930263
0.7443062526555
2.38169009876714
2.9586789277593
1.02530458088389
2.93908416271912
0.633737378383903
1.01847860990169
2.90906058411454
0.486468134189723
0.632260131966803
1.00491273815501
2.8740909843768
0.414684045534278
0.486738060850474
0.626792132488697
0.991026202868297
2.84290320901958
0.374796848373533
0.415505000802853
0.484533337803448
0.61990918662208
0.979531196419795
2.81188110899899
0.350916126013703
0.375701552419811
0.414641175441959
0.480798635415106
0.613059453183343
0.968833699616336
2.77324326804484
0.335986125996173
0.351708256325118
0.375356150186401
0.412433458309675
0.476280453326514
0.606043453565316
0.956127889812998
2.72317395974555
0.326453824480143
0.336615463165317
0.35150201030329
0.37388686770153
0.409276989309845
0.471165609752127
0.597992394027268
0.939896525036028
2.66174915233658
0.320369320094807
0.326938018159784
0.336399025324495
0.350370390263363
0.371540859913541
0.405432108797323
0.46529691909061
0.588296693679069
0.91962071829054
2.59278122124331
0.316584450076646
0.320743633344072
0.326677101186906
0.3354221363066
0.348514675849339
0.368579258172903
0.40100387618234
0.45851112220476
0.576628233680925
0.89292980416805
2.19479140115805
0.314377890196572
0.316880726211005
0.320446899285672
0.325786769085036
0.33388471873804
0.346185762737765
0.365198250391061
0.396044511074584
0.450735227299964
0.56240668414712
0.84021243970064
2.19512246750347
0.313269780462829
0.314619908769078
0.316565534257364
0.319623822760324
0.324481261881985
0.332030962636431
0.34360465966274
0.361550744608516
0.390643194312662
0.441975837823326
0.544608380949973
0.812629607329139
2.19485247127043
0.31292626608945
0.31347435161273
0.31430075056255
0.315806315706606
0.3185059737789
0.323003672977891
0.330084800878246
0.340968419958547
0.357818270616967
0.384996522808302
0.432589779894869
0.528310336439188
0.791069306574279
2.19192962612906
0.31310784559962
0.313105325323961
0.31316089196355
0.313604826009228
0.314850203810675
0.317339231161159
0.321576593216616
0.328262013622747
0.338510691241702
0.354284667102324
0.379506561372668
0.423396674916878
0.513898187913626
0.76930274539122
2.18619251269182
0.313639444684104
0.313270039736926
0.312803292634463
0.312526533563003
0.312791787176833
0.313947445400201
0.316345554781852
0.320424565961007
0.326826426131304
0.336569944260632
0.351420731229234
0.374940825373893
0.416008800697338
0.50153822215409
0.746401125657981
2.18721956662607
0.314391719702971
0.313791015948948
0.312982320273751
0.312226917274441
0.311840482015513
0.312116167295849
0.313320429402025
0.315754600862547
0.319829825470874
0.326152422662789
0.335666992929112
0.350002597888643
0.372531425268104
0.411612564996258
0.492110957611017
0.72532884094828
2.21611060402013
0.31526866970417
0.31453686506682
0.313518215109136
0.312458559219569
0.311652449332303
0.311360646807761
0.311801114109081
0.313202332131603
0.315860617511392
0.32019143224514
0.326799985019317
0.336621716622833
0.351281509385136
0.374088204706105
0.412849989087655
0.490432771519111
0.715210519279822
2.2869949506994
0.316198960997749
0.315409134224444
0.314276891257931
0.313039538641072
0.311979799733376
0.311339789465487
0.311310340780549
0.312081919176243
0.31389527172705
0.31707966793277
0.322099120629952
0.329635011621254
0.340762284136423
0.357364094073242
0.383143847057885
0.426400650575412
0.510314201552273
0.742830000945457
2.38167839879971
0.317125958190209
0.316328142894592
0.315151580248456
0.313828752992354
0.312635270223033
0.311802710282519
0.311507468997524
0.311921585808397
0.313261628347988
0.315822935886083
0.320019363540296
0.326452730886758
0.336051248369981
0.350368883455197
0.372264004761565
0.4075418971464
0.469533309552117
0.596350816223895
0.987009863494468
3.68517097144455
1.01599980494678
2.91140920974995
0.628915230038793
1.01053891663313
2.8854712986748
0.483395250126514
0.628111323272222
0.998153042898729
2.85400119137441
0.412519694160232
0.484084549872501
0.623245365891281
0.98526990225332
2.8258092781001
0.373184182995237
0.413635543698843
0.48225738912753
0.61688859160118
0.974632213629791
2.79740748439264
0.349673818953307
0.374311225390036
0.413036010651203
0.478856298699311
0.610493613058848
0.964680193940227
2.76110407188912
0.335008004378843
0.350639701783261
0.374162866446704
0.411061793257817
0.474629529348931
0.603871654600435
0.952626283168419
2.71309997135397
0.325671810369337
0.335776027742064
0.350585707362879
0.372866568661547
0.408109817247034
0.469768393034329
0.596162597090769
0.936932437662032
2.65362838882156
0.319736649780966
0.326267942396847
0.335679674218927
0.349586569598685
0.370671588817831
0.404443076573476
0.464120297542581
0.586764182163687
0.917121753373264
2.58657330331072
0.316067292253712
0.320201709283291
0.326102729043392
0.334806174618215
0.347845768728999
0.367841215231337
0.400169318010632
0.457526336156238
0.575363201010618
0.89098698297662
2.1947967792038
0.313950803613151
0.316437102410158
0.31998152522122
0.325293840651591
0.333357660092609
0.345616194840473
0.364573611458515
0.39534361176803
0.449918636098575
0.561380391714575
0.838869543246409
2.19511687630462
0.312913074067606
0.314252143824919
0.316183056321617
0.319222793380922
0.324057683605521
0.331580233643179
0.343120525828286
0.361023611877654
0.390057341780607
0.441292205210534
0.543490669754414
0.811482066295034
2.19484997655282
0.312624378990308
0.31316511478143
0.313981570183985
0.315474593268136
0.318159193326344
0.322639199008827
0.329699366317466
0.340557365153008
0.357374536962462
0.384504839448362
0.431886648965209
0.527346936401882