/*--------------------------------*- C++ -*----------------------------------*\
  =========                 |
  \\      /  F ield         | OpenFOAM: The Open Source CFD Toolbox
   \\    /   O peration     | Website:  https://openfoam.org
    \\  /    A nd           | Version:  12
     \\/     M anipulation  |
\*---------------------------------------------------------------------------*/
/*   Windows 32 and 64 bit porting by blueCAPE: http://www.bluecape.com.pt   *\
|  Based on Windows porting (2.0.x v4) by Symscape: http://www.symscape.com   |
\*---------------------------------------------------------------------------*/
FoamFile
{
    format      ascii;
    class       volScalarField;
    location    "200";
    object      p;
}
// * * * * * * * * * * * * * * * * * * * * * * * * * * * * * * * * * * * * * //

dimensions      [0 2 -2 0 0 0 0];

internalField   nonuniform List<scalar> 
10068
(
83333.3288613621
83333.3288503676
83333.3288616126
83333.3288612855
83333.328839769
83333.3288506137
83333.3288502911
83333.328861456
83333.3288615142
83333.3288611054
83333.3288295284
83333.3288400171
83333.3288396901
83333.3288504772
83333.3288505208
83333.3288501159
83333.3288601953
83333.3288613364
83333.3288613269
83333.3288607938
83333.3288196285
83333.3288297659
83333.3288294516
83333.3288398882
83333.328839925
83333.3288395172
83333.3288492416
83333.3288503736
83333.3288503418
83333.3288498155
83333.3288576297
83333.3288600779
83333.3288611237
83333.3288610053
83333.3288603329
83333.3288100605
83333.3288198502
83333.3288195532
83333.3288296254
83333.3288296732
83333.3288292833
83333.3288386792
83333.3288397927
83333.3288397519
83333.3288392245
83333.32884673
83333.3288491481
83333.3288501808
83333.3288500352
83333.3288493719
83333.3288537617
83333.328857525
83333.3288598277
83333.3288607671
83333.3288605315
83333.3288597151
83333.3288008155
83333.3288102645
83333.3288099864
83333.3288196993
83333.3288197598
83333.3288193891
83333.3288284399
83333.3288295285
83333.3288295038
83333.3288289994
83333.3288362214
83333.3288385912
83333.3288396114
83333.3288394547
83333.328838795
83333.3288429449
83333.3288466508
83333.3288489208
83333.3288498456
83333.3288495787
83333.328848778
83333.3288486706
83333.3288536688
83333.3288572316
83333.3288594272
83333.3288602552
83333.328859895
83333.328858943
83333.3287918864
83333.3288010037
83333.3288007431
83333.3288101037
83333.3288101778
83333.3288098261
83333.3288185344
83333.328819601
83333.3288195932
83333.3288191126
83333.328826036
83333.3288283495
83333.3288293475
83333.3288292133
83333.3288285834
83333.3288325188
83333.3288361453
83333.3288383738
83333.328839291
83333.3288390126
83333.3288382221
83333.328837963
83333.3288428758
83333.3288463846
83333.3288485452
83333.3288493554
83333.3288489657
83333.3288480374
83333.3288424604
83333.3288485773
83333.3288533562
83333.3288567884
83333.3288588669
83333.328859577
83333.3288590992
83333.3288580264
83333.3287832663
83333.3287920601
83333.328791816
83333.3288008318
83333.3288009198
83333.3288005866
83333.3288089562
83333.3288100066
83333.3288100146
83333.3288095561
83333.3288161819
83333.3288184404
83333.3288194194
83333.3288193088
83333.3288187078
83333.3288224163
83333.3288259567
83333.3288281338
83333.3288290342
83333.3288287843
83333.3288280297
83333.3288276473
83333.3288324513
83333.3288358899
83333.328838014
83333.3288388197
83333.3288384216
83333.3288375103
83333.3288318871
83333.3288378939
83333.3288425942
83333.3288459686
83333.3288480108
83333.3288487031
83333.3288482008
83333.3288471603
83333.3288352227
83333.3288423541
83333.3288482673
83333.3288528871
83333.3288561799
83333.3288581363
83333.3288587327
83333.3288581541
83333.3288569781
83333.3287749478
83333.328783426
83333.3287831981
83333.3287918778
83333.3287919782
83333.3287916638
83333.3287996999
83333.3288007366
83333.3288007599
83333.3288003228
83333.328806653
83333.3288088615
83333.3288098266
83333.3288097363
83333.3288091603
83333.3288126443
83333.3288160982
83333.3288182248
83333.3288191107
83333.328818891
83333.3288181689
83333.3288176572
83333.3288223449
83333.3288257029
83333.3288277825
83333.3288285775
83333.3288282133
83333.3288273433
83333.3288217089
83333.3288275795
83333.3288321808
83333.32883549
83333.3288375012
83333.3288381931
83333.3288376869
83333.3288366711
83333.3288248121
83333.3288318041
83333.3288376118
83333.3288421529
83333.3288453892
83333.3288473089
83333.3288478907
83333.3288472945
83333.3288461597
83333.3288270424
83333.3288351057
83333.3288420571
83333.3288477885
83333.3288522391
83333.3288553912
83333.3288572312
83333.3288577297
83333.3288570722
83333.328855809
83333.3287669236
83333.3287750941
83333.3287748819
83333.3287832345
83333.3287833458
83333.3287830503
83333.3287907612
83333.3287917847
83333.328791822
83333.3287914064
83333.3287974449
83333.3287996065
83333.3288005594
83333.3288004877
83333.3287999355
83333.3288031977
83333.3288065678
83333.3288086479
83333.328809523
83333.3288093281
83333.3288086323
83333.3288079983
83333.3288125682
83333.3288158444
83333.328817879
83333.3288186651
83333.3288183355
83333.3288175003
83333.3288118598
83333.3288175847
83333.3288220761
83333.3288253127
83333.3288272857
83333.3288279728
83333.3288275052
83333.3288265378
83333.328814798
83333.328821627
83333.3288273075
83333.3288317565
83333.3288349341
83333.3288368274
83333.3288374132
83333.3288368194
83333.32883572
83333.3288168162
83333.3288247119
83333.3288315327
83333.3288371629
83333.3288415365
83333.328844633
83333.3288464373
83333.3288469264
83333.3288462577
83333.3288450431
83333.3288180045
83333.3288269279
83333.3288348239
83333.3288415763
83333.3288471112
83333.3288513952
83333.3288544155
83333.3288561533
83333.328856578
83333.3288558631
83333.3288545086
83333.3287591867
83333.3287670572
83333.3287668598
83333.3287748943
83333.3287750158
83333.3287747386
83333.3287821342
83333.3287831437
83333.3287831935
83333.3287828002
83333.3287885544
83333.32879067
83333.3287916108
83333.3287915559
83333.3287910283
83333.3287940712
83333.3287973605
83333.3287993962
83333.3288002613
83333.3288000879
83333.3287994172
83333.3287986657
83333.3288031195
83333.3288063164
83333.3288083081
83333.3288090869
83333.3288087841
83333.3288079742
83333.3288023444
83333.328807921
83333.3288122998
83333.3288154614
83333.3288173945
83333.3288180773
83333.3288176466
83333.3288167154
83333.328805117
83333.3288117739
83333.3288173157
83333.3288216626
83333.3288247744
83333.3288266356
83333.3288272218
83333.328826673
83333.3288256358
83333.3288069934
83333.3288146991
83333.3288213651
83333.3288268766
83333.3288311652
83333.3288342078
83333.32883599
83333.3288364881
83333.3288358312
83333.3288346684
83333.3288079889
83333.3288167175
83333.3288244564
83333.3288310835
83333.3288365195
83333.3288407281
83333.3288436946
83333.3288454
83333.3288458185
83333.3288450971
83333.3288437878
83333.3288081745
83333.3288178928
83333.3288266546
83333.3288343415
83333.3288408772
83333.3288462199
83333.3288503496
83333.3288532532
83333.3288549089
83333.3288552847
83333.3288545152
83333.3288530951
83333.3287517303
83333.3287593082
83333.3287591248
83333.3287668496
83333.3287669811
83333.3287667209
83333.3287738111
83333.328774806
83333.3287748674
83333.3287744958
83333.3287799755
83333.3287820454
83333.3287829736
83333.3287829337
83333.3287824323
83333.3287852625
83333.3287884719
83333.3287904639
83333.3287913189
83333.3287911645
83333.3287905213
83333.3287896547
83333.3287939938
83333.3287971135
83333.3287990633
83333.3287998342
83333.3287995531
83333.3287987672
83333.3287931571
83333.3287985868
83333.328802854
83333.3288059409
83333.3288078345
83333.328808512
83333.3288081059
83333.3288071937
83333.3287957737
83333.3288022544
83333.3288076538
83333.3288118945
83333.3288149369
83333.3288167634
83333.328817348
83333.3288168366
83333.3288158372
83333.3287975099
83333.3288050167
83333.3288115153
83333.328816896
83333.3288210904
83333.3288240734
83333.3288258288
83333.3288263331
83333.3288257333
83333.328824673
83333.3287983848
83333.3288068961
83333.328814453
83333.328820935
83333.3288262602
83333.3288303889
83333.3288333054
83333.3288349924
83333.3288354253
83333.3288347293
83333.3288334865
83333.328798398
83333.3288078934
83333.328816471
83333.3288240072
83333.3288304208
83333.3288356667
83333.328839723
83333.3288425753
83333.3288442009
83333.3288445693
83333.3288437952
83333.3288423805
83333.3287976051
83333.3288080626
83333.3288176233
83333.3288261704
83333.3288336265
83333.3288399484
83333.328845113
83333.3288491045
83333.3288519097
83333.3288535055
83333.3288538489
83333.3288530586
83333.3288516288
83333.3287445485
83333.3287518404
83333.3287516703
83333.3287590931
83333.3287592344
83333.3287589903
83333.3287657836
83333.328766764
83333.328766837
83333.3287664857
83333.3287717005
83333.3287737249
83333.3287746401
83333.3287746149
83333.3287741389
83333.3287767656
83333.3287798955
83333.3287818443
83333.3287826885
83333.3287825527
83333.3287819388
83333.3287809613
83333.3287851869
83333.3287882306
83333.3287901387
83333.328790901
83333.3287906406
83333.3287898829
83333.3287842929
83333.3287895765
83333.3287937334
83333.3287967463
83333.3287986003
83333.32879927
83333.3287988825
83333.3287979856
83333.3287867621
83333.3287930662
83333.3287983231
83333.3288024573
83333.3288054289
83333.3288072188
83333.3288077975
83333.3288073021
83333.3288062972
83333.3287883682
83333.3287956717
83333.3288019986
83333.328807243
83333.3288113378
83333.3288142566
83333.3288159809
83333.3288164861
83333.3288159226
83333.3288148921
83333.3287891269
83333.3287974118
83333.3288047738
83333.328811097
83333.3288163
83333.3288203412
83333.3288232029
83333.3288248677
83333.3288253166
83333.3288247032
83333.3288236051
83333.3287890409
83333.3287982911
83333.3288066595
83333.3288140239
83333.3288203009
83333.3288254417
83333.328829422
83333.3288322275
83333.328833838
83333.3288342244
83333.3288334864
83333.3288320534
83333.3287880977
83333.3287983029
83333.3288076515
83333.3288160215
83333.3288233311
83333.3288295336
83333.3288346036
83333.3288385236
83333.3288412788
83333.3288428426
83333.3288431723
83333.3288423484
83333.3288409098
83333.3287863433
83333.3287974921
83333.328807795
83333.3288171389
83333.3288254457
83333.3288326716
83333.328838794
83333.3288437969
83333.3288476667
83333.3288503924
83333.3288519482
83333.3288522882
83333.3288515327
83333.3288501655
83333.328737636
83333.3287446475
83333.3287444902
83333.3287516178
83333.3287517687
83333.32875154
83333.3287580438
83333.3287590101
83333.3287590946
83333.3287587627
83333.3287637208
83333.3287657002
83333.3287666026
83333.3287665924
83333.3287661402
83333.3287685722
83333.3287716233
83333.3287735292
83333.3287743625
83333.3287742459
83333.3287736605
83333.3287725795
83333.3287766923
83333.3287796607
83333.3287815277
83333.3287822814
83333.3287820434
83333.3287813176
83333.3287757466
83333.3287808853
83333.3287849331
83333.3287878724
83333.3287896869
83333.3287903486
83333.3287899822
83333.3287891092
83333.3287780752
83333.3287842031
83333.3287893181
83333.3287933462
83333.3287962467
83333.3287979979
83333.3287985666
83333.3287980788
83333.3287970576
83333.3287795608
83333.3287866601
83333.3287928151
83333.3287979218
83333.3288019148
83333.3288047666
83333.328806455
83333.3288069496
83333.3288063789
83333.3288052555
83333.328780215
83333.3287882694
83333.3287954319
83333.32880159
83333.328806664
83333.3288106114
83333.3288134132
83333.3288150493
83333.3288155014
83333.3288149136
83333.3288137941
83333.3287800364
83333.3287890327
83333.328797179
83333.3288043575
83333.3288104851
83333.3288155107
83333.3288194082
83333.3288221628
83333.3288237563
83333.3288241705
83333.3288235381
83333.3288220946
83333.3287790164
83333.328788948
83333.3287980598
83333.3288062313
83333.3288133785
83333.3288194506
83333.3288244194
83333.3288282662
83333.3288309765
83333.3288325251
83333.3288328697
83333.3288320341
83333.328830571
83333.3287771361
83333.3287880021
83333.3287980639
83333.3288072034
83333.3288153382
83333.3288224209
83333.3288284262
83333.3288333363
83333.3288371355
83333.3288398092
83333.3288413259
83333.3288416333
83333.3288408229
83333.3288394393
83333.3287744315
83333.3287862299
83333.3287972267
83333.3288073132
83333.3288164116
83333.3288244767
83333.3288314858
83333.3288374248
83333.3288422814
83333.3288460459
83333.3288487106
83333.3288502537
83333.3288506425
83333.3288499861
83333.3288487575
83333.3287309881
83333.3287377242
83333.3287375791
83333.3287444176
83333.3287445779
83333.3287443639
83333.3287505844
83333.3287515368
83333.328751633
83333.3287513197
83333.328756028
83333.328757963
83333.3287588529
83333.3287588577
83333.3287584286
83333.3287606731
83333.3287636462
83333.3287655102
83333.3287663328
83333.3287662352
83333.3287656777
83333.3287645004
83333.3287685015
83333.3287713953
83333.3287732217
83333.3287739675
83333.3287737531
83333.3287730596
83333.3287675111
83333.3287725061
83333.3287764458
83333.3287793123
83333.3287810879
83333.3287817442
83333.328781404
83333.3287805667
83333.3287697065
83333.3287756592
83333.3287806334
83333.3287845561
83333.3287873856
83333.3287890981
83333.3287896586
83333.3287891873
83333.3287881773
83333.3287710796
83333.3287779748
83333.3287839582
83333.3287889275
83333.328792818
83333.3287956008
83333.3287972493
83333.3287977261
83333.3287971333
83333.3287958981
83333.32877164
83333.3287794632
83333.3287864253
83333.3287924167
83333.3287973589
83333.328801209
83333.3288039456
83333.3288055442
83333.3288059745
83333.3288053148
83333.3288039545
83333.3287713818
83333.3287801206
83333.3287880401
83333.3287950261
83333.3288009966
83333.3288058998
83333.3288097082
83333.3288124052
83333.3288139723
83333.3288143861
83333.3288137375
83333.3288123268
83333.3287702937
83333.3287799435
83333.328788806
83333.3287967648
83333.3288037359
83333.3288096661
83333.3288145249
83333.3288182923
83333.3288209543
83333.3288224894
83333.3288228652
83333.3288220532
83333.3288205897
83333.3287683605
83333.3287789237
83333.3287887206
83333.3287976344
83333.3288055807
83333.3288125078
83333.328818387
83333.3288231984
83333.3288269258
83333.3288295535
83333.3288310492
83333.3288313466
83333.3288305022
83333.328829099
83333.3287655568
83333.3287770406
83333.3287877662
83333.3287976201
83333.3288065199
83333.328814417
83333.3288212857
83333.3288271093
83333.3288318737
83333.3288355663
83333.3288381732
83333.3288396637
83333.3288399986
83333.3288392721
83333.328838018
83333.3287619078
83333.3287743187
83333.3287859679
83333.328796751
83333.3288065907
83333.3288154404
83333.3288232763
83333.3288300842
83333.3288358546
83333.32884058
83333.3288442561
83333.3288468827
83333.328848455
83333.3288489493
83333.3288484722
83333.328847473
83333.3287246016
83333.3287310664
83333.3287309325
83333.3287374875
83333.3287376567
83333.3287374567
83333.3287433992
83333.3287443383
83333.3287444459
83333.3287441507
83333.328748614
83333.3287505057
83333.3287513837
83333.3287514034
83333.3287509967
83333.3287530589
83333.3287559557
83333.3287577785
83333.3287585908
83333.328758512
83333.3287579821
83333.3287567142
83333.3287606049
83333.3287634254
83333.3287652116
83333.32876595
83333.328765759
83333.3287650987
83333.3287595771
83333.3287644298
83333.3287682626
83333.3287710573
83333.3287727946
83333.3287734476
83333.3287731355
83333.3287723376
83333.3287616478
83333.3287674267
83333.3287722613
83333.3287760797
83333.3287788391
83333.3287805149
83333.3287810731
83333.3287806328
83333.3287796735
83333.3287629166
83333.3287696086
83333.3287754215
83333.3287802541
83333.3287840425
83333.3287867562
83333.3287883655
83333.3287888299
83333.3287882406
83333.328787015
83333.328763392
83333.3287709843
83333.3287777465
83333.3287835712
83333.3287883806
83333.3287921315
83333.3287947996
83333.3287963542
83333.3287967477
83333.3287959969
83333.3287944244
83333.3287630661
83333.3287715471
83333.3287792392
83333.3287860307
83333.3287918409
83333.3287966177
83333.328800332
83333.328802964
83333.3288044895
83333.3288048557
83333.3288040359
83333.3288027437
83333.3287619236
83333.3287712891
83333.3287798981
83333.3287876375
83333.3287944245
83333.3288002051
83333.3288049466
83333.3288086278
83333.3288112336
83333.3288127416
83333.3288130964
83333.3288122969
83333.3288108864
83333.3287599478
83333.3287702013
83333.3287797214
83333.3287883957
83333.3287961396
83333.3288028988
83333.3288086418
83333.3288133467
83333.3288169966
83333.3288195763
83333.3288210554
83333.3288213524
83333.3288205134
83333.3288191321
83333.3287571174
83333.3287682684
83333.3287787002
83333.3287883008
83333.3287969855
83333.3288047015
83333.3288114193
83333.3288171196
83333.3288217867
83333.3288254066
83333.3288279624
83333.3288294177
83333.3288297205
83333.3288289521
83333.3288276788
83333.328753399
83333.3287654624
83333.3287768092
83333.3287873299
83333.3287969434
83333.3288055994
83333.3288132706
83333.3288199401
83333.3288255959
83333.328830228
83333.3288338281
83333.3288363874
83333.3288378911
83333.3288383139
83333.3288377482
83333.3288367045
83333.3287488066
83333.3287617968
83333.3287740621
83333.328785502
83333.32879604
83333.3288056283
83333.3288142413
83333.3288218632
83333.328828485
83333.328834102
83333.3288387125
83333.3288423203
83333.3288449401
83333.3288465876
83333.3288472675
83333.3288470592
83333.3288464
83333.3287184755
83333.3287246703
83333.3287245465
83333.3287308239
83333.3287310007
83333.3287308134
83333.3287364839
83333.3287374096
83333.3287375282
83333.3287372502
83333.3287414728
83333.3287433218
83333.3287441888
83333.3287442234
83333.3287438384
83333.3287457215
83333.3287485437
83333.3287503259
83333.3287511291
83333.3287510689
83333.3287505653
83333.3287492112
83333.3287529933
83333.3287557418
83333.3287574883
83333.3287582199
83333.3287580521
83333.3287574246
83333.3287519342
83333.3287566464
83333.3287603739
83333.3287630976
83333.3287647975
83333.3287654477
83333.3287651639
83333.3287644077
83333.3287538888
83333.3287594958
83333.3287641925
83333.3287679077
83333.3287705984
83333.3287722393
83333.3287727992
83333.3287723948
83333.3287714922
83333.3287550623
83333.3287615528
83333.3287671966
83333.3287718939
83333.3287755812
83333.3287782274
83333.3287798018
83333.328780267
83333.328779723
83333.3287786299
83333.3287554617
83333.3287628243
83333.3287693877
83333.3287750464
83333.3287797235
83333.3287833752
83333.3287859749
83333.3287874872
83333.3287878562
83333.3287871029
83333.3287856545
83333.3287550776
83333.3287633018
83333.328770767
83333.328777364
83333.328783013
83333.3287876615
83333.3287912787
83333.3287938406
83333.3287953131
83333.3287956105
83333.3287946414
83333.3287934863
83333.3287538936
83333.3287629752
83333.3287713304
83333.3287788486
83333.3287854483
83333.3287910748
83333.3287956943
83333.3287992828
83333.3288018223
83333.328803281
83333.328803554
83333.3288027596
83333.32880146
83333.3287518897
83333.3287618319
83333.3287710719
83333.3287795004
83333.328787034
83333.3287936172
83333.3287992163
83333.3288038074
83333.3288073724
83333.3288098956
83333.3288113402
83333.3288116245
83333.3288108098
83333.3288094797
83333.3287490436
83333.3287598566
83333.3287699839
83333.3287793179
83333.328787774
83333.3287952964
83333.3288018525
83333.3288074204
83333.3288119828
83333.328815525
83333.3288180297
83333.3288194557
83333.3288197406
83333.3288189804
83333.328817738
83333.3287453268
83333.3287570269
83333.3287680502
83333.3287782893
83333.3287876606
83333.3287961096
83333.3288036049
83333.3288101267
83333.3288156606
83333.3288201949
83333.3288237187
83333.3288262179
83333.3288276708
83333.3288280468
83333.3288274339
83333.328826358
83333.3287406979
83333.3287533067
83333.3287652371
83333.3287763839
83333.3287866668
83333.3287960346
83333.3288044577
83333.3288119174
83333.3288184017
83333.3288239032
83333.3288284175
83333.3288319422
83333.3288344827
83333.328836046
83333.3288366341
83333.3288363106
83333.3288355811
83333.3287351594
83333.3287486983
83333.3287615474
83333.3287736094
83333.3287848086
83333.3287950963
83333.3288044447
83333.328812836
83333.3288202597
83333.3288267117
83333.3288321929
83333.3288367085
83333.3288402742
83333.3288429247
83333.3288447105
83333.328845675
83333.3288458371
83333.328845622
83333.3287126111
83333.3287185342
83333.3287184201
83333.3287244222
83333.3287246053
83333.3287244297
83333.3287298359
83333.3287307465
83333.328730875
83333.3287306131
83333.3287346008
83333.3287364068
83333.3287372633
83333.3287373125
83333.3287369484
83333.3287386552
83333.3287414036
83333.3287431462
83333.3287439414
83333.3287438998
83333.3287434214
83333.3287419828
83333.3287456582
83333.3287483361
83333.328750044
83333.3287507694
83333.328750624
83333.3287500265
83333.3287445725
83333.3287491461
83333.3287527698
83333.328755424
83333.3287570869
83333.328757734
83333.3287574785
83333.3287567628
83333.3287464189
83333.3287518562
83333.3287564166
83333.3287600302
83333.3287626531
83333.3287642601
83333.3287648224
83333.3287644551
83333.3287636093
83333.3287475057
83333.328753797
83333.3287592736
83333.3287638371
83333.3287674248
83333.3287700054
83333.3287715487
83333.3287720223
83333.328771534
83333.3287705254
83333.3287478384
83333.3287549733
83333.3287613396
83333.3287668339
83333.32877138
83333.3287749339
83333.3287774679
83333.3287789465
83333.3287793218
83333.3287786667
83333.3287775321
83333.3287474058
83333.3287553747
83333.3287626145
83333.328769018
83333.3287745061
83333.3287790264
83333.3287825463
83333.3287850385
83333.3287864614
83333.3287867233
83333.3287858248
83333.3287847464
83333.3287461903
83333.3287549897
83333.3287630922
83333.3287703894
83333.3287768007
83333.3287822714
83333.3287867661
83333.3287902582
83333.3287927239
83333.3287941177
83333.3287943048
83333.3287935332
83333.328792352
83333.3287441715
83333.3287538041
83333.3287627643
83333.3287709457
83333.3287782657
83333.3287846686
83333.3287901189
83333.3287945908
83333.3287980635
83333.3288005179
83333.3288019053
83333.3288021626
83333.3288013905
83333.328800134
83333.3287413247
83333.3287517995
83333.3287616201
83333.328770682
83333.3287789018
83333.3287862226
83333.3287926091
83333.3287980372
83333.3288024878
83333.3288059451
83333.3288083906
83333.3288097829
83333.328810056
83333.3288093258
83333.3288081284
83333.3287376211
83333.3287489544
83333.3287596451
83333.3287695903
83333.3287787064
83333.3287869361
83333.3287942446
83333.3288006089
83333.3288060126
83333.3288104425
83333.3288138864
83333.3288163278
83333.3288177397
83333.3288180909
83333.3288174905
83333.3288164473
83333.3287330247
83333.3287452389
83333.3287568155
83333.3287676514
83333.3287776643
83333.3287867985
83333.3287950204
83333.3288023079
83333.3288086462
83333.3288140258
83333.3288184397
83333.328821882
83333.3288243512
83333.3288258496
83333.3288263735
83333.3288259977
83333.3288252096
83333.3287274859
83333.3287406086
83333.3287530892
83333.3287648261
83333.3287757402
83333.3287857791
83333.3287949113
83333.3288031158
83333.3288103786
83333.3288166926
83333.3288220558
83333.3288264697
83333.3288299426
83333.3288325
83333.328834184
83333.32883503
83333.3288350417
83333.3288347337
83333.3287209961
83333.3287350547
83333.328748458
83333.328761111
83333.3287729389
83333.3287838919
83333.3287939401
83333.3288030638
83333.3288112503
83333.3288184941
83333.3288247965
83333.3288301644
83333.3288346125
83333.3288381726
83333.328840913
83333.328842935
83333.3288442889
83333.3288449017
83333.3288451004
83333.3287069944
83333.3287126639
83333.3287125559
83333.3287182787
83333.328718468
83333.3287183043
83333.3287234515
83333.3287243439
83333.3287244811
83333.3287242345
83333.3287279962
83333.3287297568
83333.3287306026
83333.3287306656
83333.3287303214
83333.3287318569
83333.3287345311
83333.3287362343
83333.3287370228
83333.3287369998
83333.3287365462
83333.3287350232
83333.3287385931
83333.3287412012
83333.328742872
83333.328743593
83333.3287434698
83333.3287428999
83333.328737483
83333.3287419203
83333.3287454417
83333.3287480276
83333.3287496546
83333.3287502989
83333.3287500688
83333.3287493849
83333.3287392271
83333.3287444975
83333.3287489238
83333.3287524371
83333.3287549934
83333.3287565667
83333.3287571304
83333.3287567975
83333.3287560077
83333.3287402354
83333.3287463301
83333.3287516417
83333.3287560732
83333.328759563
83333.3287620793
83333.3287635928
83333.3287640756
83333.3287636418
83333.3287627032
83333.3287405102
83333.3287474202
83333.3287535916
83333.3287589234
83333.3287633402
83333.3287667981
83333.3287692695
83333.3287707212
83333.3287711193
83333.3287705546
83333.328769513
83333.3287400385
83333.3287477548
83333.3287547713
83333.3287609829
83333.3287663117
83333.3287707051
83333.3287741297
83333.3287765571
83333.3287779471
83333.3287782345
83333.3287775435
83333.3287764569
83333.3287388017
83333.3287473213
83333.3287551728
83333.3287622502
83333.3287684739
83333.3287737889
83333.3287781586
83333.3287815541
83333.3287839468
83333.3287852843
83333.3287854645
83333.3287847523
83333.3287836218
83333.3287367786
83333.328746104
83333.3287547863
83333.3287627211
83333.3287698269
83333.3287760478
83333.3287813469
83333.3287856964
83333.328789072
83333.3287914486
83333.3287927687
83333.328792999
83333.3287922853
83333.3287911058
83333.3287339444
83333.3287440838
83333.3287535991
83333.3287623882
83333.328770369
83333.3287774839
83333.3287836962
83333.3287889795
83333.3287933125
83333.328796677
83333.3287990522
83333.3288004021
83333.3288006695
83333.328799982
83333.3287988379
83333.3287302688
83333.3287412369
83333.3287515942
83333.328761241
83333.328770095
83333.3287780976
83333.3287852114
83333.328791411
83333.3287966776
83333.3288009965
83333.3288043543
83333.3288067355
83333.3288081109
83333.3288084518
83333.328807881
83333.3288068781
83333.3287257165
83333.3287375348
83333.3287487504
83333.3287592647
83333.3287689955
83333.3287778843
83333.3287858941
83333.3287929995
83333.3287991831
83333.3288044332
83333.3288087414
83333.3288120996
83333.3288145032
83333.3288159521
83333.3288164481
83333.3288160856
83333.3288153282
83333.3287202437
83333.3287329401
83333.3287450359
83333.3287564319
83333.3287670473
83333.3287768253
83333.3287857304
83333.3287937377
83333.3288008305
83333.3288069987
83333.3288122382
83333.3288165472
83333.3288199292
83333.3288224034
83333.3288240076
83333.3288247706
83333.3288247182
83333.3288243125
83333.3287137933
83333.3287274003
83333.3287404004
83333.3287526952
83333.3287642066
83333.3287748814
83333.3287846861
83333.3287935971
83333.3288015984
83333.3288086811
83333.3288148433
83333.3288200885
83333.3288244265
83333.3288278813
83333.3288305117
83333.3288324095
83333.3288336058
83333.3288340433
83333.3288341569
83333.3287063466
83333.3287208958
83333.328734825
83333.3287480406
83333.3287604679
83333.328772056
83333.3287827731
83333.3287925975
83333.3288015142
83333.3288095163
83333.3288166037
83333.3288227833
83333.3288280698
83333.3288324921
83333.3288361116
83333.328839052
83333.3288414509
83333.3288432591
83333.3288443217
83333.3288448085
83333.3287070359
83333.3287069418
83333.3287124011
83333.3287125981
83333.3287124428
83333.3287173288
83333.3287181989
83333.3287183454
83333.3287181137
83333.3287216568
83333.3287233677
83333.328724201
83333.328724277
83333.3287239518
83333.3287253251
83333.3287279229
83333.3287295857
83333.3287303683
83333.3287303634
83333.3287299342
83333.3287283292
83333.3287317939
83333.3287343321
83333.3287359672
83333.3287366856
83333.3287365855
83333.3287360442
83333.3287306595
83333.3287349621
83333.3287383824
83333.3287409016
83333.3287424945
83333.328743138
83333.3287429329
83333.3287422736
83333.3287323044
83333.3287374107
83333.3287417047
83333.3287451195
83333.3287476104
83333.3287491505
83333.3287497139
83333.3287494069
83333.3287486462
83333.3287332403
83333.3287391415
83333.3287442906
83333.3287485921
83333.3287519853
83333.3287544382
83333.3287559216
83333.32875641
83333.3287560209
83333.3287551854
83333.328733465
83333.3287401532
83333.3287461325
83333.328751304
83333.3287555933
83333.328758957
83333.3287613676
83333.3287627944
83333.3287632155
83333.328762727
83333.3287617423
83333.3287329632
83333.3287404301
83333.3287472259
83333.3287532481
83333.3287584194
83333.3287626878
83333.3287660198
83333.3287683875
83333.3287697578
83333.328770095
83333.3287695039
83333.3287684133
83333.3287317146
83333.3287399576
83333.3287475609
83333.3287544207
83333.3287604582
83333.3287656188
83333.3287698652
83333.3287731673
83333.3287754955
83333.3287768052
83333.3287770516
83333.328776399
83333.3287752555
83333.3287296973
83333.328738719
83333.3287471259
83333.3287548157
83333.3287617083
83333.3287677473
83333.3287728951
83333.328777122
83333.3287804007
83333.3287827019
83333.3287839744
83333.3287842026
83333.3287835439
83333.3287824132
83333.3287268864
83333.3287366944
83333.328745907
83333.3287544245
83333.328762166
83333.3287690736
83333.3287751094
83333.3287802453
83333.3287844573
83333.3287877241
83333.328790022
83333.3287913237
83333.3287915924
83333.3287909562
83333.3287898662
83333.3287232521
83333.3287338594
83333.3287438859
83333.3287532346
83333.3287618243
83333.328769596
83333.3287765108
83333.3287825409
83333.3287876655
83333.3287918677
83333.3287951328
83333.3287974482
83333.3287987887
83333.32879913
83333.3287985944
83333.3287976335
83333.3287187582
83333.3287301843
83333.3287410396
83333.3287512291
83333.3287606717
83333.3287693081
83333.3287770983
83333.3287840145
83333.3287900367
83333.3287951513
83333.3287993482
83333.3288026193
83333.32880496
83333.32880637
83333.328806857
83333.3288065193
83333.3288057966
83333.3287133627
83333.3287256339
83333.3287373398
83333.328748386
83333.3287586918
83333.328768198
83333.3287768654
83333.328784666
83333.3287915798
83333.3287975946
83333.328802704
83333.3288069044
83333.3288101968
83333.3288125979
83333.3288141455
83333.3288148755
83333.3288148353
83333.3288144545
83333.3287070145
83333.3287201632
83333.3287327469
83333.3287446702
83333.3287558532
83333.3287662388
83333.3287757895
83333.328784478
83333.3287922848
83333.3287991981
83333.3288052131
83333.3288103309
83333.3288145572