/*--------------------------------*- C++ -*----------------------------------*\
  =========                 |
  \\      /  F ield         | OpenFOAM: The Open Source CFD Toolbox
   \\    /   O peration     | Website:  https://openfoam.org
    \\  /    A nd           | Version:  12
     \\/     M anipulation  |
\*---------------------------------------------------------------------------*/
/*   Windows 32 and 64 bit porting by blueCAPE: http://www.bluecape.com.pt   *\
|  Based on Windows porting (2.0.x v4) by Symscape: http://www.symscape.com   |
\*---------------------------------------------------------------------------*/
FoamFile
{
    format      ascii;
    class       surfaceScalarField;
    location    "200";
    object      phi;
}
// * * * * * * * * * * * * * * * * * * * * * * * * * * * * * * * * * * * * * //

dimensions      [0 3 -1 0 0 0 0];

internalField   nonuniform List<scalar> 
28770
(
2.77633067502469e-06
6.05837299053127e-08
4.08233461761365e-08
2.67919390199103e-06
5.83713851743688e-08
3.87659894114624e-08
6.84215359892018e-07
9.33080496933292e-08
7.88472469784375e-09
3.50629310671002e-06
6.95116312831818e-08
9.40599652892804e-08
2.58413242121821e-06
5.64413060256971e-08
3.86254877279741e-08
6.45692182448839e-07
9.01422173179353e-08
6.75352390058882e-09
3.38838478779164e-06
6.74059121415176e-08
8.92720358960388e-08
4.76092873937351e-07
1.2182659998744e-07
5.54783386751133e-09
8.56596680740362e-07
1.11685058161878e-07
1.55678138120196e-08
3.96135578486046e-06
7.95679680761997e-08
1.52383903254427e-07
2.4917609768783e-06
5.47912020081055e-08
3.75813309961297e-08
6.08726263461621e-07
8.68771865602693e-08
6.53208863669757e-09
3.27324630532776e-06
6.67312632461465e-08
8.7036510453035e-08
4.43977793396575e-07
1.17882146831095e-07
4.37552975339722e-09
8.0895748138631e-07
1.08126801703608e-07
1.36757631200235e-08
3.82934723072292e-06
7.63831355747853e-08
1.44903647676649e-07
4.23603065432559e-07
1.49898309200416e-07
4.47808192511206e-09
5.93258924161363e-07
1.47394688509571e-07
1.10459693117501e-08
9.83330904251321e-07
1.30188640363863e-07
2.27225933068572e-08
4.49444695951428e-06
9.04356383076262e-08
2.16094030090126e-07
2.40252747401396e-06
5.27403149023905e-08
3.6493893847386e-08
5.73722458260332e-07
8.36919145703279e-08
6.1036119024186e-09
3.16163764486781e-06
6.46618096586052e-08
8.45331378635797e-08
4.13463373649882e-07
1.13725121398358e-07
3.66694457269612e-09
7.64243301143355e-07
1.05225215059408e-07
1.27534737806921e-08
3.70005622287637e-06
7.65007629703552e-08
1.39830770668206e-07
3.9290458369839e-07
1.44984839858892e-07
3.59609794011099e-09
5.54362312361699e-07
1.42464532932346e-07
8.93559073369073e-09
9.27862699203098e-07
1.2599587743654e-07
1.953162738741e-08
4.3470913557291e-06
8.66413300277071e-08
2.05623475045419e-07
4.07537633565771e-07
1.7765054198611e-07
4.37942000184194e-09
5.17505583385641e-07
1.81104983118006e-07
8.9799395424716e-09
6.9356348723614e-07
1.74534707524629e-07
1.50450035545418e-08
1.12400059824079e-06
1.4827295380622e-07
2.98520183926093e-08
4.91871855432655e-06
9.86727772162483e-08
2.83943678145482e-07
2.31641789953847e-06
5.06145327787726e-08
3.54956471642741e-08
5.40520473255298e-07
8.0440072360514e-08
5.50338838142678e-09
3.05364442035137e-06
6.24654575166703e-08
8.20214110012081e-08
3.84559028559888e-07
1.09357447856977e-07
3.23882467129339e-09
7.2219736549318e-07
1.01414052622393e-07
1.1398905519098e-08
3.57471965825156e-06
7.46747423485499e-08
1.35203884520604e-07
3.63869992930897e-07
1.39789505701891e-07
2.97033721522241e-09
5.18080217030251e-07
1.37750183594902e-07
7.42456673005249e-09
8.76396314123157e-07
1.23283592384858e-07
1.74401002170987e-08
4.20225450026849e-06
8.7022383128794e-08
1.97651228897963e-07
3.77256684084324e-07
1.71708828893328e-07
3.55700883694464e-09
4.81379299279227e-07
1.75070892997951e-07
7.11660145783816e-09
6.47900420544215e-07
1.68560099050994e-07
1.20349721609015e-08
1.06153962540453e-06
1.4328097739238e-07
2.53550292005061e-08
4.76005791253717e-06
9.38937767670197e-08
2.70395411820729e-07
4.01830439972171e-07
2.05181375957272e-07
4.44182498178806e-09
4.84454409945961e-07
2.13699944219916e-07
8.6409628808879e-09
6.0415842378497e-07
2.14649265763725e-07
1.32844721338217e-08
7.87310716783297e-07
1.9894318953553e-07
1.85513593281539e-08
1.21927382659087e-06
1.59579640632038e-07
3.82161966831231e-08
5.17503552351644e-06
1.02944244857083e-07
3.54040672913022e-07
2.23333255542134e-06
4.85948608299715e-08
3.44898273775925e-08
5.09087852713505e-07
7.71353004130521e-08
4.91191018391526e-09
2.94918304427897e-06
6.02940755149235e-08
7.96653808822174e-08
3.57289841109455e-07
1.0490218183159e-07
2.80703778554163e-09
6.82396940624246e-07
9.75791626312818e-08
1.01903777852509e-08
3.45344607581387e-06
7.2212719525397e-08
1.31084877351185e-07
3.36442288336737e-07
1.34326380807324e-07
2.45897900824347e-09
4.8374178968348e-07
1.32654279997828e-07
6.33765600029137e-09
8.28276949575596e-07
1.18760965142146e-07
1.54319181361422e-08
4.06174025527876e-06
8.48503734966402e-08
1.90869858252293e-07
3.48668244656083e-07
1.65420073431839e-07
2.95807339281864e-09
4.47424135898412e-07
1.68941776722062e-07
5.73454223966659e-09
6.05770043670791e-07
1.63155504954824e-07
9.68302273204405e-09
1.00357395314407e-06
1.40466872790869e-07
2.19630077868309e-08
4.60387772144085e-06
9.42856507354216e-08
2.59552665993876e-07
3.71740000408451e-07
1.98134874466719e-07
3.66440559997289e-09
4.49620253469778e-07
2.06465209267678e-07
6.99748189621736e-09
5.62072274323102e-07
2.0723386127112e-07
1.05292480861255e-08
7.3610677742e-07
1.91964896756978e-07
1.45567949437933e-08
1.15251237764543e-06
1.53867054953973e-07
3.21425193247612e-08
5.01064887216001e-06
9.76964529444304e-08
3.37087111605141e-07
3.9927513175933e-07
2.32388358537428e-07
4.71793880084441e-09
4.68644285881269e-07
2.44932143322264e-07
9.45950513447663e-09
5.5883897390047e-07
2.5197519753476e-07
1.36782743797664e-08
6.78498194689614e-07
2.43764979639843e-07
1.77157573130699e-08
8.38216640762897e-07
2.1253135038434e-07
2.26656845208208e-08
1.26702523836713e-06
1.64266035955772e-07
4.78451319881319e-08
5.30002060877428e-06
1.04772604848379e-07
4.24178806753605e-07
2.15319953609024e-06
4.66775171466038e-08
3.3452909556922e-08
4.79421028516751e-07
7.38442672246441e-08
4.4172677719003e-09
2.84816610844217e-06
5.81084879253604e-08
7.74032358400193e-08
3.31643643574596e-07
1.00418519395819e-07
2.363048389224e-09
6.44697634553451e-07
9.37666205742665e-08
9.14070107765825e-09
3.33604680640092e-06
6.97305813932187e-08
1.27339737686963e-07
3.10615515459107e-07
1.28724611642504e-07
2.00426577630025e-09
4.51336331182215e-07
1.27421931600022e-07
5.37073268958382e-09
7.8276943886674e-07
1.1424641624747e-07
1.36656339275204e-08
3.92558842026775e-06
8.22037203137192e-08
1.85038830064277e-07
3.21714156775366e-07
1.58836035051348e-07
2.44455080647798e-09
4.15378817288075e-07
1.6252228659993e-07
4.63582075232925e-09
5.65884346002445e-07
1.5715577731768e-07
7.82949573573937e-09
9.49303422811697e-07
1.35374654838426e-07
1.91818495516683e-08
4.45217515045494e-06
9.21113338941607e-08
2.50466676994359e-07
3.43380431392648e-07
1.90705335077121e-07
3.07444547196415e-09
4.16813667360958e-07
1.99020871590481e-07
5.68566948396939e-09
5.22688168203359e-07
1.99977337986725e-07
8.29667975455939e-09
6.89024601033009e-07
1.85895157807413e-07
1.13375356253063e-08
1.09044648129209e-06
1.50893299365335e-07
2.74243553613242e-08
4.8488101555701e-06
9.82482986561619e-08
3.23154076869539e-07
3.69295905858026e-07
2.24173245883053e-07
3.94092405213583e-09
4.34451572497192e-07
2.36405244586854e-07
7.91737660510662e-09
5.18790906722418e-07
2.4317936604447e-07
1.11002284244974e-08
6.31789685236647e-07
2.35200989762271e-07
1.4002948241227e-08
7.84232754469578e-07
2.04857630929567e-07
1.75514967359526e-08
1.19859396558962e-06
1.58122099443412e-07
4.01538509916149e-08
5.13411420404583e-06
9.94461963631176e-08
4.03549253963796e-07
3.9844289698512e-07
2.59222628963657e-07
5.18884001740206e-09
4.61246677193139e-07
2.75140726175444e-07
1.05857427655399e-08
5.35934132318701e-07
2.87356373662589e-07
1.5430580120941e-08
6.20115852253877e-07
2.84568627695403e-07
1.93916545565359e-08
7.13245382060329e-07
2.58942654544744e-07
2.26104007140174e-08
8.52863941302529e-07
2.16833201567129e-07
2.76453164622407e-08
1.2859715343815e-06
1.65427870724023e-07
5.82511283749416e-08
5.35743553480412e-06
1.05842389678384e-07
4.92805364813595e-07
2.0759724879696e-06
4.47977294320967e-08
3.24282568332028e-08
4.51463990946276e-07
7.05957748735693e-08
4.03885076569247e-09
2.75053783453042e-06
5.58754653224331e-08
7.52045511759412e-08
3.07579922937938e-07
9.59526633997015e-08
1.9552969261054e-09
6.09058056259831e-07
8.99529481004455e-08
8.2124077743595e-09
3.22242096672913e-06
6.72429743936695e-08
1.23785139090924e-07
2.86370921424808e-07
1.2307333000618e-07
1.58990877763542e-09
4.2083887178741e-07
1.22153648627534e-07
4.47383091646229e-09
7.3966881754718e-07
1.09810257897071e-07
1.21634892975568e-08
3.79350014218513e-06
7.94501564928569e-08
1.79972997495793e-07
2.96369017661583e-07
1.52079791679403e-07
1.98996931385453e-09
3.85195685371487e-07
1.55929610430745e-07
3.67965350100456e-09
5.2826174766864e-07
1.50976226434064e-07
6.26371385843567e-09
8.98021265108555e-07
1.30285441524833e-07
1.68655904194378e-08
4.3048323790894e-06
8.93938939780515e-08
2.42989671782544e-07
3.1669118523325e-07
1.82963782482899e-07
2.56157822298198e-09
3.85915522987576e-07
1.91302419896299e-07
4.56278507359832e-09
4.85568574250958e-07
1.9243934858483e-07
6.47240254903307e-09
6.44371299401038e-07
1.79118552199492e-07
8.73970802680031e-09
1.03234314380261e-06
1.45489710184215e-07
2.39080127696052e-08
4.69156758687788e-06
9.60475646866414e-08
3.11664046086538e-07
3.41097875713806e-07
2.15556460430758e-07
3.34692635939743e-09
4.02280139828793e-07
2.27650042863122e-07
6.61715694070814e-09
4.81132545568431e-07
2.34362589364573e-07
8.95873904864297e-09
5.8810027785062e-07
2.26970165739326e-07
1.09115579469375e-08
7.34672163175836e-07
1.98362843909825e-07
1.34294285042101e-08
1.1349716731195e-06
1.55123327477068e-07
3.4173576737382e-08
4.97098945308315e-06
1.0013489684891e-07
3.86146844512208e-07
3.68445231507591e-07
2.49744722454484e-07
4.42628120114745e-09
4.27330461009152e-07
2.653210932762e-07
8.94146683371511e-09
4.96934110805013e-07
2.77170112131572e-07
1.29269533575129e-08
5.7607250644748e-07
2.74492918501365e-07
1.58515077855033e-08
6.64539354796719e-07
2.49680585436406e-07
1.7886115089848e-08
7.98374225613876e-07
2.08786837963488e-07
2.13773145944885e-08
1.217524678724e-06
1.59052605699311e-07
4.89970475889935e-08
5.19194797905736e-06
1.00542799993161e-07
4.68499855994995e-07
3.99105269734949e-07
2.85792313641068e-07
5.73065558106778e-09
4.58298526083328e-07
3.04640361274733e-07
1.18842482051709e-08
5.2614616347078e-07
3.21397442592241e-07
1.76209278932071e-08
5.90442887588097e-07
3.22906396524145e-07
2.23009205327898e-08
6.46161736953897e-07
3.00996234532911e-07
2.5481559505789e-08
7.17279553777122e-07
2.62783893811098e-07
2.78907442758578e-08
8.4960392862524e-07
2.16646155870056e-07
3.31862567506989e-08
1.2930743045585e-06
1.65359103088573e-07
6.90212654283549e-08
5.39411460703205e-06
1.07097580005428e-07
5.58647125836356e-07
2.00162083197755e-06
4.29518156319801e-08
3.13982858901255e-08
4.25123690587407e-07
6.74155098516939e-08
3.72272671351727e-09
2.65625677204747e-06
5.36606349461232e-08
7.30467971466748e-08
2.85036599641729e-07
9.1542777859585e-08
1.5960986683551e-09
5.75390605267563e-07
8.61901514558498e-08
7.39072951097581e-09
3.1125211927923e-06
6.47916730481358e-08
1.20314510480012e-07
2.63668625323098e-07
1.17434313510477e-07
1.22086147092434e-09
3.92177398323085e-07
1.16899431464819e-07
3.67005768623359e-09
6.98891693312021e-07
1.0538448048757e-07
1.08498354862339e-08
3.6653849387083e-06
7.66638562363575e-08
1.7523539182557e-07
2.72599836811687e-07
1.4525774892449e-07
1.58465108344746e-09
3.56836146602767e-07
1.49277495551266e-07
2.82591801950483e-09
4.92870536028336e-07
1.44767820407356e-07
4.90789049317397e-09
8.49404121296105e-07
1.25277054857996e-07
1.49542475331885e-08
4.16145003138771e-06
8.64967856895309e-08
2.36863156976545e-07
2.91627260921724e-07
1.75036222686657e-07
2.10761378701858e-09
3.56858437185512e-07
1.83383978045224e-07
3.59289460439066e-09
4.50615938667181e-07
1.84684064913599e-07
4.92432908193448e-09
6.0221401950047e-07
1.7211815905216e-07
6.58793954172194e-09
9.77414639669335e-07
1.40062944436914e-07
2.11292378787159e-08
4.53853659714006e-06
9.3223880469693e-08
3.02803593784372e-07
3.1460604876517e-07
2.06621870150316e-07
2.83374172862643e-09
3.72026461812863e-07
2.18624191973432e-07
5.49368497000331e-09
4.45681349418561e-07
2.25302203343534e-07
7.15155663117459e-09
5.46882162384829e-07
2.1845828220174e-07
8.35141087443731e-09
6.87616943805047e-07
1.91136139617747e-07
1.01483087986756e-08
1.07541225428705e-06
1.49587317872018e-07
2.99315290911823e-08
4.81307737355013e-06
9.78726092058777e-08
3.71713707989541e-07
3.40294662119226e-07
2.39881415949313e-07
3.82567334476769e-09
3.95461601701897e-07
2.55233800167889e-07
7.63221961686294e-09
4.60249418650685e-07
2.66858003777078e-07
1.0806726359972e-08
5.34635241454631e-07
2.64518295411145e-07
1.2848441477131e-08
6.189778075852e-07
2.40891792755938e-07
1.39447450281623e-08
7.48423959286741e-07
2.02132487459945e-07
1.63715061265966e-08
1.15397123066413e-06
1.5610758573657e-07
4.1756750343553e-08
5.0299315733172e-06
1.01381550048172e-07
4.46789870742087e-07
3.68931219565699e-07
2.74981409408518e-07
4.93741897183607e-09
4.24361318846278e-07
2.93430348668369e-07
1.02543903683717e-08
4.87472561175576e-07
3.0969124532229e-07
1.50943626722114e-08
5.47745728608801e-07
3.11289765136262e-07
1.88271094564482e-08
6.00537654257089e-07
2.90190423542473e-07
2.0965871343951e-08
6.68574727153024e-07
2.5321160278722e-07
2.21671838885281e-08
7.95800963150909e-07
2.08414698544346e-07
2.58201842468997e-08
1.22536348980043e-06
1.58894646906367e-07
5.83620076072617e-08
5.22905790617968e-06
1.01506116272043e-07
5.3206072924729e-07
4.00835599285907e-07
3.12212430812137e-07
6.346834103936e-09
4.57870003034084e-07
3.33865182570461e-07
1.30600694873141e-08
5.23044108384535e-07
3.54786631701982e-07
1.97540569482359e-08
5.7832903747806e-07
3.5992864149421e-07
2.54952212128206e-08
6.12830704242716e-07
3.40556587764064e-07
2.94374336722961e-08
6.45765375868652e-07
3.04548535994564e-07
3.15914247101262e-08
7.07523667718849e-07
2.61354344781062e-07
3.33116583755632e-08
8.40595361085734e-07
2.15004538447322e-07
3.89511429245669e-08
1.29778980390295e-06
1.65124875948031e-07
8.00255816327615e-08
5.43459084176593e-06
1.09972751729158e-07
6.19395580659252e-07
1.93006553384653e-06
4.11568268880833e-08
3.03954285691164e-08
4.00340581767917e-07
6.43211504125795e-08
3.41430774547916e-09
2.56526964485239e-06
5.1554207177225e-08
7.08334413439769e-08
2.63943158094858e-07
8.7224291458275e-08
1.28458877703785e-09
5.43595912793345e-07
8.24954517347436e-08
6.68013240286207e-09
3.0064085121292e-06
6.22761731987837e-08
1.16881402829611e-07
2.42447027912105e-07
1.11867640883629e-07
8.96821039642017e-10
3.65282783958706e-07
1.11710026241908e-07
2.97123955198994e-09
6.60382587474203e-07
1.00995513476083e-07
9.69516207334377e-09
3.54138826083445e-06
7.3821490559412e-08
1.70484944702305e-07
2.50354943283236e-07
1.38453179274219e-07
1.2259945567808e-09
3.30238619339094e-07
1.42642908993917e-07
2.0748896782029e-09
4.59607305841111e-07
1.38577040839843e-07
3.74119362792741e-09
8.03351898786142e-07
1.20247316457565e-07
1.33184802534699e-08
4.02204682111833e-06
8.34480595686222e-08
2.31191530590729e-07
2.68141383752727e-07
1.67037220529015e-07
1.70642539820692e-09
3.29584948863343e-07
1.75386166563786e-07
2.74954363329325e-09
4.17774479300481e-07
1.76845292195611e-07
3.5895232262069e-09
5.62530443134546e-07
1.65083441348975e-07
4.78564317427619e-09
9.25226733666264e-07
1.34713294215262e-07
1.89238552066303e-08
4.38891370794901e-06
9.02058352265142e-08
2.96279209529989e-07
2.89765917662573e-07
1.97499860792665e-07
2.37661932083942e-09
3.43614988516065e-07
2.09386808173575e-07
4.51637323589523e-09
4.12349003493537e-07
2.160082330674e-07
5.60096069858465e-09
5.08037233932135e-07
2.09693841747764e-07
6.1934965218225e-09
6.43129209745802e-07
1.83659016466875e-07
7.47977224621845e-09
1.01898879646385e-06
1.43978811197347e-07
2.67955770390912e-08
4.65925106974768e-06
9.48856465700343e-08
3.61746161385311e-07
3.13903001159462e-07
2.29712968998163e-07
3.30062274094048e-09
3.65535306990208e-07
2.44869376112571e-07
6.51498777852661e-09
4.25760524612986e-07
2.56294962876896e-07
8.98992098770322e-09
4.95608676867457e-07
2.54330718675464e-07
1.03059380508018e-08
5.75946190157631e-07
2.31840276208863e-07
1.06787202796571e-08
7.00959854097406e-07
1.94748173488979e-07
1.24508231480836e-08
1.09456064493299e-06
1.50523848978261e-07
3.66930496100277e-08
4.87522220167116e-06
9.9132934830006e-08
4.27294455476477e-07
3.40681668501459e-07
2.63796738710984e-07
4.33425325636355e-09
3.92544155539603e-07
2.8194983177362e-07
8.92681617820064e-09
4.51159677415161e-07
2.97853442915682e-07
1.29496187929718e-08
5.07559982244625e-07
2.99672412784259e-07
1.58384957757685e-08
5.57576044072537e-07
2.79582187727289e-07
1.71200501867275e-08
6.23010049060185e-07
2.4422516236152e-07
1.74166279702383e-08
7.46560951517076e-07
2.01743365938859e-07
1.99760736241421e-08
1.16266434726974e-06
1.56053230576639e-07
4.97857466698603e-08
5.06828168996967e-06
1.02601587747233e-07
5.04981011552484e-07
3.70317978864534e-07
2.99945931007164e-07
5.55311040470791e-09
4.23691963349669e-07
3.21135833488402e-07
1.14100453551311e-08
4.84299846497132e-07
3.4148136287612e-07
1.72085460531234e-08
5.36029287621874e-07
3.46673302907947e-07
2.20110642899313e-08
5.68692562970168e-07
3.28157556531266e-07
2.49980744377593e-08
6.00342611292932e-07
2.93460907728818e-07
2.61401785048557e-08
6.59773955701385e-07
2.51672037264533e-07
2.66606628694304e-08
7.87968664150381e-07
2.06699677240259e-07
3.06428539151243e-08
1.23097298754213e-06
1.58533873711027e-07
6.81513249720703e-08
5.26783610341137e-06
1.04158094423619e-07
5.94671802290762e-07
4.02841329951386e-07
3.38801028869331e-07
6.76275653460988e-09
4.58768281975486e-07
3.63228706942245e-07
1.40619250747502e-08
5.23124377481e-07
3.8801007047979e-07
2.1559548881198e-08
5.74882914262379e-07
3.96419921471541e-07
2.84127565909347e-08
5.99862188957083e-07
3.78931493771418e-07
3.35287932016981e-08
6.11058692487514e-07
3.44012981932991e-07
3.6380307173723e-08
6.33862626830225e-07
3.02133825111153e-07
3.75365159065255e-08
6.93869316112777e-07
2.58221643109856e-07
3.87344218208358e-08
8.30790465728865e-07
2.1294006819589e-07
4.49013894464887e-08
1.30508525543542e-06
1.65461534865697e-07
9.21294329697058e-08
5.44517205985323e-06
1.12923350089917e-07
6.72877078583839e-07
1.86119366878216e-06
3.94362016195562e-08
2.943719078586e-08
3.77042126161026e-07
6.13358112813436e-08
3.11938138840267e-09
2.47749067346549e-06
4.95316099976928e-08
6.86383189277805e-08
2.44229206537028e-07
8.3021010204723e-08
1.01446989554002e-09
5.13620215294238e-07
7.88795700134594e-08
6.06461635438462e-09
2.90407836687329e-06
5.97111355847479e-08
1.13457481695011e-07
2.22636747058279e-07
1.0641398076065e-07
6.2062137120622e-10
3.40075006189318e-07
1.06618940073929e-07
2.36914999123508e-09
6.24019937884204e-07
9.66573502182727e-08
8.65868640706321e-09
3.42174635200945e-06
7.08099471097895e-08
1.65713333951904e-07
2.29573036658149e-07
1.31734845634805e-07
9.14640674310623e-10
3.05334358356484e-07
1.36090272377501e-07
1.42116246728936e-09
4.28382051805685e-07
1.32457596849631e-07
2.7343963047677e-09
7.59801961780562e-07
1.15238727129581e-07
1.18248926736901e-08
3.88698080978471e-06
8.02693370641064e-08
2.25280126051335e-07
2.46178052259519e-07
1.59067133602028e-07
1.34928533598332e-09
3.04031987278327e-07
1.67402309289934e-07
2.01916275180126e-09
3.86963484261975e-07
1.69019694302891e-07
2.44300569177754e-09
5.25193924415663e-07
1.58060325419835e-07
3.26551963710681e-09
8.7565482345991e-07
1.29301016712633e-07
1.70361561679211e-08
4.24267677581092e-06
8.69897991339604e-08
2.90440850262503e-07
2.66517942986467e-07
1.88316985269335e-07
1.96823622774811e-09
3.16978733677942e-07
2.00063708888837e-07
3.66490735323847e-09
3.8106634169687e-07
2.06614815703475e-07
4.26273064108937e-09
4.71511141090215e-07
2.00835296055441e-07
4.36406426035483e-09
6.01187364167663e-07
1.7614322901391e-07
5.29787956112683e-09
9.65143304033403e-07
1.38436663620777e-07
2.45416159737e-08
4.5073103034312e-06
9.16496555700045e-08
3.56576767847059e-07
2.89199382822426e-07
2.19372814466447e-07
2.83058010995486e-09
3.37473282572534e-07
2.34297719549192e-07
5.52773957758262e-09
3.93378686491127e-07
2.45492639732408e-07
7.41390515143047e-09
4.58893573271637e-07
2.4388248978444e-07
8.12803723167317e-09
5.35339646515025e-07
2.22520610782492e-07
7.93868363777301e-09
6.55994463776128e-07
1.87087055868661e-07
9.33623864919146e-09
1.03812530181748e-06
1.44784215260578e-07
3.33342429527771e-08
4.72497303195316e-06
9.58884716022891e-08
4.16116397492134e-07
3.14252083369411e-07
2.52332973139766e-07
3.80961006417328e-09
3.62728679840684e-07
2.70207509511586e-07
7.77804850376652e-09
4.17087263986149e-07
2.85781331794561e-07
1.1101384334633e-08
4.69763140704549e-07
2.87847584498551e-07
1.32702162106854e-08
5.17071009973391e-07
2.68794318703077e-07
1.38572444742973e-08
5.79933875110163e-07
2.35004176538054e-07
1.35000766628726e-08
6.99753514287934e-07
1.94345717435287e-07
1.54375328073211e-08
1.10448046583323e-06
1.50503292747621e-07
4.35108336446897e-08
4.92166092280113e-06
1.01239489333194e-07
4.7268354848374e-07
3.41825760195297e-07
2.87350054078324e-07
4.93894267302941e-09
3.91738483947856e-07
3.08178397831022e-07
1.00593584941311e-08
4.47998064287592e-07
3.28053695586038e-07
1.50283448163185e-08
4.96276600237835e-07
3.33388265754055e-07
1.89867326533729e-08
5.27108319968121e-07
3.15843405344694e-07
2.11622884785912e-08
5.57532307550381e-07
2.82649053105215e-07
2.15069206147425e-08
6.15092491603956e-07
2.42667741231762e-07
2.11739678887242e-08
7.39872255772412e-07
2.00075341034479e-07
2.40513967186114e-08
1.16932800715102e-06
1.55867589705765e-07
5.81692422661444e-08
5.10172676285502e-06
1.06211699304971e-07
5.64889200502652e-07
3.71875419225241e-07
3.24948292021313e-07
5.96354347121487e-09
4.24202482491664e-07
3.48856340420906e-07
1.23985064148336e-08
4.84057478631019e-07
3.72972596370765e-07
1.89857595324858e-08
5.32458331250482e-07
3.81410403882472e-07
2.48960802444106e-08
5.56111536411397e-07
3.64838423195477e-07
2.90810018376432e-08
5.67150427378155e-07
3.31339339655357e-07
3.1028085447077e-08
5.89458677291499e-07
2.90982513165298e-07
3.12337489826262e-08
6.47427447323436e-07
2.48515082052711e-07
3.12879533967298e-08
7.79512927942809e-07
2.04600459129562e-07
3.58554249307957e-08
1.23888022036478e-06
1.58750497374206e-07
7.97741420510517e-08
5.27238854798638e-06
1.08300323527463e-07
6.59156633895148e-07
4.04274653699511e-07
3.6575089550906e-07
7.03309349022991e-09
4.59977416126497e-07
3.92920198894607e-07
1.47860938280463e-08
5.24528646213262e-07
4.21458951997368e-07
2.29776703103619e-08
5.75176889561894e-07
4.32878114687985e-07
3.08134546897819e-08
5.96535908736395e-07
4.16896964870649e-07
3.71806510433021e-08
5.98006558011585e-07
3.82441795218197e-07
4.12632316859636e-08
5.98683703536156e-07
3.4081292954847e-07
4.29913047121678e-08
6.18790883271697e-07
2.9772495334953e-07
4.32894805127972e-08
6.79810921318283e-07
2.54452639604853e-07
4.4199306268028e-08
8.22264368379827e-07
2.10776366380721e-07
5.15194444290511e-08
1.31586314833652e-06
1.6598750113672e-07
1.05135111624407e-07
5.23432049198545e-06
1.12067388758519e-07
7.21251073763329e-07
1.79486605135664e-06
3.78026019494888e-08
2.85214029295301e-08
3.55149878680604e-07
5.84733518574881e-08
2.85394618415404e-09
2.39281477468845e-06
4.75803584309206e-08
6.65282602375998e-08
2.2582699933748e-07
7.8961211616297e-08
7.77150819568897e-10
4.85390663773576e-07
7.53854964668931e-08
5.49431754753835e-09
2.80535397669176e-06
5.73191320110125e-08
1.10039375557751e-07
2.04165888969136e-07
1.01107645053797e-07
3.83952626086032e-10
3.1646728521532e-07
1.01659036207542e-07
1.84172477970205e-09
5.89690104038103e-07
9.2417426770486e-08
7.68788064048622e-09
3.30635023804077e-06
6.79172324948086e-08
1.60936040716226e-07
2.10190154911301e-07
1.25151369183101e-07
6.45524997213834e-10
2.82046235574756e-07
1.29666900596998e-07
8.60946516796597e-10
3.99097439847885e-07
1.26452167219005e-07
1.85953737150424e-09
7.18603821816222e-07
1.10277320852913e-07
1.03885879602394e-08
3.75662180671433e-06
7.7026668793418e-08
2.19045037562593e-07
2.25674409532702e-07
1.51199416969113e-07
1.03905779329325e-09
2.80131372547322e-07
1.59515229848052e-07
1.39031363380584e-09
3.58097417157102e-07
1.61285534625788e-07
1.45904553866408e-09
4.90106434476733e-07
1.51111810733627e-07
1.94921375786641e-09
8.28653473262423e-07
1.23898912100331e-07
1.51970515051308e-08
4.10071182092577e-06
8.35701679610394e-08
2.83678238065041e-07
2.44797131554947e-07
1.79180609688874e-07
1.60743106933308e-09
2.92048340398627e-07
1.90763524543336e-07
2.91844869803187e-09
3.51753753268049e-07
1.97240689875623e-07
3.11057112715997e-09
4.3721211099914e-07
1.91990488522527e-07
2.81171193263853e-09
5.61647924432466e-07
1.68634237135621e-07
3.47136945691065e-09
9.13734886420573e-07
1.3280502929283e-07
2.26299128217392e-08
4.35723620015042e-06
8.80907595439845e-08
3.52423432042034e-07
2.66113440413101e-07
2.08992923279076e-07
2.41000364829642e-09
3.11200616648725e-07
2.23653542428731e-07
4.65116561706745e-09
3.63024273517366e-07
2.3459261042541e-07
6.04171616570444e-09
4.24413195533498e-07
2.33320323335652e-07
6.2581202781594e-09
4.97106329868961e-07
2.13101473257163e-07
5.63877043256096e-09
6.13476907175485e-07
1.79369536459519e-07
6.88195965496728e-09
9.83780042193136e-07
1.39027712965572e-07
3.15083328303816e-08
4.57311987306673e-06
9.18747061223422e-08
4.16560359186739e-07
2.89564879927636e-07
2.40729757215025e-07
3.33027043940111e-09
3.3482195344077e-07
2.58279916974322e-07
6.75517209206724e-09
3.85148938620155e-07
2.73477258216487e-07
9.48148369386219e-09
4.34259653411922e-07
2.75759305574488e-07
1.10409642811017e-08
4.78924118508998e-07
2.57734422208849e-07
1.10613500363528e-08
5.3922001894533e-07
2.25505177622607e-07
1.02345011977771e-08
6.55305336160805e-07
1.86620695238041e-07
1.1948164994519e-08
1.04909079858999e-06
1.44619054054273e-07
3.99957579728721e-08
4.78238774772373e-06
9.77220930080929e-08
4.57671095849032e-07
3.15240721392583e-07
2.74523897920811e-07
4.3941135144749e-09
3.61870150542829e-07
2.95000859342902e-07
8.88481603935079e-09
4.14005199348627e-07
3.14418195838379e-07
1.31340680598328e-08
4.58953145617677e-07
3.19910425526422e-07
1.63622125899291e-08
4.87955834603714e-07
3.03359886250802e-07
1.78568790220727e-08
5.17123387844304e-07
2.71688943480273e-07
1.75815934228982e-08
5.72811910366443e-07
2.33454302490775e-07
1.66726664346776e-08
6.94222787794211e-07
1.92726779032289e-07
1.88641429542335e-08
1.11349857982275e-06
1.5081909036359e-07
4.97625573906347e-08
4.94563590342294e-06
1.09205586374102e-07
5.19572312226196e-07
3.43053433137015e-07
3.10836808141305e-07
5.33530929447077e-09
3.91978741591116e-07
3.34316782041756e-07
1.10244258934165e-08
4.47545712564874e-07
3.5785608596001e-07
1.67690735589983e-08
4.92673391271992e-07
3.66379898545131e-07
2.18217429432631e-08
5.14951735686922e-07
3.50791349810562e-07
2.51985846726025e-08
5.25737553883792e-07
3.18817615497726e-07
2.64068904360064e-08
5.47562593277806e-07
2.80173832990476e-07
2.58973932502543e-08
6.03942384242418e-07
2.39562736774403e-07
2.5172595447825e-08
7.32671347341061e-07
1.98089455381795e-07
2.86720161753951e-08
1.17737908867296e-06
1.56499795496475e-07
6.93851549279381e-08
5.06400431573378e-06
1.13314753263627e-07
6.59965127783905e-07
3.72823565812148e-07
3.50171933791651e-07
6.22752896612806e-09
4.24929698768688e-07
3.76758697089429e-07
1.31089748602598e-08
4.84983293606512e-07
4.04538507441132e-07
2.03780715340865e-08
5.32349912653102e-07
4.15964417709858e-07
2.72589717221833e-08
5.52600463582098e-07
4.00977258727713e-07
3.26930683146694e-08
5.54448840360777e-07
3.68072299582775e-07
3.59059383087592e-08
5.55772132490433e-07
3.2810737917306e-07
3.6815027128349e-08
5.75693361296736e-07
2.86591269940247e-07
3.6255591409438e-08
6.34804963294439e-07
2.44759792358121e-07
3.61357775716387e-08
7.72348637080109e-07
2.02408015369804e-07
4.21148336165222e-08
1.24969713859621e-06
1.592410809352e-07
9.50017136965965e-08
5.07715022410774e-06
1.05829783804738e-07
7.10504458917881e-07
4.04411023652027e-07
3.93168299716559e-07
7.17955894701377e-09
4.60576770838939e-07
4.23095760113346e-07
1.52511969055809e-08
5.26008434858465e-07
4.55363108686987e-07
2.39902186784778e-08
5.76831606714615e-07
4.69657624618818e-07
3.26515082313168e-08
5.97114892695529e-07
4.54924468083031e-07
4.01514029106693e-08
5.94948300474693e-07
4.20562414262095e-07
4.56004464218124e-08
5.8569934354014e-07
3.78606798610137e-07
4.85613526398492e-08
5.83336540213192e-07
3.35323140091545e-07
4.92722938355106e-08
6.03361707389194e-07
2.92486910528724e-07
4.8911129855306e-08
6.66751162270256e-07
2.50262583983927e-07
4.99346447452976e-08
8.16543666639555e-07
2.08404715727162e-07
5.91384101051906e-08
1.31190153784869e-06
1.64252539299443e-07
1.17161888812082e-07
5.4915689033174e-06
1.15065779201657e-07
7.69361819210022e-07
1.73091519957058e-06
3.62671327976544e-08
2.76806439419245e-08
3.34585290142495e-07
5.57417984115388e-08
2.62552265974555e-09
2.31109939341296e-06
4.57157320171223e-08
6.45199997368648e-08
2.08665863563524e-07
7.50627837653656e-08
5.71604964577048e-10
4.58818806755318e-07
7.20305741940807e-08
4.97476948506295e-09
2.71010303342186e-06
5.50901683724942e-08
1.06690208334312e-07
1.86968041455406e-07
9.59766892328093e-08
1.82357134155337e-10
2.94386651651767e-07
9.6864602967145e-08
1.37795445982459e-09
5.57353877743464e-07
8.83478560162138e-08
6.80027465528372e-09
3.19499112490919e-06