/*--------------------------------*- C++ -*----------------------------------*\
  =========                 |
  \\      /  F ield         | OpenFOAM: The Open Source CFD Toolbox
   \\    /   O peration     | Website:  https://openfoam.org
    \\  /    A nd           | Version:  12
     \\/     M anipulation  |
\*---------------------------------------------------------------------------*/
/*   Windows 32 and 64 bit porting by blueCAPE: http://www.bluecape.com.pt   *\
|  Based on Windows porting (2.0.x v4) by Symscape: http://www.symscape.com   |
\*---------------------------------------------------------------------------*/
FoamFile
{
    format      ascii;
    class       volVectorField;
    location    "200";
    object      U;
}
// * * * * * * * * * * * * * * * * * * * * * * * * * * * * * * * * * * * * * //

dimensions      [0 1 -1 0 0 0 0];

internalField   nonuniform List<vector> 
10068
(
(-2.04730934745838e-06 -0.000129116192456903 1.48702275727865e-05)
(-1.83150999432633e-06 -0.000111364990304789 1.4566377046083e-05)
(-9.13629241399259e-07 -0.000140164915781267 3.08097132657963e-05)
(-7.65388601265114e-06 -3.60699378754226e-05 1.21801085219644e-05)
(-1.8734148602706e-06 -9.41195830399016e-05 1.43299163756477e-05)
(-9.61474265487286e-07 -0.000123954257078497 2.9915371517149e-05)
(-7.46072023212445e-06 -1.78603066414885e-05 1.2815709606055e-05)
(-2.52865546363897e-07 -0.000171941395149846 4.78038009111386e-05)
(-4.40731764468596e-06 -7.1095699300142e-05 2.78073589530093e-05)
(-1.3669709505874e-05 -5.83425952720824e-06 1.18432705780179e-05)
(-2.13558700992839e-06 -7.86693862580861e-05 1.4169155854619e-05)
(-1.09612797049159e-06 -0.000108374745002309 2.84430895831959e-05)
(-7.45073683617298e-06 -2.28890241349444e-06 1.29165238206123e-05)
(-3.26188174933255e-07 -0.000155298730601857 4.59803845600369e-05)
(-4.46223863423068e-06 -5.44519740584705e-05 2.76336599577258e-05)
(-1.36700544921779e-05 1.31427883767026e-05 1.20781671924261e-05)
(2.41582697576658e-08 -0.000183196689061151 6.50132568708603e-05)
(-1.25925866452505e-06 -0.00014277710182722 4.63407385401399e-05)
(-8.15840479533434e-06 -4.62499936757839e-05 2.68516828784711e-05)
(-1.99742856822392e-05 3.65050721095131e-07 1.20419658788393e-05)
(-2.22347993419381e-06 -6.48293471738467e-05 1.31910531992309e-05)
(-1.22817489462638e-06 -9.41700896116894e-05 2.69347826573183e-05)
(-7.76502041865392e-06 1.08602421666445e-05 1.20374024481307e-05)
(-4.48857073236311e-07 -0.00013960219075558 4.40371449519295e-05)
(-4.54655425022592e-06 -3.97135618800577e-05 2.7115856563857e-05)
(-1.37554388709455e-05 2.82568234600567e-05 1.23736143229416e-05)
(-7.09964448145591e-08 -0.000166573965065699 6.25633695154158e-05)
(-1.51513773537425e-06 -0.00012554411897574 4.44144047859954e-05)
(-8.43611776215231e-06 -2.89607534074406e-05 2.7097890358238e-05)
(-2.05384028197392e-05 1.98667071787579e-05 1.27165826866361e-05)
(2.74088080372689e-07 -0.000192046453013092 8.19190050045215e-05)
(2.86326591685108e-08 -0.000167141697336023 6.35324721252771e-05)
(-2.83676789585907e-06 -0.000129648208602225 4.60978361088312e-05)
(-1.22217803989501e-05 -3.58109694529174e-05 2.66462346943937e-05)
(-2.69039598171694e-05 7.03350782337324e-06 1.27633776086979e-05)
(-2.19708262541004e-06 -5.22205086586635e-05 1.20327660276706e-05)
(-1.31698536473803e-06 -8.10395317443684e-05 2.54744272324474e-05)
(-7.97056660570017e-06 2.2230074041837e-05 1.1096679724261e-05)
(-5.58051727128596e-07 -0.000125105004580154 4.19670771934394e-05)
(-4.88423327040523e-06 -2.71333549800954e-05 2.53122647294389e-05)
(-1.4085747527412e-05 4.06845273369954e-05 1.18054346920895e-05)
(-1.85835311384662e-07 -0.000150920460126469 5.99736080519216e-05)
(-1.86443808415632e-06 -0.000110052623461257 4.25391926239653e-05)
(-8.6993836030973e-06 -1.43178061707384e-05 2.71963328255008e-05)
(-2.07941027854464e-05 3.49718389670432e-05 1.29324820309648e-05)
(1.69000735037002e-07 -0.000175352648892192 7.88388188389966e-05)
(-2.84091816915101e-07 -0.00015013988252148 6.08879646824094e-05)
(-3.36210373976854e-06 -0.000111919137653126 4.408622911904e-05)
(-1.29546666500568e-05 -1.82692558849418e-05 2.70248605865473e-05)
(-2.79589565427198e-05 2.65944524667497e-05 1.30345062753519e-05)
(5.09339226192662e-07 -0.000200362884639178 9.83938493498445e-05)
(9.05067757942563e-07 -0.000180545916345667 8.01913669164008e-05)
(-3.4072769346641e-07 -0.000158687622749159 6.32684020427723e-05)
(-4.55594598047541e-06 -0.000122570905488329 4.60546522083535e-05)
(-1.6695687730337e-05 -2.62837083109564e-05 2.62599537112753e-05)
(-3.44497863000942e-05 1.64004335358115e-05 1.29017292187612e-05)
(-2.15229748946082e-06 -4.07016672181138e-05 1.1103048094052e-05)
(-1.37490188051217e-06 -6.88882868585394e-05 2.40494957651342e-05)
(-8.04036954580483e-06 3.24347080213198e-05 1.01850874520772e-05)
(-6.38913914338487e-07 -0.000111568703561927 3.98535286872253e-05)
(-5.13796058318947e-06 -1.573123879234e-05 2.36253705609365e-05)
(-1.42875981342605e-05 5.12124318235424e-05 1.07743404207512e-05)
(-2.89091609112807e-07 -0.000136376388858063 5.7237801837702e-05)
(-2.18273197699375e-06 -9.62371754163486e-05 4.04092935054952e-05)
(-9.12913191742214e-06 -2.37023528161203e-06 2.50691082595863e-05)
(-2.10721644901237e-05 4.7224977319662e-05 1.18244679471528e-05)
(5.51499272195954e-08 -0.00015963901954118 7.55906415302009e-05)
(-6.39517338723008e-07 -0.000134553060613899 5.82378560506466e-05)
(-3.90916128673472e-06 -9.6427348826865e-05 4.2251327644388e-05)
(-1.35225199451642e-05 -3.61738328568744e-06 2.74035943318851e-05)
(-2.84029549819965e-05 4.14494536185081e-05 1.29908397162233e-05)
(3.96338310842047e-07 -0.000183485614891312 9.46714588021036e-05)
(5.61611496460704e-07 -0.000163619314784022 7.68960329660119e-05)
(-9.26840740102096e-07 -0.000141388976897204 6.04748822952348e-05)
(-5.43949740546429e-06 -0.000104656699588573 4.39651977549405e-05)
(-1.78748248845301e-05 -8.88410914068921e-06 2.66660720550885e-05)
(-3.59828834395698e-05 3.55903672376828e-05 1.29657082989673e-05)
(7.15576086561463e-07 -0.00020803933035909 0.000114425775369423)
(1.5980678859888e-06 -0.000190875274218073 9.62890574187743e-05)
(1.33343587100154e-06 -0.000173807076790101 7.97122600457884e-05)
(-7.84407943249907e-07 -0.000153185694099024 6.30831174829395e-05)
(-6.44606657734986e-06 -0.000115485857306323 4.55040782576077e-05)
(-2.14771839496491e-05 -1.62469075645935e-05 2.55023960433879e-05)
(-4.25491970187766e-05 2.82887077307224e-05 1.25222997918113e-05)
(-2.12202179503286e-06 -3.01291355319772e-05 1.0377945432467e-05)
(-1.41048580297264e-06 -5.76756340121712e-05 2.26710915124822e-05)
(-8.04235785517955e-06 4.16114062668278e-05 9.33314554823004e-06)
(-7.01219594292408e-07 -9.89651647812751e-05 3.77441537757837e-05)
(-5.292680029245e-06 -5.28471185951336e-06 2.21291800502259e-05)
(-1.43506979201158e-05 6.06364938053151e-05 9.81831357957114e-06)
(-3.6847882314978e-07 -0.000122776897170108 5.44355522700306e-05)
(-2.42653079346734e-06 -8.34480771821067e-05 3.82159398672927e-05)
(-9.44467238636762e-06 8.32434997951834e-06 2.31559807932725e-05)
(-2.12065809802277e-05 5.74711553779649e-05 1.07001664223518e-05)
(-4.78921516466016e-08 -0.000144994993852436 7.21852929621094e-05)
(-9.58893725823332e-07 -0.000120367685303973 5.54451068483369e-05)
(-4.39667910679967e-06 -8.2956665437973e-05 4.00717684547995e-05)
(-1.39830446525447e-05 8.05883180493862e-06 2.51584854198067e-05)
(-2.86215715029947e-05 5.3410236031213e-05 1.17947007448438e-05)
(2.80151766241476e-07 -0.000167609767375783 9.07554520868137e-05)
(2.04198409379107e-07 -0.000147957377723223 7.35555244118337e-05)
(-1.51261546443953e-06 -0.000125798726607361 5.77772787909821e-05)
(-6.2141457991169e-06 -8.91859124853373e-05 4.21434437797237e-05)
(-1.87007866900114e-05 5.57956286789811e-06 2.71885521001524e-05)
(-3.66159491446144e-05 4.99022476214697e-05 1.29009544536814e-05)
(5.94576465114119e-07 -0.000190893929986708 0.000110035200707252)
(1.23477278652505e-06 -0.000173849117315154 9.23482628520915e-05)
(7.07763309214764e-07 -0.000156709171609625 7.6249318155133e-05)
(-1.71602615966482e-06 -0.000135817241310614 6.01855666420066e-05)
(-7.71498840308842e-06 -9.77040352388513e-05 4.33584320695093e-05)
(-2.30866721383127e-05 7.53204707530831e-07 2.59286734671504e-05)
(-4.45298793587197e-05 4.67975455600583e-05 1.25426160381142e-05)
(8.86030331641716e-07 -0.000214934138098715 0.0001300930290822)
(2.17358905502547e-06 -0.000199658327979549 0.000111946127415974)
(2.63560473958214e-06 -0.000184884459221992 9.55074165611512e-05)
(1.7317374882947e-06 -0.000168799215916979 7.92904933046998e-05)
(-1.31214317943548e-06 -0.000147098240848772 6.22291336739851e-05)
(-8.48316361066664e-06 -0.000107550657042638 4.43825367000098e-05)
(-2.64919712970967e-05 -5.61737325076994e-06 2.43831063822376e-05)
(-5.10773810242999e-05 4.231517691671e-05 1.1721589598294e-05)
(-2.09641500519398e-06 -2.04616647695492e-05 9.70355665238007e-06)
(-1.4283532769677e-06 -4.73463361813504e-05 2.13531945713233e-05)
(-7.97161230554878e-06 4.98850460261522e-05 8.42325521540164e-06)
(-7.48614973618962e-07 -8.7262302362922e-05 3.56695434180396e-05)
(-5.38161439048079e-06 4.24760122008042e-06 2.07282672838421e-05)
(-1.43437481376606e-05 6.90847255240931e-05 8.96685214468099e-06)
(-4.31345287403635e-07 -0.000110092588281696 5.16222343427771e-05)
(-2.61090103824262e-06 -7.158714266512e-05 3.60431139855965e-05)
(-9.64467807369337e-06 1.80949379234677e-05 2.15545888725102e-05)
(-2.1196335236261e-05 6.66606538838196e-05 9.68727469751447e-06)
(-1.29880728444822e-07 -0.00013129865289113 6.86983998582582e-05)
(-1.21051554990403e-06 -0.000107184653352129 5.25805454066557e-05)
(-4.78016032544037e-06 -7.05567771445761e-05 3.78139934025989e-05)
(-1.4321441309858e-05 1.841359581642e-05 2.31114321461158e-05)
(-2.8623979713052e-05 6.32937179987793e-05 1.06786086425216e-05)
(1.75321485605985e-07 -0.000152800306509883 8.66758514048276e-05)
(-1.16405247912929e-07 -0.000133569431294992 7.00985474268291e-05)
(-2.03387750923881e-06 -0.000111834883749867 5.49410429051681e-05)
(-6.86083916584306e-06 -7.59502991846026e-05 3.99340815693644e-05)
(-1.92154892073618e-05 1.69318270147157e-05 2.49208899357805e-05)
(-3.67687222246396e-05 6.13443007196463e-05 1.1636289386214e-05)
(4.74775281954137e-07 -0.000174792550868515 0.000105436973193747)
(8.72829543223424e-07 -0.000158037905094277 8.83376463077445e-05)
(1.02388811320656e-07 -0.000141073020051949 7.28356809982058e-05)
(-2.55280573236921e-06 -0.00012028556952436 5.74520281711799e-05)
(-8.732950847676e-06 -8.24290380380659e-05 4.154686540842e-05)
(-2.41488756454637e-05 1.4819109123349e-05 2.65664006676309e-05)
(-4.53746891121958e-05 6.02848874740656e-05 1.24465097781862e-05)
(7.59379074207087e-07 -0.000197464921064459 0.000124998655164658)
(1.79323045285832e-06 -0.000182422318258748 0.000107342651670639)
(1.97930938287356e-06 -0.000167762598517535 9.14007595648533e-05)
(7.65473187881105e-07 -0.000151710253570254 7.57271110368884e-05)
(-2.60724244776086e-06 -0.000129909648257621 5.92824981366684e-05)
(-1.01251393933267e-05 -9.01241702986147e-05 4.22035888672443e-05)
(-2.84779606097803e-05 1.08127773948483e-05 2.48350779355052e-05)
(-5.34814724589783e-05 5.99451998423563e-05 1.16592263928913e-05)
(1.02072662344224e-06 -0.000220982315654104 0.000145549519364866)
(2.65561823387218e-06 -0.000207278379737426 0.000127310745329993)
(3.69458557719197e-06 -0.000194089969935905 0.000110874771859472)
(3.6935873466165e-06 -0.000180026453138594 9.48115469190217e-05)
(2.10494590097244e-06 -0.00016298224237218 7.81215871326807e-05)
(-1.95776701841261e-06 -0.000139933615730979 6.06802302051918e-05)
(-1.06558927187848e-05 -9.86495401590388e-05 4.27621700613007e-05)
(-3.16534260000242e-05 5.70829916870213e-06 2.28728119215455e-05)
(-5.96873724675068e-05 5.83263428862535e-05 1.05487841963753e-05)
(-2.08109145125962e-06 -1.16708110507805e-05 9.07818560529147e-06)
(-1.42954764646121e-06 -3.78521989502724e-05 2.0091333649037e-05)
(-7.83541376872403e-06 5.72826768045141e-05 7.5367270669208e-06)
(-7.84038434685156e-07 -7.64133461776033e-05 3.3644305583451e-05)
(-5.41212866460559e-06 1.29241666786496e-05 1.94360076435519e-05)
(-1.42967078710807e-05 7.66316885107566e-05 8.20128285265698e-06)
(-4.80953800939571e-07 -9.82866364754593e-05 4.88368999296002e-05)
(-2.748463339229e-06 -6.06134281301624e-05 3.39220065517572e-05)
(-9.76574746536616e-06 2.6986212991489e-05 2.01063609168413e-05)
(-2.11358314937527e-05 7.49458380311178e-05 8.83225886550507e-06)
(-1.95964659595249e-07 -0.000118514156210643 6.51916568845914e-05)
(-1.41004176340402e-06 -9.49184940113478e-05 4.97116436969988e-05)
(-5.07357696044893e-06 -5.9068665551412e-05 3.55883537430394e-05)
(-1.45414483206042e-05 2.78643759655729e-05 2.14194401021895e-05)
(-2.84386616947944e-05 7.22200188261372e-05 9.66176317004232e-06)
(8.93340338906204e-08 -0.00013895562474684 8.25046852386375e-05)
(-3.76246778067528e-07 -0.000120176686811722 6.65634318563124e-05)
(-2.45913497711062e-06 -9.89119039668594e-05 5.20285420373335e-05)
(-7.37388867771596e-06 -6.38162802314655e-05 3.76325335012175e-05)
(-1.95569364343428e-05 2.6922794831424e-05 2.28172113255958e-05)
(-3.65358704870551e-05 7.0721247569192e-05 1.04858551483124e-05)
(3.67131720741041e-07 -0.000159774522379263 0.000100671090805307)
(5.47410587918015e-07 -0.000143449227332238 8.42169835895171e-05)
(-4.37422523732526e-07 -0.000126867904143567 6.93401978292685e-05)
(-3.27273636468888e-06 -0.000106517504189764 5.45951218169826e-05)
(-9.53158192451452e-06 -6.94983996109256e-05 3.93305716347187e-05)
(-2.46975677116925e-05 2.57274358793127e-05 2.42852468276973e-05)
(-4.54662811397032e-05 7.09338970679558e-05 1.1116909858615e-05)
(6.36346604684201e-07 -0.000181094094010043 0.000119693244082766)
(1.4231525976192e-06 -0.000166402989865893 0.000102656243405585)
(1.35668405328641e-06 -0.000152005577690884 8.73176918241932e-05)
(-1.06759216985155e-07 -0.000136166586642694 7.22713292439931e-05)
(-3.70544238667032e-06 -0.00011458963451191 5.65409441628283e-05)
(-1.13781892628026e-05 -7.52120978601876e-05 4.04189416683433e-05)
(-2.97431204292259e-05 2.43077310925727e-05 2.55702632293455e-05)
(-5.45847116502827e-05 7.23781510244975e-05 1.15340473439589e-05)
(8.90938357876973e-07 -0.00020315186738482 0.000139702710730172)
(2.26247938826316e-06 -0.000189761837461474 0.00012201229556288)
(3.01437236772308e-06 -0.000176808378323477 0.000106112776267447)
(2.69711178410036e-06 -0.000162962275829098 9.06092209151412e-05)
(7.80884234614313e-07 -0.000146109843590833 7.45151578918095e-05)
(-3.60021261208267e-06 -0.000123113816324264 5.77177707095918e-05)
(-1.26313621821517e-05 -8.17357479753436e-05 4.05620026947085e-05)
(-3.39469841673424e-05 2.14285408740309e-05 2.33670633713121e-05)
(-6.25033631117223e-05 7.48829247541386e-05 1.00213346307824e-05)
(1.12430775485327e-06 -0.000226127284473303 0.00016096453265271)
(3.04894567857443e-06 -0.000213856823267256 0.000142539610671283)
(4.56332100643081e-06 -0.000202005688694602 0.000126003820045357)
(5.29313179024358e-06 -0.000189302729274181 0.000109924942383802)
(4.76004449207428e-06 -0.000174290200895832 9.33438626253319e-05)
(2.36746682118007e-06 -0.000156036683740002 7.61857880440465e-05)
(-2.74051110803568e-06 -0.000131672969521342 5.85207016427696e-05)
(-1.29527497558548e-05 -8.8776055894346e-05 4.06438933874458e-05)
(-3.68150861660624e-05 1.7940811418274e-05 2.10219349986411e-05)
(-6.80006381023793e-05 7.69182537322469e-05 9.67265545631987e-06)
(-2.06166724686574e-06 -3.69472051299556e-06 8.48712767561818e-06)
(-1.42412038419172e-06 -2.91458250805385e-05 1.88762688481412e-05)
(-7.73166155244029e-06 6.38527755618882e-05 6.86151517533622e-06)
(-8.08529153262592e-07 -6.63727131709097e-05 3.16858389032295e-05)
(-5.40160824019742e-06 2.080044905892e-05 1.8217822352303e-05)
(-1.42029052337303e-05 8.33422397111624e-05 7.34339728417811e-06)
(-5.19152986653643e-07 -8.7319001646571e-05 4.61056471837658e-05)
(-2.84762122276048e-06 -5.04759398218989e-05 3.18671828394523e-05)
(-9.82616296065207e-06 3.504410409076e-05 1.87567923126794e-05)
(-2.10663231853987e-05 8.23811719277698e-05 7.9800596927626e-06)
(-2.505676786495e-07 -0.000106602640428936 6.17050054237445e-05)
(-1.56909043198911e-06 -8.35226126438866e-05 4.68810617274555e-05)
(-5.29226443313309e-06 -4.84508204177862e-05 3.34227499147748e-05)
(-1.46726035517377e-05 3.64668012053184e-05 1.98868485105455e-05)
(-2.82344773620485e-05 8.03425439737924e-05 8.73239282971901e-06)
(1.72647531928913e-08 -0.000126027665264817 7.83065186205196e-05)
(-5.87792330618086e-07 -0.000107699566662428 6.30120562582262e-05)
(-2.80007672203168e-06 -8.68966870941583e-05 4.91144718484858e-05)
(-7.77062224217536e-06 -5.25726371319277e-05 3.53683644644414e-05)
(-1.97576364015085e-05 3.60503195043508e-05 2.10945528163815e-05)
(-3.60167872044655e-05 7.92920916615107e-05 9.46999845588031e-06)
(2.77065754116878e-07 -0.000145742335962477 9.58112100497161e-05)
(2.7790598222872e-07 -0.000129860535690236 8.00149934595307e-05)
(-8.88891360960504e-07 -0.000113687109609984 6.5768371411077e-05)
(-3.86845402112628e-06 -9.38133246364526e-05 5.1655063181035e-05)
(-1.01567702019943e-05 -5.76782964436188e-05 3.70108927781477e-05)
(-2.49898981990482e-05 3.52887110667776e-05 2.21353339709898e-05)
(-4.48519748837728e-05 7.95266671828497e-05 9.9067823932316e-06)
(5.25715497457774e-07 -0.00016583915561571 0.000114222173447937)
(1.09119419187431e-06 -0.000151593084834078 9.78623644366852e-05)
(8.00497426872765e-07 -0.000137588456427928 8.31663781866258e-05)
(-8.69457170078344e-07 -0.000122148164441698 6.87581232954848e-05)
(-4.62115150778799e-06 -0.000101101447195618 5.36828373833493e-05)
(-1.23100770220733e-05 -6.26865502242407e-05 3.82179400281606e-05)
(-3.0298846968426e-05 3.46424139236075e-05 2.32689785365938e-05)
(-5.47132303169251e-05 8.18030768472666e-05 1.02200197684149e-05)
(7.65346889883663e-07 -0.00018648373208518 0.000133652583484502)
(1.88496542373099e-06 -0.000173489680222795 0.000116627023202583)
(2.37559035664817e-06 -0.00016086196098179 0.000101359669804436)
(1.79526233398377e-06 -0.00014732238077487 8.64862864147366e-05)
(-3.67436799705497e-07 -0.000130796501433661 7.10535072937958e-05)
(-4.94713449895505e-06 -0.000108149749629285 5.49938826628861e-05)
(-1.40895987209905e-05 -6.73185833581583e-05 3.88121195845194e-05)
(-3.5385654987105e-05 3.42208215709948e-05 2.41782306136095e-05)
(-6.40200525718975e-05 8.60450463407811e-05 9.85797402130559e-06)
(9.91664539473006e-07 -0.000207914233269527 0.000154304114019011)
(2.64662422920321e-06 -0.000196012378259269 0.000136495809528617)
(3.86472650149343e-06 -0.000184479328242405 0.000120551786309255)
(4.26957099384118e-06 -0.000172110683191456 0.000105074445323346)
(3.40644493605005e-06 -0.000157463617832964 8.91088589752745e-05)
(7.03202745988103e-07 -0.000139544377556443 7.25761492722742e-05)
(-4.69479351164028e-06 -0.000115359864627511 5.55632902320876e-05)
(-1.52058249500794e-05 -7.24988014932729e-05 3.8448871768208e-05)
(-3.93832538487592e-05 3.28288843946497e-05 2.1464402853759e-05)
(-7.08688087681482e-05 9.23042521093914e-05 8.85274230389925e-06)
(1.19921117251036e-06 -0.000230282706988813 0.000176483675813534)
(3.36244957580466e-06 -0.000219404378975527 0.000157778394313522)
(5.2643555515475e-06 -0.000208812525340632 0.000141054380377392)
(6.60119669410803e-06 -0.000197287642893691 0.000124843120407417)
(6.91858131299036e-06 -0.000183627305358711 0.000108195779394655)
(5.71765955649699e-06 -0.000167454018238723 9.10689432127354e-05)
(2.4717505098327e-06 -0.000148009276559906 7.35620645149771e-05)
(-3.6720237811797e-06 -0.000122389829885555 5.57707414482335e-05)
(-1.53478048340456e-05 -7.79654262707454e-05 3.79811235194368e-05)
(-4.18712127661274e-05 3.13376983027636e-05 1.8895892083852e-05)
(-7.75702754928873e-05 9.95702618239637e-05 6.48122687566054e-06)
(-2.03170036768818e-06 3.52249842236428e-06 7.92376485081824e-06)
(-1.41361919609051e-06 -2.11787253862333e-05 1.77101196241486e-05)
(-7.64799622883907e-06 6.96607217415019e-05 6.31927515332031e-06)
(-8.25440713468559e-07 -5.70958377922717e-05 2.97959125288031e-05)
(-5.38005649099713e-06 2.79223665273799e-05 1.7022691419251e-05)
(-1.40886141541528e-05 8.9220760057639e-05 6.42766625547641e-06)
(-5.50159240234249e-07 -7.71442611538713e-05 4.34479646457896e-05)
(-2.91614795770079e-06 -4.11295801131412e-05 2.98827260710523e-05)
(-9.8426190179544e-06 4.2318017259229e-05 1.74695162828185e-05)
(-2.09461343982298e-05 8.89593271789859e-05 6.91579214949258e-06)
(-2.95043590328104e-07 -9.55183673700569e-05 5.82806925664255e-05)
(-1.6967073673478e-06 -7.29486450357406e-05 4.41163931376891e-05)
(-5.45074896504876e-06 -3.86534483545007e-05 3.1330130276475e-05)
(-1.47403917351254e-05 4.42595671217175e-05 1.8464081462231e-05)
(-2.81038323118315e-05 8.76655589031981e-05 7.74539666987094e-06)
(-4.16177275373787e-08 -0.000113976053508018 7.41359076376074e-05)
(-7.61804176623904e-07 -9.60885494498016e-05 5.94910523654837e-05)
(-3.07027383233405e-06 -7.57386055074735e-05 4.62424334203158e-05)
(-8.06911939244354e-06 -4.21758371873159e-05 3.31688690770082e-05)
(-1.98682093184889e-05 4.43737219484998e-05 1.95271623207216e-05)
(-3.55217300305334e-05 8.72638936599481e-05 8.4788628405202e-06)
(2.00749623136712e-07 -0.000132648604156729 9.09259927396136e-05)
(5.58099038238349e-08 -0.000117194281191804 7.57944851477026e-05)
(-1.26148710469862e-06 -0.000101415704544544 6.21816916773944e-05)
(-4.35182390102188e-06 -8.20001160551545e-05 4.87139222468434e-05)
(-1.0635673369695e-05 -4.67165866226521e-05 3.47324110441613e-05)
(-2.50983515817473e-05 4.40611781117297e-05 2.03883320113584e-05)
(-4.36588406031541e-05 8.76368149300449e-05 8.81477010066818e-06)
(4.31637848082748e-07 -0.000151602938801307 0.000108663206590559)
(8.11076256618897e-07 -0.00013779803700902 9.29875890908439e-05)
(3.27452710850841e-07 -0.000124192286118467 7.8938253842305e-05)
(-1.5160196075761e-06 -0.000109169202725199 6.51685647852843e-05)
(-5.37758603971169e-06 -8.86782148325813e-05 5.07394227933062e-05)
(-1.30157512037908e-05 -5.12530717763783e-05 3.58997052230616e-05)
(-3.04697858761931e-05 4.36673314131239e-05 2.10711723973263e-05)
(-5.34731219552529e-05 8.904812241612e-05 8.88695124510284e-06)
(6.51841798227206e-07 -0.000170975533454107 0.000127448679660153)
(1.54588003214352e-06 -0.00015843951459828 0.00011113959152365)
(1.80367158217381e-06 -0.00014622022452117 9.65441766381214e-05)
(9.99974439485253e-07 -0.000133092213991919 8.23249376451398e-05)
(-1.35041778434863e-06 -0.000117048819277013 6.75509480725111e-05)
(-6.04135069936456e-06 -9.50358265496235e-05 5.21601761067446e-05)
(-1.51263521947617e-05 -5.52941113854025e-05 3.66352577495024e-05)
(-3.59387371788224e-05 4.38143959116937e-05 2.18673369654032e-05)
(-6.47702073333461e-05 9.33696771395098e-05 8.82825212557525e-06)
(8.64467259039492e-07 -0.000190934735521177 0.000147460600886957)
(2.26257468636324e-06 -0.000179457284871513 0.000130374213817536)
(3.21247625520256e-06 -0.000168295606143755 0.000115106186018743)
(3.34238897028785e-06 -0.000156299603951025 0.000100287764269235)
(2.21751998815063e-06 -0.000142065531424442 8.49877160277816e-05)
(-7.06560027563163e-07 -0.000124589122738041 6.9140059435e-05)
(-6.2606876787991e-06 -0.00010086524620782 5.28738418752419e-05)
(-1.68344545392993e-05 -5.86792991355794e-05 3.67385844526937e-05)
(-4.1002937234975e-05 4.47910388104876e-05 2.22657524533971e-05)
(-7.29080810248456e-05 0.000102052169143867 8.64762577350751e-06)
(1.06420866614869e-06 -0.000211682694536641 0.000168937597334727)
(2.95202830125797e-06 -0.000201206687487564 0.000150926380295827)
(4.55011248480578e-06 -0.000190987058991181 0.000134862171935524)
(5.5558679416534e-06 -0.000179873026353861 0.000119310510468431)
(5.53837301541043e-06 -0.000166684617643912 0.000103322191820577)
(4.02452262252311e-06 -0.000151009171377123 8.68446832142208e-05)
(5.02689411454303e-07 -0.000132017445599641 6.9974958220265e-05)
(-5.89135494672632e-06 -0.000106684847319389 5.28386823315044e-05)
(-1.7830146699705e-05 -6.24138404938335e-05 3.58025403062532e-05)
(-4.4696912389129e-05 4.53189604588597e-05 1.91992892071682e-05)
(-7.98689996939792e-05 0.000113959038889114 6.95037132435487e-06)
(1.25079366702488e-06 -0.000233326200106222 0.00019221088141186)
(3.59840801366589e-06 -0.000223872098970185 0.000173149056689701)
(5.81766681490391e-06 -0.000214543630163808 0.000156155633785414)
(7.65317308539814e-06 -0.000204172742077818 0.000139723024105055)
(8.67674310691217e-06 -0.000191692144613069 0.000122893560230648)
(8.43221896451657e-06 -0.000176904556442775 0.000105630237433562)
(6.49406765914423e-06 -0.00015959690028347 8.80504861796779e-05)
(2.38886465606238e-06 -0.000139010672674367 7.02707385301777e-05)
(-4.76406437978726e-06 -0.000112197533120549 5.23846228575498e-05)
(-1.78463622609482e-05 -6.62260993130872e-05 3.4717157500486e-05)
(-4.73390216605888e-05 4.5606311066986e-05 1.61012399942465e-05)
(-8.81486646177651e-05 0.000121288884080838 4.90277282138519e-06)
(-1.99411669680146e-06 1.00350278049926e-05 7.38243574727481e-06)
(-1.39698506276226e-06 -1.39053311925551e-05 1.65934333164908e-05)
(-7.54252717679259e-06 7.47637917864711e-05 5.80813928666207e-06)
(-8.36023208715052e-07 -4.85407116946933e-05 2.79800364904553e-05)
(-5.3463689609465e-06 3.43352302115771e-05 1.58684640914609e-05)
(-1.39505279490348e-05 9.43332735113762e-05 5.74093535487211e-06)
(-5.74154808816815e-07 -6.77163007376864e-05 4.08742326683253e-05)
(-2.96238149418255e-06 -3.25320011781394e-05 2.7970638697106e-05)
(-9.82428620251629e-06 4.88550671173573e-05 1.62365956551074e-05)
(-2.07909981938241e-05 9.46625470411794e-05 5.9980149560194e-06)
(-3.31444549489077e-07 -8.52176565649136e-05 5.4938335097017e-05)
(-1.79383144404157e-06 -6.31542873976576e-05 4.14308009018164e-05)
(-5.56114405247374e-06 -2.96341053142792e-05 2.93130695721765e-05)
(-1.47618790236149e-05 5.12821155232906e-05 1.71153296864463e-05)
(-2.80116414312906e-05 9.4088995137018e-05 6.70228706764337e-06)
(-9.20623756307197e-08 -0.000102760031966446 7.00303929881895e-05)
(-9.04753992463652e-07 -8.52944798889085e-05 5.60373035917519e-05)
(-3.28260283272281e-06 -6.53892410700135e-05 4.34397891534119e-05)
(-8.29022142812062e-06 -3.25798604474358e-05 3.1046433062564e-05)
(-1.99447509726591e-05 5.1927814655075e-05 1.80799171425501e-05)
(-3.52969481451508e-05 9.45107486909346e-05 7.34290627256838e-06)
(1.35739247403625e-07 -0.00012044638979886 8.60767057725384e-05)
(-1.343148707527e-07 -0.000105401602225991 7.16028948686111e-05)
(-1.56734531797456e-06 -9.00001233202615e-05 5.86292701933259e-05)
(-4.73823142449073e-06 -7.10247008698767e-05 4.58161800850589e-05)
(-1.09977930512485e-05 -3.65659885141327e-05 3.25228545695316e-05)
(-2.51393306823509e-05 5.21273150716692e-05 1.88071755985028e-05)
(-4.25563201659826e-05 9.55913946742288e-05 7.58578932991007e-06)
(3.50951875961948e-07 -0.000138331547222856 0.000103089709217431)
(5.74290430660849e-07 -0.000124943012279884 8.80950879822429e-05)
(-7.08220393603928e-08 -0.000111713653650569 7.46905669292246e-05)
(-2.05552321067349e-06 -9.70857117110599e-05 6.15641645195204e-05)
(-5.99220475585852e-06 -7.71196652739588e-05 4.7795698591104e-05)
(-1.35407276793965e-05 -4.06253900419685e-05 3.36193450663048e-05)
(-3.03695297499015e-05 5.20521819157025e-05 1.92629806469949e-05)
(-5.07768669731281e-05 9.64954846833604e-05 7.36486705989714e-06)
(5.54266394535797e-07 -0.000156526893769698 0.000121171053433134)
(1.25530503105246e-06 -0.000144430905921446 0.000105578396196618)
(1.31084648280295e-06 -0.000132610386277347 9.16543967234658e-05)
(3.15030682299473e-07 -0.000119892273470195 7.80895710330797e-05)
(-2.18509512425059e-06 -0.000104336893585958 6.397221556258e-05)
(-6.93629607765062e-06 -8.29682006519087e-05 4.92367218098446e-05)
(-1.58751027813817e-05 -4.43211452570953e-05 3.43180835470556e-05)
(-3.58965258035333e-05 5.21252318991378e-05 1.9609970569887e-05)
(-6.24692519467443e-05 9.75880273698027e-05 7.1104807783788e-06)
(7.4933903009443e-07 -0.000175168601462411 0.00014048555047476)
(1.9164255027594e-06 -0.000164154639885699 0.000124164211799071)
(2.62698991829598e-06 -0.000153413453106287 0.000109606556020495)
(2.52043048810866e-06 -0.000141846871910391 9.54700951837072e-05)
(1.1847203951531e-06 -0.000128102733228651 8.08470554466263e-05)
(-1.89389999720113e-06 -0.000111201702408226 6.56745512038921e-05)
(-7.50557249677665e-06 -8.82111552510328e-05 5.00799675643611e-05)
(-1.79553829043337e-05 -4.72474579990473e-05 3.45864291369913e-05)
(-4.16278967286859e-05 5.33535855888491e-05 2.01153487807729e-05)
(-7.47285403869231e-05 0.000105035550810935 7.91344523049384e-06)
(9.35661641025907e-07 -0.000194393260472787 0.000161242150694307)
(2.56297576675352e-06 -0.000184355093140563 0.00014401900973123)
(3.88669780332768e-06 -0.000174534717424566 0.000128685779958972)
(4.60784422572841e-06 -0.000163836996895442 0.000113837547266616)
(4.31589718285036e-06 -0.000151121336742623 9.85453473298293e-05)
(2.56332359201991e-06 -0.000135968034305671 8.27598671151134e-05)
(-1.13965520051768e-06 -0.000117521489147086 6.65864308509847e-05)
(-7.64143781411751e-06 -9.27491465129906e-05 5.0197455080282e-05)
(-1.95998301158579e-05 -4.92747340889227e-05 3.41482466228691e-05)
(-4.65093826944693e-05 5.63187618399836e-05 1.99171873058992e-05)
(-8.01052100330119e-05 0.000122441064198205 6.85109781850655e-06)
(1.11394135524541e-06 -0.000214353342433227 0.000183699387829442)
(3.18153421126913e-06 -0.000205313811150061 0.00016541730498262)
(5.09167262058972e-06 -0.000196388094932208 0.000149160336268211)
(6.59048921836723e-06 -0.000186476055912035 0.000133456733217474)
(7.27366576609383e-06 -0.000174534202205792 0.000117346377185178)
(6.71136073312179e-06 -0.000160340715118674 0.000100779650567625)
(4.49609923262261e-06 -0.000143640580592356 8.38670382969442e-05)
(1.6018195375459e-07 -0.000123605504392576 6.67288394004143e-05)
(-7.1966608310531e-06 -9.71670079777975e-05 4.94963045927941e-05)
(-2.05203938833139e-05 -5.14549324529093e-05 3.25584073655761e-05)