/*--------------------------------*- C++ -*----------------------------------*\
  =========                 |
  \\      /  F ield         | OpenFOAM: The Open Source CFD Toolbox
   \\    /   O peration     | Website:  https://openfoam.org
    \\  /    A nd           | Version:  12
     \\/     M anipulation  |
\*---------------------------------------------------------------------------*/
/*   Windows 32 and 64 bit porting by blueCAPE: http://www.bluecape.com.pt   *\
|  Based on Windows porting (2.0.x v4) by Symscape: http://www.symscape.com   |
\*---------------------------------------------------------------------------*/
FoamFile
{
    format      ascii;
    class       volScalarField;
    location    "400";
    object      nut;
}
// * * * * * * * * * * * * * * * * * * * * * * * * * * * * * * * * * * * * * //

dimensions      [0 2 -1 0 0 0 0];

internalField   nonuniform List<scalar> 
10244
(
1.97959826147655e-05
1.97521409769984e-05
0.000282769679562746
2.10282098910981e-05
1.96697047865645e-05
0.000282541088758855
2.09816834568507e-05
0.000773870225377012
0.000289678338762064
2.26204498711029e-05
1.9546523587424e-05
0.000282083900029306
2.08942974082618e-05
0.000773503185522313
0.000289455658326283
2.25708617561584e-05
0.00134779598876038
0.000782382316832468
0.000298451893481513
2.35656194525555e-05
1.93810492932436e-05
0.000281321201078889
2.07633283172018e-05
0.000772576377961049
0.000289006412874315
2.24771262609941e-05
0.00134733003070946
0.000782030297986366
0.000298227682865166
2.35145688722719e-05
0.00192885841790078
0.00135390931323928
0.000792488030136673
0.000303633913228765
2.32559362446435e-05
1.91722782551683e-05
0.0002802329313886
2.05875235171039e-05
0.000771021019418692
0.000288237668852796
2.2336640674783e-05
0.00134594400957804
0.00078110846820234
0.00029778337543857
2.34168133548203e-05
0.00192826168325757
0.00135346625227232
0.000792137994081611
0.000303408119613545
2.3205961585824e-05
0.0024816712600155
0.00193074191354263
0.00135912442349787
0.000797443734784027
0.000301974586647897
2.20115073164798e-05
1.89192181005351e-05
0.000278817376523476
2.03656966127858e-05
0.000768811409495792
0.000287133066521938
2.21480465297189e-05
0.00134358813814294
0.000779547336443165
0.000297006227660826
2.3270494776416e-05
0.00192641734681126
0.00135208567883797
0.000791219800367775
0.00030297008495501
2.31095470709077e-05
0.00248090026050126
0.00193017606191502
0.00135868974296071
0.000797093166176241
0.00030175327879039
2.19648695818104e-05
0.00299181680979584
0.00247905493316928
0.00192834422397381
0.00135782667268875
0.000792658203538079
0.000294529429452477
2.04078311808851e-05
1.86204691700243e-05
0.00027706052360076
2.00967352708649e-05
0.000765916755825439
0.00028568854891904
2.19099261558677e-05
0.00134022817000727
0.000777319531041668
0.000295878459345737
2.30739341969198e-05
0.0019232722028723
0.00134972621268268
0.000789652030329063
0.000302191057818913
2.29648197233471e-05
0.00247858730873407
0.00192834195586665
0.0013573144633072
0.000796182017607219
0.000301329598886261
2.18738048992399e-05
0.0029908373242858
0.00247832247741284
0.0019277932200302
0.00135739612950599
0.000792313141744549
0.00029432058890738
2.0365597980215e-05
0.00345571398205704
0.00298576292494354
0.0024686747432093
0.00191738220329068
0.00134583739744474
0.000778552545454088
0.000283964873664724
1.87090462198312e-05
1.82753985044168e-05
0.000274947157592066
1.97793517448779e-05
0.000762315807116951
0.000283894264942456
2.16212721280287e-05
0.00133583009652812
0.000774401699423044
0.000294397123302479
2.28256163025312e-05
0.0019187844961337
0.00134635676365818
0.000787404475755782
0.000301050162060822
2.27701431875821e-05
0.00247466701474572
0.00192519968797662
0.00135495370240263
0.000794615482862198
0.00030056268995552
2.17364801320146e-05
0.00298804965503654
0.00247602555668088
0.00192597071587059
0.00135603082424317
0.000791418980955922
0.000293920392433323
2.02816886031264e-05
0.00345450356882995
0.00298482940012892
0.00246796293134644
0.00191683995953535
0.00134541609659028
0.000778222210211903
0.000283775373588958
1.86717026569616e-05
0.00387491774913052
0.00344753561588777
0.00296874482837903
0.00244727253403944
0.00189478194272284
0.00132282905351218
0.000757948599471786
0.000271799878470267
1.69310219418199e-05
1.788308503716e-05
0.000272465415582843
1.94127336356581e-05
0.00075798243528541
0.000281736430681025
2.12801421886283e-05
0.00133035608782174
0.000770770010418797
0.000292554387159559
2.25245309339954e-05
0.00191291186589226
0.00134194411737659
0.000784455697110059
0.000299545536448022
2.25239997264624e-05
0.00246908788443229
0.00192071180134103
0.00135157599079432
0.000792359675484447
0.00029942965546001
2.15513878889492e-05
0.00298337505467752
0.00247211545805058
0.00192283734085421
0.00135367862855766
0.00078986965255248
0.000293179072547759
2.01543049426275e-05
0.00345124247897664
0.00298206293184021
0.00246568540599045
0.00191503477455357
0.00134407148335615
0.00077735751015506
0.000283406473253346
1.85957241875297e-05
0.00387346236195333
0.00344637742040796
0.00296783721969272
0.00244657346188772
0.00189425244493869
0.00132242582301885
0.000757641716954886
0.000271635217582283
1.68990082923548e-05
0.00425272978305866
0.00386543376587264
0.0034256622555252
0.00293799626259263
0.00241271529731177
0.00185997187529829
0.00129059745908435
0.00073280391720857
0.000258253792308329
1.50507124725778e-05
1.74427525093759e-05
0.000269597543155533
1.89959587524784e-05
0.000752879923601277
0.000279200278579633
2.08863608425045e-05
0.00132376245022902
0.00076639607344761
0.0002903362406568
2.2168672759031e-05
0.00190560490800255
0.00133645055282779
0.000780782251824151
0.000297670293595536
2.22252046620882e-05
0.00246179722393142
0.0019148368497994
0.0013471485787579
0.000789393330670148
0.000297929397052049
2.1317062784372e-05
0.00297675006326007
0.0024665455558377
0.00191835674002061
0.00135030600036611
0.000787628409141877
0.000292073580056078
1.9982091569412e-05
0.00344583984983297
0.00297740427728288
0.00246179591162115
0.00191192297494461
0.00134174516647614
0.000775843478938523
0.000282700597211323
1.84793043182754e-05
0.00386973568850951
0.0034431416763414
0.00296509735876501
0.00244432228584648
0.00189247571480503
0.00132111571049225
0.000756818480511303
0.000271304032013421
1.68315893822099e-05
0.0042510225802798
0.0038640362182046
0.0034245345459308
0.0029371050474825
0.00241203190913391
0.00185946328710208
0.00129022100394427
0.000732527932421214
0.000258118834928592
1.50245757343558e-05
0.00459263374420463
0.00424226380005243
0.00383996566976714
0.00338719861797213
0.00289183494371609
0.00236443306521309
0.00181370911893149
0.00125054237351811
0.00070364464053494
0.000243109252513543
1.30796030237683e-05
1.69540457459245e-05
0.000266325074240376
1.8528175973518e-05
0.000746972754326181
0.000276268737970593
2.04386675973356e-05
0.00131599923053436
0.000761245907651971
0.000287727995377776
2.17578134094627e-05
0.00189680593686446
0.00132983232877345
0.000776354997036347
0.000295410599728475
2.1872553490017e-05
0.00245273461849341
0.00190752571797382
0.00134163396286636
0.000785693207591041
0.000296055551436008
2.10324339037585e-05
0.00296811259342734
0.00245926515598791
0.00191248799612099
0.00134587991702666
0.000784673989493861
0.000290603433126469
1.9763677332219e-05
0.00343822094628445
0.00297079648249425
0.00245624977114384
0.00190746724778758
0.00133840157865461
0.000773641730775415
0.000281635726859888
1.83211410832178e-05
0.00386363474548982
0.00343775907662097
0.0029604697354106
0.00244046950500274
0.0018894043615331
0.00131883572748433
0.000755355833817979
0.000270641102148937
1.67269500142792e-05
0.00424684247060967
0.00386033795640534
0.00342133138355479
0.00293440037878057
0.0024098188314522
0.001857729362608
0.00128895939684339
0.000731757270848693
0.000257832283719501
1.49664066439693e-05
0.00459067389364934
0.00424061941678995
0.00383860256591666
0.00338609069861794
0.00289096236180166
0.0023637729190777
0.00181322973078418
0.00125020038977995
0.00070340621750518
0.000243009384249903
1.30597072535251e-05
0.00489783374544408
0.0045812591635395
0.00421383771696518
0.00379506176566082
0.00333045934124658
0.00282973631226014
0.00230246886815551
0.00175652213059712
0.00120303060318459
0.000670273648129531
0.000226171796373471
1.10547846000523e-05
1.64171253974875e-05
0.000262630261707935
1.8008989204809e-05
0.000740222428860845
0.00027292331545982
1.99361575733979e-05
0.00130701097727694
0.000755282978229465
0.000284711850970751
2.12906361527194e-05
0.00188644802597198
0.00132203926507317
0.000771140602111347
0.000292751427936437
2.14649328356059e-05
0.00244182929442414
0.00189872069823685
0.00133498819913679
0.000781230328795403
0.000293795491445521
2.0696255682489e-05
0.00295739101849313
0.00245021423049518
0.00190518230981097
0.00134036284334901
0.000780983255937312
0.000288762754653623
1.94980693805993e-05
0.00342831328414154
0.0029621793392039
0.00244899743759652
0.00190162660207622
0.00133400730219371
0.000770731148200205
0.000280212318839703
1.8120078933277e-05
0.00385507485377687
0.00343016263020526
0.00295390023002756
0.00243497013048358
0.0018849997581309
0.00131554894849665
0.000753214579602158
0.000269625316009983
1.65839647413282e-05
0.00424007574437801
0.00385426019606187
0.00341598812642711
0.00292982392426074
0.00240602382545165
0.00185472050788836
0.00128674574261775
0.000730360038344741
0.000257219703015215
1.48744079699028e-05
0.00458605622756897
0.00423647044154797
0.00383494177117949
0.00338293068563811
0.00288830592759602
0.00236161285503489
0.00181155367467118
0.00124900079026171
0.000702699259039799
0.000242777046026281
1.30114430391646e-05
0.00489562354427096
0.00457936623262088
0.00421223133974877
0.00379372164539228
0.00332937325051905
0.00282888966923882
0.00230183985553918
0.00175607930964796
0.00120273002431
0.000670078804954971
0.000226114719392608
1.10410529721195e-05
0.00517123281559901
0.00488555354612537
0.00455014731878931
0.00416327883194523
0.00372874842262365
0.00325495344001935
0.00275139562505473
0.00222657980694402
0.00168823587236189
0.00114770614373873
0.000632262191393195
0.000207325626322762
9.02879134133873e-06
1.58325472431089e-05
0.000258497946908447
1.74385515699879e-05
0.000732588322988436
0.000269145803758376
1.9378400671408e-05
0.0012967386704029
0.000748468540441841
0.000281269410438137
2.07662579760234e-05
0.00187445892155399
0.00131301609054427
0.000765102035423513
0.000289674588417555
2.1001386245604e-05
0.00242899847171408
0.00188835549150331
0.00132716114295396
0.000775971366231725
0.000291133434949143
2.03075997852169e-05
0.00294449987150426
0.00243932177812327
0.00189638213297788
0.00133371090898367
0.000776527556088961
0.000286539441574159
1.91841511822727e-05
0.00341603413522901
0.00295148173775967
0.00243997943862681
0.00189435246137297
0.00132852460963384
0.000767088965657672
0.000278424851085007
1.7875202791239e-05
0.0038439739766726
0.00342028231394143
0.00294533009438718
0.00242777501617774
0.00187922062063707
0.00131122170916184
0.000750374060071759
0.000268258894725836
1.64015375655224e-05
0.00423062829780942
0.00384572665810515
0.00340844132264222
0.00292332173166318
0.00240060107113755
0.00185039724481034
0.00128354226940616
0.000728296539002844
0.000256262277423218
1.47478205733033e-05
0.00457865794080128
0.00422972945414614
0.00382891010596464
0.00337765133905129
0.00288380495177956
0.0023578995560888
0.00180862996018718
0.00124687248972847
0.000701381209335016
0.000242226524993548
1.29329474860421e-05
0.00489058758225343
0.00457478234495721
0.00420812419261795
0.00379011118748453
0.00332627148600934
0.00282629759788064
0.00229974877423004
0.00175447607304707
0.00120160585356672
0.000669448196582799
0.000225951704461683
1.1003143671111e-05
0.00516877865694568
0.00488341453657753
0.00454829566874251
0.00416169860375205
0.00372743363164164
0.00325389674204628
0.00275058273188287
0.00222598885396651
0.00168783614283149
0.00114745307081689
0.000632116309216505
0.000207316937781573
9.02124958051451e-06
0.00541549775873184
0.00515805855346893
0.00485189548546329
0.00449441059823009
0.00408819561674771
0.00364053822204865
0.00316029930685666
0.00265606538465469
0.00213595905664649
0.00160803269067431
0.00108373973778364
0.000589045967557765
0.0001864649357918
7.06211117299439e-06
1.52011963855642e-05
0.000253912625428036
1.68174981047156e-05
0.00072403510625887
0.000264919453830128
1.87655230238173e-05
0.00128512134147613
0.000740762487379914
0.000277382554983344
2.01842781389638e-05
0.00186075704926747
0.0013027036308595
0.000758200282155344
0.000286161346926116
2.0481100466925e-05
0.00241414875243896
0.00187635664372627
0.00131809747006893
0.000769878978399448
0.000288050800518547
1.98654765069398e-05
0.00292934107876949
0.00242650542138225
0.00188602137224208
0.00132587403202263
0.000771273461985849
0.000283917840236135
1.88210637125203e-05
0.00340128514616403
0.00293861893786335
0.00242912504607923
0.00188558750919428
0.00132190986026577
0.000762686747455276
0.000276261803388697
1.75855539000972e-05
0.00383023770891676
0.00340803587347685
0.00293468902954659
0.00241882522527261
0.00187201853625571
0.00130581639347797
0.000746812010367853
0.000266537671577868
1.61789525320485e-05
0.00421840863744145
0.00383465780292694
0.00339862283126877
0.00291483585780083
0.00239350152659824
0.0018447181726717
0.00127931535350832
0.000725547148308808
0.000254965391094285
1.45855636420969e-05
0.0045683761975665
0.00422031147540286
0.00382043530979171
0.00337018976136505
0.00287740504999188
0.00235258683649723
0.00180441874514669
0.00124377711680626
0.000699412873113245
0.000241341592010727
1.2823709057319e-05
0.00488259335156808
0.00456741226434308
0.00420143522212384
0.00378415478266874
0.0033210846769077
0.00282189891713095
0.00229614229761166
0.0017516601826075
0.00119958197969397
0.000668227223851911
0.000225476541368362
1.09387163335535e-05
0.00516334525002625
0.0048784146638754
0.00454375777668396
0.00415764860233267
0.00372389127056024
0.00325087136624891
0.00274807234791646
0.00222398297680803
0.00168632067069201
0.00114641839586262
0.000631580681508495
0.000207234106025825
8.99390857917041e-06
0.00541280840696723
0.00515567943042746
0.00484980106269395
0.00449258834747213
0.00408664460118219
0.00363925709975958
0.00315928017061622
0.00265529316849245
0.00213541215098663
0.00160768167777984
0.00108353884462985
0.000588951749020589
0.000186497158143625
7.0607414134642e-06
0.00563309073247847
0.00540146665714468
0.00512198140407688
0.00479133091163486
0.00441121489814652
0.00398807082057291
0.00353010906520674
0.0030455066830303
0.00254241806544508
0.00202921808458329
0.00151448927818379
0.00100982830665942
0.000539782021388492
0.000163327646373163
5.19667154746227e-06
1.45248513661374e-05
0.000248859235418598
1.61469492458974e-05
0.000714516306702622
0.000260230508861128
1.80981893148465e-05
0.00127209349711817
0.000732125441045914
0.000273032079130152
1.95447869406435e-05
0.00184525724321915
0.00129103980095136
0.000750395467555316
0.0002821938808259
1.99036711099685e-05
0.00239717831623773
0.00186264348523221
0.0013077378211022
0.000762913715341378
0.00028452837563686
1.93692161408776e-05
0.00291180140210113
0.00241167220826088
0.00187402642982591
0.00131679673384391
0.000765183341261285
0.00028087948605691
1.84077940064267e-05
0.00338394977530966
0.00292349239599614
0.00241635231683497
0.00187526593061526
0.00131411304493982
0.000757491163093867
0.000273707705791898
1.72503165063617e-05
0.00381375351967556
0.00339332501917518
0.00292189301472182
0.00240805058261683
0.00186333654341888
0.00129928956960904
0.000742500603307274
0.000264450812023732
1.59152924451502e-05
0.00420331112047315
0.00382096004089855
0.00338645139495633
0.00290429691081508
0.00238466679355947
0.00183763517321695
0.00127402777216045
0.000722090910327787
0.00025332526036848
1.43870767003306e-05
0.00455511043131701
0.00420812772461665
0.00380943996805075
0.00336047901682265
0.00286904880881345
0.00234562591434395
0.00179887885663026
0.00123968150198322
0.000696777378212876
0.000240127826233943
1.26830475701127e-05
0.00487153079377436
0.00455716295851907
0.00419208389236373
0.00377578103972829
0.00331374984393444
0.0028156393716875
0.00229097447135738
0.00174759175245113
0.00119661984340028
0.000666376991547249
0.000224674032142797
1.0847609858439e-05
0.00515479256921367
0.00487045129856071
0.00453644535297499
0.00415104545810609
0.00371804376418309
0.00324580791623715
0.00274380409987637
0.00222050919875171
0.00168363583287005
0.00114452026145503
0.000630478307958032
0.000206843435492677
8.94382959006168e-06
0.00540700041640065
0.00515028465039384
0.00484485126758703
0.00448811427944464
0.00408267251995848
0.00363580364638124
0.003156350454573
0.00265288216511332
0.00213350781684272
0.0016062691449701
0.00108261005969631
0.000588526105613011
0.00018650032391267
7.04392991545214e-06
0.00563017656503062
0.0053988558680654
0.00511965012911218
0.0047892693170765
0.00440942614034651
0.00398655854901451
0.00352887060827583
0.0030445323837056
0.00254169242620231
0.00202872055272398
0.00151419114980542
0.00100968153305617
0.000539732073020192
0.000163412706874099
5.20123682210352e-06
0.00582626963801164
0.00561826044218593
0.00536312328475419
0.00505691544928089
0.00470061458119396
0.004299990861639
0.00386268837616884
0.00339640359427868
0.00290890992965506
0.0024085682098823
0.00190432719759278
0.00140546935680312
0.000923967880586139
0.000483028900475971
0.00013742156356231
3.4485090990616e-06
1.38057147025513e-05
0.000243334045170124
1.54286496239098e-05
0.000704002488664436
0.000255067710876466
1.73777661262931e-05
0.00125758985389597
0.000722517469789294
0.000268204512871059
1.88484788620979e-05
0.00182786773866102
0.00127795963986072
0.000741646462842845
0.000277753131781355
1.92692496210617e-05
0.0023779747836469
0.00184712991231203
0.00129601971591406
0.000755035614728888
0.000280548663679882
1.88184388294275e-05
0.0028917549992837
0.00239471964015876
0.00186031686192615
0.00130641949091485
0.00075821753850426
0.000277406028173737
1.79438241958267e-05
0.00336389579266164
0.00290598949921765
0.00240156875291172
0.00186331424923507
0.00130507864332949
0.000751464638871736
0.000270744242920496
1.6868542158516e-05
0.00379438884051815
0.00337603418673959
0.00290684400513649
0.00239536977828451
0.00185310920070725
0.00129159146306823
0.000737406699732242
0.00026198316893611
1.56099467722159e-05
0.00418520956638102
0.00380452129775368
0.00337182955519277
0.00289162187650676
0.00237402745566882
0.00182909179978828
0.00126763661583416
0.000717901167031506
0.000251329783601503
1.41515877382419e-05
0.00453874410629488
0.00419307350963315
0.0037958317975603
0.00334843914336388
0.0028586678364813
0.00233695911138517
0.00179196273466965
0.00123454928219229
0.000693454545010955
0.000238581470548848
1.25103845049433e-05
0.00485729034039042
0.00454393678730257
0.00417998380038432
0.00376491408261364
0.00330420101682995
0.00280746229261357
0.00228419715060462
0.00174223029625099
0.00119268772565213
0.00066388065069164
0.000223555423998783
1.07296513058386e-05
0.00514300220578869
0.00485942405821099
0.00452627014500599
0.00414180976810533
0.00370981996338282
0.00323864402116869
0.00273772463545652
0.00221552233742847
0.00167974202199099
0.00114172006915883
0.000628766951330344
0.000206136863371649
8.87117932640064e-06
0.00539792662371398
0.00514176508832156
0.00483695113579818
0.00448089786445321
0.00407619416369804
0.00363010065808199
0.00315144228447293
0.00264877357539384
0.00213019359405479
0.00160373996613157
0.00108086164027978
0.00058755921227638
0.000186207955581081
7.00817618705229e-06
0.00562401760383726
0.0053930888596637
0.00511430954096362
0.00478438999269031
0.00440503984927942
0.00398268828821591
0.00352552782774801
0.0030417179548107
0.00253939869320787
0.00202693415286674
0.00151289709468543
0.00100887302300631
0.000539424971398409
0.000163523791053641
5.19405935858755e-06
0.00582314207830576
0.00561542807211861
0.00536056351837154
0.00505462058625908
0.0046985911263597
0.00429824662189232
0.00386122507061551
0.00339521586581015
0.00290798669822346
0.00240789402025133
0.00190388258548308
0.00140522594460571
0.000923871534460173
0.000483023632978759
0.000137591315394702
3.45765851197142e-06
0.00599707869161653
0.00581070910445782
0.0055778291842857
0.00529389726886211
0.00495925622632078
0.00457912022142516
0.00416063557087838
0.00371101966663809
0.00323758449500559
0.00274828407040376
0.00225201587173977
0.00175847108119294
0.00127787088841523
0.000823024061408951
0.000416288135912651
0.000107752441667089
1.89034528828311e-06
1.3046163070009e-05
0.000237316994368539
1.46648267921308e-05
0.000692454469011224
0.000249420107791719
1.66062410212662e-05
0.00124154484327778
0.000711903623868441
0.000262892553515777
1.80969309170674e-05
0.00180849260516626
0.0012633973070272
0.000731914924833711
0.000272824417440862
1.85785849567087e-05
0.00235641747656057
0.00182972421314589
0.00128287798314749
0.000746203639071895
0.000276093784556582
1.82133389631193e-05
0.00286906256433494
0.00237553562280955
0.00184480631226955
0.00129467970845084
0.000750335862581157
0.000273478187515895
1.74288559127206e-05
0.00334097328467088
0.00288598443713474
0.00238467199125258
0.0018496522527316
0.00129474705940593
0.000744567810240028
0.000267354445092195
1.64396855877752e-05
0.0037719909562811
0.00335603104887143
0.00288943015078883
0.0023806909641613
0.00184126333394469
0.00128266671439968
0.000731492863080808
0.000259115727712337
1.52620077723904e-05
0.00416395504453062
0.00378520950854867
0.00335464282704377
0.00287671375022867
0.00236150303839191
0.00181902317435857
0.0012600925143314
0.000712944968927449
0.00024896397410099
1.3878617264762e-05
0.00451913780845539
0.00417502322678206
0.00377949985654971
0.00333397407639045
0.00284618041175457
0.00232651800148035
0.00178361473079513
0.00122833859598753
0.000689417262673906
0.000236692323787127
1.23052148855605e-05
0.00483974518343251
0.00452761830881223
0.0041650318237959
0.00375146331740506
0.00329235976174382
0.00279730056895876
0.00227575370562404
0.00173552919712511
0.001187750282092
0.000660718004623529
0.000222120649098234
1.05842365069305e-05
0.00512785741860733
0.00484522686476487
0.00451313714454483
0.00412985698176392
0.00369914539075642
0.00322931497717789
0.00272977851139118
0.0022089753660028
0.00167460011549532
0.00113798655252953
0.000626433936272051
0.000205133421298077
8.77610185448698e-06
0.00538546165635633
0.00513001318239842
0.00482600524869353
0.00447085220221097
0.00406713066205551
0.00362207805029436
0.00314449484188951
0.00264291565310561
0.00212542561766586
0.00160005511999448
0.00107825289167404
0.000586010733604646
0.000185614248194764
6.95384295123997e-06
0.00561446017077483
0.00538405054876377
0.00510585860917419
0.0047765958223319
0.0043979637583679
0.00397637554489684
0.00352000566503231
0.00303699804453062
0.00253548023625622
0.00202380763181976
0.00151054942703994
0.00100729637337047
0.000538615045242762
0.00016334952283287
5.1715250982707e-06
0.00581665599377984
0.00560931230925434
0.00535485472014075
0.00504935708869177
0.00469380944848556
0.00429397531321695
0.00385748127847243
0.00339200574771388
0.0029053074087153
0.0024057355753894
0.00190223049785736
0.00140406465344543
0.000923193176859389
0.000482849647127665
0.000137842871994936
3.45872529742825e-06
0.00599374944703182
0.00580766621822752
0.00557505089490701
0.00529137759226699
0.00495700444135251
0.00457714761844797
0.00415894759605466
0.00370961454953071
0.00323645451644967
0.00274741713667614
0.00225139679031619
0.00175808130398701
0.00127768088886847
0.000822979426396628
0.000416362353240173
0.000108025713410733
1.90156311420706e-06
0.00614734218562679
0.00598086098538402
0.00576838248962109
0.00550480208040975
0.00518987755543243
0.00482832958994458
0.00442685469304006
0.00399219675681137
0.0035311762537904
0.00305125201113129
0.00256085393560835
0.00206953867373538
0.00158786417798385
0.00112728790327675
0.000702259833921727
0.000335697701132999
7.36378245805051e-05
7.22853558505782e-07
1.22481071749731e-05
0.000230783551536605
1.38574561133826e-05
0.000679830090149212
0.000243267414026784
1.57858033895234e-05
0.00122389263301688
0.000700246539532348
0.000257088335590626
1.72924244828281e-05
0.00178703324923913
0.00124728724000802
0.000721166157410653
0.000267403315263152
1.78334517967092e-05
0.0023323761646216
0.00181033033524846
0.00126824679033731
0.000736379549939436
0.000271148029855182
1.75547944695107e-05
0.00284357124135735
0.00235399908333933
0.00182740299863817
0.0012815121357484
0.000741497852169905
0.000269079830472922
1.68630741673182e-05
0.00331501493750791
0.00286333802381931
0.00236555019003263
0.00183419366009285
0.00128305565877618
0.000736759773026438
0.000263518807209882
1.59636199911901e-05
0.00374638619892104
0.00333316606627454
0.00286952620896596
0.00236391234451936
0.0018277191124106
0.00127245588590274
0.000724720305405634
0.000255831116685095
1.48709061596602e-05
0.00413937511442662
0.00376287232060724
0.00333475973487565
0.00285946180400324
0.00234700260657676
0.00180735662773448
0.00125134040830892
0.000707184521005296
0.000246210603959364
1.35674596871681e-05
0.00449612681110396
0.00415382851271263
0.00376031330332176
0.00331697087354851
0.0028314909769675
0.00231422319719449
0.0017737707884803
0.0012210006160099
0.000684632528521642
0.000234447540039055
1.20671029745576e-05
0.0048187428884157
0.00450806880969095
0.00414710374529221
0.00373531961338902
0.00327813186977734
0.0027850740663734
0.00226557704923805
0.0017274340030609
0.00118176625732245
0.000656863851927203
0.00022036105442293
1.04109910985746e-05
0.00510922083504604
0.00482773401015391
0.00449693274096248
0.00411508604372155
0.00368593149177835
0.00321774425442694
0.0027199003138321
0.00220081316366838
0.00166816484005959
0.00113328539042638
0.000623463745751818
0.00020383378258353
8.65830708871949e-06
0.00536948090404745
0.00511491516889248
0.00481191044523352
0.00445788443591564
0.00405539927147622
0.003611663177934
0.00313544528022836
0.00263525476480181
0.00211915855776565
0.00159517722549133
0.00107475460249637
0.000583874937633747
0.000184745356487125
6.88132251269912e-06
0.00560137251527735
0.00537162686694427
0.00509419520590543
0.00476579292645828
0.00438811176123836
0.00396754294061552
0.00351223621062825
0.00303031426198879
0.0025298875965686
0.00201929899172024
0.00150711056390095
0.00100491117546606
0.000537258578606315
0.000162885104109159
5.13430881129055e-06
0.00580665189192769
0.00559979263379884
0.0053458903182243
0.00504102181245021
0.00468617078488508
0.00428708568937352
0.00385137519988894
0.00338670150998081
0.0029008100411041
0.00240203909216107
0.00189932117294555
0.0014019250729946
0.000921812106731898
0.000482215960666592
0.000137810405304129
3.44783068277632e-06
0.00598695988273694
0.00580122539679534
0.00556899721880032
0.00528575239640381
0.00495184839668357
0.00457249416905586
0.00415481902437916
0.00370602189886221
0.00323339922519609
0.00274489301325066
0.00224939168335688
0.00175657944659697
0.00127666527412194
0.000822443163225625
0.000416363370834676
0.000108430182183427
1.9076840373931e-06
0.00614382321991515
0.00597761910168595
0.00576539660848049
0.00550206759573099
0.00518740609243541
0.00482613539885764
0.00442494641137495
0.00399057572744842
0.00352983749231874
0.00305018588401479
0.00256004756106879
0.00206897717299965
0.00158752993157581
0.00112715517808178
0.000702277536065917
0.000335895183227344
7.40293911331704e-05
7.31846159868363e-07
0.00627866484013188
0.00613054004503721
0.00593683493516615
0.00569192093997096
0.00539500733817469
0.00505035744099737
0.00466424945960201
0.00424296506090535
0.00379281281937578
0.00332071677740387
0.0028345407646852
0.00234326416026231
0.00185713321091368
0.00138765710104153
0.000947999460289541
0.00055567992060585
0.000236899615468318
3.70203611983262e-05
1.4339545814177e-07
1.14264206823869e-05
0.000223673623361764
1.30073372109838e-05
0.000666079874152192
0.000236594942167333
1.4918191677181e-05
0.00120456614921717
0.000687502757616862
0.000250767347786919
1.64372059512238e-05
0.00176338714681063
0.00122956307688954
0.000709364308867894
0.000261485606340644
1.70363825539156e-05
0.00230571314773197
0.00178884890920962
0.00125206058541403
0.000725530223139914
0.000265708568931708
1.68447312069366e-05
0.00281511429657637
0.00232998002708576
0.00180801076413884
0.00126685091774325
0.000731665575425149
0.000264196194252137
1.62474949993335e-05
0.00328583498853301
0.00283789751822993
0.00234408237882399
0.00181684673192831
0.00126993930894432
0.000728000711427079
0.000259221071496565
1.54405879313617e-05
0.00371737914930924
0.00330727214052319
0.00284699355035185
0.00234492259592027
0.00181239052850063
0.00126089621642602
0.000717047968471519
0.000252113234080731
1.44367064600866e-05
0.00411127268223857
0.00373733646518262
0.0033120316518319
0.00283974186458116
0.00233042525857747
0.00179401288640629
0.00124132119955087
0.000700581129271947
0.000243052314758659
1.32174731232408e-05
0.00446951957802751
0.00412931738435144
0.00373812096683405
0.00329729962169896
0.00281449034498419
0.00229998498474504
0.00176235903376747
0.00121248059895522
0.000679063828996596
0.000231833063369762
1.17954521981233e-05
0.00479410435772632
0.00448512416578821
0.00412605262330445
0.00371635409223931
0.00326140647930174
0.00277068909366231
0.00225358921926596
0.00171788181159641
0.00117468745189576
0.000652288131199912
0.00021826348357371
1.02095385691055e-05
0.00508692909688094
0.00480679422165942
0.00447751984859947
0.00409737495088768
0.00367007156764161
0.00320383997446233
0.00270801192663736
0.00219097043316843
0.00166038321171027
0.00112757692641289
0.000619833724606734
0.000202229641905593
8.51762293366547e-06
0.00534983870559393
0.00509633558609749
0.00479454310877983
0.00444188338657571
0.00404090147763067
0.00359877002247024
0.00312421951353594
0.00262572776099858
0.0021113393603798
0.00158906274711544
0.00107033687407534
0.000581138097248029
0.000183603469506159