/*--------------------------------*- C++ -*----------------------------------*\
  =========                 |
  \\      /  F ield         | OpenFOAM: The Open Source CFD Toolbox
   \\    /   O peration     | Website:  https://openfoam.org
    \\  /    A nd           | Version:  12
     \\/     M anipulation  |
\*---------------------------------------------------------------------------*/
/*   Windows 32 and 64 bit porting by blueCAPE: http://www.bluecape.com.pt   *\
|  Based on Windows porting (2.0.x v4) by Symscape: http://www.symscape.com   |
\*---------------------------------------------------------------------------*/
FoamFile
{
    format      ascii;
    class       volScalarField;
    location    "400";
    object      omega;
}
// * * * * * * * * * * * * * * * * * * * * * * * * * * * * * * * * * * * * * //

dimensions      [0 0 -1 0 0 0 0];

internalField   nonuniform List<scalar> 
10244
(
2.46684101389004
2.46684443233918
0.715531898104595
2.38167941003234
2.46684055600649
0.715107990460812
2.38169312831549
0.407834397358858
0.699841524075609
2.28699520340065
2.46683705239826
0.714430885258937
2.38167841363892
0.407465961623145
0.699417882192256
2.28700701039331
0.300264634294524
0.403117390407652
0.679957314392873
2.21610909282675
2.46683778299006
0.713601710010495
2.38167623641441
0.40696193641886
0.698720639335371
2.28699426119106
0.29994752361768
0.402753633018993
0.679541669729362
2.21610855784451
0.249302959436067
0.298508690928097
0.396115635111621
0.663455183586214
2.18721945826839
2.46684238796747
0.712620555408447
2.3816764334784
0.40632596073499
0.69788479151579
2.28699322233907
0.299530873222601
0.402251295208014
0.678832723506076
2.21610795646877
0.249024803235492
0.298195680041542
0.39575889522204
0.663048691365741
2.18721910383333
0.221147266732335
0.248591531218493
0.295476097855893
0.389151607386266
0.653466234473097
2.18619415340407
2.46683850640202
0.711460486209474
2.3816770761216
0.40554900757431
0.696905370581161
2.28699219286779
0.299006346796786
0.401618558096843
0.677994467856165
2.21610725801435
0.248660448547351
0.297781167351797
0.39525992260045
0.662334710322542
2.18721838822913
0.220896646623974
0.248316692924676
0.295167273658033
0.388801552857211
0.653065247224784
2.18619407494419
0.204163436376786
0.220843868866986
0.247097996297573
0.291905346959895
0.38350819128787
0.64776919220757
2.19193012191216
2.46684368979191
0.710111948077406
2.38167547203002
0.404623898836166
0.695757371534285
2.28699087383596
0.298365864483963
0.400847724186487
0.677024246959039
2.21610624792104
0.248202526583109
0.297258939418262
0.394632277717602
0.661496954773831
2.18721752621212
0.220566981627324
0.247953698411896
0.294755979906408
0.388306544157017
0.652343953773737
2.186193161761
0.20393229666053
0.220596093885498
0.246825766866661
0.29160018094817
0.383163024942449
0.647367946894105
2.19193043295136
0.193366753931113
0.204008939145618
0.220012207746729
0.245051736416565
0.288371423631569
0.378882071210488
0.642706154321625
2.19485363692034
2.46684375332373
0.708566614384563
2.3816797038208
0.403540394028378
0.694424714296166
2.28697966145336
0.297602011776852
0.399929574399211
0.67589484852173
2.21610526977689
0.247644375642627
0.296621310543602
0.393869842603744
0.660537275613055
2.18721664508965
0.220152475100773
0.247496930164251
0.294237411658457
0.387684776229086
0.651504958726534
2.18619206005906
0.203626827480546
0.220267318292788
0.246464782816493
0.291192441850277
0.38267107233977
0.646634925871795
2.19192922983285
0.193149687269711
0.203780373492468
0.219766278841753
0.24478155130797
0.288069131168741
0.378539912883298
0.642299608858174
2.19485636437976
0.186301642815675
0.19326111193679
0.203463881730314
0.218715470963267
0.24271464265962
0.284958200618912
0.374328554159762
0.636333994303969
2.19512686575924
2.46684033553654
0.70680808859082
2.38168120474264
0.402288588791756
0.69289624065876
2.28699600243061
0.296707348061901
0.398854575148542
0.674586934171131
2.21609456453215
0.246979637080068
0.295860949702198
0.392963066242943
0.65942710592013
2.18721624497317
0.219647681591805
0.246940082152897
0.293604474193227
0.386931620089862
0.650553129548387
2.18619132985359
0.203242274421503
0.21985335894833
0.24601003686424
0.290678301761094
0.382054651212957
0.645791718798392
2.1919278374901
0.192861695543243
0.203475568764777
0.219438740531666
0.244422850151131
0.287664691539372
0.378049736714148
0.641550170004271
2.19485275122424
0.186094977452356
0.193046471806107
0.203236795277895
0.218470785576881
0.242446165427794
0.284658132647687
0.373988191559851
0.635918264880708
2.19513176893577
0.181638082266332
0.186215020181939
0.192843585798177
0.20255088339688
0.21708991621068
0.240228526888326
0.281452921704739
0.369207540670725
0.628391869177849
2.19480682170227
2.46683946541069
0.704826762140796
2.38167836725992
0.40085993172873
0.691159821193424
2.28699707074023
0.295674230260463
0.397613434746998
0.673089752806696
2.21610987789091
0.246201936282453
0.29497047987365
0.39190219254331
0.658145986624613
2.1872174026574
0.21904718230834
0.246276909503191
0.292850028166435
0.386037712138846
0.649458971027536
2.18619119517443
0.202774093133943
0.219349119577516
0.245455557738979
0.290051167654726
0.38131021302058
0.644844686523212
2.19192741696609
0.192498682197856
0.20309129681205
0.219025820727244
0.24397077146494
0.287155086500103
0.377437715607461
0.640700276418592
2.19484899351518
0.185819941259273
0.192759040770215
0.202932820392357
0.218144638160579
0.24208978011054
0.284256591996413
0.373498761148631
0.635147572822613
2.19512596662854
0.181439205988216
0.186010684891426
0.192630242262258
0.202324631881525
0.216846283635884
0.239961608533064
0.281154740535786
0.368868385039958
0.627963148757527
2.19480728987284
0.178598744920508
0.181565411060172
0.185866182203119
0.192143666763921
0.201366255630788
0.215272526781436
0.237612165012369
0.277662613089115
0.363315391951442
0.619101169753312
2.19480346052734
2.46684130411379
0.702612122318044
2.38167758335442
0.399243993682808
0.689204248821898
2.28699411346257
0.294494649012545
0.396196854330637
0.671390369726285
2.21611040952357
0.245304682821132
0.293942306610817
0.390678231276333
0.656682708763876
2.18721952960203
0.21834538121401
0.245501086420605
0.29196676536285
0.384993320279152
0.648201550708333
2.18619047791213
0.20221753502021
0.218749248303512
0.244795269801137
0.289304150413609
0.380428521076982
0.643762979216553
2.19192779899397
0.192056713469071
0.20262331845209
0.2185226787123
0.243419554617047
0.286534080713641
0.376701067082201
0.63975646653634
2.1948509835593
0.185472899441172
0.192396191527969
0.2025490721154
0.217733205392067
0.24164070870865
0.28375133354692
0.372890527738071
0.634289679427275
2.1951221232818
0.181173946917186
0.185736157089858
0.192343427936442
0.202021513859863
0.216521615034031
0.239607499753101
0.28075582556824
0.368378898959098
0.627165677187957
2.1948015580925
0.178405713089787
0.181368798268567
0.185663037494224
0.191930930487986
0.201140654956719
0.215029970909647
0.237346781163309
0.27736621038229
0.362977130187988
0.618654938812106
2.19479945358243
0.176696857771176
0.178540682474553
0.18126654137105
0.185304683477517
0.191253550636581
0.200036304600993
0.21335585408257
0.234855456341789
0.273517685910485
0.35665217014748
0.608570202948019
2.19512851894486
2.46684071616074
0.700150474924541
2.3816792539846
0.397429584530822
0.687018429352761
2.28699315204825
0.293160013561036
0.394594701393748
0.669478520508341
2.21610765334869
0.244280995873151
0.292768470733808
0.389281776283701
0.655024980171498
2.18722095724722
0.217536446132849
0.244606059434159
0.290947229209747
0.383789461585437
0.646767852365018
2.18619469452314
0.201567623451824
0.218048186965877
0.244022949034319
0.288430080640266
0.37940011995171
0.642525273124349
2.19192712365154
0.191531575469516
0.202066959511155
0.217924089113851
0.242763296808853
0.285794990532795
0.375830650552055
0.638685663362592
2.19485206656093
0.185050344107779
0.191954274405574
0.202081525296833
0.217231760347701
0.24109331336989
0.283136394943336
0.372161281963443
0.6333496091352
2.19512215863153
0.180838993331952
0.185389214363943
0.191980827661463
0.201638535819615
0.216111996975528
0.239161553462575
0.280254772744649
0.367774227783696
0.626297489141891
2.19480230757092
0.178147890834713
0.181104008249754
0.185388998589254
0.191644643409471
0.200838418377713
0.214706848822376
0.236994920193789
0.276969754899446
0.36248669392302
0.617821333684857
2.19479593400075
0.176508177819071
0.178349869363942
0.181071043278849
0.185101996069721
0.191041186836635
0.199811396962532
0.213114452744958
0.234591633877358
0.273223039770201
0.356314746749875
0.608099384829671
2.19512423343474
0.175608163735341
0.17665396789116
0.178285735392326
0.180810881197725
0.18463139722653
0.190293509521053
0.198673397461389
0.211408621356842
0.231986993919613
0.269051130592639
0.349265127592357
0.596737844419298
2.19485345861246
2.46683845631494
0.697421683689721
2.3816791788682
0.395404401078029
0.684588910960208
2.28699447965383
0.291660886199835
0.392795797816797
0.667342440454004
2.21610672825186
0.243123377276611
0.291440384233881
0.387702942919569
0.653163145113302
2.18721751809928
0.216614304842699
0.243584932260652
0.289783552561752
0.38241697440692
0.645147279802695
2.1861943310885
0.200819185903287
0.21724014117737
0.243132121674799
0.287421653245245
0.378215981044355
0.641118367035639
2.19193069523443
0.190918786793984
0.201417273218476
0.217224571754107
0.241995903901299
0.284930851831994
0.374817139654139
0.637466464260196
2.19485336804552
0.184548465803984
0.191429138628305
0.201525613503638
0.216635195683704
0.240441836599345
0.282405261321949
0.371301914319501
0.632291061778679
2.19512561713719
0.180431158800273
0.18496662647281
0.191538985435471
0.201171748201871
0.215612741560833
0.238618232887425
0.279645879773416
0.367052684140495
0.625359095822146
2.1948003412161
0.177822198657799
0.180769106869048
0.18504213420984
0.19128236233645
0.20045640931522
0.214299221861642
0.236552125478698
0.276472865368066
0.361885322430212
0.616931700411841
2.19479728056503
0.176256000100504
0.17809248044575
0.180806646109674
0.184828254917091
0.190755343681658
0.199510079936297
0.212792910933822
0.234241990705778
0.272828854820795
0.355821760414993
0.607203513665662
2.19512091593607
0.175422643330044
0.176467470360517
0.178095975004569
0.180615722215092
0.184428864833107
0.190081512095064
0.198449260587643
0.211168427174698
0.231724748096586
0.268758282674261
0.348928958502186
0.596232681989222
2.19485107677833
0.175105404692251
0.175579983217219
0.176439521552842
0.177919509200073
0.180311051550143
0.183965601609968
0.189379155349089
0.197380150518133
0.209521081743941
0.229103976785203
0.264378178162276
0.341227839834733
0.583446353890127
2.19192773954317
2.4668379194003
0.694408366368471
2.38167750701121
0.393152420877956
0.6818986845817
2.28699490899355
0.289986737765312
0.390787627375064
0.664967994898184
2.216107897852
0.241823938399111
0.289948646423643
0.385930679647681
0.65108609801747
2.1872154820417
0.215572540878598
0.242430310032734
0.288467254907309
0.380866282142891
0.643331347663565
2.18619161426381
0.199966791672438
0.216319042893951
0.242115960278375
0.286271164656217
0.376867344569324
0.639532110620561
2.19192827013123
0.190213670892201
0.200669090635797
0.216418395060041
0.241111022528414
0.283934524062483
0.373651750287774
0.636085652475202
2.19485567707004
0.18396320045098
0.190816331169033
0.20087645092473
0.215938128186003
0.239680323322641
0.281551182732676
0.370303227051984
0.631090940832735
2.19512732574949
0.179946959954724
0.184464647273197
0.191013843616212
0.200616671602435
0.215018828542555
0.237971902265334
0.278922793097986
0.366205006801238
0.624308603885876
2.19480361614351
0.177425699783609
0.180361178687742
0.184619397763165
0.190840687349707
0.199990680198674
0.21380242763849
0.236012966551914
0.275870116649119
0.361171491292834
0.615983970700566
2.19479751273564
0.175937431283673
0.177766797000579
0.180471693870007
0.184481390972013
0.190393414116822
0.199129136166792
0.212387314595498
0.233802314855796
0.272336034011606
0.35522165863966
0.606276512619091
2.19512278104485
0.175174702442205
0.176215694701593
0.177838895538207
0.180351439656677
0.184155223310854
0.189796060228821
0.198148862632501
0.210848440710052
0.231377228416119
0.268365970925342
0.348428902061879
0.595252844924312
2.19484809726466
0.174922074113067
0.175396618898688
0.176254021459797
0.177729984069415
0.180115861004006
0.183763147381242
0.189167553572396
0.197156812466611
0.20928209338729
0.228843287157077
0.264087350153747
0.340895001718433
0.582919685128396
2.19192601406945
0.175023077892623
0.175090781617435
0.175402524490157
0.176151864893744
0.177565788953021
0.179888566729273
0.183422971832182
0.188627998333244
0.196284086758218
0.20784471090824
0.226397909169606
0.2597238745139
0.33272009035233
0.568726734996749
2.18619075674427
2.46684341557787
0.691085479392779
2.38167618099964
0.390659602651038
0.678924323809202
2.28699458054574
0.288126132609156
0.388555641117877
0.662342400423996
2.21610852436609
0.240373992406808
0.288282883373536
0.383952405867447
0.648779405384224
2.18721780416617
0.214404303750083
0.241134269301595
0.286989039890573
0.379126680807342
0.641310639922234
2.18618993633477
0.199004812970127
0.215278480314835
0.240967157654006
0.284970331242223
0.375345092160549
0.637758819444387
2.19192696220945
0.189411410084309
0.199817011176179
0.215499537931306
0.240101940304295
0.28279852645084
0.372326104266955
0.634533700231935
2.194851876343
0.183290316362326
0.190111193310288
0.20012890879637
0.21513491119172
0.238802558222727
0.280567204443189
0.369156649468721
0.629735688928427
2.19513173651907
0.179382678032604
0.183879233953354
0.190401000883129
0.19996849021011
0.214324969270606
0.237216741141188
0.278078936329523
0.365221855438822
0.623122860177677
2.1948053873584
0.176955177993763
0.179876801321575
0.18411712908275
0.190315628487309
0.199436803212385
0.213211511590578
0.235371921216184
0.275155286616751
0.360335137014886
0.614936220406389
2.19479629593011
0.175549728392229
0.177370148761425
0.180063447660415
0.184058402381101
0.189951979005036
0.198664603877553
0.211893031453865
0.233267290875127
0.271739398453952
0.354513319178407
0.605316514326441
2.19512522963001
0.174861587115752
0.175897091719747
0.177513048775909
0.180016233626739
0.183808227829849
0.189434439172814
0.197768945772725
0.210444783997978
0.230940516966482
0.267876653570337
0.347826337592014
0.594279243568993
2.19485034095997
0.174677235232255
0.175149049906891
0.176002479313875
0.177472859921802
0.179851387327216
0.183489443577262
0.188882410296471
0.196857248146765
0.208963533738335
0.228497648648754
0.263695910914502
0.340384520078162
0.581837058628497
2.19192744372483
0.174841134533329
0.174909587618692
0.17522010832336
0.175966504386199
0.177376064020807
0.179693193105151
0.183220557561751
0.188416764101816
0.1960614907591
0.207606848941071
0.226138718021129
0.259435828056387
0.332398512794799
0.568157523799652
2.18618932269802
0.175237258921996
0.175020580497036
0.174946447019086
0.175184374364613
0.175924340792171
0.17734974830487
0.179659621901853
0.183128596147441
0.188190319105131
0.195576598717542
0.206633841279601
0.224210697075327
0.255528508442522
0.324243127395112
0.553232306377813
2.18721514248742
2.46684551854118
0.687408909419079
2.38168019068113
0.387904556091068
0.675635728338237
2.28699467206615
0.286066269903672
0.386083522829974
0.659441567502532
2.21610848610755
0.238764226769101
0.286431669470192
0.381754376578177
0.646229897077138
2.18721843297412
0.213102379674654
0.239688211265223
0.285338681011155
0.377185819369987
0.639070974120436
2.18619210320687
0.197927366615326
0.214111648339559
0.239677857116617
0.283510043615506
0.373638950474607
0.635788794033202
2.19192684937058
0.188507015601146
0.198855405536879
0.214461635363623
0.23896147594535
0.281514833298253
0.370831509602202
0.632803939829364
2.19484783612337
0.182525475789969
0.189308901711546
0.199277624756011
0.214219601434035
0.237801980531492
0.279446100376076
0.36785421379719
0.628216654545501
2.19512538114475
0.178734459659898
0.183206164833633
0.189695830509715
0.199222132709261
0.213525613050734
0.236346680743587
0.277107563019677
0.36409474590727
0.6217922386288
2.19480995331547
0.176407207666277
0.17931227469454
0.183531327797606
0.189702836054863
0.198790022604621
0.212521270051374
0.234623293462339
0.274321921966957
0.35936704645665
0.613766337156821
2.19479996690752
0.175089900338886
0.17689937847425
0.179578565653676
0.183555684203571
0.189427075009081
0.198112081695674
0.211305161516555
0.232631503114364
0.271032718003573
0.353687031283835
0.604270430820223
2.19511950574574
0.174480720172732
0.175509187080863
0.177115936333557
0.179607402394451
0.183384842557492
0.18899318955749
0.197305532817675
0.209952855313382
0.230409404541381
0.26728541474303
0.347122205520495
0.593296357435583
2.19485281337504
0.174368245956953
0.174835861850747
0.175683610116298
0.177146540424742
0.179515646684968
0.183142120469435
0.188520935861015
0.196478162922957
0.208561554002237
0.228063479994729
0.263208887435274
0.339777400561029
0.580795052623565
2.19192953863242
0.174598469468533
0.174665093612706
0.174972702737175
0.175714773882973
0.17711849277151
0.1794282574003
0.18294660814101
0.188131754888807
0.195762544900683
0.207289422184679
0.225794462936161
0.259044392363839
0.331876559685768
0.566909399823736
2.18619193425482
0.175056028816571
0.174840759329286
0.174766157350877
0.175002008837735
0.17573862561081
0.177159600484286
0.179463954352789
0.18292612413909
0.187979323926285
0.195354570669562
0.206396883489831
0.223952944593918
0.255245188705523
0.323935962660459
0.552538090050846
2.18721582064962
0.175653283174914
0.175245421844167
0.174905437032469
0.17478951051436
0.175066828685266
0.175886014948923
0.177388885030323
0.179754217898616
0.183247409129387
0.188285831092684
0.195559702555374
0.206316545427779
0.223163459509786
0.25270551523387
0.31715205256426
0.540210513519183
2.21610520102819
2.46683850785074
0.683366678021857
2.38168037068699
0.384866654457966
0.672002914887375
2.28699509459594
0.283792845866718
0.383351478009605
0.656229028658398
2.21610841130135
0.236984534166702
0.284382274140781
0.379319868248554
0.643416221544248
2.18721857651015
0.211659108326589
0.23808285360608
0.283504932957713
0.375030136800174
0.636597607618634
2.18619285145683
0.19672835712203
0.212811342734995
0.238239566459909
0.281880283855867
0.371737075273823
0.633612228775403
2.19192778727364
0.187495401155939
0.197778403353443
0.213297942398421
0.237681900321054
0.28007459027745
0.369158082518475
0.630885546660836
2.19484981389758
0.181664271685451
0.188404480627677
0.198316999258368
0.2131859158411
0.236671570781084
0.278180128615569
0.36638774790892
0.626529798984831
2.19511884786307
0.177998395913257
0.182441103812285
0.188893528744087
0.198372289389945
0.212614913671105
0.235355329696463
0.27600171140216
0.362816213150206
0.62030935254493
2.19480353997848
0.175778264567291
0.178663752960888
0.182857795341545
0.188997722140575
0.198045326199525
0.211726247896846
0.233761159351283
0.273363455203484
0.358259661911052
0.612462833613388
2.19480469091287
0.174554772109576
0.176351077047243
0.179013383744598
0.182969274134235
0.188814386893407
0.19746685960169
0.210618573466195
0.231889359145088
0.270209678118283
0.352734093429046
0.603109984542276
2.19512500894568
0.174029294347423
0.175049044868442
0.17664447702629
0.179121650123096
0.182881472342515
0.18846834524225
0.196754232890633
0.209367796173467
0.229778548958179
0.266586196401921
0.34630532677134
0.592234672339286
2.19484883334942
0.173992664829055
0.174454742785573
0.175295109098395
0.176748558623592
0.179105892952385
0.182718082833964
0.18807962397812
0.196015554761674
0.208071566959715
0.227535670333652
0.262622069235991
0.339074563741026
0.57977130023432
2.19192818433658
0.174292531369968
0.174355995662663
0.17465915449352
0.175395236699176
0.176791288814628
0.179091639183921
0.182598657589544
0.187770104093024
0.195383893991749
0.206888597557172
0.225362019053608
0.258558532779785
0.331259963566552
0.565753025759191
2.18619490155696
0.174814767930581
0.174598414972605
0.174521762854444
0.174754283898231
0.17548621794254
0.176901209671761
0.179198269931656
0.182651654304948
0.187694129245513
0.19505584001548
0.206080053217066
0.22360936957241
0.254853380835186
0.323395697780224
0.55098699280827
2.18721771931116
0.175472192522827
0.17506630322774
0.174726481186421
0.174609189191843
0.174883965018945
0.175699655582004
0.177198131858163
0.17955808469943
0.183044671693851
0.188074806710932
0.195337891728524
0.20608007188898
0.22290698426677
0.252427028339434
0.316844165684599
0.539289703436796
2.21611852068275
0.176197792015294
0.175670720608075
0.175155715297861
0.174802038781504
0.174767905596374
0.175182502174856
0.176156043790544
0.177817018411721
0.180347444016996
0.184019251111184
0.189251786688311
0.196724394428567
0.207639033995859
0.224450391382368
0.253287572080439
0.315268383518187
0.538624556872725
2.28699227690736
2.46684032134557
0.678958633571341
2.38167822086419
0.381526337869928
0.668014585266098
2.28699505271137
0.28129008776275
0.380338674649386
0.652668868852743
2.21610833209316
0.23502388104417
0.282120430376819
0.376628896043812
0.640298172506331
2.18721844686507
0.210066452181146
0.236308130453965
0.281475175074495
0.372643241688184
0.633872442112916
2.18619327578521
0.195401512375355
0.211369945966447
0.236643109822473
0.280070032088117
0.369625992352522
0.631212322731793
2.19192893649957
0.186371422532759
0.196579921932636
0.21200131636868
0.236254872213373
0.278468070965984
0.36729482500887
0.628770488024531
2.19485120414872
0.180702299015523
0.187392846036451
0.197241198391039
0.212027199326113
0.235403772924005
0.276760753396016
0.364747732873229
0.624666688940973
2.19512295405747
0.177170583915713
0.181579646586585
0.18798914228359
0.197413413891116
0.211586694367878
0.234235855001995
0.274753962368232
0.361378891940511
0.618668773655817
2.1947969636565
0.175064817687645
0.177927326951169
0.182092208857585
0.188195515302511
0.197197465350776
0.210820704207735
0.232779302907326
0.272273212892125
0.357006177001135
0.611016269618093
2.19479843256757
0.173941110628666
0.175721725716149
0.178364072941168
0.182294998173573
0.188109359835057
0.196723976242201
0.209827901066258
0.23103507051847
0.269264042967636
0.351647111960714
0.601822953488081
2.1951298383443
0.173504355378619
0.174513505747694
0.176095292975044
0.1785553406836
0.182294170136599
0.187855603834897
0.196110364039785
0.208684531024431
0.229042444758318
0.265772948105089
0.34536556694203
0.591066342160053
2.19485194520845
0.173547843801454
0.174002942499764
0.17483411266898
0.176275872600457
0.178618827284726
0.18221371083981
0.187554484637715
0.195465024828001
0.207488729420492
0.226908937533797
0.261929216448463
0.338262020896348
0.578679270197208
2.19192782894383
0.173920992385735
0.173980116802744
0.174277318375199
0.175005615250583
0.176391932893135
0.178680518654286
0.182173539595836
0.187328242417075
0.194921484377125
0.206399764341527
0.224836445097869
0.257974371224286
0.330552435067004
0.564662109434871
2.18619506955762
0.174510999717729
0.174292335536958
0.174212218965394
0.174439891681647
0.175165486180647
0.176572644237241
0.178860337411869
0.182302618082587
0.187331760050129
0.194676941919406
0.205679484685111
0.223177477269896
0.254366668835733
0.322763118666037
0.549627964588129
2.18721993313298
0.175231689185357
0.174825341494117
0.174484178460357
0.174364356022321
0.174635354427152
0.175446105845696
0.17693853570773
0.179291274185661
0.182769252058007
0.187788896679413
0.195038695506974
0.205762959884741
0.222563107693026
0.252032648027
0.316258000115655
0.537252069573133
2.21610785061829
0.176016340468867
0.175491732813683
0.17497742725729
0.174622975432136
0.174586953187748
0.17499878965341
0.17596878973926
0.177625414346379
0.180150556445366
0.183815884836333
0.189040258279135
0.196502163413885
0.207402175901448
0.224193608100221
0.253009423881226
0.314939987173931
0.53716926126479
2.28700643360434
0.176813355751331
0.176223235316009
0.175603002057283
0.175098836053888
0.174863929910182
0.175017276631606
0.175652182532656
0.176871422071515
0.178816753517312
0.18169375332669
0.185807274738185
0.19162512492987
0.199904499998657
0.211982436334487
0.230556967171956
0.262281719648762
0.330263408496986
0.574687631543976
2.38167590478889
2.46683833491044
0.674275509041482
2.38167768119707
0.377866174610933
0.66364295440433
2.28699450491978
0.27854093607906
0.377025920379223
0.648757174339764
2.21610811876921
0.232870318749792
0.279630473882639
0.373660238406782
0.636834943280922
2.18721807187275
0.208315912617525
0.234353088757643
0.279235230702311
0.370004778714316
0.630854542023989
2.18619312333803
0.193940449336557
0.209779437204206
0.234878530505731
0.278066897789839
0.367289736837887
0.628571363382605
2.19192967341736
0.185129962230732
0.195253707207033
0.210564214346259
0.234671381808539
0.276684528188153
0.36522845007842
0.626443961323882
2.19485281415233
0.179635235441526
0.186268861194094
0.196044180369154
0.210736410627957
0.233990443057774
0.275178601381281
0.362923892001076
0.622614410407201
2.19512468954923
0.176247219116449
0.180617388618871
0.186977609108254
0.196339731312477
0.210434417693563
0.232980909060181
0.273356142319787
0.359773945142882
0.616863585300646
2.19480127642765
0.1742634109279
0.177099093923273
0.18123017649335
0.187291294979571
0.196240959789823
0.209798581869711
0.231671103126072
0.271044164343531
0.355599440934835
0.609417099077406
2.19479201900675
0.173245714566053
0.175007791808196
0.177626731513502
0.181528551074609
0.187307255213974
0.195878242513249
0.208927509160139
0.230062598576755
0.268189454078458
0.350418780236346
0.600402761513884
2.19512385861319
0.172902919816924
0.173899337780996
0.175464877034639
0.177904658432617
0.181618774666761
0.18715042890237
0.195369003903378
0.207897770469727
0.228195442880776
0.264839585954161
0.344295834476927
0.589780583652015
2.19485478838229
0.173031016107681
0.17347751794118
0.174297488690773
0.17572512393987
0.17805081392423
0.18162504589273
0.186941205946839
0.19482189896625
0.206807998595838
0.226177844546735
0.261124130229582
0.337329752453412
0.577490261832116
2.19192832024727
0.173481340508179
0.173534865430978
0.173824514563436
0.174543079525008
0.175917369850643
0.178191555529295
0.181667583842604
0.186802133535754
0.194370880638959
0.205818056460042
0.224212365044555
0.25728513778608
0.329737600964582
0.563525509820467
2.18619235870255
0.174142492272889
0.173920457654692
0.173835513858842
0.174056710585044
0.174774094145233
0.176171300482729
0.178447248235503
0.181875758148874
0.186888551716229
0.194213723503897
0.205190488291432
0.222652327775017
0.253782034602369
0.322045574561446
0.548419818680357
2.18722233102636
0.174929360157877
0.174521402645333
0.174177575639712
0.174053809382435
0.174319490151328
0.175123582306914
0.176608043686051
0.178951435614712
0.182418444116596
0.187424959981447
0.19465845900552
0.205361221278832
0.222129887526428
0.251542154882985
0.315589722766012
0.53556118470308
2.21609760029436
0.17577604314454
0.175251509605459
0.174736455154809
0.174380125769476
0.174341045050632
0.174748744771177
0.175713619982463
0.177364136042433
0.179882081134529
0.18353885880034
0.188752794136606
0.196201403040883
0.20708332913028
0.223847187269809
0.252606161609329
0.314271451507029
0.534288064339002
2.28699445525235
0.176631100786619
0.176043881410145
0.17542481406756
0.174920371138601
0.174684112759049
0.174835286141396
0.175467307049379
0.176682956665639
0.178623929352886
0.18149565480639
0.185602687383603
0.191412287885296
0.199680666091159
0.211742997176144
0.230295328804916
0.261989096375236
0.329795784128306
0.572000250689347
2.38167938551781
0.177454706438503
0.176845658437006
0.176174399012807
0.175586306921301
0.175233127267827
0.17522928178043
0.175659823800682
0.176615517182363
0.178220583850273
0.180653486647848
0.18417556694014
0.189182299611988
0.196302276397757
0.206607921577095
0.22212137832786
0.247232400888535
0.293669666812831
0.403036442420511
0.841247940587375
3.68517148169645
0.66911088025653
2.38167800349871
0.37385539884981
0.65903438472336
2.28699409963451
0.275525337125083
0.373392529602217
0.644467202173719
2.21610782139199
0.230510546146553
0.276895361546582
0.370395625251708
0.633029154379595
2.18721758950687
0.206398548517722
0.232205803635692
0.276769507665781
0.367093145942737
0.627497097878793
2.18619238516641
0.192338729817367
0.208031363795476
0.232934987891924
0.275856810879909
0.364707818195031
0.625651761816522
2.191929432067
0.183766044445987
0.193793394989709
0.208978689468028
0.232921646006611
0.274711855390715
0.362943206047206
0.623884992781747
2.19485576884127
0.178458959185337
0.185027420651013
0.194719739177254
0.209306121147448
0.232422785616929
0.273423251955411
0.360903424350764
0.620362575581857
2.19512657720208
0.175224701424734
0.179550011487525
0.185853819216689
0.19514526689112
0.209151175253903
0.231582581461095
0.271799249352579
0.357991218352381
0.614879199756086
2.19480328767915
0.173370772537259
0.176175247084204
0.180267306431197
0.18628003563183
0.195170109740723
0.208653478705118
0.230429437502966
0.269668537430626
0.354031142956849
0.607663794611111
2.19479658425639
0.172465528000902
0.174205817145162
0.176797462187897
0.180665557939601
0.186403188558386
0.194924247381451
0.207911464621751
0.228965552593721
0.266979190433659
0.349041713181549
0.598839378777374
2.19511769020642
0.172222084373112
0.1732033406566
0.174749699313724
0.177165707737688
0.180850991523623
0.1863481056006
0.194525013520401
0.207001979548545
0.227231678150898
0.263779809576257
0.343089383769092
0.588372652804107
2.19485139070601
0.172439419567864
0.172875487604372
0.173682012227946
0.175092810064968
0.177398033611079
0.180947918951048
0.186235250810671
0.194081276591983
0.206024141491961