/*--------------------------------*- C++ -*----------------------------------*\
  =========                 |
  \\      /  F ield         | OpenFOAM: The Open Source CFD Toolbox
   \\    /   O peration     | Website:  https://openfoam.org
    \\  /    A nd           | Version:  12
     \\/     M anipulation  |
\*---------------------------------------------------------------------------*/
/*   Windows 32 and 64 bit porting by blueCAPE: http://www.bluecape.com.pt   *\
|  Based on Windows porting (2.0.x v4) by Symscape: http://www.symscape.com   |
\*---------------------------------------------------------------------------*/
FoamFile
{
    format      ascii;
    class       volScalarField;
    location    "400";
    object      p;
}
// * * * * * * * * * * * * * * * * * * * * * * * * * * * * * * * * * * * * * //

dimensions      [0 2 -2 0 0 0 0];

internalField   nonuniform List<scalar> 
10244
(
83333.3328795144
83333.3328903293
83333.3328797161
83333.3328794419
83333.3329014753
83333.3328905182
83333.3328902504
83333.3328796933
83333.33287963
83333.3328792751
83333.3329129343
83333.3329016625
83333.3329013949
83333.332890489
83333.332890425
83333.3328900757
83333.3328787544
83333.3328795738
83333.3328794603
83333.3328789949
83333.3329246821
83333.3329131184
83333.3329128553
83333.3329016378
83333.3329015704
83333.3329012185
83333.3328895644
83333.3328903649
83333.3328902457
83333.3328897878
83333.3328766015
83333.3328786095
83333.3328793682
83333.3328791761
83333.332878587
83333.3329367026
83333.3329248613
83333.3329246039
83333.3329130984
83333.3329130291
83333.33291268
83333.3329007328
83333.3329015189
83333.3329013921
83333.3329009275
83333.3328874554
83333.3328894108
83333.3328901513
83333.3328899524
83333.3328893722
83333.3328732236
83333.3328764637
83333.3328783606
83333.3328790479
83333.3328787594
83333.3328780447
83333.3329489822
83333.3329368771
83333.3329366245
83333.332924845
83333.3329247735
83333.3329244288
83333.3329122194
83333.3329129844
83333.3329128528
83333.3329123883
83333.3328986708
83333.3329005849
83333.3329013107
83333.3329010968
83333.3329005068
83333.3328841527
83333.3328873073
83333.3328891535
83333.332889822
83333.3328895271
83333.3328888219
83333.3328686926
83333.3328730976
83333.3328761713
83333.332877995
83333.3328786
83333.3328782022
83333.33287737
83333.3329615074
83333.3329491526
83333.3329489039
83333.3329368642
83333.3329367897
83333.3329364487
83333.3329239947
83333.3329247335
83333.3329245974
83333.3329241359
83333.3329102113
83333.3329120785
83333.3329127807
83333.3329125574
83333.3329119648
83333.3328954463
83333.3328985277
83333.3329003332
83333.3329009823
83333.332900667
83333.3328999501
83333.3328797289
83333.3328840155
83333.3328870063
83333.3328887785
83333.3328893655
83333.3328889619
83333.3328881388
83333.3328631032
83333.3328685642
83333.332872785
83333.3328757652
83333.3328775053
83333.3328780137
83333.3328775079
83333.3328765698
83333.3329742645
83333.332961674
83333.3329614288
83333.3329491432
83333.3329490651
83333.3329487266
83333.3329360437
83333.3329367539
83333.3329366129
83333.3329361536
83333.3329220448
83333.3329238575
83333.3329245318
83333.332924301
83333.3329237091
83333.3329070706
83333.3329100746
83333.3329118336
83333.3329124547
83333.3329121253
83333.3329114028
83333.3328911312
83333.3328953121
83333.3328982326
83333.3328999601
83333.3329005228
83333.3329000959
83333.3328992593
83333.3328742755
83333.3328795884
83333.3328836946
83333.3328865912
83333.3328882802
83333.3328887715
83333.3328882598
83333.3328873299
83333.3328565343
83333.3328629665
83333.3328682616
83333.3328723585
83333.3328752353
83333.3328768783
83333.3328772862
83333.3328766838
83333.3328756531
83333.3329872392
83333.3329744277
83333.3329741857
83333.3329616689
83333.3329615863
83333.3329612497
83333.3329483523
83333.3329490332
83333.3329488868
83333.3329484286
83333.3329341528
83333.332935907
83333.3329365526
83333.3329363143
83333.3329357225
83333.3329189903
83333.3329219105
83333.3329236167
83333.3329242063
83333.3329238659
83333.3329231416
83333.3329028672
83333.3329069402
83333.3329097877
83333.3329114651
83333.3329119943
83333.3329115496
83333.3329107051
83333.3328858158
83333.3328909929
83333.3328949977
83333.33289782
83333.3328994601
83333.3328999241
83333.3328993869
83333.3328984417
83333.3328678688
83333.3328741272
83333.332879277
83333.3328832594
83333.3328860529
83333.3328876459
83333.3328880371
83333.3328874278
83333.332886404
83333.3328490722
83333.3328563997
83333.3328626796
83333.33286783
83333.332871798
83333.3328745619
83333.3328761039
83333.3328764199
83333.3328757377
83333.3328746298
83333.3330004163
83333.3329873995
83333.3329871604
83333.3329744274
83333.3329743396
83333.3329740046
83333.3329609071
83333.3329615586
83333.3329614061
83333.3329609483
83333.3329465199
83333.3329482143
83333.3329488314
83333.332948585
83333.3329479924
83333.3329311855
83333.3329340175
83333.3329356682
83333.332936226
83333.3329358748
83333.3329351483
83333.3329149007
83333.3329188605
83333.3329216291
83333.3329232509
83333.3329237439
83333.3329232848
83333.3329224361
83333.332897692
83333.3329027331
83333.3329066352
83333.3329093806
83333.3329109657
83333.3329113917
83333.3329108341
83333.3329098791
83333.3328795763
83333.3328856704
83333.3328906872
83333.332894565
83333.3328972809
83333.3328988221
83333.3328991838
83333.3328985472
83333.3328975064
83333.3328606007
83333.3328677277
83333.3328738323
83333.332878837
83333.3328826909
83333.3328853731
83333.3328868659
83333.3328871646
83333.3328864737
83333.332885371
83333.3328407959
83333.3328489472
83333.3328561299
83333.3328622529
83333.3328672485
83333.3328710804
83333.3328737313
83333.3328751791
83333.3328754202
83333.3328746776
83333.3328735105
83333.3330137792
83333.3330005736
83333.3330003376
83333.332987404
83333.3329873109
83333.3329869771
83333.3329736943
83333.3329743166
83333.3329741572
83333.3329736991
83333.3329591322
83333.3329607667
83333.3329613556
83333.3329611002
83333.332960506
83333.3329436394
83333.3329463819
83333.3329479761
83333.3329485024
83333.3329481399
83333.3329474102
83333.3329272109
83333.332931054
83333.332933739
83333.3329353028
83333.3329357599
83333.332935287
83333.3329344336
83333.3329098677
83333.3329147687
83333.3329185625
83333.3329212259
83333.3329227512
83333.3329231365
83333.3329225617
83333.3329216006
83333.3328916222
83333.3328975521
83333.3329024354
83333.332906208
83333.3329088432
83333.3329103252
83333.3329106457
83333.3329099866
83333.3329089345
83333.3328725044
83333.3328794393
83333.3328853808
83333.3328902499
83333.332893996
83333.3328965983
83333.3328980377
83333.332898305
83333.332897585
83333.3328964634
83333.3328525461
83333.3328604698
83333.3328674492
83333.3328733968
83333.3328782482
83333.3328819679
83333.3328845382
83333.3328859368
83333.3328861591
83333.3328854055
83333.3328842417
83333.3328317659
83333.3328406784
83333.3328486914
83333.332855709
83333.3328616587
83333.3328664942
83333.3328701928
83333.3328727374
83333.3328741055
83333.3328742935
83333.3328735123
83333.3328723081
83333.3330273101
83333.3330139332
83333.3330137012
83333.3330005836
83333.3330004847
83333.3330001522
83333.3329866997
83333.3329872928
83333.332987126
83333.3329866671
83333.332971976
83333.3329735514
83333.3329741119
83333.3329738465
83333.3329732498
83333.3329563375
83333.3329589908
83333.3329605284
83333.3329610231
83333.3329606483
83333.3329599145
83333.3329397799
83333.3329435056
83333.3329461046
83333.3329476095
83333.3329480312
83333.332947544
83333.3329466847
83333.3329223211
83333.3329270788
83333.3329307598
83333.3329333374
83333.3329348007
83333.3329351463
83333.3329345549
83333.3329335868
83333.3329039683
83333.3329097309
83333.3329144763
83333.3329181393
83333.3329206891
83333.3329221071
83333.3329223835
83333.332921705
83333.3329206452
83333.332884748
83333.3328914906
83333.3328972695
83333.3329020038
83333.3329056413
83333.3329081593
83333.3329095362
83333.3329097598
83333.3329090154
83333.3329078817
83333.332864673
83333.3328723774
83333.3328791653
83333.3328849474
83333.3328896608
83333.332893271
83333.3328957602
83333.3328971041
83333.332897293
83333.3328965082
83333.3328953237
83333.3328437648
83333.3328524227
83333.3328602048
83333.3328670188
83333.3328727954
83333.3328774892
83333.3328810772
83333.3328835419
83333.3328848603
83333.3328850268
83333.3328842318
83333.3328830287
83333.3328220332
83333.3328316536
83333.3328404337
83333.3328482774
83333.3328551092
83333.3328608782
83333.3328655571
83333.3328691291
83333.3328715794
83333.3328728868
83333.3328730462
83333.3328722526
83333.3328710381
83333.3330409879
83333.3330274603
83333.3330272331
83333.3330139494
83333.3330138443
83333.333013514
83333.3329999071
83333.3330004718
83333.3330002975
83333.3329998376
83333.3329850376
83333.3329865542
83333.3329870864
83333.3329868104
83333.3329862101
83333.3329692666
83333.3329718311
83333.3329733121
83333.3329737751
83333.3329733869
83333.3329726475
83333.3329525932
83333.3329562013
83333.3329587135
83333.3329601591
83333.3329605454
83333.332960043
83333.3329591763
83333.332935034
83333.3329396468
83333.3329432126
83333.3329457027
83333.3329471031
83333.3329474096
83333.3329468012
83333.3329458245
83333.3329165922
83333.3329221846
83333.3329267887
83333.332930338
83333.3329327993
83333.3329341513
83333.3329343846
83333.3329336869
83333.3329326186
83333.3328972921
83333.33290384
83333.3329094528
83333.3329140486
83333.3329175737
83333.3329200028
83333.3329213122
83333.3329214889
83333.3329207232
83333.332919581
83333.3328771407
83333.3328846257
83333.3328912231
83333.3328968413
83333.3329014171
83333.3329049156
83333.332907318
83333.3329085972
83333.3329087397
83333.3329079293
83333.332906732
83333.3328561414
83333.3328645534
83333.3328721165
83333.3328787367
83333.3328843458
83333.3328889004
83333.3328923782
83333.3328947611
83333.3328960236
83333.3328961536
83333.3328953261
83333.3328940998
83333.3328343072
83333.3328436463
83333.3328521683
83333.3328597811
83333.3328664119
83333.3328720108
83333.3328765502
83333.3328800128
83333.3328823833
83333.3328836398
83333.3328837735
83333.3328829644
83333.3328817477
83333.3328116423
83333.3328219255
83333.3328314192
83333.3328400299
83333.3328476799
83333.3328543152
83333.3328599057
83333.3328644341
83333.3328678885
83333.3328702587
83333.3328715264
83333.3328716856
83333.3328709133
83333.3328697226
83333.3330547887
83333.3330411352
83333.3330409121
83333.3330274815
83333.3330273709
83333.3330270437
83333.3330132992
83333.3330138371
83333.3330136547
83333.3330131942
83333.3329983015
83333.3329997603
83333.3330002634
83333.3329999764
83333.332999372
83333.3329824126
83333.3329848887
83333.3329863135
83333.3329867445
83333.332986342
83333.3329855957
83333.3329656364
83333.3329691268
83333.3329715528
83333.3329729392
83333.3329732896
83333.3329727705
83333.3329718946
83333.3329479899
83333.3329524575
83333.3329559076
83333.3329583097
83333.3329596469
83333.3329599143
83333.3329592876
83333.3329583004
83333.3329294745
83333.3329348956
83333.3329393567
83333.3329427902
83333.3329451611
83333.3329464465
83333.3329466374
83333.3329459199
83333.3329448406
83333.3329101134
83333.3329164646
83333.3329219082
83333.3329263622
83333.3329297715
83333.3329321086
83333.3329333488
83333.3329334789
83333.3329326925
83333.3329315401
83333.3328899088
83333.3328971724
83333.3329035763
83333.3329090279
83333.3329134633
83333.3329168465
83333.3329191569
83333.332920366
83333.3329204581
83333.3329196264
83333.3329184193
83333.3328688593
83333.3328770256
83333.332884371
83333.3328907993
83333.3328962421
83333.3329006566
83333.3329040207
83333.3329063148
83333.3329075109
83333.3329075912
83333.3329067387
83333.3329054979
83333.3328469596
83333.3328560267
83333.332864303
83333.3328716945
83333.3328781294
83333.3328835602
83333.3328879602
83333.3328913124
83333.3328936004
83333.3328947999
83333.3328948929
83333.3328940505
83333.3328928078
83333.3328242179
83333.3328341932
83333.332843402
83333.3328517547
83333.3328591765
83333.3328656142
83333.3328710374
83333.332875428
83333.3328787736
83333.3328810638
83333.332882279
83333.332882408
83333.3328816177
83333.332880421
83333.3328006328
83333.3328115402
83333.3328217026
83333.33283103
83333.3328394437
83333.3328468866
83333.3328533255
83333.3328587421
83333.3328631261
83333.3328664725
83333.332868778
83333.3328700268
83333.3328702229
83333.332869509
83333.332868401
83333.3330686853
83333.3330549333
83333.3330547144
83333.3330411605
83333.3330410439
83333.3330407201
83333.3330268585
83333.3330273696
83333.3330271785
83333.3330267181
83333.3330117512
83333.3330131529
83333.3330136265
83333.3330133276
83333.3330127187
83333.3329957597
83333.3329981479
83333.3329995175
83333.3329999162
83333.3329994983
83333.3329987437
83333.3329788944
83333.3329822677
83333.3329846085
83333.332985936
83333.3329862503
83333.3329857128
83333.3329848257
83333.332961174
83333.3329654962
83333.3329688312
83333.3329711456
83333.3329724196
83333.3329726473
83333.3329720004
83333.3329710002
83333.3329425986
83333.3329478482
83333.3329521659
83333.332955483
83333.3329577627
83333.3329589812
83333.3329591293
83333.3329583909
83333.3329572979
83333.332923192
83333.332929346
83333.332934619
83333.3329389291
83333.3329422204
83333.332944464
83333.3329456342
83333.3329457181
83333.3329449106
83333.3329437448
83333.3329029534
83333.3329099942
83333.3329162018
83333.3329214838
83333.3329257757
83333.3329290406
83333.3329312561
83333.332932393
83333.3329324352
83333.3329315825
83333.3329303634
83333.3328818769
83333.3328897961
83333.3328969212
83333.3329031554
83333.3329084298
83333.3329127016
83333.3329159479
83333.3329181479
83333.3329192713
83333.332919299
83333.3329184252
83333.3329171732
83333.3328599531
83333.332868749
83333.3328767812
83333.3328839535
83333.3328901942
83333.3328954567
83333.3328997151
83333.3329029523
83333.3329051502
83333.3329062806
83333.3329063237
83333.3329054547
83333.3329041961
83333.332837172
83333.3328468494
83333.3328557863
83333.3328638908
83333.3328710893
83333.332877331
83333.3328825864
83333.3328868379
83333.332890073
83333.3328922801
83333.3328934351
83333.3328935221
83333.3328926955
83333.3328914691
83333.3328135363
83333.3328241092
83333.3328339599
83333.3328430024
83333.332851161
83333.3328583795
83333.3328646241
83333.3328698757
83333.3328741233
83333.3328773614
83333.3328795861
83333.3328807797
83333.3328809428
83333.3328802058
83333.3328790853
83333.3327890388
83333.3328005373
83333.3328113306
83333.3328213324
83333.332830464
83333.3328386652
83333.3328458992
83333.3328521447
83333.3328573916
83333.3328616376
83333.3328648858
83333.332867141
83333.3328683953
83333.332868669
83333.3328680686
83333.3328671315
83333.3330826459
83333.3330688266
83333.3330686116
83333.3330549635
83333.3330548398
83333.3330545198
83333.3330405647
83333.3330410489
83333.3330408476
83333.3330403882
83333.3330253681
83333.3330267126
83333.3330271569
83333.3330268444
83333.3330262315
83333.3330092914
83333.3330115925
83333.3330129074
83333.3330132732
83333.3330128383
83333.3330120746
83333.3329923514
83333.3329956089
83333.3329978658
83333.3329991346
83333.3329994119
83333.3329988543
83333.3329979543
83333.3329745707
83333.3329787485
83333.3329819695
83333.3329841969
83333.3329854077
83333.332985595
83333.3329849257
83333.3329839096
83333.3329559491
83333.3329610278
83333.3329652023
83333.3329684031
83333.3329705915
83333.3329717427
83333.3329718473
83333.3329710856
83333.3329699758
83333.3329365113
83333.3329424682
83333.3329475701
83333.3329517354
83333.3329549077
83333.3329570569
83333.3329581564
83333.3329581941
83333.332957364
83333.332956181
83333.3329162543
83333.3329230721
83333.3329290823
83333.3329341928
83333.3329383391
83333.3329414834
83333.3329436025
83333.3329446661
83333.3329446593
83333.3329437845
83333.3329425494
83333.3328951698
83333.3329028409
83333.3329097435
83333.3329157809
83333.3329208843
83333.3329250107
83333.3329281362
83333.3329302388
83333.3329312865
83333.3329312637
83333.3329303675
83333.332929102
83333.3328732451
83333.3328817688
83333.3328895548
83333.3328965063
83333.3329025511
83333.3329076433
83333.3329117572
83333.3329148748
83333.3329169766
83333.3329180305
83333.3329180229
83333.3329171308
83333.3329158599
83333.332850466
83333.3328598472
83333.3328685143
83333.3328763732
83333.3328833503
83333.3328893959
83333.3328944819
83333.3328985911
83333.3329017104
83333.3329038261
83333.3329049089
83333.3329049483
83333.3329040911
83333.3329028479
83333.3328268175
83333.3328370669
83333.3328466198
83333.3328553877
83333.3328632963
83333.3328702915
83333.3328763408
83333.3328814254
83333.3328855345
83333.3328886621
83333.3328908027
83333.332891934
83333.3328920531
83333.3328912762
83333.3328901196
83333.3328022968
83333.3328134339
83333.3328238887
83333.3328335788
83333.3328424285
83333.3328503787
83333.3328573918
83333.3328634459
83333.3328685298
83333.3328726405
83333.3328757806
83333.3328779542
83333.3328791516
83333.3328793864
83333.3328787562
83333.332877797
83333.3327768904
83333.332788951
83333.3328003432
83333.3328109841
83333.3328207952
83333.3328297139
83333.3328376992
83333.3328447258
83333.3328507809
83333.3328558629
83333.3328599776
83333.3328631376
83333.3328653582
83333.3328666483
83333.3328670471
83333.332866648
83333.3328659855
83333.3330966472
83333.3330827869
83333.3330825704
83333.3330688626
83333.3330687321
83333.333068414
83333.3330543943
83333.3330548519
83333.3330546394
83333.3330541808
83333.3330391311
83333.3330404183
83333.3330408339
83333.3330405057
83333.3330398891
83333.3330229891
83333.333025204
83333.3330264644
83333.3330267972
83333.3330263429
83333.3330255695
83333.333005991
83333.3330091338
83333.3330113079
83333.3330125184
83333.3330127577
83333.3330121776
83333.333011263
83333.3329881621
83333.3329921994
83333.3329953074
83333.3329974486
83333.3329985963
83333.3329987418
83333.3329980473
83333.3329970131
83333.332969511
83333.3329744196
83333.3329784515
83333.3329815365
83333.332983634
83333.3329847177
83333.3329847778
83333.3329839896
83333.3329828592
83333.3329500556
83333.3329558161
83333.3329607468
83333.3329647672
83333.3329678202
83333.3329698747
83333.3329709032
83333.3329708938
83333.3329700376
83333.3329688341
83333.3329297944
83333.3329363898
83333.3329422021
83333.3329471399
83333.3329511394
83333.332954162
83333.3329561837
83333.332957173
83333.3329571182
83333.332956218
83333.3329549629
83333.3329087175
83333.3329161408
83333.3329228199
83333.3329286588
83333.3329335892
83333.3329375679
83333.3329405706
83333.332942574
83333.3329435445
83333.3329434733
83333.3329425521
83333.3329412686
83333.3328868107
83333.3328950618
83333.3329025998
83333.332909328
83333.3329151748
83333.3329200943
83333.3329240608
83333.3329270557
83333.3329290577
83333.3329300326
83333.3329299762
83333.3329290592
83333.3329277739
83333.3328640567
83333.3328731413
83333.3328815369
83333.3328891489
83333.3328959034
83333.3329017516
83333.3329066659
83333.3329106294
83333.3329136279
83333.3329156451
83333.3329166503
83333.3329166402
83333.3329157568
83333.3329145013
83333.3328404368
83333.3328503653
83333.3328596231
83333.3328681196
83333.3328757802
83333.3328825523
83333.332888405
83333.3328933201
83333.3328972867
83333.3329002979
83333.3329023455
83333.3329034057
83333.3329034748
83333.3329026654
83333.3329014894
83333.3328159304
83333.3328267187
83333.3328368498
83333.3328462392
83333.3328548124
83333.3328625126
83333.3328693036
83333.3328751637
83333.3328800819
83333.3328840548
83333.3328870847
83333.3328891734
83333.3328903092
83333.3328904945
83333.3328898195
83333.3328888146
83333.3327905294
83333.3328022017
83333.3328132283
83333.3328235305
83333.3328330329
83333.3328416739
83333.332849412
83333.3328562212
83333.3328620876
83333.3328670084
83333.3328709891
83333.3328740412
83333.3328761796
83333.3328774104
83333.3328777601
83333.3328773231
83333.3328766269
83333.3327642141
83333.3327768113
83333.3327887746
83333.3328000245
83333.3328104832
83333.3328200856
83333.3328287866
83333.3328365565
83333.3328433784
83333.3328492479
83333.3328541716
83333.3328581642
83333.3328612484
83333.3328634555
83333.3328648208
83333.3328654172
83333.3328653362
83333.3328650385
83333.3331107252
83333.3330967844
83333.3330965725
83333.3330828287
83333.3330826916
83333.3330823684
83333.3330683195
83333.3330687517
83333.3330685275
83333.3330680667
83333.3330530167
83333.333054247
83333.3330546347
83333.3330542887
83333.3330536674
83333.3330368324
83333.3330389614
83333.3330401678
83333.3330404673
83333.3330399904
83333.3330392064
83333.3330197957
83333.3330228243
83333.3330249167
83333.333026069
83333.3330262692
83333.3330256639
83333.3330247323
83333.3330019348
83333.3330058325
83333.3330088287
83333.3330108844
83333.3330119689
83333.3330120707
83333.3330113483
83333.3330102932
83333.3329832687
83333.3329880095
83333.3329918986
83333.3329948682
83333.3329968754
83333.3329978912
83333.3329979049
83333.3329970866
83333.3329959325
83333.33296381
83333.3329693748
83333.3329741348
83333.3329780103
83333.3329809442
83333.332982904
83333.3329838608
83333.3329838033
83333.3329829164
83333.3329816879
83333.3329435582
83333.3329499318
83333.3329555462
83333.3329603109
83333.332964163
83333.3329670634
83333.332968987
83333.3329699015
83333.3329697981
83333.3329688678
83333.3329675889
83333.3329225029
83333.3329296791
83333.3329361344
83333.3329417737
83333.3329465297
83333.3329503594
83333.3329532379
83333.332955141
83333.3329560336
83333.3329559147
83333.332954964
83333.3329536583
83333.3329006291
83333.3329086083
83333.3329158976
83333.3329224011
83333.3329280479
83333.3329327928
83333.3329366099
83333.3329394798
83333.3329413798
83333.3329422758
83333.3329421708
83333.3329412258
83333.332939921
83333.3328779186
83333.3328867067
83333.3328948295
83333.3329021926
83333.3329087226
83333.3329143712
83333.3329191116
83333.3329229264
83333.3329258005
83333.3329277156
83333.3329286422
83333.3329285816
83333.3329276717
83333.332926402
83333.3328543498
83333.3328639579
83333.3328729197
83333.3328811438
83333.3328885556
83333.3328951036
83333.3329007578
83333.3329055007
83333.332909321
83333.3329122103
83333.3329141582
83333.3329151419
83333.3329151591
83333.3329143232
83333.3329131341
83333.3328298991
83333.3328403422
83333.3328501534
83333.3328592459
83333.332867545
83333.3328749957
83333.3328815633
83333.3328872272
83333.3328919764
83333.3328958072
83333.3328987204
83333.3329007161
83333.332901781
83333.3329019135
83333.3329012036
83333.3329001767
83333.3328045406
83333.3328158387
83333.3328265161
83333.3328364915
83333.3328456911
83333.3328540557
83333.3328615452
83333.332868134
83333.3328738083
83333.332878565
83333.332882409
83333.3328853514
83333.3328874057
83333.3328885739
83333.3328888671
83333.332888379
83333.3328876255
83333.3327782606
83333.3327904424
83333.3328020129
83333.3328128968
83333.3328230197
83333.3328323176
83333.3328407452
83333.3328482718
83333.3328548795
83333.3328605628
83333.3328653273
83333.3328691872
83333.3328721644
83333.332874289
83333.3328755897
83333.3328761248
83333.332875993
83333.3328756532
83333.3327510341
83333.3327641443
83333.3327766541
83333.3327884873
83333.3327995664
83333.3328098244
83333.3328192122
83333.3328276955
83333.3328352528
83333.3328418756
83333.3328475679
83333.3328523446
83333.3328562304
83333.3328592614
83333.3328614938
83333.3328630056
83333.3328639011
83333.3328642456
83333.3328643571
83333.3331247909
83333.3331108276
83333.3331106712
83333.3330968283
83333.3330966886
83333.3330963687
83333.3330823097
83333.3330827187
83333.3330824832
83333.3330820115
83333.3330669969
83333.3330681719
83333.3330685329
83333.3330681674
83333.333067537
83333.3330507974
83333.3330528417
83333.3330539947
83333.3330542606
83333.3330537577
83333.3330529613
83333.3330337453
83333.3330366599
83333.3330386715
83333.3330397658
83333.3330399257
83333.3330392907
83333.3330383399
83333.3330158717
83333.33301963
83333.3330225153
83333.333024486
83333.3330255071
83333.3330255634
83333.3330248095
83333.3330237295
83333.3329972066
83333.3330017801
83333.3330055273
83333.3330083821
83333.3330102993
83333.3330112469
83333.3330112114
83333.3330103594
83333.3330091779
83333.3329777595
83333.3329831292
83333.3329877191
83333.3329914497
83333.3329942648
83333.3329961301
83333.3329970144
83333.3329969066
83333.3329959842
83333.3329947266
83333.3329575308
83333.3329636833
83333.3329691
83333.3329736914
83333.3329773957
83333.3329801739
83333.3329819992
83333.3329828381
83333.3329826843
83333.3329817176
83333.3329804105
83333.3329365103
83333.3329434403
83333.3329496719
83333.3329551109
83333.3329596915
83333.3329633713
83333.332966125
83333.332967927
83333.3329687419
83333.3329685729
83333.3329675876
83333.3329662555
83333.3329146831
83333.3329223915
83333.3329294321
83333.3329357099
83333.3329411553
83333.3329457238
83333.33294939
83333.3329521335
83333.3329539305
83333.3329547483
83333.3329545924
83333.3329536154
83333.3329522861
83333.3328920306
83333.3329005237
83333.3329083735
83333.3329154865
83333.3329217902
83333.3329272374
83333.3329318017
83333.3329354655
83333.3329382129
83333.3329400241
83333.3329408722
83333.3329407599
83333.3329398206
83333.3329385322
83333.3328685308
83333.3328778194
83333.3328864843
83333.3328944345
83333.332901596
83333.3329079182
83333.3329133719
83333.3329179399
83333.3329216107
83333.3329243744
83333.3329262193
83333.3329271244
83333.332927089
83333.3329262268
83333.3329250236
83333.3328441577
83333.332854257
83333.3328637481
83333.3328725433
83333.3328805682
83333.3328877686
83333.3328941113
83333.3328995766
83333.3329041536
83333.3329078381
83333.332910629
83333.332912525
83333.332913513
83333.3329135919
83333.3329128547
83333.3329118156
83333.3328188827
83333.3328298116
83333.3328401444
83333.3328497977
83333.3328586975
83333.3328667865
83333.3328740264
83333.3328803927
83333.3328858718
83333.3328904606
83333.3328941634
83333.3328969897
83333.3328989515
83333.332900048
83333.3329002849
83333.3328997605
83333.3328989825
83333.3327926745
83333.3328044569
83333.3328156524
83333.3328261837
83333.3328359774
83333.3328449725
83333.3328531252
83333.3328604054
83333.3328667951
83333.3328722886
83333.332876891
83333.3328806158
83333.3328834847
83333.3328855258
83333.3328867609
83333.3328872317
83333.3328870377
83333.3328866333
83333.3327655149
83333.3327781824
83333.3327902719
83333.3328017115
83333.3328124274
83333.3328223538
83333.3328314415
83333.3328396555
83333.3328469731
83333.3328533849
83333.3328588938
83333.3328635138
83333.3328672686
83333.3328701937
83333.332872342
83333.3328737814
83333.3328746008
83333.3328748806
83333.3328749533
83333.3327373734
83333.3327509741
83333.3327640078
83333.3327764013
83333.3327880773
83333.3327989669
83333.3328090174
83333.33281819
83333.3328264587
83333.3328338103
83333.332840245
83333.3328457756
83333.3328504268
83333.3328542363
83333.3328572626
83333.332859606
83333.3328613868
83333.3328626919
83333.3328635645
83333.3328639534
83333.3331248683
83333.3331247486
83333.3331108452
83333.3331107431
83333.3331104716
83333.333096331
83333.3330967193
83333.3330964775
83333.3330960027
83333.3330810431
83333.333082163
83333.3330824997
83333.3330821128
83333.3330814628
83333.3330648569
83333.3330668176
83333.333067919
83333.3330681513
83333.3330676187
83333.333066804
83333.3330478166
83333.3330506178
83333.3330525495
83333.3330535859
83333.3330537041
83333.3330530339
83333.333052061
83333.3330299544
83333.333033572
83333.3330363471
83333.3330382334
83333.3330391905
83333.3330391992
83333.333038408
83333.333037299
83333.333011308
83333.3330157143
83333.3330193198
83333.3330220603
83333.3330238879
83333.3330247662
83333.333024679
83333.3330237887
83333.3330225742
83333.3329918888
83333.3329970635
83333.3330014836
83333.3330050694
83333.3330077658
83333.3330095366
83333.3330103474
83333.3330101859
83333.3330092232
83333.3330079317
83333.3329716978
83333.3329776294
83333.3329828484
83333.3329872664
83333.3329908227
83333.3329934785
83333.3329952053
83333.3329959674
83333.3329957603
83333.3329947519
83333.3329934109
83333.3329507253
83333.3329574097
83333.3329634175
83333.3329686559
83333.3329730605
83333.3329765898
83333.3329792181
83333.3329809186
83333.3329816555
83333.3329814321
83333.3329804062
83333.3329790429
83333.3329289572
83333.332936396
83333.332943188
83333.3329492395
83333.3329544823
83333.3329588732
83333.3329623873
83333.3329650036
83333.332966697
83333.3329674362
83333.332967226
83333.332966212
83333.3329648539
83333.3329063756
83333.3329145752
83333.3329221522
83333.3329290144
83333.3329350904
83333.3329403344
83333.3329447209
83333.3329482321
83333.3329508512
83333.332952558
83333.3329533269
83333.3329531609
83333.3329521878
83333.3329508756
83333.3328829586
83333.3328919297
83333.332900298
83333.3329079736
83333.3329148833
83333.3329209777
83333.3329262289
83333.33293062
83333.3329341387
83333.3329367745
83333.332938515
83333.3329393407
83333.3329392519
83333.3329383595
83333.3329371389
83333.33285868
83333.3328684373
83333.3328776082
83333.3328861052
83333.3328938545
83333.3329008032
83333.3329069194
83333.3329121838
83333.3329165859
83333.3329201205
83333.3329227853
83333.3329245783
83333.3329254868
83333.3329255122
83333.3329247486
83333.3329236972
83333.3328335095
83333.3328440718
83333.3328540608
83333.3328633924
83333.3328719928
83333.3328798059
83333.3328867949
83333.3328929366
83333.3328982179
83333.3329026353
83333.3329061921
83333.3329088965
83333.3329107587
83333.3329117768
83333.3329119589
83333.3329114078
83333.3329106191
83333.3328074136
83333.3328188029
83333.3328296297
83333.3328398138
83333.3328492822
83333.3328579759
83333.332865853
83333.3328728846
83333.3328790533
83333.3328843535
83333.3328887898
83333.3328923747
83333.3328951286
83333.3328970774
83333.3328982387
83333.3328986504
83333.3328984194
83333.3328979896
83333.3327803563
83333.3327925994
83333.3328042884
83333.3328153492
83333.3328257095
83333.3328353066
83333.3328440932
83333.3328520347
83333.3328591087
83333.3328653054
83333.3328706272
83333.3328750876