/*--------------------------------*- C++ -*----------------------------------*\
  =========                 |
  \\      /  F ield         | OpenFOAM: The Open Source CFD Toolbox
   \\    /   O peration     | Website:  https://openfoam.org
    \\  /    A nd           | Version:  12
     \\/     M anipulation  |
\*---------------------------------------------------------------------------*/
/*   Windows 32 and 64 bit porting by blueCAPE: http://www.bluecape.com.pt   *\
|  Based on Windows porting (2.0.x v4) by Symscape: http://www.symscape.com   |
\*---------------------------------------------------------------------------*/
FoamFile
{
    format      ascii;
    class       volVectorField;
    location    "400";
    object      U;
}
// * * * * * * * * * * * * * * * * * * * * * * * * * * * * * * * * * * * * * //

dimensions      [0 1 -1 0 0 0 0];

internalField   nonuniform List<vector> 
10244
(
(-6.26665300561589e-06 0.000884219071720145 2.42681341022634e-05)
(-5.60789525001937e-06 0.00090577463251905 2.35033133478428e-05)
(-4.44498989830536e-06 0.00077809549187479 5.3659634076257e-05)
(-1.90499880283655e-05 0.000802607807131349 2.1757446007383e-05)
(-5.17106398996958e-06 0.00092919320876566 2.28441966881942e-05)
(-4.15813092993682e-06 0.000795589883209925 5.15703190228935e-05)
(-1.75863874502788e-05 0.000819432262133522 2.07391101803335e-05)
(-2.66374050344697e-06 0.000827373946562753 8.07420607754019e-05)
(-1.49466927927516e-05 0.000695196533947328 5.07780221585723e-05)
(-3.09146248542095e-05 0.000766245822382658 2.18276110466643e-05)
(-5.00181138468952e-06 0.000953038026175548 2.24924752006922e-05)
(-3.90757665438749e-06 0.000814148753366788 4.99733018406691e-05)
(-1.65986575141482e-05 0.000837419963429386 1.97893041163577e-05)
(-2.51882644440026e-06 0.0008469237370732 7.77476120143847e-05)
(-1.42499986412073e-05 0.000707881555950019 4.83740457490222e-05)
(-2.92809975260887e-05 0.000780670200973798 2.05187875350508e-05)
(-1.80257067169564e-06 0.000834271143779456 0.000107463607870384)
(-8.82787310204727e-06 0.000788191897083586 7.78771358031477e-05)
(-2.60423098486968e-05 0.000658705487844019 4.99703073945745e-05)
(-4.39126634230932e-05 0.000763146700319213 2.27343247183749e-05)
(-4.84687267106646e-06 0.000976384397715316 2.24157056684871e-05)
(-3.68678167786513e-06 0.000832795303344594 4.88224060125164e-05)
(-1.61013745206698e-05 0.00085722476115891 1.94021288898837e-05)
(-2.35079154375829e-06 0.000866706802941803 7.52733678967158e-05)
(-1.3591894225164e-05 0.000722979555135211 4.6554610795996e-05)
(-2.80307527726513e-05 0.000796511161866057 1.93463973137524e-05)
(-1.69115933077491e-06 0.00085444018830833 0.000103651091615157)
(-8.42666285168047e-06 0.000805085808789919 7.46537708921901e-05)
(-2.50912175571625e-05 0.000668639846242406 4.73293641862085e-05)
(-4.22013019043761e-05 0.000776978377903853 2.12418853386829e-05)
(-1.22477893972929e-06 0.000831849743093462 0.000133203370583522)
(-5.67700202880601e-06 0.000814716162634483 0.000104554855920297)
(-1.58273358557295e-05 0.000767719785711811 7.6949631080782e-05)
(-3.79725490676222e-05 0.000647246027073711 5.04681734989542e-05)
(-5.83032999729971e-05 0.000762401301335594 2.39237022071009e-05)
(-4.61683620981082e-06 0.0009996933812342 2.2567853101737e-05)
(-3.43937147131559e-06 0.000851194963492755 4.80453102691512e-05)
(-1.55792512970268e-05 0.000876842497631942 1.94068126565351e-05)
(-2.15397153758447e-06 0.000886346093971397 7.32541701426671e-05)
(-1.29369759074907e-05 0.000739034800977656 4.53679461568359e-05)
(-2.70567635617394e-05 0.000814888275936313 1.89480331747815e-05)
(-1.55456355828811e-06 0.000874495107204456 0.000100341804140517)
(-7.94887136508399e-06 0.000823034193963632 7.20541697734039e-05)
(-2.40471749674454e-05 0.000681814516298282 4.53456209560995e-05)
(-4.067511019423e-05 0.000792228903648943 1.98952698656635e-05)
(-1.13137358274068e-06 0.000852073384959439 0.000128576160957937)
(-5.35882163013382e-06 0.000833403527226613 0.000100543989963168)
(-1.5159193502895e-05 0.000782866829962639 7.35206592304573e-05)
(-3.68169470642795e-05 0.000655941874965661 4.76480378021672e-05)
(-5.64144979809707e-05 0.000776049413143597 2.23035030718444e-05)
(-7.46691552242003e-07 0.000828632137384501 0.000157454708732501)
(-3.72477530285774e-06 0.000819873812276184 0.00013006057547333)
(-1.02192133806997e-05 0.00080374180884744 0.00010353115548484)
(-2.35858150014373e-05 0.000759782025942432 7.73032011544612e-05)
(-5.08613337480575e-05 0.000640439550719119 5.11669507429969e-05)
(-7.39049188879077e-05 0.000757615229024916 2.47156503582713e-05)
(-4.33079451201424e-06 0.00102341870508387 2.29518496645758e-05)
(-3.14369150373236e-06 0.000869569543037301 4.76218802075227e-05)
(-1.48696284419195e-05 0.000896488331904231 1.96731305227894e-05)
(-1.92087795071097e-06 0.000905798083182338 7.16473516102881e-05)
(-1.21888350149322e-05 0.000755030093818251 4.46404213542618e-05)
(-2.59701244535996e-05 0.000833200641801278 1.90124400943808e-05)
(-1.38636794430912e-06 0.000894326606354087 9.74847827008769e-05)
(-7.36168572358771e-06 0.000841330678068244 7.00257877285244e-05)
(-2.28992612679919e-05 0.000696485553895223 4.41190673909354e-05)
(-3.91590647067426e-05 0.000810344953963336 1.94483403715365e-05)
(-1.01201093445794e-06 0.000872045863399727 0.000124464099932534)
(-4.96069935027174e-06 0.00085245959834162 9.71471060112568e-05)
(-1.43204096584296e-05 0.000799585541393926 7.08110988957502e-05)
(-3.53953092899342e-05 0.00066821022748258 4.55253063683895e-05)
(-5.45705704049081e-05 0.000790891825591934 2.08486470390915e-05)
(-6.66912970696403e-07 0.000848702716238245 0.000152062191355344)
(-3.4535881648294e-06 0.000839136446753724 0.000125231610140009)
(-9.67426393044109e-06 0.000821346842193108 9.93319371340212e-05)
(-2.2658226137519e-05 0.000773989940466712 7.37098883674976e-05)
(-4.94940099348748e-05 0.000648362917800939 4.81941531166656e-05)
(-7.17333704961835e-05 0.000771149072263925 2.30040722629595e-05)
(-3.5043123667233e-07 0.000826297172518305 0.000180055342586043)
(-2.27387983947291e-06 0.000820034772408195 0.000153899799468045)
(-6.62637780154002e-06 0.000813191256197812 0.000128841362073064)
(-1.53429697424485e-05 0.000799787622021459 0.000103728606495417)
(-3.19938341974328e-05 0.000755246913485148 7.77424738808544e-05)
(-6.44642344733483e-05 0.000633997219833933 5.16168485876245e-05)
(-9.03559465516419e-05 0.000747620485491033 2.50914221241693e-05)
(-3.98862761714585e-06 0.00104799381096609 2.35886055486028e-05)
(-2.79383260489183e-06 0.000888161118838203 4.75583538844354e-05)
(-1.39729084941375e-05 0.000916552249802299 2.01881470596451e-05)
(-1.64360191990205e-06 0.000925227424651067 7.04581676349771e-05)
(-1.13021238664008e-05 0.000771037135129538 4.43046875778396e-05)
(-2.45936830334014e-05 0.000851633684428204 1.93593690532054e-05)
(-1.18055068905656e-06 0.000913967034714454 9.50810311956499e-05)
(-6.65721800539632e-06 0.000859552129976301 6.84530861110776e-05)
(-2.15766846698263e-05 0.000711215835935341 4.34124096568626e-05)
(-3.74139735486651e-05 0.000828439370896674 1.95145205478959e-05)
(-8.63570221843046e-07 0.00089176388616432 0.000120831309790618)
(-4.45916518317835e-06 0.000871573519914609 9.4293030513645e-05)
(-1.3281557977369e-05 0.00081701065652283 6.87584920505436e-05)
(-3.37331343399093e-05 0.000682268578679033 4.42435727703114e-05)
(-5.24802232865956e-05 0.000808810503824971 2.03609902885226e-05)
(-5.63773489214585e-07 0.000868472692629025 0.00014720004437048)
(-3.10631336120099e-06 0.000858463133765334 0.000121036753988721)
(-8.95979580461342e-06 0.000839656119145748 9.58455723693961e-05)
(-2.14332258831749e-05 0.000789993133414732 7.08898808854817e-05)
(-4.77072707488134e-05 0.000660026082121367 4.59578772901072e-05)
(-6.95608109562055e-05 0.000785578720044849 2.14844905698105e-05)
(-2.81707723618983e-07 0.000846134119415336 0.000173942968935122)
(-2.04083851296626e-06 0.000839391287015173 0.00014829970555626)
(-6.16346662045761e-06 0.000831718359117983 0.000123826613996154)
(-1.45545136712478e-05 0.000816768300225311 9.93764215565862e-05)
(-3.08167183560982e-05 0.000768843625490106 7.400999696675e-05)
(-6.28693566719203e-05 0.00064127449975765 4.85029643113385e-05)
(-8.78338602840518e-05 0.000760944478643083 2.32566989665712e-05)
(-2.90317218794275e-08 0.000825063821854181 0.000201074384758338)
(-1.11293317606797e-06 0.000819453914668519 0.000176104804852056)
(-4.00381688983038e-06 0.000815400571402285 0.000152366342267971)
(-9.99330568560656e-06 0.000811295057398171 0.000128839706129536)
(-2.09142675562119e-05 0.000797898605092413 0.000103908895690263)
(-4.07467687860045e-05 0.000751474089809831 7.78564166540283e-05)
(-7.84185693234906e-05 0.000626973383668199 5.16544940323388e-05)
(-0.00010728481661412 0.000732883980784004 2.51231433014451e-05)
(-3.57985913952043e-06 0.0010738398533149 2.44827722792688e-05)
(-2.37868428090396e-06 0.000907246633418174 4.78941475248622e-05)
(-1.29000170562747e-05 0.000937423121374238 2.09688532825294e-05)
(-1.31571610519057e-06 0.000944812857914416 6.96933249305387e-05)
(-1.02496030385544e-05 0.00078726095712553 4.43486714491654e-05)
(-2.29342302333503e-05 0.000870516648928524 1.99735396089377e-05)
(-9.34726217205247e-07 0.000933568812192699 9.31335182677265e-05)
(-5.82319558974023e-06 0.000877767553917431 6.73168492269043e-05)
(-2.00195329587213e-05 0.000725973631851706 4.31298624079879e-05)
(-3.53018342588815e-05 0.000846662125869996 1.98770150246866e-05)
(-6.86194685283095e-07 0.000911294589046665 0.000117677984375669)
(-3.84190011593643e-06 0.000890562353183972 9.19117687804735e-05)
(-1.20408450837153e-05 0.000834451384128983 6.71965521263111e-05)
(-3.18008604271608e-05 0.000696433702100579 4.35336386138779e-05)
(-5.00460377356506e-05 0.000826683364487548 2.04193224740754e-05)
(-4.34256505163019e-07 0.000887993842076289 0.000142844098590127)
(-2.6658551525696e-06 0.000877725442146905 0.000117408536593329)
(-8.05739493378718e-06 0.000858252572804034 9.2973796049439e-05)
(-1.99132855331298e-05 0.000806910801969812 6.87916039364529e-05)
(-4.55301650879042e-05 0.000673645441338821 4.46286341735197e-05)
(-6.69170657125676e-05 0.000803244530705232 2.09905166169694e-05)
(-1.90569866569489e-07 0.000865656241245499 0.000168382739442689)
(-1.73091514459752e-06 0.000858682892277307 0.000143360208999258)
(-5.54557154174826e-06 0.000850543481425035 0.000119545448975779)
(-1.34976950307467e-05 0.000834610468329082 9.57965475166206e-05)
(-2.92164867374425e-05 0.000784345790136133 7.10921435153244e-05)
(-6.07284855944109e-05 0.000652429128683932 4.61678861534236e-05)
(-8.53210201737784e-05 0.000774853167583904 2.16308948240205e-05)
(2.93057668415578e-08 0.00084461082587431 0.000194289403320126)
(-9.09689438495881e-07 0.00083870241198912 0.000169802756731094)
(-3.60844300626285e-06 0.000834202587740243 0.000146597474785775)
(-9.32090066632689e-06 0.000829391028889895 0.000123676545413193)
(-1.98884528310288e-05 0.000814471364409002 9.94325727260285e-05)
(-3.93351303120959e-05 0.000764579344108836 7.3996416417317e-05)
(-7.65892079702939e-05 0.000633612694146752 4.83837429027772e-05)
(-0.000104357408120003 0.000745905948891049 2.31393668216818e-05)
(2.19829710076559e-07 0.000824868218957799 0.000220722888678811)
(-1.68571575025752e-07 0.000819240229290202 0.000196840685476736)
(-1.96338719260528e-06 0.000815915919045662 0.000174270390439404)
(-6.06772475286015e-06 0.000814476943459271 0.000152131756754534)
(-1.36463138383142e-05 0.00081072389434701 0.000128781165876031)
(-2.66611929762027e-05 0.000796449589621826 0.000103689023809175)
(-4.95696699673856e-05 0.000747417841573213 7.74899089771548e-05)
(-9.23670345683196e-05 0.000618884949732412 5.12049902223743e-05)
(-0.0001243606960736 0.000713818687018063 2.47941099254126e-05)
(-3.10784275818135e-06 0.00110142532047553 2.56874187566365e-05)
(-1.88587384578855e-06 0.000927121554279354 4.86133994244394e-05)
(-1.16342929308085e-05 0.000959529746720031 2.20405429598096e-05)
(-9.32630217464238e-07 0.000964795257828746 6.93645258807316e-05)
(-9.00367500326913e-06 0.000803958839439 4.47889624862205e-05)
(-2.09583522557246e-05 0.000890234185824587 2.08677352328493e-05)
(-6.426945912185e-07 0.000953310527316166 9.1661161478731e-05)
(-4.83620313229381e-06 0.00089613694159525 6.66206450421388e-05)
(-1.8186231510154e-05 0.000740924969403678 4.32478580765699e-05)
(-3.279657699473e-05 0.000865337692988537 2.05170813693724e-05)
(-4.67489050743594e-07 0.00093078598185035 0.000115021127169803)
(-3.09232741226216e-06 0.000909525347976728 9.00029896698331e-05)
(-1.05746314405598e-05 0.000851894022445714 6.60916077119779e-05)
(-2.95312331422974e-05 0.000710607490898263 4.32790042993784e-05)
(-4.71626173026876e-05 0.000844634933375088 2.07988886695755e-05)
(-2.73480423683503e-07 0.000907324285264157 0.000138993408801639)
(-2.11149169078844e-06 0.000896840472902948 0.000114281188228758)
(-6.96107664204149e-06 0.000876775556309497 9.05985392517498e-05)
(-1.81026881131316e-05 0.000823885922015085 6.72182768465919e-05)
(-4.29791687638705e-05 0.000687359648114742 4.39122596768117e-05)
(-6.38056814110182e-05 0.000820815836112154 2.10780078134781e-05)
(-7.54807248151594e-08 0.000884920634596495 0.000163353705684195)
(-1.33462379069006e-06 0.000877858911469379 0.000139017802852749)
(-4.75851222241914e-06 0.000869460556739428 0.000115905272085965)
(-1.21645418274625e-05 0.000852876249800543 9.28883455050799e-05)
(-2.72146871853805e-05 0.000800870580339403 6.89510344947621e-05)
(-5.80528556649431e-05 0.000665634902048361 4.47973940182808e-05)
(-8.21801439450584e-05 0.000792108744693791 2.11134243899301e-05)
(1.0861627779566e-07 0.000863839562257256 0.000188095058215061)
(-6.38098512109033e-07 0.0008578266464256 0.000164194629958964)
(-3.07073342109203e-06 0.000853116210946741 0.000141588974857713)
(-8.40793707790468e-06 0.000847898219820998 0.000119308961451783)
(-1.84923358399731e-05 0.000831978716785102 9.57691290688215e-05)
(-3.73858460342008e-05 0.000779670633907986 7.09909544370305e-05)
(-7.41076154734818e-05 0.000644276493946015 4.59423681294712e-05)
(-0.000101505934936094 0.000759152170917403 2.13782425684783e-05)
(2.68112766229248e-07 0.000844081434120374 0.000213321655330992)
(5.0943224339168e-09 0.000838271678583345 0.000189895435032864)
(-1.62356207927383e-06 0.000834708700076187 0.000167807706649903)
(-5.49411434747349e-06 0.000832954675144614 0.000146222734476256)
(-1.27672876598963e-05 0.000828540239409958 0.000123502113926487)
(-2.54184555222491e-05 0.000812705582873802 9.91013149343152e-05)
(-4.79467424180759e-05 0.000760056609540717 7.34957492638335e-05)
(-9.03095463904389e-05 0.000624840046624298 4.77457521219534e-05)
(-0.000120965287380441 0.00072649868730348 2.26297860070044e-05)
(4.13264881138519e-07 0.00082562290379113 0.000239193434012994)
(5.83924547923866e-07 0.000819692551217848 0.000216292433022098)
(-3.17758663453382e-07 0.000816344410301467 0.000194781207539538)
(-2.99425248125857e-06 0.000815463716182785 0.000173830422134224)
(-8.29278939319881e-06 0.000814502827483956 0.000151866590585231)
(-1.73890569760222e-05 0.000810305495889211 0.00012828378705546)
(-3.23632708482698e-05 0.00079466260583622 0.000102908802351042)
(-5.82683740307921e-05 0.000742498655627467 7.65301637592587e-05)
(-0.000106032271322434 0.000609204323551389 5.01697003376798e-05)
(-0.000141279694837822 0.000690108127459357 2.40329891716342e-05)
(-2.55903440136223e-06 0.00113125660958598 2.72591719336373e-05)
(-1.30382760700677e-06 0.000948105801279345 4.97389450036125e-05)
(-1.0137027456703e-05 0.000983322635242926 2.34301441101117e-05)
(-4.77563580197526e-07 0.000985438612182085 6.94870321898723e-05)
(-7.53269694155238e-06 0.000821417152522574 4.56529610560201e-05)
(-1.86113222133856e-05 0.000911179564728519 2.2093641765356e-05)
(-2.95510287136389e-07 0.000973392089275077 9.06722682454397e-05)
(-3.65991390766632e-06 0.000914885680762944 6.63657105883524e-05)
(-1.60236075756241e-05 0.000756307430757798 4.37755814998646e-05)
(-2.98434486991214e-05 0.00088484096198375 2.14652709150684e-05)
(-2.04889071561739e-07 0.000950379152134589 0.000112879173364211)
(-2.19533475805098e-06 0.000928619377712474 8.85786845057798e-05)
(-8.84270731376222e-06 0.000869467618679951 6.54401429344091e-05)
(-2.68631734404045e-05 0.000724928788888604 4.34486784747308e-05)
(-4.37887538129569e-05 0.000863007530917576 2.14692339229536e-05)
(-7.77076735909711e-08 0.000926588181248705 0.000135679603670728)
(-1.44102189538282e-06 0.000915911459457583 0.000111669876845547)
(-5.64789788286506e-06 0.000895272670070565 8.87140781371189e-05)
(-1.59595891433639e-05 0.000840846348497666 6.61247767498143e-05)
(-3.99862179541815e-05 0.000701031771929972 4.36818709064545e-05)
(-6.01588901158644e-05 0.000838377748089723 2.15169333135788e-05)
(6.62570952893911e-08 0.000903988504699944 0.000158869354426373)
(-8.46894118313558e-07 0.000896870742746312 0.000135219814117027)
(-3.79094624948335e-06 0.000888256971163745 0.000112792867087408)
(-1.05514737830691e-05 0.000871088863314547 9.05008189439946e-05)
(-2.48269540486965e-05 0.000817446743037321 6.73656509956595e-05)
(-5.49041438136442e-05 0.000678888679687805 4.40782056576681e-05)
(-7.84552872744688e-05 0.000809229513026251 2.12179253882454e-05)
(2.09875931733032e-07 0.000882807564203752 0.000182467653397966)
(-2.89062493962234e-07 0.000876804365889594 0.000159218277905653)
(-2.37892481475665e-06 0.000872028108047229 0.000137252541728612)
(-7.24260955880164e-06 0.000866589270032235 0.0001156398079385)
(-1.6726316418839e-05 0.00084997335070768 9.28233313037621e-05)
(-3.49276387062294e-05 0.000795830833837788 6.88090323260328e-05)
(-7.09711204308493e-05 0.000657047497400854 4.45217188080553e-05)
(-9.79099470687079e-05 0.000775863126193275 2.08214843749692e-05)
(3.37619831226566e-07 0.000862977869474491 0.000206539396115283)
(2.42947581000537e-07 0.000857151347705287 0.000183670215091655)
(-1.15257209804305e-06 0.000853522239665081 0.000162137398434344)
(-4.70161891866496e-06 0.000851630196182865 0.000141135202310569)
(-1.15600022201126e-05 0.00084681609884203 0.000119059448909537)
(-2.37087792188238e-05 0.000829938181714905 9.53613579558368e-05)
(-4.56831973964765e-05 0.000774757831286696 7.03974758848937e-05)
(-8.75136089350668e-05 0.000634987587484126 4.51711659694767e-05)
(-0.000117776225119485 0.000738959630798199 2.06927989122503e-05)
(4.55514977288775e-07 0.00084446030320925 0.000231214359148186)
(7.3133044611434e-07 0.000838435027462195 0.00020874067290923)
(-2.60753919508127e-08 0.000834981112011762 0.000187676130465799)
(-2.50381496552603e-06 0.000833993856233644 0.000167234801677074)
(-7.54375462971856e-06 0.00083277369089458 0.000145849769273635)
(-1.63232363293643e-05 0.000827909142417797 0.000122903462098533)
(-3.09351424195023e-05 0.000810624194162062 9.82062361898703e-05)
(-5.64646525773029e-05 0.000754644166021063 7.23783889784462e-05)
(-0.000103754628529241 0.000614385221036275 4.64755436734088e-05)
(-0.000137330007785576 0.000702462358347414 2.1646748540336e-05)
(5.59034893462905e-07 0.000827254478587052 0.000256666326044301)
(1.18105571617564e-06 0.000820876326119872 0.000234643981597883)
(1.00555449634323e-06 0.000817193117626128 0.000214090416373866)
(-5.31133738817227e-07 0.0008161329054249 0.00019419206883407)
(-4.1061500153629e-06 0.000815762468918261 0.000173408360350794)
(-1.05566279448694e-05 0.00081453642584897 0.000151158521003184)
(-2.10621212617299e-05 0.000809484753784614 0.000127167631045183)
(-3.78889423268334e-05 0.000792139249892486 0.000101431038315957)
(-6.67095832681703e-05 0.000736294255523839 7.48349625037008e-05)
(-0.00011917068173938 0.000597380400414322 4.83966689570989e-05)
(-0.000157677927369809 0.000660764182832963 2.26873127597642e-05)
(-1.88074954561265e-06 0.00116383929838869 2.91807974218582e-05)
(-6.23819689715432e-07 0.000970560960503178 5.13122723029957e-05)
(-8.36770805437221e-06 0.00100929769456087 2.52130587117182e-05)
(5.71858634566411e-08 0.00100701034224093 7.00764213398124e-05)
(-5.79199457688252e-06 0.000839936199787914 4.69624820234423e-05)
(-1.58197587885648e-05 0.000933815901594915 2.36793786356242e-05)
(1.13402163307421e-07 0.000994032348293433 9.01869149693794e-05)
(-2.27714785527436e-06 0.000934259536842262 6.65787893656738e-05)
(-1.3467998300785e-05 0.000772395738507551 4.47442099110491e-05)
(-2.63169737045932e-05 0.000905581865670154 2.28007634330367e-05)
(1.05985188653476e-07 0.000970257144890157 0.00011127157491585)
(-1.13575039914716e-06 0.000948036145349115 8.76618914862454e-05)
(-6.79631085494385e-06 0.000887377874974225 6.52501391252222e-05)
(-2.37206922241381e-05 0.000739622370369335 4.40509438222641e-05)
(-3.98099906621362e-05 0.00088215889450979 2.24563960569345e-05)
(1.55938827585173e-07 0.000945930974283282 0.000132918042468442)
(-6.39581359574918e-07 0.000935079990764835 0.00010959253768885)
(-4.08598165805066e-06 0.000913878122070485 8.73294177262093e-05)
(-1.34289842227737e-05 0.000857892324260476 6.55040915662912e-05)
(-3.64745667914809e-05 0.000714781426641316 4.39008734976853e-05)
(-5.59067407311232e-05 0.000856291395625944 2.22827082874597e-05)
(2.39678415784063e-07 0.00092297718665877 0.000154962252649939)
(-2.49945063220293e-07 0.000915820095499041 0.000131980081250444)
(-2.62145008116139e-06 0.000907004246341033 0.000110207879415833)
(-8.6225792976125e-06 0.000889255937673721 8.86224277901998e-05)
(-2.20014803454668e-05 0.000833963535506891 6.62825651029295e-05)
(-5.12184319505792e-05 0.000692025492816603 4.38749703893418e-05)
(-7.410782646641e-05 0.000826217662588404 2.16968441592763e-05)
(3.35874243462865e-07 0.00090157336486516 0.000177416692034647)
(1.45982084401388e-07 0.000895607675625725 0.000154819229176009)
(-1.52244847027337e-06 0.000890795238882917 0.000133478371019701)
(-5.81600326599696e-06 0.000885167007438333 0.000112521067058724)
(-1.45915520190479e-05 0.00086790268949912 9.04216511940466e-05)
(-3.19937170921633e-05 0.000812004586539573 6.72117529130799e-05)
(-6.72785668602579e-05 0.000669801932308753 4.37914578337104e-05)
(-9.36548838664126e-05 0.000792393713773496 2.09284385952394e-05)
(4.28199540015185e-07 0.000881611729120444 0.000200350518355761)
(5.52289977846556e-07 0.000875867827157722 0.000178099418459704)
(-5.39215157813028e-07 0.000872283750509082 0.000157170137591004)
(-3.67740456343813e-06 0.000870371399372185 0.00013677665300479)
(-1.00153046219552e-05 0.000865314688524893 0.00011535828343349)
(-2.15376722451057e-05 0.000847675775092653 9.23765581406112e-05)
(-4.28148700644187e-05 0.000790543969773653 6.81689029410904e-05)
(-8.39679132916977e-05 0.000647290158801266 4.36810443662644e-05)
(-0.000113784446587414 0.000755021085453838 2.00530214700085e-05)
(5.17961886199914e-07 0.000862983403612925 0.000223881217804364)
(9.41231930236099e-07 0.000857010894879189 0.000201938475681053)
(3.87787944801664e-07 0.00085358940382372 0.000181394045926098)
(-1.81309288199468e-06 0.000852613492628533 0.000161490891659246)
(-6.49840881749326e-06 0.000851275906584275 0.000140694136967512)
(-1.48457675383851e-05 0.000845992325338922 0.000118392772837868)
(-2.89508950055349e-05 0.000827594244173508 9.43850786212807e-05)
(-5.39304863212972e-05 0.00076893725354513 6.91727031525301e-05)
(-0.000100674633305727 0.000623969585458667 4.37324404909699e-05)
(-0.000133801786312982 0.000714025365312692 1.94774717559709e-05)
(5.96913149894802e-07 0.000845673499100649 0.000248141345074875)
(1.3109175590049e-06 0.000839272259021908 0.000226522711766892)
(1.2596294372759e-06 0.000835579086905381 0.000206385097596026)
(-1.08477003262105e-07 0.000834542849625174 0.000186958979924938)
(-3.46743168694384e-06 0.00083412703855266 0.000166711987195027)
(-9.65160790195049e-06 0.000832652208757461 0.00014504949419303)
(-1.98416623767336e-05 0.000826892354335466 0.000121685005063543)
(-3.63139596716823e-05 0.000807789111268535 9.6596506828217e-05)
(-6.47608531202952e-05 0.000747881456177482 7.04970507159561e-05)
(-0.00011668140052658 0.000601653722590064 4.44068759885267e-05)
(-0.000153029605388319 0.000672888654674507 1.99784013588047e-05)
(6.64905278852907e-07 0.000829712961290061 0.000273275765461181)
(1.64117586378435e-06 0.00082280039883708 0.00025203884231201)
(2.05384222703278e-06 0.000818633125561873 0.000232355550721383)
(1.44462006004188e-06 0.000817114747519249 0.000213407271569505)
(-7.61540933994295e-07 0.000816564386190184 0.000193663469215445)
(-5.22557968035125e-06 0.000816015045734752 0.000172552348928108)
(-1.27554352572517e-05 0.000814157277817383 0.000149797772880288)
(-2.45704616393363e-05 0.000808007724319412 0.000125276691865706)
(-4.3154060237952e-05 0.000788667054814587 9.90891340062993e-05)
(-7.4782687367987e-05 0.000728409153386979 7.22242799568674e-05)
(-0.000131540626192281 0.000582814522359215 4.56424908767824e-05)
(-0.00017302265052582 0.000624227776342008 2.02797385049949e-05)
(-1.07675493259475e-06 0.00119976332032803 3.17975444404308e-05)
(1.85908761785188e-07 0.000994817461314886 5.34318856318053e-05)
(-6.21583384853735e-06 0.00103798098350959 2.73876173586863e-05)
(6.85203594593897e-07 0.00102982205285448 7.11402728597585e-05)
(-3.73789009218255e-06 0.000859858791637281 4.87273765728807e-05)
(-1.24690510916629e-05 0.000958588192061693 2.56672514034612e-05)
(5.92269710768236e-07 0.00101548452104858 9.02106194874573e-05)
(-6.48776108178069e-07 0.000954529677237604 6.7272829193517e-05)
(-1.04550997043684e-05 0.000789477232406584 4.62033533776684e-05)
(-2.21021190152723e-05 0.000927992914862727 2.45508087526928e-05)
(4.71458783406385e-07 0.000990622340215422 0.000110211846896972)
(1.12396381584876e-07 0.000967997508728258 8.72402857813563e-05)
(-4.38115708216344e-06 0.000905866043609975 6.5541142177258e-05)
(-2.00071038045775e-05 0.000754945552565778 4.51106703885833e-05)
(-3.49968621200883e-05 0.000902491009323528 2.37962274776102e-05)
(4.33243078564459e-07 0.00096551266430874 0.000130737370892676)
(3.12207687601469e-07 0.000954522237962976 0.000108060631322574)
(-2.23582384034506e-06 0.000932776640514481 8.64500862750799e-05)
(-1.0439391520062e-05 0.000875214501690429 6.53652079937901e-05)
(-3.23384310539998e-05 0.000728818821198809 4.45734997690488e-05)
(-5.08932898147381e-05 0.00087489271688239 2.33618310798252e-05)
(4.48884934809073e-07 0.000942015184733325 0.000151656682465309)
(4.6867713874891e-07 0.000934838257786365 0.000129320058058621)
(-1.22118276183748e-06 0.000925834458460352 0.000108164687593745)
(-6.32901901649748e-06 0.000907493100898952 8.72610321113974e-05)
(-1.8663647493256e-05 0.000850500444166841 6.56941365619196e-05)
(-4.69017727819333e-05 0.000705150126488985 4.41468450177557e-05)
(-6.90631523737495e-05 0.000843453696069972 2.2528096629342e-05)
(4.92053288705529e-07 0.000920246590939766 0.000172968181017894)
(6.80774430101926e-07 0.000914334872006331 0.000150998634594161)
(-4.76805270607234e-07 0.000909495362015116 0.000130265528356787)
(-4.09506452950564e-06 0.000903675361414743 0.000109943209949553)
(-1.20401260204783e-05 0.000885746059304284 8.85484707982024e-05)
(-2.85244332538221e-05 0.000828053608277181 6.61407408992994e-05)
(-6.2969454194612e-05 0.000682346957306378 4.36049463620022e-05)
(-8.87159900104098e-05 0.000808647988542068 2.14291585309036e-05)
(5.42140404068332e-07 0.000900038259766856 0.000194764024637628)
(9.41488188788239e-07 0.00089440248176859 0.000173127178426748)
(2.27525430126787e-07 0.000890886779409993 0.000152795274544451)
(-2.41071521005635e-06 0.00088897004532862 0.000133000764202111)
(-8.12583824889369e-06 0.000883684149947743 0.000112229211942003)
(-1.89133559587869e-05 0.000865312185051136 8.99595900868674e-05)
(-3.93957798829536e-05 0.00080628859886087 6.65549827516781e-05)
(-7.98097510705631e-05 0.000659500901120053 4.29203244169484e-05)
(-0.000109093036431227 0.000770844992035518 2.01294927136713e-05)
(6.00398124492634e-07 0.000881243080550139 0.000217165887488632)
(1.21887198809567e-06 0.000875413481228731 0.000195816828838022)
(9.33951394050331e-07 0.000872116484134929 0.000175841878772518)
(-9.08837118961705e-07 0.000871235386495751 0.000156505456826897)
(-5.1434572231572e-06 0.000869869828568791 0.000136308803754186)
(-1.29486702631248e-05 0.000864302387686417 0.000114657222543189)
(-2.6422934999518e-05 0.00084506475991384 9.13545040584742e-05)
(-5.07158896613627e-05 0.000784322185884654 6.68908435316838e-05)
(-9.67873622717073e-05 0.000635765979866448 4.21435608592643e-05)
(-0.000129456678104816 0.000729353097513675 1.86751861249977e-05)
(6.53610183717911e-07 0.000863781459741245 0.000240286279611446)
(1.49940009763465e-06 0.000857493477859572 0.000219177673248083)
(1.62619822305006e-06 0.000853908505078828 0.000199532119165499)
(4.9756074303453e-07 0.00085298286944402 0.000180608036661877)
(-2.55866934076409e-06 0.000852606224194387 0.000160905231868526)
(-8.3758270031847e-06 0.000851009374722691 0.000139833158430579)
(-1.81323752135166e-05 0.000844789366180018 0.000117103044419041)
(-3.41027967690756e-05 0.00082448256702538 9.26796538978854e-05)
(-6.20090941519228e-05 0.000761723460102457 6.71774099886878e-05)
(-0.00011335448544905 0.00061061533836245 4.14397733335831e-05)
(-0.000149114947775814 0.000683397603505276 1.74328417020545e-05)
(6.99654328192329e-07 0.000847669831323944 0.000264228129714268)
(1.75792063309651e-06 0.000840797175142468 0.000243376901147298)
(2.27822491441855e-06 0.000836696375822189 0.000224085117709783)
(1.81226063300546e-06 0.000835295165960441 0.000205578040303887)
(-2.13512070205535e-07 0.000834832456306738 0.000186335043960065)
(-4.45740765531992e-06 0.000834257888048243 0.000165771232177086)
(-1.17254025138035e-05 0.000832132724664655 0.000143597193757515)
(-2.32356321321053e-05 0.000825208881039191 0.000119678703409714)
(-4.14748607155545e-05 0.000803964596044246 9.40967394372139e-05)
(-7.27423134602624e-05 0.000739332123842563 6.7688461424451e-05)
(-0.000128827080280671 0.000586000695203204 4.12308324650322e-05)
(-0.00016745320184249 0.000636284331154002 1.70893657794711e-05)
(7.36338271193133e-07 0.000832959887605647 0.000289115943506535)