/*--------------------------------*- C++ -*----------------------------------*\
  =========                 |
  \\      /  F ield         | OpenFOAM: The Open Source CFD Toolbox
   \\    /   O peration     | Website:  https://openfoam.org
    \\  /    A nd           | Version:  12
     \\/     M anipulation  |
\*---------------------------------------------------------------------------*/
/*   Windows 32 and 64 bit porting by blueCAPE: http://www.bluecape.com.pt   *\
|  Based on Windows porting (2.0.x v4) by Symscape: http://www.symscape.com   |
\*---------------------------------------------------------------------------*/
FoamFile
{
    format      ascii;
    class       surfaceScalarField;
    location    "0";
    object      phi;
}
// * * * * * * * * * * * * * * * * * * * * * * * * * * * * * * * * * * * * * //

dimensions      [0 3 -1 0 0 0 0];

internalField   nonuniform List<scalar> 
28876
(
5.33076750345244e-09
-1.16170570526225e-07
7.1671006180126e-06
7.69042305428981e-06
1.90501617322287e-07
-3.59970097973653e-08
1.26147623356683e-07
-1.40113917605551e-08
7.36584320340226e-06
1.7449632613256e-07
-7.01433278315912e-08
7.06274780768615e-06
-3.79677002115276e-08
3.78789897494824e-07
7.52409805671439e-06
8.48040550777519e-06
4.9516123582299e-08
-3.34235768327299e-08
7.94834925540463e-06
2.02209204611858e-07
-3.79991629075984e-08
9.80166978376168e-08
-1.28669949541325e-07
7.53915081181497e-06
2.03225435032873e-07
-4.58471475867422e-08
7.1383217294044e-06
2.99831746091651e-07
-3.08328178169178e-08
6.79374913708189e-06
7.75270513520329e-06
4.4307389034248e-07
-8.21710131720391e-08
-5.65895944597191e-08
5.46972928891662e-07
8.36881405334767e-06
-5.05028016563872e-08
5.86715161676988e-07
7.28771842301843e-06
9.60976503789123e-06
3.59809154188192e-07
2.37826336231653e-08
8.88578494807369e-06
2.22196910935394e-07
-4.86949770263276e-08
8.29075485939538e-06
2.03202467562767e-07
-9.10629196087062e-08
1.7425179714361e-07
2.60244426247356e-09
7.88868689736666e-06
2.48762588363198e-07
-1.05861145597278e-07
7.35040224556648e-06
3.16629755421394e-07
-3.80143933183668e-08
6.8288737218215e-06
3.39249014359912e-07
-2.01971263082232e-09
6.45652006551672e-06
-8.77512964908034e-08
6.45086541914112e-07
7.46149773373605e-06
8.72884845502264e-06
-9.17342099204503e-08
6.35157431898553e-07
8.06857770902758e-06
5.01111058294884e-07
-1.12341365697845e-07
-1.60721200939562e-08
7.82498247098042e-07
9.39031497342004e-06
-4.4861016080015e-08
8.85211598812585e-07
8.11518045512695e-06
-1.34252698109974e-08
6.97137325773309e-07
6.94325565521148e-06
1.04775364742194e-05
1.91743761803066e-07
-4.85785808217545e-09
9.96947517356255e-06
3.16258103079734e-07
-2.98908626366078e-08
9.36300477945875e-06
2.58840410234408e-07
-8.45804120469955e-08
8.57362719990148e-06
2.32483592372202e-07
-3.97333601464744e-08
9.64444826912138e-08
-5.97318820602916e-08
7.94552818447828e-06
2.68922899182645e-07
-6.25057885554419e-08
7.57640830165631e-06
3.69129641776337e-07
-5.9057902776459e-08
7.00231587521831e-06
3.67239219982587e-07
-3.55116950378561e-08
6.49512639775589e-06
3.57953533254706e-07
-1.43867639360284e-08
6.11295324537018e-06
-9.67381150386064e-08
7.73110915543764e-06
7.15585280113199e-07
-8.44847476289305e-08
8.43895383441656e-06
9.7460580086808e-07
-3.78843336311269e-08
7.15195047408831e-07
7.13800102947932e-06
9.18853737390639e-06
-1.24760324553781e-07
7.08606021543692e-07
9.8132959658399e-06
-6.90310868902218e-08
8.44297222448272e-07
8.29574454404236e-06
5.23504718396528e-07
-8.90398404492689e-08
3.24272843799097e-09
8.85283701703339e-07
1.03715096024112e-05
-1.70550406969856e-08
1.1934544328983e-06
9.09912834884983e-06
1.89083389196982e-09
1.06842337189297e-06
7.74200412340589e-06
7.93437153813848e-09
7.30444458562823e-07
6.56283035757507e-06
1.15239739335791e-05
4.61919545903563e-07
4.23260850146817e-08
1.10050508496007e-05
3.32023061380784e-07
-3.08000015371806e-08
1.05366150764648e-05
3.3372514583612e-07
-9.45969538953573e-08
9.68084623538351e-06
2.67601140409855e-07
-7.46210775375375e-08
8.67470906523129e-06
1.92177627145171e-07
-4.44214035186075e-08
1.31143847388215e-07
8.59991041608673e-09
8.01258048289918e-06
2.35931664526865e-07
-5.58350173585649e-08
7.70292515611616e-06
3.92701489289071e-07
-6.24059761803136e-08
7.18705416846823e-06
3.79671718255876e-07
-5.12738347526098e-08
6.63840577059104e-06
3.52345343845466e-07
-3.09070820846356e-08
6.15930115261104e-06
3.56038463894747e-07
-5.26562720388082e-09
5.76218005569124e-06
7.50400478079615e-07
7.91914620179346e-06
-7.78389219907082e-08
-5.12630675514273e-08
7.38429892713956e-06
7.39860424365275e-07
-1.07647114507565e-07
8.8553816775114e-06
1.07190436150732e-06
-2.81075832511391e-08
8.09228625151489e-06
1.09186195864506e-06
-6.4469960044354e-08
9.51225073369318e-06
1.32306771427423e-06
1.47969979024286e-09
7.15397214218835e-07
6.78140342953359e-06
9.45948036848376e-06
-1.19284866983342e-07
7.39396628019373e-07
1.03738017634274e-05
-1.35042574537036e-07
9.37432461911947e-07
1.08516176944915e-05
-2.74166021075351e-08
1.02839095891811e-06
8.37984968251431e-06
5.02888628947593e-07
-6.11366707784874e-08
4.28198486928519e-09
1.04648766254337e-06
1.1358489811632e-05
3.31756909272646e-09
1.52353946386253e-06
1.0038108804322e-05
2.0340436621462e-08
1.50458823345024e-06
8.6426246461724e-06
2.14256424578431e-08
1.15635034167497e-06
7.29467278267319e-06
1.0069634404111e-08
7.259619382169e-07
6.182836847318e-06
1.21340816438262e-05
6.10713619557259e-08
-5.98789793752609e-08
1.19005510466996e-05
3.39153366506548e-07
1.92109878145161e-08
1.16748212112562e-05
4.23826642433667e-07
-1.05499409534054e-07
1.09012737799746e-05
3.42659889010915e-07
-1.01339596877925e-07
9.7870821336453e-06
2.49035680214128e-07
-4.68766403759269e-08
8.67252142333951e-06
1.95786502623172e-07
1.55982656962587e-09
9.61415851587345e-08
3.9091718195198e-09
7.90295046672688e-06
2.37275879620157e-07
-4.02198798402897e-09
7.7234911000661e-06
3.84685913070592e-07
-3.71510943917241e-08
7.29298340531863e-06
3.72817743943164e-07
-4.57365731064037e-08
6.80869791368622e-06
3.44368279035453e-07
-3.69166090064839e-08
6.30004616139242e-06
3.39576397177655e-07
-1.33914627516978e-08
5.82784995969321e-06
3.33896270094249e-07
-1.74684558041887e-08
5.4457516545176e-06
9.08011498568018e-06
-9.69562373954912e-08
1.11907545027118e-06
7.35442742745559e-07
-3.9278364067181e-08
7.5445358447573e-06
7.47126643291274e-07
7.98299600950128e-06
-4.34264573233999e-08
-1.05157862361748e-08
7.02982147542065e-06
7.10840592792909e-07
-4.80539892832105e-08
8.48686823641761e-06
1.12832095127661e-06
-1.12079363806666e-07
1.00234138841829e-05
1.46990287540241e-06
1.14234530767809e-08
7.67577155558187e-06
1.14191420760155e-06
-6.88696462105333e-09
9.06759886945666e-06
1.5637427246077e-06
-2.11268276961158e-08
1.05246302256113e-05
1.67450115371754e-06
8.8697633588483e-09
7.01771834636829e-07
6.42040741269987e-06
9.52380402824131e-06
-7.83539281070704e-08
7.25237066638257e-07
1.06762220306489e-05
-1.5157632461454e-07
9.80983065573631e-07
1.14971439479939e-05
-1.36341638086101e-07
1.22403566892411e-06
1.19578774367943e-05
4.77556394476512e-08
9.27592966939922e-07
8.37110042134064e-06
4.88642952354936e-07
-1.10820965440235e-08
-1.80316633358831e-07
4.39651205481636e-07
1.2921234964052e-05
-2.26021943671642e-08
1.9419999836558e-06
1.09626323033424e-05
3.3198085884176e-08
2.07412141527154e-06
9.43537870627761e-06
3.98812268673348e-08
1.6805095294968e-06
8.07858474296747e-06
2.06557862104056e-08
1.1576715871373e-06
6.84230730217112e-06
4.74728964353966e-09
6.81716997711357e-07
5.83026830332561e-06
1.26096401684558e-05
3.21677150076982e-07
-5.6230138090547e-08
1.24725623931014e-05
7.5652637708161e-08
5.12357888836517e-08
1.27397065699529e-05
4.38482970808527e-07
-9.79038346503903e-08
1.20916434089632e-05
4.51824632416775e-07
-1.26437760154516e-07
1.10122448919586e-05
3.28715286551173e-07
-6.23816722201054e-08
9.76193058577543e-06
2.35578843617644e-07
-7.63782902753036e-09
8.59222712696822e-06
1.76580569606032e-07
6.80812881200453e-09
1.07169230008291e-07
2.93537918518615e-08
7.83331837165927e-06
2.23631292393408e-07
1.41804915751074e-08
7.66111632947192e-06
3.82836876665885e-07
1.89986486837907e-09
7.30160225313555e-06
3.5033842168302e-07
-1.53843411530756e-08
6.91229115501761e-06
3.26529207543525e-07
-1.34402322853268e-08
6.45869107541557e-06
3.28140147578724e-07
-1.05632786694199e-08
5.96907705982095e-06
3.1068107229469e-07
-7.12735002175409e-09
5.5068271705565e-06
2.98078101825473e-07
-7.17375889385734e-09
5.15484666348978e-06
-3.87904351127884e-08
1.13296881981428e-06
8.67332575113917e-06
9.11044267110903e-06
-5.35772435052683e-08
1.11710938632135e-06
1.02600709693704e-05
-1.15606330014676e-07
1.53875429297821e-06
7.13999662613859e-07
-8.50277435007354e-09
7.58855827522836e-06
6.8763283824037e-07
-6.79862588332679e-09
7.17971386782287e-06
7.38936971374466e-07
7.96883961618913e-06
2.73398742304838e-09
5.69360392976184e-09
6.67155096615677e-06
6.89585908604586e-07
1.29116827016448e-09
8.06698730804292e-06
1.1408539036813e-06
-4.2400227554087e-08
9.5464129998517e-06
1.64083697128124e-06
-9.97370867237834e-08
1.11012475156744e-05
1.9444099655947e-06
1.86330090359157e-08
7.24649609156823e-06
1.13306996198961e-06
2.22709249672902e-08
8.53092915870281e-06
1.69619528148153e-06
9.8591707997094e-09
9.90464637750819e-06
2.20706725491313e-06
4.6160096062854e-08
1.16275827901885e-05
1.93603306059105e-06
8.91312714864831e-09
6.58213957485525e-07
6.06870793608103e-06
9.48701920791108e-06
-1.88610421745986e-08
7.04062980999917e-07
1.07211551299381e-05
-1.02835525138801e-07
9.67587225762978e-07
1.18240181584432e-05
-1.86032906615204e-07
1.29829950170726e-06
1.27864125213454e-05
-1.19413356764432e-07
1.34449779679884e-06
1.26271486876146e-05
3.77460442397509e-07
2.15229343930035e-07
8.31244202222351e-06
4.75651734730864e-07
1.66834857213801e-08
-7.23061204842339e-07
9.54661729550366e-07
1.28176912138574e-05
-3.29363076704199e-07
1.75630885667505e-06
1.34362876470557e-05
1.47317685260351e-08
2.92688123973477e-06
1.00951416627664e-05
5.46756603340136e-08
2.3701362659672e-06
8.69107715893219e-06
3.42553748809868e-08
1.68499681491884e-06
7.51700451638653e-06
1.04181885884204e-08
1.08407207983583e-06
6.42953385424358e-06
1.79016015245732e-09
6.1105415890192e-07
5.51550136714954e-06
1.38293016636417e-05
-1.18170604184564e-07
1.23506042255907e-05
2.67676113625614e-07
2.16592877622033e-07
1.36184756494013e-05
2.78719919951374e-07
-7.64768191979267e-08
1.3230719699781e-05
4.75876321053258e-07
-1.44878792898031e-07
1.22004938451632e-05
4.42505386710089e-07
-8.1098999842377e-08
1.09724408162874e-05
3.12012510716959e-07
-1.51300658283464e-08
9.67611757175199e-06
2.24989237907807e-07
9.13154151772436e-09
8.51670318277823e-06
1.808596623873e-07
1.29956942151923e-08
1.08603387151756e-07
2.53810563345579e-08
7.7715357518786e-06
2.26562416005364e-07
3.20047897566729e-08
7.58893157423603e-06
3.83621890529686e-07
2.57460322238295e-08
7.2536476224051e-06
3.36138519690745e-07
1.55004725514463e-08
6.93457748916052e-06
3.26867873924351e-07
1.18797434997571e-08
6.56010170811527e-06
3.16197947143188e-07
9.42954340854856e-09
6.12249898203675e-06
3.05150307286601e-07
4.56897359102092e-09
5.65222942231206e-06
2.81500981681531e-07
2.59309602412714e-09
5.21555851736105e-06
2.57542310380982e-07
-9.27885775804029e-10
4.89823152945384e-06
-3.29900324087778e-09
8.67686905431446e-06
1.1120821429495e-06
-3.86397309881349e-08
1.6596219016383e-06
9.72965962965663e-06
4.33743055986302e-09
1.11567990470988e-06
8.2422322162377e-06
9.06639760612789e-06
3.63904101391571e-09
1.1023426758183e-06
1.02494351964237e-05
-6.65250533281673e-08
1.53974877583118e-06
1.13174385897964e-05
-1.31167231177207e-07
2.07676506840944e-06
6.96594544018261e-07
7.57882125324288e-06
2.10586843640307e-08
6.70056876345313e-07
1.3753522468796e-08
7.22481568856024e-06
6.69813948679463e-07
1.09006463726569e-08
6.8208896759102e-06
7.34943045780731e-07
7.93363733078212e-06
3.02173955057484e-08
1.27570285187408e-08
6.32266558874837e-06
6.50190885804292e-07
1.32515406688164e-08
7.64031246161685e-06
1.12164167318209e-06
6.18430996842745e-09
8.99386955814058e-06
1.70948491495722e-06
-3.55722970629385e-08
1.04111316427669e-05
2.37638715721404e-06
-1.08793731263504e-07
1.23751936031865e-05
2.51058433596974e-06
1.52772223901392e-08
6.83531742288112e-06
1.06453315501855e-06
2.77976367243521e-08
7.99212250533893e-06
1.67833432140942e-06
2.70061279010876e-08
9.14883222458174e-06
2.47967966235746e-06
3.3863829572075e-08
1.07055978066696e-05
3.10992176639188e-06
6.1413159128348e-07
1.26539104376195e-05
9.03626162361606e-09
5.97153976013774e-07
5.74580820798782e-06
9.42464445754657e-06
1.96442853120717e-08
6.88621042360292e-07
1.06614756114225e-05
-2.90985037691477e-08
9.41292237837724e-07
1.18413672700148e-05
-1.32199597038696e-07
1.27288019508438e-06
1.30800683939528e-05
-2.34244334189739e-07
1.56378127228516e-06
1.50048049758444e-05
-2.5677420283301e-07
5.92405318620985e-07
1.03680104768348e-06
1.36229196703886e-06
8.25601085547584e-06
4.745670720342e-07
2.93721993041188e-08
-2.58564881303175e-07
1.50425251478306e-05
7.02346798655903e-07
1.39173652751359e-05
-1.57397796513214e-07
5.23060857371507e-06
1.12899606626425e-05
5.35821446897728e-08
3.38364079849985e-06
9.02805525478654e-06
4.73317174337329e-08
2.34486114868592e-06
7.98388088257018e-06
1.77065348412487e-08
1.56172260218767e-06
7.02164737780476e-06
2.40662332004089e-09
9.68900776135182e-07
6.06928029088555e-06
1.77390852294032e-09
5.32868034299569e-07
5.2384010571303e-06
1.42783615196592e-05
1.70839133015418e-07
1.40505715044931e-05
3.27114963517443e-07
-2.75117155566367e-08
1.41558477711875e-05
3.39793392597103e-07
-1.34738482782702e-07
1.33142137262838e-05
4.87600408861499e-07
-9.5357184375945e-08
1.21458308917433e-05
4.27665505275631e-07
-2.32631357437109e-08
1.08778457367491e-05
3.00806798861705e-07
9.93129799493954e-09
9.60131415154477e-06
2.22184865898308e-07
1.50829275589072e-08
8.46685733905721e-06
1.82079016703251e-07
1.26267468964253e-08
1.15959897063922e-07
2.30825304491683e-08
7.74471351629448e-06
2.29719075171924e-07
4.32768813406509e-08
7.53054465924632e-06
3.85626906907518e-07
4.62069963808199e-08
7.18284331441843e-06
3.30568896510089e-07
4.38299845567846e-08
6.894748004913e-06
3.2797494709041e-07
3.9220233495782e-08
6.57926046426657e-06
3.22987123642601e-07
3.14804747970655e-08
6.21506219702523e-06
3.00311764417179e-07
2.04465206366762e-08
5.80630862451538e-06
2.78859107508554e-07
1.45503092651648e-08
5.36141236151639e-06
2.50158721253242e-07
9.37745239645149e-09
4.95509379664431e-06
2.19280849460923e-07
9.30113735253048e-09
4.66964885596991e-06
8.63910747180936e-06
2.8367616839525e-08
1.09221838715189e-06
2.24483779813958e-08
8.24205194038401e-06
1.08676264385592e-06
4.67835237492454e-10
9.68402542379579e-06
1.63838639682114e-06
-3.71706695086309e-08
1.05588423733495e-05
2.41981948022445e-06
1.04443575748733e-08
1.67800147073369e-06
9.16307893867751e-06
2.03374208173136e-08
1.09223200359099e-06
7.81272740739702e-06
9.03404096717721e-06
3.70762742965619e-08
1.09210992790302e-06
1.01748800999684e-05
3.4743202322634e-09
1.51893960510581e-06
1.12429781543026e-05
-8.30527993765489e-08
2.09002420953948e-06
1.25260942917956e-05
-1.72302167824132e-07
2.69424782386709e-06
6.62373998034082e-07
3.90482660794507e-08
7.21912613175326e-06
6.90090175551186e-07
7.54936597810852e-06
4.58081725691528e-08
6.58047807985468e-07
3.1128109584264e-08
6.86952618193789e-06
6.37574028889745e-07
2.52433607994366e-08
6.4711398520423e-06
7.37401540458087e-07
7.88943040040739e-06
4.50234786509225e-08
1.94060171288992e-08
5.95276332051579e-07
5.99587763734048e-06
1.91599396842003e-08
7.22815537793556e-06
1.0584644330089e-06
1.93832618464727e-08
8.45298923685419e-06
1.67093611751821e-06
7.64895195857405e-09
9.6197147829055e-06
2.52026027213947e-06
-2.78228545799258e-08
1.12814598289353e-05
3.5318099889125e-06
-3.03341723581228e-07
1.59151595143165e-05
2.51770182448474e-06
1.18111151174583e-08
6.46119980768167e-06
9.61866565320334e-07
2.15035527210635e-08
7.49858516027997e-06
1.55427315304402e-06
3.22042486176903e-08
8.44488474365902e-06
2.39740907332573e-06
7.84035013625459e-09
9.49068978060819e-06
3.74033022148585e-06
1.21139775616739e-07
1.15334012223566e-05
1.21316388005562e-08
5.29498140935334e-07
5.45611028438638e-06
9.37758959304917e-06
3.52406433039912e-08
6.82697157138077e-07
1.05935771541103e-05
2.16462014255369e-08
9.22146325125809e-07
1.17554893818149e-05
-4.24030001761962e-08
1.24183717370395e-06
1.29798612833847e-05
-1.62576831984617e-07
1.53556433434233e-06
1.45214873947262e-05
-2.66654663130593e-07
1.20802030746893e-06
1.47877976503577e-05
-1.51953229529475e-07
1.0439305237207e-06
5.39955452291159e-07
1.4842131606182e-05
8.21487930241454e-06
4.78727793006635e-07
3.23428444939412e-08
-1.09893286308562e-07
1.58547676315947e-05
8.75154374886207e-06
1.0397016362192e-05
1.47790985126383e-07
5.58406747590054e-06
8.94174334179597e-06
5.16411980053707e-08
3.19326401086649e-06
8.12801078747067e-06
2.80690025712258e-08
2.12139398606339e-06
7.39614017643726e-06
5.43495793659979e-09
1.3797140380755e-06
6.60539899505281e-06
3.83426669402667e-10
8.43057889487585e-07
5.7587066135438e-06
4.36573341589126e-09
4.57977584417424e-07
4.99533786499988e-06
1.54031344819769e-05
-1.30835455621634e-07
1.48689096842852e-05
1.99674210649055e-07
-7.87809221418025e-08
1.42598128837552e-05
3.9879933420166e-07
-9.34322642446218e-08
1.32438834150169e-05
4.84267396000824e-07
-2.95014219387571e-08
1.2041559389975e-05
4.16707462716103e-07
9.50140735021008e-09
1.08008772851129e-05
2.94332705083647e-07
1.74668780813987e-08
9.55849059364743e-06
2.22849595736022e-07
1.5160381840542e-08
8.44690400099537e-06
1.85432582980173e-07
1.85421296405562e-08
1.18282600730483e-07
1.99300847823284e-08
7.74472474863321e-06
2.41057105678865e-07
4.59919986462587e-08
7.50094152438639e-06
3.92713150152228e-07
6.12235409355305e-08
7.12281490885655e-06
3.30550767360221e-07
6.88852316250118e-08
6.82723652546455e-06
3.29489835910389e-07
6.88857256425967e-08
6.53559138455076e-06
3.22649377596271e-07
6.09529112414287e-08
6.22713722355861e-06
2.90940799770284e-07
4.80414006294037e-08
5.89652527801637e-06
2.75453918862891e-07
3.50474953275478e-08
5.51035652456744e-06
2.49050003390067e-07
2.55923803103208e-08
5.09614659728926e-06
2.19254403423888e-07
2.15176793033322e-08
4.7236220929385e-06
1.87573814335921e-07
1.61953408791283e-08
4.46587908752544e-06
8.20289867494936e-06
4.9716361938674e-08
1.07131433829691e-06
8.6121657682359e-06
5.65573698019714e-08
1.08377618358286e-06
9.61746788569632e-06
3.51367930876947e-08
1.61496383362716e-06
4.16773551922481e-08
1.06561915512456e-06
7.81313973792554e-06
3.08872141392209e-08
9.11410958433486e-06
1.6362365650472e-06
2.05899717023323e-09
1.04475815651541e-05
2.39455667225692e-06
1.69824175740666e-08
9.75354180211366e-06
2.47396995333676e-06
-3.42098219588635e-08
1.13479718536715e-05
3.60433138252345e-06
2.92444732089536e-08
1.62623433349198e-06
8.61921503868185e-06
3.32515670403221e-08
1.03759473463942e-06
7.39861404023792e-06
9.006222327612e-06
5.45436901741523e-08
1.0913022847444e-06
1.01433149322566e-05
4.34072680053937e-08
1.50244017769245e-06
1.1130910463525e-05
1.09146865500718e-09
2.05937512316438e-06
1.22645631441263e-05
-1.05321402443636e-07
2.73834197029674e-06
1.39966369334181e-05
-2.73515059764901e-07
3.18927062897015e-06
6.6073361431366e-07
6.90955237069984e-08
7.18807371853609e-06
6.53568402195911e-07
5.78359159380488e-08
6.86149785168713e-06
6.88273340884237e-07
7.50763139110471e-06
6.98843418004702e-08
6.26343104940445e-07
4.53305314125728e-08
6.51403541829931e-06
5.88919654438771e-07
3.60438784217176e-08
6.14103523745951e-06
7.4254381953399e-07
7.8521095111722e-06
5.79630849448921e-08
2.42765573452155e-08
9.65707743608299e-07
6.84525757063546e-06
2.65537889091833e-08
5.33015926835949e-07
5.69748878756253e-06
2.52277954763554e-08
7.95545262293774e-06
1.55227596339907e-06
2.17906241319659e-08
8.89844976319965e-06
2.40261433729849e-06
4.59190044072996e-09
9.9969221806867e-06
3.80804704487381e-06
2.3230810959176e-08
1.30155850777645e-05
6.52929422638789e-06
-3.71939347472763e-07
1.70305032963197e-05
1.19660395609183e-06
1.26627284409883e-08
6.12991376466999e-06
8.48504310191634e-07
1.57183351392652e-08
7.06643500065095e-06
1.3837327315286e-06
2.76569945638697e-08
7.85646093667624e-06
2.14310843916895e-06
1.88132335618594e-08
8.5423229348277e-06
3.37860328337416e-06
-1.97592353797095e-07
9.28389650305355e-06
6.33521899268444e-06
1.72167760323662e-08
4.62798157829688e-07
5.19971484888554e-06
9.34914594390899e-06
3.89790897093523e-08
6.84336004027372e-07
1.05531473967072e-05
4.10289646149376e-08
9.11045763998381e-07
1.16794600706656e-05
2.15302088141417e-08
1.22031247897337e-06
1.28669195645409e-05
-5.55213549076241e-08
1.51174479776085e-06
1.43368617436928e-05
-1.75056299392082e-07
1.36691510130517e-06
1.53642751013584e-05
-2.7194208494684e-07
8.32641703226073e-07
1.71550352520368e-05
-1.68015839355896e-07
5.1318012559497e-07
1.48034483200239e-05
8.19678947398676e-06
4.85338483588134e-07
3.81774266066712e-08
5.60973177972493e-06
-3.44131186835886e-07
1.05891652763915e-05
7.73787011268805e-06
6.66067970316198e-06
5.74083213502748e-07
7.29961034684655e-06
8.10739277883176e-06
4.8511853169222e-08
4.17607217353047e-06
7.91042270027805e-06
3.58989616373972e-08
2.74880813141373e-06
7.46469710973109e-06
1.3151557271171e-08
1.83418569232749e-06
6.92851648821409e-06
1.53703333603234e-09
1.18919575966294e-06
6.25772378196786e-06
2.36367282269557e-09
7.24018262963284e-07
5.49030187275877e-06
1.32371636062819e-08
3.91251090455846e-07
4.7784228500064e-06
1.6301379242394e-05
3.33958136200297e-09
1.50228519478801e-05
3.12198173913301e-07
-8.33396027584218e-08
1.42010143044264e-05
4.00045437822367e-07
-2.71954109492042e-08
1.31301433121108e-05
4.80463145178676e-07
8.44057353423052e-09
1.19595445523968e-05
4.08456872051398e-07
1.89558780141551e-08
1.07624571386604e-05
2.92580160029597e-07
1.78346268298439e-08
9.54799486235425e-06
2.24981509392846e-07
1.34625365381849e-08
8.45338268558403e-06
1.91784560838672e-07
1.81928507427926e-08
1.20638275847442e-07
1.82158754064256e-08
7.76595291949647e-06
2.47867114543537e-07
4.48420376165199e-08
7.49800788764018e-06
4.02910467258264e-07
6.79214838632846e-08
7.09133320322272e-06
3.34400584618857e-07
8.43805574122711e-08
6.77291849388534e-06
3.31333800986105e-07
9.12227155065689e-08
6.47356469571316e-06
3.23865310433703e-07
8.74409147592441e-08
6.18523671191966e-06
2.9204150842587e-07
7.67639032556079e-08
5.9063719013764e-06
2.74330901870715e-07
6.36912512166389e-08
5.59354964069934e-06
2.48035616607012e-07
5.10088203799323e-08
5.23690380150255e-06
2.20443862582037e-07
4.07501197923824e-08
4.85646968497183e-06
1.90161911079259e-07
3.26946979534525e-08
4.51696024309373e-06
1.60782644107002e-07
2.07315605996123e-08
4.28436445589682e-06
1.05488427136982e-06
7.27292442089963e-08
7.77052997416381e-06
8.17051204968671e-06
8.38043856339917e-08
1.06829893009052e-06
9.04684827539333e-06
6.03527454460955e-08
1.6124693307071e-06
8.58744959660042e-06
8.17794666592679e-08
1.08182477827131e-06
9.59206459263506e-06
6.66848161877836e-08
1.60348076005254e-06
1.03468806359861e-05
3.97909344209894e-08
2.36126510851864e-06
5.3117862117482e-08
8.57434343559791e-06
1.58151145795511e-06
5.585035932647e-08
1.01827291125059e-06
7.39861017093341e-06
3.93179667193309e-08
9.65107787679793e-06
2.41040613467872e-06
2.55537243392879e-09
1.10844906484943e-05
3.5378670701537e-06
3.75927151276621e-08
2.33124556399855e-06
9.03272788818801e-06
3.06740990279039e-08
1.00959456902237e-05
3.69991545031483e-06
-3.39548173212357e-08
1.19890114885151e-05
5.66914622343766e-06
4.30089750596613e-08
1.5189983858323e-06
8.12002925512341e-06
4.429664636572e-08
9.55543399113324e-07
7.01196924313433e-06
8.98779368366798e-06
6.33388265265271e-08
1.09510214698074e-06
1.01267666149351e-05
6.37537813787998e-08
1.4973378199239e-06
1.10976577330968e-05
4.71804419682198e-08
2.03815457392908e-06
1.21117724846821e-05
-6.02948613468886e-09
2.71523083638347e-06
1.3693587389361e-05
-1.45496698199526e-07
3.25359739754295e-06
1.76535321934477e-05
-3.50651156054653e-07
8.78724781486364e-07
6.60725050502037e-07
7.14804841087622e-06
9.92862872215669e-08
6.50993090967203e-07
9.30567472475335e-08
6.82572374618091e-06
6.22770240828329e-07
7.88768060633204e-08
6.49722159979961e-06
6.9137659611633e-07
7.47341586798915e-06
9.16019924517424e-08
5.83078449409637e-07
6.36004404705134e-08
6.17773035058863e-06
5.31429252811458e-07
4.88880754348261e-08
5.83530646356356e-06
7.54367802870863e-07
7.83309603119413e-06
7.0199922575916e-08
3.0178681507956e-08
1.39481243174961e-06
7.51188674746353e-06
3.08611467283916e-08
8.61049235381443e-07
6.49902509699348e-06
3.75149644572655e-08
4.69824481387908e-07
5.42780925990822e-06
2.99587231885819e-08
8.29892886732499e-06
2.14949438299374e-06
1.55285715696928e-08
8.98071020021016e-06
3.42211058260507e-06
5.32172042841573e-08
9.97102925277049e-06
6.601795382354e-06
-6.11371436693744e-08
1.2271263646237e-05
1.12225598040707e-05
-1.50925122008139e-07
1.90157429331289e-05
1.70285172329528e-08
5.83975374899369e-06
7.38292896654159e-07
1.54864849975335e-08
6.69467289872845e-06
1.20631652256153e-06
2.27881594866623e-08
7.37540999243143e-06
1.85514658838789e-06
2.63462773532864e-08
7.87755479574756e-06
2.81742888065548e-06
-5.57617465806702e-08
8.26654704440044e-06
4.50022608810983e-06
-9.22116840293718e-07
8.06462893257618e-06
6.93678716579373e-06
3.01215261035353e-08
4.00954890463521e-07
4.97203693159255e-06
9.34537139779735e-06
3.75152204431771e-08
6.89428159065514e-07
1.05330875442288e-05
4.58300433134509e-08
9.08906427216988e-07
1.16415335001698e-05
4.49503862568914e-08
1.20563711202657e-06
1.27807984686671e-05
1.98928680170505e-08
1.49424269827583e-06
1.42160375805013e-05
-5.94676182179229e-08
1.38113116029508e-06
1.53809305337708e-05
-1.54641378703168e-07
8.91533052161432e-07
1.71108901355501e-05
-1.44887728870373e-07
6.09718702267885e-08
1.10863329225042e-05
8.20025280103643e-06
4.96047918502752e-07
4.31280884846611e-08
3.33124035715774e-06
-8.97100048457124e-09
7.26689922072874e-06
6.46209448478368e-06
4.3494280464782e-06
2.57588501471585e-07
5.78103845236662e-07
6.77663266491695e-06
6.60555521757468e-06
4.75213626052635e-08
4.94010478834858e-06
7.29583911206634e-06
3.70685478782647e-08
3.38177681762995e-06
7.24038486875539e-06
2.09778356857203e-08
2.30749982240108e-06
6.97040483888661e-06
7.51574906532986e-09
1.55639126657988e-06
6.5538049262318e-06
3.32885523570741e-09
1.01418286750403e-06
5.96423016709368e-06
9.09380021462078e-09
6.18377354792691e-07
5.25408152438572e-06
1.92113597298087e-08
3.34771154527657e-07
4.58522258440169e-06
1.63238009064335e-05
-9.4372441929622e-08
1.50198454726786e-05
2.85714305391075e-07
-7.86060831480261e-09
1.40851895511074e-05
4.18054574320694e-07
7.78876782274196e-09
1.3039489174936e-05
4.73806079082318e-07
1.92554863418941e-08
1.19212434130722e-05
4.04601082066237e-07
1.97352333697606e-08
1.07594081955338e-05
2.92829962737928e-07
1.59595746965884e-08
9.56291041672775e-06
2.2765349221065e-07
1.57362617360421e-08
8.47703188213726e-06
1.94830417418999e-07
1.72539867235303e-08
1.22306792833948e-07
1.63024803480135e-08
7.79983851739781e-06
2.50402583628115e-07
4.47685936614675e-08
7.51562408174961e-06
4.06616570111796e-07
7.20872552562434e-08
7.08722571828511e-06
3.35602572673064e-07
9.48215768310597e-08
6.74528934348658e-06
3.30594675823122e-07
1.08426986978998e-07
6.4251187770381e-06
3.20932758795502e-07
1.10579322848873e-07
6.1294923557626e-06
2.91331407731085e-07
1.03919628244474e-07
5.86674836299698e-06
2.76064303914574e-07
9.21820036398629e-08
5.60181588403809e-06
2.50540257301097e-07
7.87396597080993e-08
5.31527785489652e-06
2.22412840064663e-07
6.52490497461393e-08
4.98999140124732e-06
1.93333114180563e-07
5.29897299436089e-08
4.64284093922928e-06
1.64096384215957e-07
4.06432016995155e-08
4.33295178634333e-06
1.37597852141298e-07
2.39643478686058e-08
4.12280204700735e-06
9.34296588143722e-08
8.50024824409115e-06
1.56117209217858e-06
1.04930500865289e-06
1.1240655645376e-07
7.73252188535665e-06
1.00518080336984e-06
9.63156998951827e-08
7.34765310515904e-06
8.1457839178315e-06
1.06746257129926e-06
1.18732363075924e-07
9.01158941521564e-06
1.01859492822693e-07
1.60726833444669e-06
9.5585252521053e-06
6.94257361292811e-08
2.37071846333931e-06
8.56933357723183e-06
1.0797131761688e-07
1.08364595114828e-06
9.57850270803471e-06
9.59929144431619e-08
1.60078320968825e-06
1.0321537288871e-05
7.44715750915683e-08
2.34492429141786e-06
1.09486276182333e-05
4.30687826670009e-08
3.48390005291832e-06
7.50599127496994e-08
8.07670011197509e-06
1.48386453627563e-06
6.38954685840478e-08
8.94869006718814e-06
2.25759601778619e-06
7.70789455757957e-08
9.41829156424236e-07
7.00707631768275e-06
4.90350464668291e-08
9.91933162841911e-06
3.55720555116104e-06
3.63264534094491e-10
1.16530801269943e-05
5.5440593012484e-06
4.73116426568892e-08
9.09936014244061e-06
3.29604768454366e-06
5.18722496359077e-08
2.0973259165234e-06
8.43248612691016e-06
5.38763621565161e-08
1.01186922970664e-05
5.56957693565374e-06
-4.08358119252889e-08
1.1525073804751e-05
1.17773049680178e-05
5.36621245222932e-08
1.37887476293412e-06
7.67321362131059e-06
5.64670319597645e-08
8.59686588204166e-07
6.65810528657666e-06
8.9798239340021e-06
7.92369398936918e-08
1.10401850057098e-06
1.01205833223944e-05
7.24115616891579e-08
1.49895008230534e-06
1.10870909226566e-05
7.06361050616802e-08
2.02832607424584e-06
1.20725165544863e-05
4.85267216402423e-08
2.69188119990886e-06
1.35560787688865e-05
-1.68528832587191e-08
3.24654563214929e-06
1.76066247022963e-05
-1.60826865149433e-07
8.38078347964859e-07
-9.89866537916561e-08
1.79376753404052e-05
6.49106592416705e-07
6.79045048619231e-06
1.22479630888189e-07
6.61434619944678e-07
7.12052688520321e-06
1.21334570050578e-07
6.19373949035668e-07
1.12531151927069e-07
6.46402558526429e-06
5.79191616211188e-07
9.77656763094683e-08
6.1599280166153e-06