/*--------------------------------*- C++ -*----------------------------------*\
  =========                 |
  \\      /  F ield         | OpenFOAM: The Open Source CFD Toolbox
   \\    /   O peration     | Website:  https://openfoam.org
    \\  /    A nd           | Version:  12
     \\/     M anipulation  |
\*---------------------------------------------------------------------------*/
/*   Windows 32 and 64 bit porting by blueCAPE: http://www.bluecape.com.pt   *\
|  Based on Windows porting (2.0.x v4) by Symscape: http://www.symscape.com   |
\*---------------------------------------------------------------------------*/
FoamFile
{
    format      ascii;
    class       volVectorField;
    location    "0";
    object      U;
}
// * * * * * * * * * * * * * * * * * * * * * * * * * * * * * * * * * * * * * //

dimensions      [0 1 -1 0 0 0 0];

internalField   nonuniform List<vector> 
10176
(
(2.17683228033032e-05 0.00426112389952184 -1.74379717926185e-06)
(4.88122172584943e-05 0.00430677370479425 6.41805281512724e-07)
(-2.17120510266772e-05 0.00421170369303247 -6.61240236749111e-06)
(2.47990960164455e-05 0.00423399526015971 -2.21533940315608e-05)
(7.89464309861377e-05 0.0042778362872618 -8.57208405165519e-06)
(6.79261258130969e-05 0.00442695344864672 1.30058322107796e-05)
(-6.22335494077667e-05 0.00429778921861032 2.24277718302058e-05)
(-5.72793522794193e-05 0.00418853599304843 3.51104500778997e-05)
(-1.46352774956284e-06 0.00423544262274666 -4.16490257824712e-05)
(5.47557369422557e-05 0.00417822923026291 -1.11898647841561e-05)
(1.42775347739831e-05 0.00427256952274324 -1.52957157936e-05)
(0.000146384560414428 0.00436238434076249 2.03374817257759e-07)
(0.000158014373678706 0.00420102995673236 -4.51820773238032e-06)
(6.83953383808265e-05 0.00459787446979081 4.54485625851881e-05)
(-8.37182406283107e-05 0.00442985459921336 6.81931957587866e-05)
(-0.000141262527364721 0.00428784120177853 7.69909670494751e-05)
(-4.6098311575714e-05 0.004145915068841 5.4513384085085e-05)
(-1.41571763616795e-05 0.00422714649743829 -3.59848770805302e-05)
(4.4804618430904e-05 0.00417889449318511 -2.45678041951612e-05)
(6.39009965699535e-05 0.00404407357920441 -6.20370066889734e-08)
(0.000137216838074276 0.00418741748803465 -6.85760623976243e-06)
(5.93604119786155e-05 0.00434756090740693 1.7428411084734e-05)
(-2.69898860100923e-05 0.0042664788099977 3.82394679225149e-06)
(0.000228883777450614 0.00450536165211657 2.50708000550273e-05)
(0.000265863785479636 0.00425163834801515 1.0991247359716e-05)
(0.000198887434081758 0.00405901802534439 5.66274392420722e-06)
(8.02815815120084e-05 0.00485378712767682 4.64735236399424e-05)
(-7.52442908012117e-05 0.00460211294747571 0.000139836023242787)
(-0.000175781626997044 0.00442039262070644 0.000151486772859976)
(-0.000141151534279908 0.00424875133536847 0.000125847117199759)
(-6.87589279590618e-05 0.00413078035178648 4.59361644407456e-05)
(-2.09270629341603e-05 0.00423319710202827 -2.29540497527695e-05)
(4.35925191092774e-05 0.0041877367116287 -2.44965935336584e-05)
(6.7616264074621e-05 0.00404263972764797 -5.97753449350509e-06)
(7.2972929483714e-05 0.00386625993939543 -6.46928051104058e-07)
(0.00012724024841406 0.00418387157599855 8.92828983595343e-06)
(0.000243273682841773 0.00422472174921422 3.42847714765867e-05)
(0.000194533706882237 0.00404337414362966 1.50880508885365e-05)
(-2.211575960468e-06 0.00433912145733719 6.10975487966054e-05)
(0.000139591841418691 0.00447535309788743 7.1665975811744e-05)
(-4.83999942941423e-05 0.00426279607078603 4.4974550295279e-05)
(0.000331730502789964 0.00469814003896233 3.29780228811813e-05)
(0.000389330294848977 0.00434694569297305 2.73188224099057e-05)
(0.000336201844938308 0.00408456401088602 1.75886142262945e-05)
(0.000214699447734497 0.00387143025724888 7.83406203332346e-06)
(0.000128691760038514 0.00517351135763408 4.86878517495361e-05)
(-3.30436441784078e-05 0.00484934651051749 0.000152009741656813)
(-0.000166916504666061 0.00459303211642321 0.000228994106646415)
(-0.000202844861599143 0.0043790168312384 0.000212706694393073)
(-0.000175475295648503 0.00421724452966361 0.000137878490931552)
(-5.89439082885622e-05 0.00410365460620487 3.53030585635349e-05)
(-3.24900056646244e-05 0.00422209691258511 6.19842409041682e-07)
(4.02754675447384e-05 0.00419354186941595 -1.94598096143788e-05)
(6.40333203238498e-05 0.00404680111937291 -1.44595820857943e-05)
(6.81035024148266e-05 0.00386908371912759 -5.44677993169408e-06)
(7.02207383400415e-05 0.00367423196748349 2.89480348359189e-07)
(0.000118099177007966 0.00418700335043571 3.53626595750866e-05)
(0.000184135443318651 0.00403888473993243 2.39588351041001e-05)
(0.000225696595675389 0.00421305027740205 6.20070963310828e-05)
(0.000322293452993888 0.00406157037749896 4.39168384052587e-05)
(0.000372230785894278 0.00431218354527709 7.17510605872668e-05)
(0.000201552096676023 0.00386769089310066 2.00391301562432e-05)
(-3.32348935149795e-05 0.00432780154497574 0.000109465397420873)
(7.84877879450181e-05 0.00446194934295014 0.000118966846953316)
(0.000269100202536678 0.00466903686038452 9.59213074871931e-05)
(-6.95112319270675e-05 0.00425013807760457 7.669483627875e-05)
(0.000491753986013682 0.00501341777161656 2.19515087057077e-05)
(0.00054540678908432 0.00449952806149843 3.30396726612798e-05)
(0.000488853624007374 0.00414141989114636 2.5252833172198e-05)
(0.000363532530336724 0.00388257001090009 1.34215230720601e-05)
(0.000213948923924605 0.00367228075650945 5.54149313016227e-06)
(0.000174847699667365 0.00566208104445058 -2.3229267405927e-06)
(6.01081447949623e-05 0.00516250913421734 0.000143410173705247)
(-0.000112288717588805 0.0048444652532231 0.000257955057838524)
(-0.000207038378237442 0.00454705332698495 0.000285683609068073)
(-0.000221618940574462 0.00433353423054219 0.000221486322718918)
(-0.00016267824142323 0.00419011396986071 0.000115080867035983)
(-6.61627113773027e-05 0.0041087828816145 9.83428414860546e-06)
(-3.26159923876939e-05 0.00422412646261529 2.02427857451015e-05)
(3.50148083913424e-05 0.00419755066651432 -3.79207717657163e-06)
(5.75461167463773e-05 0.00405302791412294 -1.14279920758501e-05)
(6.23450243283718e-05 0.00386997006314093 -7.12402779567821e-06)
(6.58442456794156e-05 0.00368255783788477 1.32102544815213e-06)
(6.89141826243402e-05 0.00348289203715668 -1.9867988406886e-06)
(0.00021406245320996 0.00421299160862411 8.69698726890137e-05)
(0.000170883932144098 0.00404511562992056 3.44492263787964e-05)
(0.000108571775954799 0.00419155317782797 5.58509667511164e-05)
(0.000189282636981893 0.00386597864194238 2.66693906005122e-05)
(0.000308701589527048 0.00405252741486241 5.94480841139396e-05)
(0.000360475703416803 0.00429496301974374 0.000103077992634645)
(0.000346919332367948 0.00387455518703341 3.41741125921226e-05)
(0.000476688530056067 0.00411611027336275 6.37838185094325e-05)
(0.000533416977850052 0.00446241053617552 8.97340953317011e-05)
(0.000199766161027489 0.00367733823241888 1.55209562103034e-05)
(-5.17454814989993e-05 0.00431492228461435 0.000137851353012507)
(4.51910584374066e-05 0.00444716983731276 0.000159920084743819)
(0.000236149249776523 0.0046586901107064 0.000146528834639314)
(0.000432051939293832 0.00496893938596783 7.09000893743089e-05)
(-7.19128123677717e-05 0.00424687426834566 8.71363126322796e-05)
(0.000717962852404883 0.00547812873336148 3.38828236995e-05)
(0.000793084930939043 0.00474706627290314 1.70197059433057e-05)
(0.000692577754534356 0.0042392724992085 2.74545040145616e-05)
(0.000536770729086267 0.00390615850565369 1.71674882354095e-05)
(0.000365693967722197 0.00366976851712752 9.02789708561079e-06)
(0.000205233380637159 0.00347692932170542 4.31837158977104e-06)
(0.000244574282044048 0.00617148786981512 -1.73817124737497e-05)
(0.000144126021261649 0.00559082203155884 4.4245851586771e-05)
(7.86745673192285e-07 0.00519801801972678 0.000231090157070928)
(-0.000163849208196188 0.00479788610792462 0.000317380141497107)
(-0.00022242367335922 0.0044920025134496 0.000283246161751587)
(-0.000216600996079818 0.00430338623161519 0.000184359634081618)
(-0.000170073567557656 0.00418802705603717 7.78545066331424e-05)
(-6.17624813269605e-05 0.00412390202232036 6.27071957718254e-06)
(-3.47682454701062e-05 0.00422193566355561 2.88186102822851e-05)
(3.42185572578681e-05 0.00420563564051655 1.83870053375365e-05)
(5.09507126305965e-05 0.00406161037759024 2.55012533318115e-06)
(5.58184726223255e-05 0.00387738179542122 1.4986524265428e-06)
(6.08343536089924e-05 0.00368565105365412 4.54163574297818e-06)
(6.16977652042632e-05 0.00349358188318321 -6.82029501489037e-07)
(6.22278417009018e-05 0.00330432814524976 4.61922810196487e-08)
(0.000296093366829358 0.00405793573778718 6.89340760041642e-05)
(0.000205927860173852 0.00421867738317736 9.99562120951982e-05)
(0.000350700970912033 0.00429214002511349 0.000121821338572962)
(0.000159450089592902 0.00405482634329403 4.43283910048777e-05)
(0.000176468557158941 0.00387274553849536 3.03922165219993e-05)
(0.000107057365885352 0.00419937182639083 6.63497026108444e-05)
(0.000188288914209513 0.00367999785717058 2.21971692276539e-05)
(0.000332924943168578 0.00387169985162893 4.48213287946925e-05)
(0.000466238566958913 0.00410396302631102 8.2785532046232e-05)
(0.000546185674542435 0.0044407457088917 0.00012392763402883)
(0.000348647340771487 0.00367299962578751 2.37032320314047e-05)
(0.000525084128188952 0.0038951126344315 4.16661264824329e-05)
(0.000689039517614086 0.00421494732253436 7.01250289792144e-05)
(0.000753823358397336 0.00472287937897413 6.73253820553277e-05)
(0.000189386001084297 0.00348660950289581 1.2663461669498e-05)
(-5.65063261637123e-05 0.0043086641979399 0.000139296228989644)
(2.54095590847583e-05 0.00443378586441013 0.000178888566705672)
(0.000200904065807238 0.00464580036518805 0.000178257168944739)
(0.000470819008601887 0.00496637918884811 0.00011272261650035)
(0.000758941994775835 0.00540915107031669 -4.3117944512074e-05)
(-7.39857096284805e-05 0.00424585563018417 8.10448626776486e-05)
(0.000878745671354802 0.00623265501108359 -6.05173842487393e-05)
(0.00120673789817264 0.00511015346652815 1.95918303446627e-06)
(0.00100577648611775 0.00438587064831763 2.04436053019733e-05)
(0.00075983522674373 0.00394380711105461 1.87489516489791e-05)
(0.000539784394137336 0.0036662846033781 1.06359505194951e-05)
(0.000348781721296484 0.00346434864365391 6.13390038924e-06)
(0.000187557607932237 0.00329495158725832 3.30337791514274e-06)
(0.000138631618479117 0.00707177303336937 3.0951183453546e-05)
(0.000199645870192558 0.00600016743093595 2.85505337234874e-05)
(0.000121211717588178 0.0056985149897289 0.000135942140139679)
(-7.87960636395089e-05 0.00516803833938786 0.000295575457888296)
(-0.00019092825276975 0.00473605366382504 0.000312634476500922)
(-0.000222249711242129 0.00445657796364776 0.000231565741429738)
(-0.000213991340049561 0.00429656782673258 0.000129093844378779)
(-0.000161148114683344 0.004203248780987 4.37920730783409e-05)
(-6.03292908933046e-05 0.00415120695470176 2.28769123218946e-06)
(-3.29662736551843e-05 0.00423600676826009 2.99817061593015e-05)
(3.53316487701114e-05 0.00421491931651984 3.37038739085884e-05)
(4.82190805278689e-05 0.00407498661328863 2.07993830054211e-05)
(5.48728315410164e-05 0.00389031624312791 1.72138543787529e-05)
(5.64166214131013e-05 0.00369297873840702 1.43937796011263e-05)
(5.79402449147463e-05 0.0034993745055911 9.08072814744538e-06)
(5.71149388102618e-05 0.00331202436651167 3.6937020768641e-06)
(5.53979782302811e-05 0.00313999630046702 1.61841242538844e-06)
(0.00028759713915514 0.00407053465969796 7.24721085850892e-05)
(0.000457385915747025 0.00410763774549728 8.88705833970575e-05)
(0.000320325429146382 0.0038798805015085 4.90154857255318e-05)
(0.000204442024003593 0.00422729201686845 0.000100401988512008)
(0.000343529475998249 0.00429860250680832 0.00012663566670089)
(0.000543864337227942 0.00443406460688754 0.000135286430302042)
(0.000155024998405588 0.00406821670716297 4.97953360030214e-05)
(0.000173256808061653 0.00388430604394775 3.53952665076982e-05)
(0.000179554331831105 0.00368838401242691 2.71773524144723e-05)
(0.000109723650332693 0.00421047103979066 6.64897962991435e-05)
(0.000180462783021929 0.00349275173383596 2.02495072248998e-05)
(0.000335537518262922 0.00367571484273673 3.08574756314902e-05)
(0.000511544711819556 0.00389142340555837 5.17469072541691e-05)
(0.000689322219631651 0.00419633667419968 9.06781505203779e-05)
(0.000827788158112599 0.00468295972576406 9.60800569356212e-05)
(0.000332673299574796 0.00347437024334638 1.78102020948638e-05)
(0.000527221302551533 0.00366794766046664 2.64358055133263e-05)
(0.000762642608573882 0.0039312197619385 4.37099978683515e-05)
(0.00100294927875669 0.00437948238786684 6.57140696839647e-05)
(0.0011881017002607 0.0051454861455214 -4.03436815767008e-05)
(0.000175257037717513 0.00330465679346142 1.09636830639383e-05)
(-5.58722903732965e-05 0.00430927728221633 0.000120106387144309)
(1.82646815541425e-05 0.00442708097759227 0.000171430240953491)
(0.00016858081540022 0.00463366395369551 0.000192815558930059)
(0.000439303604344304 0.00495131101950331 0.000145239587961185)
(0.000730437833794506 0.00546185744229878 -9.78523485584983e-05)
(0.00101389333337081 0.00596852777864891 -0.000138528245566156)
(-6.96578111060148e-05 0.00425871866258121 6.32935968398945e-05)
(0.000543335990704324 0.00747855957500466 7.9561483413083e-06)
(0.00183662381640111 0.00582856498240885 0.000131992422146047)
(0.00156953595618031 0.00461248481247695 -4.41044556394157e-05)
(0.00106853179510748 0.00398640062152469 1.98758407905972e-05)
(0.000752089768301067 0.00365699013805759 1.13672197814769e-05)
(0.000511209645045748 0.0034426594316761 6.56153151625377e-06)
(0.000319587534544403 0.00327626423780577 4.30199830575207e-06)
(0.000167162214323876 0.00312969811960671 3.06663747389382e-06)
(0.000128327948351979 0.0069542146752703 7.52469151146793e-05)
(0.000189671694866516 0.00628069894974723 0.000103720955172086)
(1.8996502838209e-05 0.00566243178644162 0.000224752216312182)
(-0.000128030017733241 0.00510522546743272 0.000307554606710749)
(-0.000198401634499077 0.00469508529681362 0.00025622901272866)
(-0.000216787948481404 0.0044471891976608 0.000160874125633258)
(-0.000205486932561649 0.00431278877511659 7.72530834514325e-05)
(-0.000156884143384499 0.00423075077115718 2.10680410547189e-05)
(-5.78797992861647e-05 0.00417826447885826 3.27556874819137e-06)
(-3.11770248886916e-05 0.00425460362333512 3.01443670170929e-05)
(3.71521118720801e-05 0.00422751403954539 4.04054554656586e-05)
(4.81893174825708e-05 0.00409043396784615 3.56981373821315e-05)
(5.55470887610855e-05 0.00390757584129969 3.15157771582891e-05)
(5.70553777103519e-05 0.00370542467599707 2.76902369376292e-05)
(5.52307392011497e-05 0.00350852678069426 1.99102226088219e-05)
(5.42765887945278e-05 0.00332035967087423 1.29146317827376e-05)
(5.18963675783956e-05 0.00314566787324879 6.526871994134e-06)
(4.7968160958316e-05 0.00299188116753688 4.02399520287603e-06)
(0.00028500874078436 0.00408665890794049 6.90742167047288e-05)
(0.000315560247494468 0.00389435645968951 4.90050986044015e-05)
(0.000452424906812745 0.00412141774897755 8.76450691871656e-05)
(0.000682653407823577 0.00419406014037916 9.59223363206725e-05)
(0.000500409499672429 0.00389991318490037 5.51059650195598e-05)
(0.000326069003472424 0.00368637038610993 3.47678873716841e-05)
(0.000207187888490169 0.00424069294715705 8.98155285931774e-05)
(0.000341290409663309 0.00430885858150466 0.000119952152771791)
(0.000536227155329231 0.00444151234270308 0.00013498507589151)
(0.00081419274527526 0.00466044540386974 0.000107461750986914)
(0.000174589171121524 0.00390078685872673 4.1036935104902e-05)
(0.000155855444851376 0.00408486038546547 5.09881231435485e-05)
(0.000179627024553288 0.00370311455769035 3.36606260447128e-05)
(0.000174829079618903 0.00350283899233092 2.80526591930001e-05)
(0.000114318014483363 0.00422419079298022 5.82305190720379e-05)
(0.000168163335468971 0.00331327020294881 1.99909897022568e-05)
(0.000321847178265628 0.00348144227332078 2.57862023076509e-05)
(0.000514661971167945 0.00367082476768721 3.22695162249307e-05)
(0.000746547037342282 0.00392362582647617 5.285202814289e-05)
(0.00102718829548332 0.0043347799046464 8.95186551789051e-05)
(0.00126758800974021 0.0050622230172312 -6.84613710035224e-05)
(0.000306608010354091 0.0032879702240193 1.42970620643938e-05)
(0.000498935819108242 0.00345269539622535 1.84139517769792e-05)
(0.000749216496324393 0.00365565416652095 2.64842493720825e-05)
(0.0011019881547796 0.00397908360415759 4.86806601850124e-05)
(0.0014197223008136 0.00469523456797175 6.82520895622452e-05)
(0.000158438895790641 0.0031376707216412 1.07153651336381e-05)
(-5.10413786719372e-05 0.00432202828755904 9.0417107650627e-05)
(1.8715222187043e-05 0.00442854468291843 0.000143550292934202)
(0.000154735381271082 0.00462756525713134 0.000184470387153431)
(0.000378236974569103 0.00494071834123433 0.000174843857861711)
(0.000667216022909187 0.00542855809272605 3.37597111674372e-05)
(0.000854057479435482 0.00625886832399171 -0.000140827434608296)
(0.000589798403676026 0.00745702398820551 -8.69310095839461e-05)
(-6.48185481769593e-05 0.00427713330704485 4.54880004524678e-05)
(0.00203807790332557 0.00848116773135132 0.000102943266723199)
(0.00263477519482983 0.00492730294327034 1.48636631073609e-05)
(0.00152725362617111 0.00403161771430433 2.14439358199149e-05)
(0.00101632747183615 0.0036264099336535 1.31717690744699e-05)
(0.000699978195822495 0.00340499897427425 6.71001594651732e-06)
(0.000465495520765494 0.00324465736461792 4.22894461993348e-06)
(0.000285215124312944 0.00310864010903142 3.51096274766119e-06)
(0.000145969221475717 0.00298198320995348 3.25125661861035e-06)
(0.000114744356167975 0.00717591187518768 0.000141975315981794)
(6.58702286850143e-05 0.00629115281267383 0.000160036984748574)
(-3.74086182142994e-05 0.00560770663459147 0.000271732097457418)
(-0.000145470973577209 0.00505982776937606 0.000261270960607982)
(-0.00019674728139205 0.00468319261584807 0.00017882088770137)
(-0.000210349269717743 0.00446362646282036 9.7123139119241e-05)
(-0.000199816621323926 0.00434152149334493 4.16663095847152e-05)
(-0.000152451157707463 0.00425996532358957 1.22644436158519e-05)
(-5.7112979832569e-05 0.00420374163877307 5.73928429862047e-06)
(-2.78515242952794e-05 0.00427552881014117 3.05471648279609e-05)
(3.99393100265464e-05 0.00423993118869013 4.4864461992193e-05)
(4.94275379927201e-05 0.004100929795716 4.75954070800359e-05)
(5.7023114749456e-05 0.00392190798734742 4.55748436245664e-05)
(5.74961386358761e-05 0.00371892581159915 4.13143194458322e-05)
(5.28866965988852e-05 0.00351939645850768 3.32987318716526e-05)
(5.1938415555899e-05 0.0033307412459097 2.47064759651857e-05)
(4.93566229018102e-05 0.00315428688505695 1.64630014982655e-05)
(4.60843704163417e-05 0.00299568808376999 1.20267194739526e-05)
(4.15508499473376e-05 0.00285848285929599 5.64544627823772e-06)
(0.000316770920932768 0.00391276281059699 4.86776136972201e-05)
(0.00028701863134696 0.00410508059048348 6.22456233425286e-05)
(0.000451715331678103 0.0041395699717006 7.89991200113177e-05)
(0.000324169509900543 0.00370183951306801 3.87926425416437e-05)
(0.000496857720313355 0.00391611081401024 5.35583743121447e-05)
(0.000680273682250835 0.00420729777997273 9.31595017620517e-05)
(0.000733316826637639 0.00393021211872229 5.68476268556356e-05)
(0.00101269537530423 0.00432025009633235 9.64822021320643e-05)
(0.000505251624090641 0.00368318215362122 3.53928740654063e-05)
(0.000315359907590518 0.003492998752375 3.22096991812831e-05)
(0.000212750900758865 0.00425533963979396 7.29220273040278e-05)
(0.000342804648265438 0.00432428615761477 0.000103134541778042)
(0.000530763869131247 0.00445411069427382 0.000127039000175686)
(0.00080456179137919 0.00466731248959582 0.000121689988922678)
(0.00119479229293858 0.00503399313309824 1.38707204386078e-05)
(0.00017775722050814 0.00391556524115824 4.79507910597019e-05)
(0.000181319264773319 0.00371909352100031 4.22028734498442e-05)
(0.000158541231629515 0.00409694460414624 5.25152613010665e-05)
(0.000171787570884382 0.0035170743060835 3.64994173451602e-05)
(0.00016379233038096 0.00332387875270553 2.9879811018839e-05)
(0.000119922415581109 0.00423775546809799 5.06663895800319e-05)
(0.000298098456517153 0.00329769643825657 2.39166974713167e-05)
(0.000152536009446244 0.00314682795741287 2.07798909445115e-05)
(0.000489165549896844 0.00346075490247241 2.54518629147706e-05)
(0.000735586145309365 0.00365878471121857 3.09630743677552e-05)
(0.00106419850596172 0.00395942809391971 6.30261164878914e-05)
(0.00160183844601334 0.00455753103112758 0.000148609547102344)
(0.00186851323406571 0.00575553876442144 -0.000289090976022488)
(0.000275688929804657 0.00311890016584362 1.27665742182191e-05)
(0.000455298453465173 0.00325750359308935 1.40451937778221e-05)
(0.000693532119651733 0.00341303074156855 1.7283707568393e-05)
(0.00102456162850801 0.0036187154090306 3.1272332485462e-05)
(0.0016078606357752 0.00404235852410073 7.5935192592307e-05)
(0.000140495420774239 0.00298745762464119 1.14850136215197e-05)
(-4.50654074831528e-05 0.00434109522707047 6.24840761839744e-05)
(2.2272348926569e-05 0.00444208386353469 0.000106386985629474)
(0.000152336762262093 0.00462933600148422 0.000154977933599356)
(0.000356507273795928 0.0049351851527735 0.000180860136718209)
(0.000622027902904977 0.0054042884582653 0.000135846091768768)
(0.000784507218347604 0.0061729570203409 -3.48115352874266e-05)
(0.000509105661105971 0.00751302343756485 -0.000173864831411188)
(0.00164767802212357 0.00876269140536588 -0.000220292827749065)
(-5.87647656926037e-05 0.00429829607012927 3.4133945793856e-05)
(0.00665839049976769 0.00313785280890769 -9.95671036118644e-05)
(0.00356942008248126 0.00340639382497257 -6.71765793476948e-05)
(0.00212122182514753 0.00389642893354867 8.67575531843368e-05)
(0.00133948028395093 0.00354525015994934 1.93675106978902e-05)
(0.000917098084657261 0.00333715279978411 7.96607443080845e-06)
(0.000628237024898845 0.00319345540173891 4.12567525169345e-06)
(0.0004134132162152 0.00307329922302846 3.24168892080063e-06)
(0.000250031610917629 0.00296088648937015 3.43412343603346e-06)
(0.000126374650649985 0.00284974080869369 5.1395098233428e-06)
(3.62646627854651e-05 0.0071072976753171 0.000137123318816771)
(5.1314545890274e-05 0.00624207909381815 0.000208981085155485)
(-6.0795916662895e-05 0.00556170006571653 0.000244029136304601)
(-0.000148867993306367 0.00504577789126722 0.00018632423498722)
(-0.000194154785854003 0.00469902008358498 0.000108589111444775)
(-0.000205301466009947 0.00449397416568973 5.28716952791878e-05)
(-0.00019599030763652 0.0043725014192491 2.12514384501691e-05)
(-0.0001497720876643 0.00428651463235858 1.04958476140858e-05)
(-5.66319470851449e-05 0.00422764084796008 8.39631055473965e-06)
(-2.5931912903832e-05 0.00429727988055681 2.964553150974e-05)
(4.30287827144416e-05 0.00425508771119824 4.68583736871333e-05)
(5.11805448871923e-05 0.00411046752653342 5.57020281235686e-05)
(5.86002438736623e-05 0.00393140764221677 5.7671233915521e-05)
(5.88166079250093e-05 0.00372958172728374 5.50165864053234e-05)
(5.34819709809206e-05 0.00352947430331737 4.86485670208212e-05)
(5.1117013470607e-05 0.00334057909417736 3.98760411812352e-05)
(4.75511207064111e-05 0.00316327278517573 3.0540612580032e-05)
(4.41261328958979e-05 0.00300251474019628 2.31879445665615e-05)
(4.0255217427418e-05 0.00286114730846422 1.65300050333736e-05)
(3.58460877993962e-05 0.00273879761421545 6.67158314679962e-06)
(0.000326842597480005 0.00371768149262044 4.50917371413248e-05)
(0.000320367247527334 0.00392749432741818 5.1928691596925e-05)
(0.00049861083241248 0.0039362225749664 5.11072736299233e-05)
(0.000290148420810066 0.00411765463249153 5.8305303434276e-05)
(0.000453894740629376 0.00415967063778178 6.78863242289289e-05)
(0.000680838866345699 0.00422730464556235 8.27722521307107e-05)
(0.000503537621441248 0.00370010918572424 3.87749863901887e-05)
(0.000314376350226066 0.00350731794645809 3.88814481984758e-05)
(0.000731776518702815 0.00394674707660432 5.5432082170768e-05)
(0.00101174728870414 0.00433151188402258 9.52767787203671e-05)
(0.000724159384271456 0.00367256720073978 3.44834465266897e-05)
(0.00104240267667336 0.00396025567970903 6.84351447910814e-05)
(0.00155410534546552 0.00448772086817848 0.000108506727595887)
(0.000483146686386802 0.00347408097593205 3.12686343514903e-05)
(0.000293781972761082 0.00330927595703752 3.2984421746884e-05)
(0.000218511556118166 0.00426961142800972 5.80149949563923e-05)
(0.000347501847906574 0.00434009356165684 8.12947189405581e-05)
(0.00053046173114542 0.00447141703477758 0.000109348357648224)
(0.000797618816933438 0.00468235261224584 0.000123766250923584)
(0.00118199046904732 0.00503423269553404 8.39238766592924e-05)
(0.0017429815588371 0.00562822697108024 -4.0124037003557e-05)
(0.000180874662797846 0.00392477285243692 5.74049606171339e-05)
(0.000183931757178326 0.00372978569885839 5.36230903531061e-05)
(0.000173476763606175 0.00352886923982103 4.79236007560589e-05)
(0.000162195473785711 0.00410674678464783 5.65498097127868e-05)
(0.000162931733295017 0.00333487008600135 4.15952515917937e-05)
(0.000149289045886866 0.00315647340981716 3.27982595689982e-05)
(0.000126643912722324 0.00425236501441122 4.78407359279485e-05)
(0.000448312600038064 0.00326844666373128 2.31375713605299e-05)
(0.000269161502686601 0.00312917859699156 2.35665276833238e-05)
(0.000135792801767878 0.00299517918326686 2.33087174186248e-05)
(0.000684874885482635 0.00342241746926048 2.26864308660788e-05)
(0.0010066609816638 0.00362521726668595 3.88574843880294e-05)
(0.00151804247617042 0.00400446495524544 0.000119587188569338)
(0.00264193832681791 0.00486790637127932 0.000119318783105464)
(0.00202871037175239 0.00843350054876406 -0.000409905930850688)
(0.000243550689497789 0.00296838937234758 1.27429274705261e-05)
(0.000405910430951274 0.00308505338218655 1.21798538507451e-05)
(0.000621890822315488 0.00320573119023406 1.26027458283223e-05)
(0.00091608010488841 0.00333990481876594 1.85275419557394e-05)
(0.00135696552213473 0.00352106897071762 4.0537790450224e-05)
(0.00223564335113446 0.00367074106811234 0.000103236854101997)
(0.000122692041521594 0.00285323259969364 1.61599917132534e-05)
(-3.97807949441671e-05 0.0043635662564211 4.21209085953327e-05)
(2.73729808202594e-05 0.00446196696038767 7.24573641026437e-05)
(0.000153300508921714 0.00464372752583128 0.000115166436872288)
(0.00035134744729605 0.00493706929198508 0.000157639459685591)
(0.000603551378325778 0.00539468777988297 0.000163288035648168)
(0.000773736306945912 0.00613129883975505 7.45828861114585e-05)
(0.000491813568576246 0.00743166471824203 -9.5714477695579e-05)
(0.00744911440875396 0.00267883349759764 9.46176959754609e-05)
(-5.38975799432407e-05 0.00432021624401867 3.01240551919717e-05)
(0.00487012536887105 0.00109532084201423 -8.63808837919721e-06)
(0.00349608500914133 0.00201548333416371 3.84020466641845e-05)
(0.00258383163884137 0.00314776379997744 4.6201009105575e-05)
(0.00168882763913106 0.0033184220661193 3.00633246004695e-05)
(0.00115466585241829 0.00321561188989692 1.05832975970859e-05)
(0.000804655514587291 0.00311210382587246 4.78954663292664e-06)
(0.000551930246029679 0.00301813686513951 3.07247587665503e-06)
(0.000361324275746581 0.00292564425118901 3.18477064074798e-06)
(0.000216601610739368 0.00283021275970632 4.49585536476092e-06)
(0.000109016319317224 0.0027309734067364 6.36512655796017e-06)
(4.72552480971347e-05 0.00706059068342952 0.000109478674455252)
(2.55927752120892e-05 0.00619586346080739 0.000191568027696065)
(-6.29651340623704e-05 0.00554764509439407 0.000178695887624616)
(-0.000150985455196886 0.00506077100682226 0.000114785259504115)
(-0.000192086771686682 0.00473063754230266 5.93184613364958e-05)
(-0.000202368622198434 0.00452696255724443 2.73703775379852e-05)
(-0.000193231920636024 0.0044019880035958 1.24884392514676e-05)
(-0.00014875342180101 0.00431097878658663 9.7782382971612e-06)
(-5.65277305036892e-05 0.00425155629057283 9.62885478845902e-06)
(-2.53425402070886e-05 0.00432004383441087 2.92703167791885e-05)
(4.43150624528862e-05 0.00427281207086385 4.75093790633521e-05)
(5.20526825808207e-05 0.00412250320636458 6.02713383922691e-05)
(5.93858205293357e-05 0.00394095478321956 6.63500350149408e-05)
(5.94089940122742e-05 0.00373883067722154 6.66088079358941e-05)
(5.42490018096146e-05 0.00353866176775353 6.27069167619303e-05)
(5.16952175760483e-05 0.0033492275055266 5.57782664500304e-05)
(4.74117442846467e-05 0.00317134694339652 4.68793401055169e-05)
(4.30086661320739e-05 0.0030096258580668 3.76925599227884e-05)
(3.88639018478651e-05 0.00286590100415749 2.91293724467325e-05)
(3.48303921883906e-05 0.00274068273603203 1.96129082699273e-05)
(3.07743143965037e-05 0.00263181157774327 7.40584016381279e-06)
(0.000506764305234196 0.00371549599972721 4.59104034995279e-05)
(0.000329179864272273 0.00372735830139807 5.54944110156432e-05)
(0.000316016281401078 0.00351827986107791 4.94180849067612e-05)
(0.000323302920078486 0.0039361277873645 5.97511616939214e-05)
(0.000502365137069289 0.00395053866324079 5.38585150309901e-05)
(0.00073458700906334 0.00396803108212747 5.22252074603315e-05)
(0.000293767042988797 0.0041273666137128 5.94692763697756e-05)
(0.000457062126743031 0.00417229362091739 6.18276656092232e-05)
(0.000682848504134546 0.00424936088118886 7.05363001261836e-05)
(0.00101262795243336 0.00435361141248026 8.48796923599922e-05)
(0.000483379032619794 0.00348902789429563 3.91032134160184e-05)
(0.000723054519030499 0.00369028858603673 3.83157494068397e-05)
(0.000293781069853373 0.00332066935810686 4.3700241749561e-05)
(0.00104366187000416 0.00397425859579975 6.32427423788969e-05)
(0.00155082875872181 0.00450386649328681 9.88461508521337e-05)
(0.000990642287199278 0.00364089491956184 4.27802874817251e-05)
(0.000678586701195943 0.00343826093892363 2.8542812834537e-05)
(0.00146662334507262 0.00396011299428537 0.000107263359619989)
(0.00256844576877028 0.00480039465306914 0.000113915633067213)