/*--------------------------------*- C++ -*----------------------------------*\
  =========                 |
  \\      /  F ield         | OpenFOAM: The Open Source CFD Toolbox
   \\    /   O peration     | Website:  https://openfoam.org
    \\  /    A nd           | Version:  12
     \\/     M anipulation  |
\*---------------------------------------------------------------------------*/
/*   Windows 32 and 64 bit porting by blueCAPE: http://www.bluecape.com.pt   *\
|  Based on Windows porting (2.0.x v4) by Symscape: http://www.symscape.com   |
\*---------------------------------------------------------------------------*/
FoamFile
{
    format      ascii;
    class       volScalarField;
    location    "300";
    object      k;
}
// * * * * * * * * * * * * * * * * * * * * * * * * * * * * * * * * * * * * * //

dimensions      [0 2 -2 0 0 0 0];

internalField   nonuniform List<scalar> 
10107
(
7.52578162506722e-06
3.59260477165904e-06
1.5414758240512e-05
7.26575997404606e-06
1.27193752844875e-06
1.91264522784381e-06
2.28952132668032e-06
4.61693329978885e-06
2.29850102621576e-05
1.24961029493618e-05
2.53252037048893e-07
6.21266853151285e-07
4.28245241622692e-07
7.81415687112425e-07
1.38587212385784e-06
2.40172978608489e-06
2.48237948110742e-06
1.58672919747495e-06
1.7189807544362e-05
6.15704293447593e-06
2.04621574860121e-05
3.95521110635337e-05
3.24292934187697e-05
1.50995750636448e-05
2.72807924485972e-05
1.6954473839868e-07
2.18980652592902e-07
3.49579548595645e-07
3.11190273162141e-07
5.16086672022538e-07
1.40799481047036e-06
7.20358958548793e-07
4.79223236475245e-07
9.00212290933286e-07
1.71005068888411e-06
6.44459413770767e-07
1.46948040416129e-06
1.46073324212531e-06
2.78147314335128e-06
2.59518275807428e-06
7.79688241602981e-06
2.34990989214875e-06
0.000120174697271382
3.87858315412202e-05
4.7257732647201e-06
2.39292039919848e-06
1.17470010895748e-05
9.40238101481125e-06
2.40992228230443e-05
6.85710614528941e-06
2.01959401724159e-05
2.12692334781226e-07
1.7852504016172e-07
1.703805781412e-07
9.04250034157015e-07
3.86884129893898e-07
5.09040414983327e-07
2.81476375674369e-07
5.23181911990559e-06
1.51837461294278e-06
9.78737421121005e-07
1.47720644119249e-06
2.41939830885364e-06
5.02669626821222e-07
9.38167956261413e-06
1.97635991635043e-06
3.38554150527935e-06
1.0781539155792e-05
1.24299853699437e-05
3.73432567760497e-06
8.20702258605166e-05
1.70177734630014e-05
4.58012266503552e-06
0.000387320543819226
0.000165753253004236
4.52668468279604e-05
2.1411158617269e-06
7.92684527741346e-06
1.62571172728525e-05
1.24531271434685e-05
1.95308434052145e-07
4.0342698240716e-07
2.51371392815719e-07
4.31425884446306e-07
3.18144089701712e-06
8.63030533801556e-07
5.43337404879894e-07
3.75044289721348e-07
1.63364977998284e-05
2.67289995058392e-06
6.81102996741862e-07
8.06836833328523e-06
1.87043960852596e-06
1.26910860425103e-05
5.67704443372826e-07
2.76808266129866e-06
2.53838724912153e-05
3.00438084486773e-05
6.090619937831e-06
0.000100593160691793
1.81176160433427e-05
2.67948626971367e-06
0.000327541766645666
0.000113442237954223
2.50537844819521e-05
6.82817707005933e-06
0.00059596474234891
0.000409748902848029
0.000203898474971261
7.10948238060156e-05
3.68052513821009e-07
3.53875257512434e-07
4.17833988706111e-07
1.43270344069721e-06
1.58531157708026e-05
1.74040186712316e-06
3.88646117584196e-07
3.60462501291744e-07
3.65283789119345e-05
4.65293685237206e-06
4.79479482402757e-07
1.5171821815027e-05
5.39466124826345e-06
3.37745381035705e-05
1.59898286203331e-06
3.10838149672771e-07
3.8364972862739e-05
4.74592467550208e-05
9.1385835865107e-06
0.000125802723440923
2.33110568005117e-05
1.50256180869148e-06
0.000317717187207178
0.000115637606870827
1.87939258185571e-05
4.17090184537046e-06
0.000556709533878965
0.000350625520451485
0.000145530072477752
4.1986707678888e-05
2.10261597576146e-05
0.000600154559296005
0.000431821153283393
0.00025481976158668
0.000137888792549981
3.32801686276677e-07
2.17031317441073e-07
9.82137898401267e-07
7.35950345112749e-06
2.39639441682021e-05
5.00604601588229e-06
3.54613962760624e-07
2.90692332516862e-07
3.97875892965997e-05
7.09128647828227e-06
7.26844849523534e-07
3.03908540867562e-05
1.10877830355949e-05
8.15542301266215e-05
3.93671519650843e-06
6.52731156158697e-07
3.63745618557538e-07
4.7528452009161e-05
6.32863644042296e-05
1.02831793332181e-05
0.000134014610721558
2.67667414531672e-05
1.09680794407859e-06
0.000317076347238559
0.000116844073619107
1.20325182904762e-05
1.73765230790694e-06
0.000530187743498694
0.000328574638203924
0.000124359585869969
2.83756301057702e-05
1.28197546038535e-05
0.000562353802639921
0.000376173046088494
0.000192853951258079
9.45980958046399e-05
5.68356689722144e-05
0.000604888318744157
0.000456417142916869
0.000317436195472165
0.000214058173666955
2.52086721598925e-07
2.59761345125415e-07
4.21979840013798e-06
1.83809820472271e-05
4.06786555073741e-05
7.48155238568493e-06
1.22783496025468e-06
4.17250263045754e-07
3.5662955181711e-05
1.63759211254241e-05
6.00257133681824e-07
4.00585307161159e-05
2.39191466372632e-05
0.000129747779269968
8.36386423473206e-06
2.10117131158086e-06
7.45169787821302e-07
2.86941898468211e-07
5.09036662481683e-05
7.45434389919854e-05
2.07837924611316e-05
0.000149004559801151
2.78245551415046e-05
1.03073243402191e-06
0.000316344280388756
0.000113818398433516
9.30700301245416e-06
1.27743651128265e-06
0.000513189068121184
0.000316844402407024
9.85111975593705e-05
1.42936430603081e-05
5.15005536628265e-06
0.000694569041354864
0.000534801424187336
0.000341927865893171
0.000153790064052033
6.50670095780932e-05
3.74068686923862e-05
0.000569625964237077
0.000407197269624453
0.000262246033074852
0.000168989850877441
0.000100876621657557
0.000610299106714301
0.000479911782588224
0.000361931383087494
0.000260419299539511
4.58806703724182e-07
1.80155856262024e-06
3.5181155446629e-06
2.04195368973506e-05
2.42825556730792e-05
1.31377120551574e-05
6.40943263302483e-07
3.28430438837291e-07
2.18309469113162e-05
2.37438255458465e-05
1.2895423787936e-06
4.24099682269891e-05
3.38509355866443e-05
0.000159137836520981
1.71858431714723e-05
4.1238804508823e-06
1.8316464362226e-06
5.57850113446504e-07
2.87842316467903e-07
3.37648135295322e-05
8.3395465161404e-05
3.61430822587191e-05
0.00016754513915784
4.76512800697826e-05
3.30183829334485e-06
0.000323954083694813
0.000119421998639128
7.06105239733069e-06
8.84258286728342e-07
0.00050455570558214
0.000311307007160032
8.98785039949704e-05
1.052325828781e-05
4.22638804710306e-06
0.000677805845651744
0.000516539037461341
0.000313268025222337
0.000109933214664753
3.46242856502587e-05
1.8903023937503e-05
0.000829852163278458
0.000695804069776582
0.000541319388217815
0.000367887062383051
0.000216549284888886
0.000129606043546976
7.39884335501032e-05
0.000578787999545265
0.000440229022454784
0.000320214470598487
0.000225350167736634
0.000135514257309396
0.000613753443004313
0.000494382356876311
0.00038405077376534
0.000280827077007267
3.30697942712181e-07
3.96970371430756e-07
7.88865101275474e-06
1.17649389888134e-05
1.7854745328981e-05
1.6639873339611e-05
9.70392233419722e-07
2.10656989749011e-07
3.23589888256488e-06
1.722222313395e-05
5.31632816270157e-06
3.98569632435899e-05
3.84497015856781e-05
0.000171037194942312
2.67785505250754e-05
9.05857371612647e-06
3.81243424523124e-06
1.5687362345452e-06
8.62140758444088e-07
5.53082730204209e-07
8.34380188696875e-06
7.62642123570944e-05
3.1344693700974e-05
0.000184569567692659
7.41693807090416e-05
1.68544313831333e-05
0.000338146048751434
0.000155711768525799
2.33312064657456e-05
2.70035628975455e-06
0.000503372552584291
0.000317071628235586
8.51101479176113e-05
7.21449582712217e-06
3.28341555849209e-06
0.000666746396343276
0.000506877343704162
0.000300894957138293
9.49895572123846e-05
2.7640368847608e-05
1.62931180694322e-05
0.000815800261266775
0.000679103878410111
0.000520721274855771
0.000330673807456244
0.000166936529992877
8.79470952045335e-05
5.0019551972279e-05
0.000946765619975504
0.000829348343499738
0.000696768255246379
0.000551468825549019
0.000404483806089876
0.000280874913755169
0.000191268613434112
0.000111107386282706
0.000587426031100679
0.00046430850328999
0.000354364698304655
0.00025623696179875
0.000154667293640928
0.000612371481143445
0.000498469140149798
0.000390655199787839
0.000285579765079348
2.20810407387103e-07
4.31530914458219e-07
1.27068781864908e-05
1.13451523959703e-05
1.65497790640996e-06
1.28842320361552e-05
3.17094167888086e-06
3.00440963079817e-07
7.70354017718746e-07
3.64400050310924e-06
5.73115706680441e-06
3.44998007982561e-05
3.78949886177904e-05
0.000170645593340388
3.33826485777584e-05
1.84767608176225e-05
9.43572821948858e-06
3.08117455468634e-06
2.01737121275789e-06
1.27181615415482e-06
6.10744400219282e-07
2.18432382532972e-06
3.89947498939786e-05
8.86625420758442e-06
0.00019534255279428
7.9926116723841e-05
1.73413800337323e-05
0.000350337277271156
0.000185943158084844
6.45830790353707e-05
1.18181932007647e-05
0.000506806937085061
0.000338726551433568
0.000137606889219008
2.41191296892405e-05
7.27264990606004e-06
0.00066041840526209
0.000505095379773543
0.000300915546357275
8.6057289162537e-05
2.33816778606993e-05
1.3786245184755e-05
0.000804652745171245
0.000667911976249182
0.000508754931414255
0.00031251876739266
0.000147378449594778
7.53207543143411e-05
4.26711803787236e-05
0.000935069957929452
0.000815511162572289
0.00068026595059512
0.000529858113202835
0.000372175738869616
0.000241617626294414
0.00015678930394389
8.77926183442426e-05
0.00105088982679715
0.000945234003670052
0.000826342017715655
0.000697194769924731
0.000563361295792625
0.000435800807348767
0.000325315805121512
0.000231515972174598
0.000137081990710398
0.000591148956355968
0.000475933545982303
0.000369408369336923
0.000268521630564462
0.000159940093179981
0.000605016703247568
0.000493796075958808
0.000386735965005409
0.000280102773117356
2.57166391724467e-07
1.67250692495035e-06
7.41671361790769e-06
5.92085287952414e-07
3.66328373989849e-07
2.11438500243736e-06
2.85511537836207e-06
3.81728163878659e-07
6.21219711906651e-07
1.31263345077267e-06
1.51865813167457e-06
2.8123535296887e-05
3.36356880930293e-05
0.000162175307114419
3.49371013590027e-05
2.70692862799434e-05
1.76152844784232e-05
6.73217213450182e-06
4.25858603183314e-06
3.07018840982841e-06
1.44220163571161e-06
1.28102438660312e-06
3.25538867540784e-06
1.85665728303017e-05
4.18550614841993e-06
0.000176666862467922
4.33359003841406e-05
7.19718921763047e-06
0.000358914079215864
0.000203418302706714
7.83541438706906e-05
1.25073700344531e-05
0.000510522202183652
0.000354997393826124
0.000189383334657128
6.82388655042283e-05
2.08495531679758e-05
0.000657134250229953
0.000509104746334358
0.000336355033802206
0.000144504606144402
5.01614111091986e-05
2.2429440158154e-05
0.000796081771660659
0.000661437209139718
0.000506145678677501
0.000309298227273932
0.000140539369969087
6.96532107371107e-05
3.85117540972173e-05
0.000924493302228937
0.000804426722275058
0.000668793533791431
0.000516204747640408
0.000354069731219309
0.000221771141209119
0.000141000427675346
7.8045226574397e-05
0.00104093323225917
0.000933705646199103
0.000812945097212821
0.000681309448597824
0.000543541812326497
0.000410911259375772
0.000298289495350825
0.000208084470782539
0.000119634863551636
0.00114522960479353
0.00104869614264379
0.000939615781270734
0.000820470050461605
0.000695682206802008
0.000571244659809433
0.000454298094742574
0.000348636112511401
0.000251351190459331
0.00014831400143304
0.000588030228735388
0.000476613011093457
0.000371129709599786
0.000268049876063685
0.00015511374558917
0.000591655229596382
0.000481829368277382
0.000374879672056295
0.00026715453731265
3.14223009631042e-07
1.37803631368456e-06
6.72273343014893e-07
1.72445163819972e-07
2.55775983835186e-07
7.63739004477455e-07
6.114744489726e-07
3.62745229290823e-07
1.33223834143255e-06
1.12395344852009e-06
1.88460722852862e-06
1.63402172797819e-06
2.24211338191568e-05
2.75229606627138e-05
0.000148511986714639
3.20242650235407e-05
3.07358622848177e-05
2.47822521705046e-05
1.36012523390908e-05
9.79311689708334e-06
8.39775610030346e-06
3.69442978128648e-06
2.50803631012945e-06
9.16479535264675e-07
1.08976580584331e-05
2.07522823813552e-05
3.74153151482184e-06
0.000147078138415134
2.94060922953323e-05
4.570294433818e-06
8.84286281369222e-06
0.000358890334681106
0.000188030862744094
5.33243314955626e-05
9.10311027221804e-06
8.67920951378953e-06
0.000513591611961942
0.000365116674107037
0.000214688007150897
8.53208932982633e-05
2.32912279227964e-05
0.000655100200815373
0.000513191594402668
0.000361063342332266
0.000204342952568479
9.84136495826116e-05
4.12427348629736e-05
0.000789317376062249
0.000658113774472794
0.000512325149892077
0.000346406672352949
0.000192029281912003
0.000101989892491102
4.97555139790019e-05
0.000915007098592274
0.000795829073386848
0.000662036693459198
0.000512306019415468
0.000351979219240889
0.000218086705060897
0.000135951914155217
7.17760260711036e-05
0.00103095697077506
0.000923211231167189
0.000801987272296948
0.000669684281104157
0.000530129412428054
0.000395089760028411
0.000282004546886807
0.00019385172938196
0.00010948924143105
0.00113656774764943
0.00103885994869419
0.000928422720042848
0.000807748697940371
0.000681014599291935
0.000554177572129532
0.000435324808780056
0.000329902718634142
0.000235364081854833
0.000136405745078267
0.00123154329009292
0.00114257709782266
0.00104131406432759
0.000929604110670068
0.000811067186698244
0.000690245248683052
0.000571907423020462
0.000460133252464921
0.00035595341775862
0.00025595905783709
0.000147449345827945
0.00057799494446038
0.000468475340957888
0.000363143489415109
0.000258431289456313
0.000143928332770863
0.000572515203058857
0.000463443339402449
0.000356430602588512
0.000248009051700483
1.7166597055627e-07
2.06206264029893e-07
4.85449112077283e-07
7.12278757163431e-08
6.77884525587018e-07
4.31743404311864e-07
2.32803486336726e-07
2.70765810507476e-06
1.81997373400924e-06
1.38935815665033e-06
2.70820119007443e-06
7.49509662005448e-07
1.37840721494513e-06
2.30899186469537e-06
1.34400810778589e-06
1.70661692298854e-05
2.17290881414005e-05
0.000129995632205814
2.65610396707399e-05
2.93015385917539e-05
2.76978735431189e-05
2.02244243795126e-05
1.61300913575994e-05
1.54693212540365e-05
9.74370104788178e-06
5.20703598465999e-06
2.30169413583788e-06
4.23991799873767e-05
5.42572710593597e-05
1.8900378299904e-05
0.000162711094899357
4.1220954355997e-05
6.28974101178425e-06
2.16447699547824e-06
6.44779697768883e-06
0.000356929204998454
0.00016733288555871
5.67588579912227e-05
4.87205232518425e-06
4.33466340608397e-06
1.28923067775719e-05
1.14611182562711e-05
0.00051601739925522
0.000366637300265868
0.000207506592139047
6.94371766695448e-05
3.55133043606924e-06
9.46775817071095e-06
2.34448434309643e-05
1.0151766324432e-05
0.000653634565789088
0.000516412817533746
0.00037375164004098
0.000232080763048838
0.000121718490815314
4.97487476217512e-05
0.000783561116535911
0.00065597386902055
0.0005172330722992
0.000372598705579768
0.000238756120118479
0.00014320765098679
7.04048525055608e-05
0.000906280632110284
0.000788991736574889
0.00065864277251052
0.00051804677101555
0.000373736117763606
0.000248049415669592
0.000157776943323663
8.17318657359451e-05
0.00102101707186488
0.000913741738516142
0.000793329057062415
0.000662486031780216
0.000525078359074044
0.000391549694581261
0.00027807660316227
0.000188458225935625
0.00010225291608425
0.00112709096835783
0.0010289534618992
0.000918098312054146
0.000797024040609016
0.000669687360437347
0.000541863820727463
0.000422192107719967
0.000317062102322347
0.000224009280372237
0.000127579707564266
0.00122391177981073
0.00113400651700496
0.00103171429159504
0.000918912941729989
0.000799216367112967
0.000677107649229247
0.000557679725044609
0.000445538434332687
0.000342282229313425
0.000244609074757173
0.000139423880979557
0.00131090278234931
0.00122855141814594
0.00113393259469302
0.0010284340364523
0.000915007612335345
0.000797452124063638
0.000679617650050076
0.000564901209864678
0.000455624236565979
0.000351706080553503
0.000249647167206874
0.000138695896799598
0.000561484946921384
0.000452950575115163
0.000347467492492593
0.000241545194428626
0.000126698584635501
0.000547786323666397
0.0004391441372245
0.000332155546705437
0.000223965673013693
8.89694755721366e-08
1.7114530666373e-07
3.0551073033917e-07
7.80597880779592e-07
5.90733591281018e-06
3.34030888355293e-06
4.43450690952729e-06
2.85337196205461e-06
2.96378737713501e-06
2.0786012826851e-06
1.22031582244913e-05
1.64052593841778e-05
0.000109389651651571
2.08087946468921e-05
2.47064651493459e-05
2.64517995727944e-05
2.33894240964656e-05
2.08826359428763e-05
2.08536705937018e-05
1.72685797514236e-05
1.5134905709139e-05
5.04929722715363e-06
4.96745295234868e-06
9.04263454762733e-05
0.000138032624211933
7.61940366449621e-05
0.000229568704382745
9.00506006500381e-05
3.37851145149325e-05
1.80732841246247e-05
3.218889815989e-05
1.23508223150381e-05
0.000373377317858622
0.000195058675456201
7.70771335099373e-05
8.37047369041171e-06
4.51512843779488e-06
0.000520080060088714
0.000367472517278861
0.000206629979366584
7.73595197536035e-05
6.60139697266536e-06
7.14615393821444e-06
5.48271500082717e-06
1.25794554732894e-05
0.000652693590164522
0.0005190017403703
0.000377899867357303
0.000233702649256492
0.000122534056209542
3.70290021614635e-06
5.44318697305969e-05
2.6137790717609e-05
2.04567696168353e-05
0.000778262200463711
0.000654361260066222
0.000520639918818112
0.000385806284682945
0.000262590310530629
0.000165921494830525
8.36521999235846e-05
0.000897878753804638
0.000783121665941945
0.000656269359884529
0.000522810436298579
0.000390998382408536
0.000274843842011872
0.000183104802835232
9.76686025942191e-05
0.00101096146399854
0.000904985657693
0.000786317216182617
0.000658556431344767
0.000526710227704561
0.000399993269987988
0.000289748143012375
0.000197949990016545
0.000107357284607611
0.00111684860197075
0.00101904356312478
0.000908659997481716
0.000788294660118671
0.000662022495839639
0.000535412298198559
0.000416537286712026
0.000311504296946177
0.000218196752859268
0.000121099947902639
0.00121487176170772
0.00112458655736096
0.00102195674702316
0.000908859295356131
0.000788879683682192
0.000666416925341196
0.00054665626310846
0.000434523071624473
0.000331907578738092
0.000235586953390747
0.000132595866656488
0.00130420711042232
0.00122099362467267
0.00112553510542892
0.00101919223279574
0.00090494400156976
0.000786589128604028
0.000668051897484977
0.000553028388601608
0.000444035311217183
0.000341233357320664
0.000241195339176375
0.000133061050539402
0.00130765300999652
0.00121894837339238
0.00111894773094995
0.00101012242847267
0.000895753302479004
0.000779154270400786
0.000663356772942427
0.000550762837021878
0.000442731871537721
0.000338622101537921
0.000234914395631707
0.000122945997578446
0.000538895616595008
0.000430883053081291
0.000325238095181574
0.000218941585011648
0.000106331928361007
0.000517626297878903
0.000409306845513141
0.000302727137455582
0.000196142742217528
3.75298813402063e-07
1.54429522218371e-05
9.99323087713536e-06
9.10797180857041e-06
6.10837808144399e-06
4.65841847107908e-06
8.05037437262871e-06
1.16165558906162e-05
8.80352187512191e-05
1.55900319748317e-05
1.95056914197997e-05
2.23965776198018e-05
2.29245492447458e-05
2.25195167034476e-05
2.2852323849527e-05
2.17007731118922e-05
2.44433750552003e-05
1.48570445948685e-05
8.79043181900752e-06
8.69699213066848e-06
0.000127868023713236
0.00021080771277965
0.000108126741730505
0.00029648969052578
0.000164434597338758
8.92854091821806e-05
0.000405108908383626
0.000255650024506487
0.000129277383396151
2.87443678355801e-05
1.24692500030247e-05
1.29593906190104e-05
0.000528677912383742
0.000384985856790091
0.000236593797178387
0.000107997636492691
1.97239535018841e-05
0.000652510503014321
0.000523182013768033
0.000383414526751147
0.000242508913065019
0.000130543519785033
1.20428373314177e-05
1.60224223189692e-05
1.56824264056244e-05
0.000773054411186352
0.000653242841251136
0.000523339112847864
0.000391977730935259
0.000270872400378442
0.000176572614405605
9.08544720495218e-05
6.2805561559875e-05
4.53613786667874e-05
6.07465158602038e-05
0.000889366473159216
0.00077768290126152
0.000654320922178349
0.000525827115922629
0.000401168520257832
0.000291042744421148
0.000199089807882467
0.000108564076838576
0.00100052059914443
0.000896521772526708
0.0007801888840932
0.000655652389792265
0.000529106331137948
0.000408630289095757
0.000302279219293025
0.000210185960464201
0.000115778541893933
0.0011057710747937
0.00100898743248074
0.000899830647185709
0.00078101353985158
0.000657059793070379
0.000533660248123157
0.000417710225834366
0.000313945213935247
0.00021999228018013
0.000121677369618636
0.00120438780396522
0.00111437713487524
0.00101211297328099
0.000899489661920014
0.000780130245805245
0.00065843854679957
0.000539460139397432
0.00042793492592497
0.000325706499538715
0.000229601052076432
0.000127151559035238
0.00129563534523966
0.00121200033542775
0.00111624073657825
0.00100967199449455
0.00089526095506954
0.000776781124201787
0.000658168888804517
0.000543242518092807
0.000434645408669921
0.000332634221554373
0.000233759256518016
0.000127536312656187
0.0013010145886832
0.00121152433439842
0.00111081311628875
0.00100134025621587
0.000886394384802572
0.00076931499106108
0.000653236146983069
0.00054076056666533
0.000433287836877407
0.000330297663081075
0.000228264278288292
0.000118409013666467
0.00129729358947109
0.00120233749240637
0.00109782294570815
0.00098665801182208
0.00087177935095036
0.000755895142549707
0.000641409941931676
0.000530075822430928
0.000422678340066993
0.000318261459523821
0.000213678133282876
0.000102881373516311
0.000510511989251349
0.00040282670693987
0.000297339270864603
0.000192023215574189
8.50974419565252e-05
0.000482200233262689
0.000374297219664807
0.000268768158051968
0.000165416060297666
2.54610713776003e-05
1.75412709376369e-05
2.06647662867601e-05
5.07610836813611e-05
4.72724672815197e-06
7.58695627023045e-06
6.67593733296185e-05
1.09221505073676e-05
1.4585226720944e-05
1.79714894532731e-05
2.00532896891919e-05
2.12667721293423e-05
2.2043182420769e-05
2.1994003084649e-05
2.78773281459178e-05
2.62280090632711e-05
2.00972372034401e-05
2.00051348941929e-05
2.28293161135829e-05
0.000147344040385283
0.000245489110401331
0.000134267185668169
0.000333656034940532
0.000220404708583555
0.000120933277146108
0.000430497147745442
0.000307246267784051
0.000189001327883574
0.000102363392936914
0.000538569841746573
0.000412298036130918
0.000283323764706184
0.000164517584630758
0.000652703543703055
0.000531194461092156
0.000399897149554566
0.000270442669835418
0.000163617354855925
0.000767539263890397
0.000652801301098794
0.000527419614629171
0.000399583950844344
0.00028098200625708
0.000187343402334244
0.000880306315736124
0.000772307543011436
0.000652780474939616
0.000528234114395392
0.000407470484707364
0.000300295189824364
0.000209586406022957
0.000116113754343121
0.000100330955868662
8.48351110882733e-05
8.6303121074344e-05
0.000989353357976106
0.000887924822218046
0.000774438952913435
0.000653126737821682
0.000530731889789753
0.000414822393134366
0.000311482454628752
0.0002193499257815
0.000121641593668242
0.00109368683517367
0.000998523574925761
0.000891224682367053
0.000774512513650273
0.000653255602668337
0.000533277369229717
0.000420525121915857
0.00031848732250713
0.00022431002193468
0.000123862545633511
0.00119247839886036
0.00110331440127422
0.00100205591554229
0.000890574665899286
0.000772563737791698
0.000652561113905466
0.00053543424228219
0.000425399967720123
0.000323897995589162
0.00022750548305013
0.000124770662563833
0.00128491577045913
0.00120154980724036
0.00110611066091425
0.000999946380073955
0.000886026060285834
0.000768125741536866
0.00065016599114035
0.000535907560224008
0.000427926595005252
0.000326420946287698
0.000227849603853419
0.000121964404646993
0.00137033127891345
0.00129247470114634
0.00120263822515736
0.00110172057789666
0.000992140712096241
0.000877165370233769
0.000760128442188769
0.000644205723172924
0.000532080739654744
0.000425182710289286
0.000322999649786327
0.000221965453624633
0.000113177584928377
0.00129075817810045
0.00119511486402115
0.00109003480308656
0.000978404273054998
0.00086316219106664
0.000747055382023037
0.000632571611013367
0.000521589332958939
0.000414862831889231
0.000311480056693342
0.000208173443358282
9.87176189000737e-05
0.00127937837618548
0.00117899014769214
0.00107105998578874
0.000958241578562195
0.000842973341474991
0.000727516627785957
0.000613843438849551
0.000503263361552128
0.000396214274471083
0.000291748987944574
0.000187596536157298
8.17445383173738e-05
0.000476569466844222
0.000369244810299373
0.000264530096411259
0.000161938962152602
6.41387557933554e-05
0.000441701155168752
0.000334494945077033
0.000230881896633991
0.00013255190377536
2.97202325811978e-05
2.35857079191945e-05
2.56668319590594e-05
2.28285274810596e-06
4.40284694921946e-06
4.62871937097438e-05
7.05209235428695e-06
1.01381417278839e-05
1.34540743753095e-05
1.63930906952978e-05
1.86540577386826e-05
2.0004638784533e-05
2.04524574107098e-05
2.59956363787929e-05
3.08057020155402e-05
3.00324414133491e-05
3.02019399431542e-05
3.06863054235476e-05
2.94258364625494e-05
0.000153533338420503
0.000258974957508472
0.000148829260617918
0.000350753015229787
0.000248640458277403
0.000141066720065003
0.000444166463072648
0.000337484490222019
0.000231568406967716
0.000131599902631956
0.000544789520810941
0.000433580557649035
0.000319623409579542
0.000213318316648701
0.000121115336490256
0.000651545183528258
0.000539952714160589
0.000421063367323232
0.000305244448023671
0.000203981462544009
0.000761026332675379
0.000652615208565238
0.000534119127135925
0.000413541257857739
0.000301468294816925
0.000208324441592318
0.000870209810057092
0.000766594214185324
0.00065173261361921
0.000531599499784297
0.000414642389000696
0.000309841419868919
0.000219279717066726
0.000977076750643908
0.000878761585733182
0.000768695515385132
0.00065090848632208
0.000532151049356883
0.000419619520652883
0.000318571463085639
0.000226591681080352
0.000126865775734442
0.00012388580112182
0.000116770449372836
0.000114996711045721
0.00108034413968487
0.000987317316781086
0.000882440369917806
0.000768316203862389
0.000649908669057746
0.00053309058229705
0.000423191367087031
0.000322738993151122
0.000228102587110078
0.000123662480951063
0.00117904914850368
0.00109123128761172
0.000991543607604427
0.000881780571831633
0.000765649803680187
0.000647801451169517
0.000532926211071787
0.000424723024513531
0.000324111456508426
0.000227135514712921
0.000121720247577566
0.00127230332266776
0.00118966378072708
0.00109508927197059
0.00098990821004579
0.000877064926092817
0.00076035785061162
0.000643698175318722
0.000530699974443641
0.00042372065748731
0.000322714807530444
0.000223927641578938
0.000117252569957821
0.00135927659724451
0.0012817920251144
0.0011922725819563
0.00109172716284346
0.000982597726023297
0.000868145359033528
0.000751696099468737
0.000636415748379086
0.000524961477802161
0.000418708971872615
0.000317049977388372
0.000216293389013616
0.000107537606836935
0.00143913050487593
0.00136691462253429
0.00128230388329665
0.00118640260858551
0.00108121730463522
0.000969592869977398
0.000854447021412212
0.000738533000768503
0.000624373699271937
0.000513887304983128
0.000407809043582779
0.000305194504173376
0.000202613063818167
9.38957115619628e-05
0.00127299949202518
0.00117203717297779
0.00106368132765358
0.000950556951860118
0.000835105999397084
0.00071962533739168
0.000606142149229735
0.000496045489589942
0.000389695392972206
0.000286112865999617
0.00018281401915126
7.7904478198108e-05
0.0012542180630497
0.00114955587979333
0.00103904568615931
0.000924902097625602
0.000809213572319424
0.000693947014133294
0.000580753517923394
0.00047063932900929
0.000363914000899163
0.000259986510812057
0.000158102961812635
6.11304977216481e-05
0.000437306811693793
0.00033058590388318
0.000227529332551814
0.00012962548652672
4.41050732677723e-05
0.000396338587379908
0.000290303194110302
0.00018975113055226
9.84699708786594e-05
3.01932553835339e-05
2.73028808101796e-05
2.66156772828194e-05
7.60132851264572e-07
2.08977836132107e-06
2.7258667928285e-05
4.04300873868326e-06
6.47873697734307e-06
9.30101780334993e-06
1.23073464596279e-05
1.51500322999639e-05
1.72749014289869e-05
1.85076970915866e-05
2.22594201318407e-05
2.81514458404756e-05
3.31753788856654e-05
3.51859725602723e-05
3.63447560114664e-05
3.41693826269906e-05
2.96916010914689e-05
0.00015138518220722
0.000260326915570561
0.000153298103537584
0.000355373954601457
0.000259800826852028
0.000150688373753813
0.000448408257268806
0.000352057945226378
0.000252841628448952
0.00014734852024105
0.000545421196020253
0.000445292721146687
0.000342179700899526
0.000242617011792841
0.000142914367013899
0.000647390404597855
0.000545197527845067
0.000437080147259777
0.000330834279542347
0.000233772118397058
0.000138275539893459
0.000752547653155789
0.000651071017473356
0.000540804162326047
0.000428823365377111
0.00032360633176446
0.000230498301897512
0.000858504073608908
0.000759872331125492
0.000650695005684691
0.000536326649216985
0.00042459029720833
0.00032291523989737
0.000231691888182444
0.000963273913896495
0.000868551608877285
0.000762548900478879
0.000648930357187242
0.000534121284530112
0.000424849148960987
0.000325612057932223
0.000233382970744125
0.00106543882471017
0.000974991251845795
0.000873058189031804
0.00076204032521964
0.000646786082501499
0.000533057461075457
0.00042576266410303
0.00032678778229928
0.000231940427431091
0.00012602239458096
0.000131801061612021
0.000133918668886293
0.000134982643600672
0.00116392186813536
0.00107788039051809
0.000980258862433374
0.000872736795225798
0.00075894536327277
0.000643537207903447
0.000531046880267177
0.000424744385267994
0.000324997531067994
0.000226947875368019
0.000116759720393402
0.00125776522867849
0.00117625061807176