/*--------------------------------*- C++ -*----------------------------------*\
  =========                 |
  \\      /  F ield         | OpenFOAM: The Open Source CFD Toolbox
   \\    /   O peration     | Website:  https://openfoam.org
    \\  /    A nd           | Version:  12
     \\/     M anipulation  |
\*---------------------------------------------------------------------------*/
/*   Windows 32 and 64 bit porting by blueCAPE: http://www.bluecape.com.pt   *\
|  Based on Windows porting (2.0.x v4) by Symscape: http://www.symscape.com   |
\*---------------------------------------------------------------------------*/
FoamFile
{
    format      ascii;
    class       volScalarField;
    location    "300";
    object      nut;
}
// * * * * * * * * * * * * * * * * * * * * * * * * * * * * * * * * * * * * * //

dimensions      [0 2 -1 0 0 0 0];

internalField   nonuniform List<scalar> 
10107
(
1.42803261783668e-06
4.93608099628529e-07
5.6202677923333e-06
1.21740002207047e-06
3.06544831059469e-07
6.94162382990281e-07
2.50480116047188e-07
2.05369590722409e-06
7.46859589632896e-06
2.64963620088575e-06
6.69914664344203e-08
5.4291901625507e-07
9.17200189378759e-08
7.98618324050019e-07
4.72858731349621e-07
2.61580169484079e-07
3.56507169033704e-07
1.50173887015079e-06
9.95828128480488e-06
2.56078070879653e-06
6.67980822957651e-06
1.80512022270927e-05
1.13659869951934e-05
3.86889678816198e-06
9.90322832594401e-06
4.1589172085786e-08
2.98025008317787e-07
8.0461595593739e-07
3.45054742651291e-07
1.01278599475361e-07
1.37271220095943e-06
7.39145274312071e-07
3.82685579854696e-07
5.05598098995232e-07
5.67764010120089e-07
1.45446708968783e-07
4.59930120761807e-07
4.6544165172597e-07
4.53725675068232e-07
2.54753399574267e-06
7.23614208646893e-06
2.14643560527748e-06
9.24917917247476e-05
2.64690513121287e-05
2.46382771144506e-06
8.07870776898501e-07
3.91958757332343e-06
4.41275255807171e-06
8.99672940015369e-06
1.54324707007446e-06
6.59278963887392e-06
4.67739542360152e-08
1.40442202291073e-07
2.23279050060518e-07
1.36533187307571e-06
7.88472072335736e-07
3.6160028498467e-07
7.12035671386342e-08
5.49432913302827e-06
1.24112414365915e-06
4.96525631966981e-07
6.5278874800154e-07
5.08533913825078e-07
1.13955478459523e-07
3.64775382852863e-06
5.70579646514817e-07
6.46727308868031e-07
1.16570234296044e-05
1.27108976910731e-05
3.21096288482431e-06
7.975663191476e-05
1.53453609390246e-05
2.48590557382471e-06
0.000483179026546099
0.000150880122433941
2.58019290012976e-05
8.89315192282996e-07
3.04413151200731e-06
5.86544290626441e-06
3.84679254156287e-06
4.63777470984339e-08
4.38293859719955e-07
3.366015038694e-07
1.25891543368555e-06
4.22531238238522e-06
1.19683895629758e-06
5.10982448892334e-07
1.085320259638e-07
1.31307584264656e-05
2.2902685081494e-06
3.34376098887775e-07
2.53869227049166e-06
3.62327778228542e-07
4.29956461137043e-06
1.27750419865536e-07
8.1982027252162e-07
2.25282225934797e-05
3.53529655369655e-05
5.53142944630753e-06
0.000115913963247038
1.73331842785595e-05
1.47984630316498e-06
0.000409852071528086
0.000115284538317179
1.70021358750869e-05
2.4127008763146e-06
0.001284826509661
0.000590406174597059
0.0001899850913138
3.99369226703111e-05
1.00387907113211e-07
4.07803418572223e-07
6.22269945605568e-07
2.78858287297691e-06
1.47424212808534e-05
2.040891108462e-06
3.89293302652881e-07
1.08644328396447e-07
2.13826746416086e-05
2.70725691024063e-06
3.24342760371501e-07
5.07809844294704e-06
1.65242886171813e-06
1.51996699935641e-05
3.05384648828834e-07
6.89490136014213e-08
2.87545512162688e-05
4.4488473167369e-05
6.49119521721508e-06
0.000168893705722389
2.3630904864761e-05
1.01339068186632e-06
0.000477672235729487
0.00013218533604563
1.35340912281933e-05
1.55885831947183e-06
0.00115505547505725
0.000492097402599201
0.000139631146386359
2.40605309754385e-05
9.53496515163056e-06
0.0013622240843066
0.000690267942108194
0.000260266191076169
0.000104382557051914
9.81283407867458e-08
2.39578107812927e-07
9.18847656399459e-07
1.0490246885328e-05
1.68956819204461e-05
3.55983994700578e-06
3.41654266771983e-07
8.86586705846185e-08
3.15613925448968e-05
4.08341134528321e-06
2.65926551548206e-07
1.02386207745583e-05
3.68892305294083e-06
5.34886039398233e-05
1.19461103313275e-06
1.24160744212362e-07
8.06721917609804e-08
4.23091662967212e-05
4.74072134993744e-05
6.60508263955301e-06
0.000171887092390041
2.34845998003414e-05
4.84094123973219e-07
0.000541381687168313
0.00014334993147882
9.2772563062214e-06
6.56168958534581e-07
0.00115524682021767
0.00050330198280189
0.000127195622983443
1.74444175697981e-05
6.13108653000937e-06
0.00121494693772948
0.000560992189142357
0.000184863007371665
6.9517116954291e-05
3.66126497615577e-05
0.00145241272880602
0.000819448777757845
0.000430196943027276
0.000242875809125123
6.93193888408638e-08
2.06550450184762e-07
4.22758185328009e-06
1.51523088130617e-05
2.8309705100373e-05
4.80157070704269e-06
5.99823864820346e-07
1.28109519031617e-07
3.92086130985877e-05
1.27795798189022e-05
3.17000090552868e-07
1.34491145415744e-05
8.05166066781685e-06
0.000118338298815313
2.7720670595593e-06
6.35400639204695e-07
1.41617095867763e-07
6.32478265315397e-08
5.76747433444889e-05
7.17176063828415e-05
1.74581638378878e-05
0.000169972512576983
2.0810766605169e-05
5.57241551354071e-07
0.000548568006892099
0.000127901121736558
5.4022671723754e-06
4.41104845661561e-07
0.00117635777290338
0.00051428280366182
9.95246909933739e-05
8.28912033464488e-06
2.35413491266534e-06
0.00197426724779379
0.00117829674346431
0.0005139340319004
0.000150792511570137
5.02112497661905e-05
2.43482396056256e-05
0.00128486457822577
0.000661130637709686
0.000320643747095663
0.000177116311321701
8.82333119686402e-05
0.00156737839983591
0.00101772353242412
0.000652370910693155
0.000404884129798282
1.41723078310333e-07
5.78526570692871e-07
3.83816974003654e-06
2.17061266683283e-05
2.76595823044721e-05
1.10948845514837e-05
4.80954880005531e-07
1.00782721742492e-07
2.29181384301562e-05
1.99595949138165e-05
6.49022719808597e-07
1.41872093757262e-05
1.1369317590397e-05
0.00017536496883428
5.77991088907164e-06
1.3638699887966e-06
5.52449427183674e-07
1.04970940116116e-07
6.33360305971892e-08
4.02573266474108e-05
9.65137984232733e-05
3.46258739900808e-05
0.000224454604885474
4.47446548854053e-05
1.81990291674586e-06
0.000555349409145719
0.000118431280234509
4.23684644082151e-06
2.79877216900381e-07
0.00118247674109953
0.000492027263027257
7.72910369432092e-05
5.50273857144756e-06
1.87910173703e-06
0.00194910519784118
0.00116348976965986
0.000451304389821798
9.89474910753475e-05
2.45606988426925e-05
1.12062275495703e-05
0.00276299991501409
0.00198743477618322
0.00119730941314631
0.000569417482123439
0.0002551838670148
0.000132485532552018
6.29340986008295e-05
0.00138483432655649
0.000844843182518545
0.000520150357724843
0.000323332035600995
0.000144896474118257
0.00171224704776268
0.0012233646729367
0.000848844925143768
0.000523910609801306
1.02561088935714e-07
2.15275490178658e-07
9.5470821707702e-06
1.51945383963674e-05
1.96376719432255e-05
1.41540178241959e-05
6.04456322802443e-07
6.42270130988318e-08
3.89284248159338e-06
1.23566946998972e-05
2.50393195258681e-06
1.32981286737959e-05
1.28685155171223e-05
0.000204788902349841
8.99460110954003e-06
3.04373221595822e-06
1.25812645419454e-06
4.7086021413519e-07
1.60966634722726e-07
1.19950524916859e-07
1.00225672275449e-05
0.000101294870596065
2.92010403199466e-05
0.000285904278911708
8.34977586460346e-05
1.04028654396109e-05
0.000641192756207837
0.000186164037875362
1.6019607464554e-05
9.77255645781531e-07
0.00120209323969611
0.000482588472740818
6.69846055408845e-05
3.22254043267037e-06
1.34851006895669e-06
0.00194338976003993
0.00114659291118702
0.000399987913557707
7.74310251579479e-05
1.85650843527292e-05
9.68213916399572e-06
0.00271934881448074
0.00194509886594961
0.00112497487083707
0.000461563406259191
0.000175072093850037
8.03651318733606e-05
3.91714955691167e-05
0.00347480182447791
0.00276970212211052
0.00200453497820898
0.00125801471809748
0.000722507299349528
0.000424040900855938
0.000258709151280865
0.000115137696705579
0.00153617245021076
0.00105939180332771
0.000723891180436405
0.000453899295411384
0.000183118804699758
0.0018506840124866
0.00138485134694337
0.000978510537907271
0.000583454876489236
6.79419177994044e-08
4.84325831563105e-07
1.32941934664617e-05
1.46127882909894e-05
3.50782644229864e-06
9.89038413035267e-06
2.25642538068953e-06
9.01127512944046e-08
6.18551152800562e-07
3.30876873132891e-06
2.43667531293815e-06
1.14892797617611e-05
1.26479735339807e-05
0.000210780956933158
1.11755310512005e-05
6.20444441473524e-06
3.16622787594059e-06
1.01382246252783e-06
6.02329160296746e-07
2.31094836621568e-07
1.33445320477998e-07
2.00824657147926e-06
4.783234417761e-05
8.28318894156066e-06
0.00031561909661938
9.42480848343613e-05
9.59841316926448e-06
0.00073405359843507
0.000267877125683037
5.83238142909574e-05
4.79723820952863e-06
0.00128212792999311
0.000597988229403685
0.000134341914696226
1.38663289295555e-05
3.35536656739225e-06
0.00196000289934827
0.00115485717483358
0.000375374930401717
5.91023220701963e-05
1.38263806714755e-05
7.58930903155569e-06
0.00270144390785657
0.00192800696458581
0.0010736173887867
0.000403178094400859
0.00014514200922717
6.6353646505071e-05
3.31560415025041e-05
0.00343044805821429
0.00271997002933524
0.00193272366947035
0.00114500921823548
0.000602367466152531
0.000325990249066229
0.00019123122094159
8.56392576581524e-05
0.00411361827270261
0.00347741769834676
0.00277947577062825
0.0020496649925818
0.00139575194804231
0.000926617214943983
0.000618947550606668
0.000389701704586875
0.000159559795261865
0.00169753636790913
0.00124887338766458
0.000881237385083455
0.00053540883563683
0.000197654034317449
0.00195496865134428
0.00148651956644317
0.0010418395810764
0.000597907878721157
7.78409238417405e-08
9.97212346964378e-07
1.08530261350591e-05
1.02431186209539e-06
2.08955456639326e-07
3.27714086036123e-06
1.99239465285422e-06
1.11847790884283e-07
2.01779304427865e-07
9.1113520333715e-07
9.11955073676946e-07
9.35384295764379e-06
1.12039843261479e-05
0.000202845574119675
1.16633342442564e-05
9.06186213233302e-06
5.91090979041772e-06
2.25468732168145e-06
1.3961893774438e-06
9.08172959683492e-07
2.53446378296492e-07
3.30753460559538e-07
1.1778735298216e-06
1.81952617287786e-05
3.1610595030138e-06
0.000253685323193649
4.62055856957948e-05
4.89184038135015e-06
0.000782729032030931
0.000314803659952746
7.07383059806491e-05
4.54128510368565e-06
0.00136427332258488
0.000719248853398118
0.000242727102706751
5.29149557129117e-05
1.10144792447436e-05
0.00200913558879104
0.00125358509379851
0.00052251668904075
0.000130818689809086
3.70229983800733e-05
1.38946418326908e-05
0.00270461191773941
0.00194036271581533
0.00106741809721026
0.000364321638466411
0.000124176533690375
5.63415867597551e-05
2.84294808759902e-05
0.00340619324254592
0.00269773945514483
0.00189618036515855
0.00107719329308546
0.000540793265544343
0.00028384399290178
0.000165848186071154
7.52781746923064e-05
0.00407427658616258
0.00343118550804702
0.00271838759647966
0.00195487332494107
0.00127647922568189
0.000808943813017956
0.000521573993115814
0.000327272689952872
0.000134946735237173
0.00468639370896897
0.00411285771802698
0.0034789608253091
0.0028027373678504
0.00213752403292636
0.00156562500646685
0.00112868664102766
0.000791258109516778
0.00048699784957777
0.000182586284538892
0.00183150262199694
0.00138358005587216
0.00097406851343152
0.000567837572503081
0.000195045146973491
0.00201532504836044
0.00153224438005042
0.00105418406438217
0.000583376655246764
9.15388406613228e-08
9.92001423494766e-07
4.9369238702929e-07
1.001521903545e-07
1.01777071545064e-07
5.58646568704133e-07
4.29189251557705e-07
1.06505797227617e-07
2.39208673876007e-07
3.78689670325964e-07
4.50625422319618e-07
6.43884613066611e-07
7.45356842533175e-06
9.15522254202134e-06
0.000186594823395854
1.0668807460252e-05
1.02613391284746e-05
8.29333902331389e-06
4.55857869151542e-06
3.27236429643235e-06
2.7432492306243e-06
1.08269729326788e-06
4.19795625843111e-07
2.76128342120821e-07
4.44395490696937e-06
1.15870210347564e-05
1.10060675632666e-06
0.000166690823216797
2.18100595511879e-05
1.83648986649265e-06
3.97537753792553e-06
0.000736976139338494
0.000260859915910146
4.85950932357149e-05
5.02775034475547e-06
3.25178628633084e-06
0.00141242394049631
0.000786313691169146
0.000306104977059719
6.46810133386978e-05
1.13233557163322e-05
0.00206016936680432
0.0013553946308306
0.000690656651452201
0.000250947545448628
9.17281530731523e-05
2.86188352051014e-05
0.0027253792888469
0.00199777342561853
0.00120110153920596
0.000521838071095384
0.000211731600471111
9.90958135898716e-05
4.00007823966524e-05
0.00339778440445561
0.00269942377937277
0.00190147596469576
0.00105961550612534
0.000517085043415168
0.000264627525913111
0.00015247666252416
6.68745597046942e-05
0.00404822129706874
0.00340541316644365
0.00268791180815715
0.00190417387984862
0.00121003759433065
0.000746868911596955
0.000473873670771918
0.000296162015066741
0.000122529539553202
0.00465293508879591
0.00407301451828768
0.00342886997514177
0.0027319630011015
0.00204011898384505
0.00145645130815636
0.00102552458149471
0.00071045797098063
0.000440268491050396
0.000166149021695953
0.00519762938530331
0.0046825505176101
0.00410598423313075
0.00348272614546301
0.00284396234863143
0.0022416608340884
0.00172054787256943
0.00128818449940057
0.000908109816505404
0.000536286506969532
0.000185933206115632
0.00192029796742227
0.00145782761963586
0.00100858436719652
0.000564610715423267
0.000182984937741036
0.00203102838558247
0.00153054850170214
0.00102928255821287
0.00054679810695872
4.60438369774236e-08
1.84030778472348e-07
8.50569810884481e-07
2.86651531090646e-08
1.71335779820103e-07
2.12016960461257e-07
6.13611497693056e-08
6.43359991313944e-07
2.58304771288905e-07
3.13947222984293e-07
7.14899540792926e-07
3.0039536588012e-07
6.32413750932206e-07
1.11460228373452e-06
4.86887572335332e-07
5.6796453021691e-06
7.22395231699989e-06
0.000159844365484457
8.83600560655814e-06
9.76225864739006e-06
9.24565713459422e-06
6.76350493814815e-06
5.39836327716239e-06
5.15893338663116e-06
3.17414039046158e-06
1.50823079572994e-06
4.28206896485438e-07
2.57153733254661e-05
3.60510046726041e-05
8.1614945762603e-06
0.000148741561045139
2.81087194318989e-05
1.8962496452796e-06
3.64968637598099e-07
2.36893990438059e-06
0.000645259370729478
0.000184862705194257
4.84473477768437e-05
1.45194347950712e-06
1.65247666846143e-06
7.4426970715214e-06
5.02407931178756e-06
0.00140531371358393
0.000755548205120359
0.000282948118410474
5.13981529700082e-05
1.69415146677281e-06
4.4901288776639e-06
1.15638035563901e-05
3.18457269386773e-06
0.00209482137058214
0.00141673396012294
0.00078686714663414
0.000320936944589775
0.000116775618327591
3.30148979567157e-05
0.00274938847317557
0.002057792896812
0.00133851413040588
0.000705873833321863
0.000339882473681521
0.000169310120109618
6.17569568973124e-05
0.00340015374560818
0.00272258281853441
0.001974745770603
0.00120330487410539
0.00065211630869896
0.000358056679037011
0.000203453291883207
8.08858656869058e-05
0.00403276110906292
0.00339637148637426
0.00268666572640784
0.00190255042908721
0.00120216475139177
0.000735615577556331
0.000460768650437507
0.000282348077218905
0.00011219451688229
0.00462728135894607
0.00404644009111387
0.00339989166550394
0.00269379670684603
0.00198739260671669
0.00139651034665522
0.000969360848529442
0.000665902726559535
0.000412346168984827
0.000154941984545708
0.00516954021844575
0.00464902544004523
0.00406495922291554
0.00342918838680489
0.00277207953936938
0.00215392791591827
0.00162982310689912
0.00120724044280158
0.000849089646561553
0.000505534449372503
0.000175760180992844
0.00565131768541584
0.00519099541211292
0.00466760381983603
0.00409273134127117
0.00348863827988618
0.00288927790332651
0.00233100687925113
0.00183307984767601
0.00138734210527387
0.000963417329783457
0.000544538338727009
0.000177313633227405
0.00195948386682578
0.0014772146711819
0.000998016560319758
0.000534711520020812
0.000157390873692194
0.00200375026038217
0.00148876296787963
0.000975472820332739
0.000495105637627348
2.06961368624274e-08
9.89094502102641e-08
1.11986662560185e-07
2.5083570438839e-07
1.78295753877426e-06
7.5433158318962e-07
9.05212690138629e-07
6.04386261116471e-07
7.01678600430666e-07
7.66592221539459e-07
4.07378004214802e-06
5.45984284403924e-06
0.000132346978585697
6.9182960572429e-06
8.21934976039504e-06
8.81228302230713e-06
7.80472374221653e-06
6.97762723110782e-06
6.97089384862816e-06
5.75520105756923e-06
4.93324688035381e-06
1.4543589450614e-06
1.57240310309286e-06
7.87499048151199e-05
0.00013478649806435
6.26983450800436e-05
0.000260600027795735
7.41369760797456e-05
1.84424421395756e-05
7.11157093674369e-06
1.63442157784449e-05
4.27041040460715e-06
0.000640009345149336
0.000206940170634909
6.2439615602395e-05
2.83624661741668e-06
9.06138406402797e-07
0.0013738991773068
0.000689823264985555
0.00026044813029462
5.60745677984172e-05
1.83941021510391e-06
2.31151718958819e-06
1.87248622481887e-06
4.8483087570949e-06
0.00210797122161456
0.00142150738931601
0.000790674079814682
0.000317923583478251
0.000114690071848872
1.46509908954799e-06
3.62303361484728e-05
1.18221419764427e-05
8.65688932916863e-06
0.00276839157748332
0.00209876722928118
0.00142356163019417
0.00081770369843627
0.00041983762707034
0.000206478722047121
7.18853015403079e-05
0.00340617884628769
0.00274961857806864
0.00205246483041732
0.00135630052138339
0.000811744861890003
0.000476677148500544
0.000272589856777027
0.000102424768913294
0.00402410995624992
0.00339920332451532
0.00271460273968947
0.00198044888706584
0.00131258455766653
0.00083835630428234
0.000536749235169376
0.000323802716651713
0.00012208511072091
0.00460785058296653
0.00403066694708478
0.00338942028234119
0.00268861604046817
0.00198400352214868
0.00139160355527921
0.000961497988694327
0.000654640051562694
0.000400041260419548
0.000146090640388341
0.00514504136962266
0.0046232102390766
0.0040371312129599
0.00339673622706814
0.00273107568781239
0.00210464915712061
0.00157811974395932
0.00116003695056919
0.000812486218672523
0.000483838099347104
0.00016747385229214
0.00562778289852086
0.0051629748580797
0.00463382193347437
0.00405072707839618
0.00343497858681331
0.00282308469334775
0.002257368132334
0.00176165821778864
0.00132731375383857
0.000922532437317599
0.000524229962609766
0.000170680211710169
0.00564224895160796
0.00516870731402002
0.00463932347227271
0.0040710540097988
0.00348869429897738
0.00292002066249895
0.00238650773845697
0.00189309325167136
0.00142623124069063
0.00096677042794901
0.000521049947235709
0.000153966876149018
0.00195022559148378
0.00144995098711758
0.000952870621882794
0.00048529991097553
0.000128466923137493
0.00193538605730457
0.00141212479955883
0.0008990367872539
0.00043530605956849
1.16796123951851e-07
4.85942269237166e-06
2.95799807244973e-06
2.31494124581308e-06
1.42235713003211e-06
1.12211843180062e-06
2.69387044782391e-06
3.87799707792032e-06
0.000106038620360114
5.18862789565054e-06
6.48519309515252e-06
7.45073722703946e-06
7.63591354167248e-06
7.5108935624375e-06
7.63018726989314e-06
7.25209212672226e-06
8.1585215424005e-06
4.89139046603259e-06
2.72732543360219e-06
2.34975558441447e-06
0.000139469707030202
0.000312733435053933
0.000109616571557198
0.000489555634761681
0.000191152104245668
7.43039037770677e-05
0.000819255002429008
0.000343856282159985
0.000129988020920895
1.3660608356261e-05
2.79475377515901e-06
4.8326860373051e-06
0.0014059601687833
0.00072120956426962
0.000310442659941921
9.22700558062524e-05
8.18852459800162e-06
0.00211688551077403
0.00140754930238777
0.000777221630617342
0.000330051269539562
0.000121207279846957
3.76375013325411e-06
5.61232669128651e-06
5.63293763241074e-06
0.00278205067223066
0.0021175356427754
0.00145128355317
0.000849730483701398
0.000441297920501552
0.000223337055896313
7.92279623924385e-05
4.16932881087566e-05
2.56960877694734e-05
3.85441237799354e-05
0.00341190598737473
0.00277100806639368
0.00210614668952109
0.00145580456179369
0.000919337018815191
0.000556163949825909
0.000312830258979277
0.000113433131071132
0.00401826239431095
0.00340603943832105
0.00274814282630987
0.00206673014920732
0.00144113741325961
0.000963036926851367
0.000630293333867308
0.000375274065932675
0.000135871235389632
0.00459212366655566
0.00402199694175937
0.00339320140577875
0.00271755782472114
0.00204435469018275
0.00146697482580204
0.0010304082381915
0.000703284179467066
0.000421805716572712
0.000149414195876006
0.00512312073295935
0.0046036219554665
0.0040205491227024
0.00338405605175591
0.00272216345238398
0.00209770674518895
0.00157081816561162
0.00115054318148869
0.000800324829380853
0.000471386641121191
0.000160593839048026
0.00560447964792656
0.00513844726955164
0.00460751307727279
0.0040214436638179
0.00340073430932068
0.00278290953265068
0.00221331937897313
0.00171811853860254
0.00128903412938372
0.000893787946972762
0.000506620081593717
0.000163778931690967
0.00561879883340035
0.00514075252801963
0.00460547442266447
0.0040294811259113
0.00343828016486292
0.00286241797279165
0.00232672187618597
0.00183797416978893
0.00138207959538687
0.00093759796233469
0.000505874934448916
0.000148004736047321
0.00561354523988312
0.00512723419936635
0.00459478495542005
0.00403556145995499
0.00347156784268826
0.00292244109905193
0.00239927178636585
0.00190005994683624
0.00141253556345316
0.000929916761886052
0.000474378130153622
0.000124044475038028
0.00189528292971369
0.00138311933269493
0.000881118788568558
0.000425142838377068
0.000101364730178936
0.00182746306341295
0.00130434317747923
0.000804187944970628
0.000369691454250559
8.31406777774341e-06
5.49428654623389e-06
6.38606134960181e-06
2.81844886642379e-05
1.57568421555004e-06
2.53881102967073e-06
8.09225279137649e-05
3.64620966369519e-06
4.85426739996661e-06
5.97506679664475e-06
6.67070971894258e-06
7.08204409236693e-06
7.34891381406966e-06
7.34202742297471e-06
9.32692650198222e-06
8.79253861806067e-06
6.71147711389137e-06
6.52116852264349e-06
7.1512038332532e-06
0.00017639491354127
0.000465016290760915
0.000154679679148879
0.000736520104767475
0.000357172535782678
0.000127985564169926
0.00106686193133464
0.000562199116368906
0.000256782341284485
9.24799347516495e-05
0.00154595105889236
0.000898303797229116
0.000462502389648233
0.000193599671077618
0.00215787268657984
0.00145516905305424
0.000845894419039889
0.000417853076928406
0.000185681724857228
0.00279856707669395
0.00213319891811458
0.00146733056619011
0.000879018573968318
0.000469855924865978
0.000245041084878424
0.00341748807610409
0.00278676436583292
0.00213599304454478
0.00150395708759044
0.000971254121610762
0.000597492170391587
0.00034029430863243
0.000123246902784579
8.9565798354679e-05
6.76357744189992e-05
6.93336063538975e-05
0.00401287953027062
0.0034125074828398
0.00277489123938219
0.00212910696439702
0.00153362589503091
0.00105463784428445
0.000697192416373562
0.000407839091669476
0.000142958399350984
0.00457753801705111
0.00401627831089308
0.00340194812583167
0.00275454244069534
0.00211781764672355
0.00156001570637194
0.0011167119828516
0.000764427504889827
0.000449625565905102
0.00015386099855943
0.00510215401564628
0.0045877993490184
0.00401177192830398
0.00338748691990053
0.00274399596625292
0.00213623006236872
0.00161508517430262
0.00118823622445851
0.000822498514031628
0.000475475736703199
0.00015841878462214
0.00558068825208426
0.00511645611560764
0.00458744262658979
0.00400361377297019
0.00338551446256556
0.0027700922071424
0.00220186719875124
0.00170654979735967
0.0012761252834341
0.000879437614981646
0.00049280358166987
0.000154064725606343
0.00600926966973447
0.00559548677224434
0.0051160522934775
0.00457860486060583
0.00399940495119289
0.00340421192065566
0.00282492619445488
0.00228808524104201
0.00180143205141156
0.00135089510648142
0.000914112642190625
0.000490436083326653
0.000139383636585736
0.00559025222682526
0.0050995348202438
0.00456159873534198
0.00399611627304566
0.00342629323489278
0.00287374818987049
0.00235125877126122
0.00185736317358894
0.00137912809603787
0.000907399857633686
0.00046095881590665
0.00011769981330422
0.00556064815856023
0.00506318736116379
0.00452993734119968
0.00397888044573442
0.00342723882528225
0.00288789233128612
0.00236579263872161
0.00185713251088031
0.00135470277328529
0.000862636307922007
0.000414105425484731
9.61673406997039e-05
0.0017973559055963
0.00128196969354635
0.000788707515447651
0.000359146783706342
7.63567646198307e-05
0.00168083619294274
0.00116707880961348
0.000691657815466454
0.000297767715892338
9.77945930982734e-06
7.64020164528939e-06
8.22265882310068e-06
7.52850770207782e-07
1.46755784953472e-06
5.68706304892986e-05
2.35983374528161e-06
3.38449695431345e-06
4.47778669192887e-06
5.45013860348478e-06
6.20458687850792e-06
6.66024841862432e-06
6.8174234677255e-06
8.68238860492996e-06
1.03290054818259e-05
1.01147451307587e-05
1.01549857063691e-05
1.01475778049438e-05
9.68310207770151e-06
0.000189846548680431
0.000542377657381804
0.000181017281781179
0.000910170338553433
0.000486454035550507
0.00016743813072421
0.00128053987508855
0.000779647927621104
0.000408485816090711
0.000146186076865275
0.0017162456785912
0.00111982521573168
0.000658256893326103
0.000335171861655656
0.00012514329081932
0.00224420406957982
0.00158852578519693
0.00101085394647148
0.000581827122524385
0.000301878258986404
0.00283030455392176
0.00217865431916988
0.00153297156074079
0.00097562563397826
0.000570225151215555
0.000315866118671414
0.00342619388251023
0.00280535557954248
0.00216341317205285
0.00154583676039235
0.00102180592313975
0.000642407418593561
0.000370625176065344
0.0040075986366366
0.00341872534869883
0.00279513468783328
0.00216927417237067
0.00159084057642351
0.00111323346110387
0.00074341526002979
0.000433704911873599
0.000150628199678726
0.000134904023525029
0.000118171344883033
0.000114721827412302
0.00456231324908448
0.00401104432311754
0.00341026886191637
0.00278528452095874
0.00217627348317349
0.00163413926175545
0.00118544681812758
0.000811063001741622
0.000467010352006861
0.00014805116092269
0.00508031401926598
0.0045731665968592
0.00400637289424172
0.00339711434805063
0.00277591595830151
0.0021887177249299
0.00167503815340522
0.00123980186774464
0.000853532343699658
0.000481950459002545
0.000149973962814834
0.00555535958501049
0.00509541378043501
0.00457130754374023
0.00399418021180507
0.00338589113867818
0.00278174437238339
0.00222154689600974
0.0017273504767244
0.00129067500701099
0.000882643507436241
0.000485823603728202
0.000144588731064736
0.00598426832601175
0.00557169540749721
0.00509378623282331
0.00455782931683122
0.00398017320131352
0.00338660395533
0.00280876644919507
0.0022728052954679
0.0017862076016788
0.00133508476695738
0.000897856590139658
0.000474677823232496
0.000128734706104861
0.00636508435741794
0.0059981463016748
0.0055668830759778
0.00507468200341183
0.0045345260982391
0.00396629263094773
0.00339379418398444
0.00283967332995459
0.00231758502486946
0.00182640218120884
0.00135292309126769
0.000886916732103715
0.000445347183839275
0.000109548471894847
0.00553770064969278
0.00503620702137711
0.00449835789357772
0.00394277277004479
0.00338773384433095
0.00284732737454851
0.00232723024831315
0.00182351616342233
0.00132825264234085
0.000843482251816943
0.000400678274326466
9.00060133567464e-05
0.00547984363020044
0.00497335138630531
0.00443962322796167
0.0038935017461288
0.00334779766788762
0.00281083901657494
0.00228495833946673
0.0017680452333552
0.00125951194925279
0.000772432196536587
0.000347737458550163
7.13539610159927e-05
0.00165836053686206
0.00114954122625182
0.000678121885934173
0.000287674188340277
5.27423656162793e-05
0.0014949573090163
0.00099907961506364
0.000558997508091683
0.000217726592208336
9.98571949710681e-06
8.92731385223108e-06
8.71919998421064e-06
2.4925624550049e-07
6.89180618139776e-07
3.33867852522491e-05
1.34760797636231e-06
2.16797595369842e-06
3.10502881589909e-06
4.09609224921402e-06
5.03664268577073e-06
5.74524640992663e-06
6.1611396776737e-06
7.4211021990608e-06
9.41175041693898e-06
1.11419530079555e-05
1.18632562230398e-05
1.22227081689441e-05
1.14184570930634e-05
9.88310793152641e-06
0.000189717137719868
0.000565970699074474
0.000190100001939108
0.000997569479999622
0.000550045463149537
0.000185276370326972
0.00142268776535374
0.000929929931935004
0.000513077669971195
0.000179331391015277
0.00186032165119204
0.00130927700339938
0.000837702549681385
0.00046254712887858
0.000168842175411271
0.002344785849711
0.00174393359833688
0.00119665448752847
0.000756230522914757
0.000423349507899826
0.000159600970940051
0.00287963357453935
0.00226214163848445
0.00165493762246826
0.00112738829691064
0.000716264371101416
0.000412657964368553
0.00344142583536029
0.00283806809807976
0.0022147634389699
0.00162295030148556
0.00111826712926104
0.000731461657948782
0.000428147753376151
0.00400313187299861
0.00342790766288998
0.00281751716698587
0.00220738417538845
0.0016437457779279
0.00116975298910502
0.000789809128454479
0.000460387569995507
0.00454555864839017
0.00400586534026065
0.00341797978692519
0.00280974706040978
0.00221948078102677
0.00168856262859476
0.00123730637083942
0.000848019252357223
0.000483734029149906
0.000152166859545359
0.000159032458858689
0.000155828905030494
0.000154779363105681
0.00505604438886496
0.00455790735566789
0.00400155310419171
0.00340677187286688
0.00280493265113742
0.0022352304767008
0.00172790232327965
0.00128465234819491
0.000878607597171909
0.000481079024685297
0.000133408904927879
0.00552709939191628
0.00507350554606086
0.00455652099990446
0.00398864945845565
0.00339331909205684
0.0028038495367524
0.00225407299031578
0.00176116192416981
0.00131569590023964
0.000891206300278367
0.000476045572217067
0.000130769190362584
0.00595519125446955
0.00554633528005475
0.00507247310454322
0.00454109703135766
0.00396918027274098
0.00338248863884133
0.00281104933269824
0.00227860954513049
0.00179110505134727
0.00133466206900165