/*--------------------------------*- C++ -*----------------------------------*\
  =========                 |
  \\      /  F ield         | OpenFOAM: The Open Source CFD Toolbox
   \\    /   O peration     | Website:  https://openfoam.org
    \\  /    A nd           | Version:  12
     \\/     M anipulation  |
\*---------------------------------------------------------------------------*/
/*   Windows 32 and 64 bit porting by blueCAPE: http://www.bluecape.com.pt   *\
|  Based on Windows porting (2.0.x v4) by Symscape: http://www.symscape.com   |
\*---------------------------------------------------------------------------*/
FoamFile
{
    format      ascii;
    class       volScalarField;
    location    "300";
    object      p;
}
// * * * * * * * * * * * * * * * * * * * * * * * * * * * * * * * * * * * * * //

dimensions      [0 2 -2 0 0 0 0];

internalField   nonuniform List<scalar> 
10107
(
83333.3319659753
83333.332626925
83333.3320605621
83333.3319405557
83333.3329352615
83333.3325212989
83333.3324726834
83333.3323595473
83333.3320484026
83333.3320264215
83333.333158664
83333.3328331029
83333.3327011186
83333.3325811338
83333.3324816815
83333.3323555374
83333.3324376099
83333.3325806625
83333.3325720945
83333.3323061877
83333.3320929334
83333.3321148522
83333.3319841669
83333.3321246758
83333.3320696773
83333.3328867564
83333.3329553268
83333.3326627254
83333.3326995841
83333.3326533697
83333.3325854663
83333.3326203799
83333.3326120417
83333.3324538345
83333.33243989
83333.332444448
83333.3324445469
83333.3324345509
83333.3323751292
83333.3326746902
83333.3327456944
83333.332614542
83333.3327875482
83333.3325316833
83333.3324156533
83333.3324027395
83333.3321744827
83333.3323271243
83333.3321170804
83333.3322115922
83333.3321328363
83333.3327564119
83333.3328749642
83333.3328127404
83333.332711732
83333.332716112
83333.3327714232
83333.3327034015
83333.3328180258
83333.3326271166
83333.3327209727
83333.332460551
83333.3320259797
83333.3327503541
83333.3324562925
83333.3324497748
83333.3322957017
83333.3328565061
83333.3328293034
83333.3326770603
83333.3329372618
83333.3327277104
83333.3326409274
83333.3328734925
83333.3327267055
83333.3325674758
83333.332447669
83333.3323704584
83333.3321599297
83333.3321897606
83333.3328629756
83333.3329164327
83333.3328301164
83333.3329819919
83333.3328870004
83333.3327127946
83333.332835744
83333.3328901061
83333.3330828007
83333.3327944678
83333.3326958425
83333.3319816727
83333.3321864865
83333.3323865833
83333.3326815345
83333.3324329288
83333.3331416833
83333.3329792559
83333.3328452769
83333.3330191997
83333.3328102171
83333.3327136075
83333.3330458938
83333.3328902405
83333.3327109692
83333.3324857891
83333.3327944771
83333.3327981722
83333.3326848461
83333.3325281366
83333.3327959896
83333.3329985752
83333.3328781446
83333.3330961662
83333.332952427
83333.3328540624
83333.3327358024
83333.3328140951
83333.3331481203
83333.3330563336
83333.3328877338
83333.3319754825
83333.3320735468
83333.332265598
83333.3323137822
83333.3327664524
83333.3333471693
83333.3332527227
83333.3330359262
83333.3331566362
83333.3329605231
83333.3329082392
83333.3331377574
83333.3329768768
83333.3328250531
83333.3325467834
83333.3330069647
83333.3329793612
83333.3328315465
83333.3326308253
83333.3323410835
83333.3327492181
83333.3327219075
83333.3326064491
83333.3324195548
83333.3328360342
83333.332885262
83333.3330561495
83333.3329103791
83333.3331064471
83333.3331422076
83333.3328611281
83333.3327794917
83333.3333765518
83333.3330176889
83333.3331995472
83333.3320060738
83333.3320428356
83333.3321923986
83333.3322055816
83333.3322965395
83333.3328867913
83333.3333862053
83333.3334683119
83333.3331524819
83333.3333761552
83333.3331609982
83333.3330927662
83333.3333000016
83333.3331267785
83333.3330007474
83333.3327200457
83333.3331626586
83333.3330981141
83333.3329400746
83333.3327214849
83333.3324159431
83333.3329564063
83333.3329002894
83333.3327402654
83333.3325116647
83333.332259523
83333.3326886532
83333.3326264807
83333.3324877403
83333.3323075273
83333.332769167
83333.3327539951
83333.3333621608
83333.3324541451
83333.3333291368
83333.3328933195
83333.3325580777
83333.3326614193
83333.3334473112
83333.3330902349
83333.3329627061
83333.3320353664
83333.3320580508
83333.3321507196
83333.3321394187
83333.3322731043
83333.3324618837
83333.3328759014
83333.3333312602
83333.3334796493
83333.3331416818
83333.3335385951
83333.3333361807
83333.3330642106
83333.3334895232
83333.3333238914
83333.3331415805
83333.3328873678
83333.3333355901
83333.3332608163
83333.3331126792
83333.332884
83333.3325396271
83333.333061642
83333.333123342
83333.3330394994
83333.3328452528
83333.3326025289
83333.3323363478
83333.3328843584
83333.3327946782
83333.332613613
83333.3323952478
83333.3322120745
83333.3326060674
83333.3325123599
83333.3323710093
83333.3322232175
83333.3320781102
83333.3313580799
83333.3327455489
83333.3330255151
83333.3334055499
83333.3330373482
83333.332823919
83333.3328377166
83333.3331011883
83333.3332495045
83333.3328871004
83333.3320455983
83333.3320800097
83333.332117848
83333.3321269486
83333.3322268733
83333.3323647468
83333.3323231979
83333.3328301772
83333.3330826046
83333.3334127205
83333.333208095
83333.3335522247
83333.3333177197
83333.3329628994
83333.3336100784
83333.3334871173
83333.3332425133
83333.3328880578
83333.3334859232
83333.3334330748
83333.3332723679
83333.3330089268
83333.3326084348
83333.3332197513
83333.3332950597
83333.3332183774
83333.3329998575
83333.3327286298
83333.3324289579
83333.3329060873
83333.3330284286
83333.3330537986
83333.3329377201
83333.3327217743
83333.3324886532
83333.3322827878
83333.3327843953
83333.3326637196
83333.3324861505
83333.3323064348
83333.3321748609
83333.3325072641
83333.3324017416
83333.3322766763
83333.3321618931
83333.3325960333
83333.3326945138
83333.3329838194
83333.3339873453
83333.3331398138
83333.3332237729
83333.3328103813
83333.3326630687
83333.3330743854
83333.3330218015
83333.3329944646
83333.3320429726
83333.3320871626
83333.332089025
83333.3321296287
83333.3321954023
83333.3322916945
83333.3323739103
83333.3325775961
83333.3328822466
83333.333115295
83333.3332477035
83333.3329746046
83333.3335198717
83333.3333074688
83333.3329912698
83333.3336349494
83333.3334736642
83333.3331939642
83333.332819787
83333.3335733398
83333.3335551778
83333.3334164411
83333.3330994447
83333.3326590848
83333.3333385575
83333.3334383568
83333.3333606916
83333.3331272546
83333.3328142065
83333.3324852608
83333.3330381138
83333.3331830652
83333.3332260416
83333.3331044645
83333.3328506217
83333.332593214
83333.3323602582
83333.3327558875
83333.332882916
83333.332968605
83333.3329444641
83333.3328001445
83333.3325936181
83333.3323941022
83333.3322374642
83333.3326636202
83333.3325325879
83333.3323785467
83333.3322377019
83333.3321428306
83333.3324073358
83333.332306841
83333.33220341
83333.3321165499
83333.3325528725
83333.3327153441
83333.33298102
83333.3332528249
83333.3330752745
83333.3330388919
83333.3329158775
83333.3328751364
83333.3332145938
83333.3330007636
83333.3329691325
83333.3320338951
83333.3320841199
83333.3320648324
83333.3321296727
83333.3321812808
83333.3322497679
83333.3323293353
83333.3324731793
83333.3326419748
83333.3329258627
83333.3332629955
83333.3332226487
83333.333021755
83333.333413527
83333.3331604563
83333.3329197247
83333.3336183528
83333.3334368351
83333.3331697122
83333.3328507912
83333.333586962
83333.3335720902
83333.3333832248
83333.3330500632
83333.3326718195
83333.3334052027
83333.3335265427
83333.3334840687
83333.3332483361
83333.3328819519
83333.3325373085
83333.3331365484
83333.3332995611
83333.3333536158
83333.3332249129
83333.3329459898
83333.3326643804
83333.3324135155
83333.3328636571
83333.3330122744
83333.3331174243
83333.3331032716
83333.332941182
83333.3327076626
83333.3324867164
83333.3323048149
83333.3326275755
83333.3327398209
83333.3328384808
83333.3328753924
83333.3328072271
83333.3326556343
83333.3324780635
83333.3323160785
83333.3321989076
83333.3325402285
83333.3324177597
83333.3322914621
83333.3321830543
83333.3321148989
83333.3323175
83333.3322294182
83333.3321467736
83333.3320820382
83333.3328205327
83333.3327495299
83333.3331083197
83333.3331083111
83333.3332017086
83333.3330104864
83333.3329748034
83333.3330597195
83333.3330994349
83333.3331694766
83333.332930724
83333.3320227366
83333.3320743688
83333.3320443889
83333.3321252509
83333.332175201
83333.3322314393
83333.3322944406
83333.3323864779
83333.3325195269
83333.3326165395
83333.3330006327
83333.3331334439
83333.3332930859
83333.3331919445
83333.3333812722
83333.3331472134
83333.3329372497
83333.3335247072
83333.3333487074
83333.3330926899
83333.3328434486
83333.333560759
83333.3335548598
83333.3333321211
83333.3330341525
83333.3327203419
83333.3334163581
83333.333536984
83333.3334751245
83333.3332308477
83333.332887963
83333.3325842089
83333.3331945521
83333.3333673562
83333.3334442841
83333.3333342873
83333.3330313383
83333.3327223692
83333.3324639651
83333.3329460422
83333.3331089562
83333.3332277397
83333.3332176988
83333.3330412708
83333.3327886787
83333.332549156
83333.3323540269
83333.3327158247
83333.3328455764
83333.3329628384
83333.3330127751
83333.3329427414
83333.3327758669
83333.3325758828
83333.3323941347
83333.3322572258
83333.3325207734
83333.3326160554
83333.3327079
83333.3327681176
83333.3327577744
83333.332665137
83333.3325246725
83333.3323784765
83333.332250871
83333.3321655596
83333.3324287236
83333.332322519
83333.3322215304
83333.3321396868
83333.3320901492
83333.3322415945
83333.3321676153
83333.3321029439
83333.3320553029
83333.3330167975
83333.3330854858
83333.3330535977
83333.3331209183
83333.3331437284
83333.3331739135
83333.3330118308
83333.3330805122
83333.3330633722
83333.333083928
83333.3330826307
83333.3330371371
83333.3320118706
83333.3320615252
83333.3320275968
83333.3321144655
83333.332168999
83333.3322226584
83333.332279554
83333.3323494296
83333.3324165126
83333.3325197882
83333.3326897528
83333.3328975648
83333.3328505157
83333.3331985429
83333.3331315382
83333.3333794139
83333.3332166781
83333.3331713404
83333.33309931
83333.3334265907
83333.3333294675
83333.3330812993
83333.3329446497
83333.3328368979
83333.3334785683
83333.3334736929
83333.3332643419
83333.3330093341
83333.332729162
83333.3333896339
83333.3335116713
83333.3334463999
83333.33319925
83333.3328984701
83333.332625123
83333.3332107962
83333.3333785507
83333.333446414
83333.3333257484
83333.3330400604
83333.3327474794
83333.3325123146
83333.3329981335
83333.333166741
83333.3332961407
83333.3333027339
83333.3331258951
83333.3328562248
83333.3326021088
83333.332405314
83333.3327847943
83333.3329264948
83333.3330559166
83333.3331148565
83333.3330428742
83333.3328640915
83333.3326474083
83333.3324506025
83333.3323037768
83333.3325938113
83333.3327028345
83333.3328099351
83333.3328839632
83333.3328787834
83333.3327801908
83333.3326252779
83333.3324613714
83333.3323167927
83333.3322164931
83333.3324320855
83333.3325123172
83333.3325928591
83333.3326566149
83333.3326768585
83333.3326333615
83333.3325349471
83333.332413145
83333.3322954866
83333.3321976411
83333.3321357932
83333.3323340936
83333.3322453088
83333.3321660501
83333.3321054078
83333.3320690671
83333.3321794155
83333.3321188628
83333.3320690559
83333.3320343475
83333.3330601976
83333.3330788246
83333.3329711835
83333.3330949945
83333.3330625151
83333.3330688475
83333.3329308379
83333.332708314
83333.3330670247
83333.3328252333
83333.3330456425
83333.3331403111
83333.3329444831
83333.3330224077
83333.3329734263
83333.3320024928
83333.3320487158
83333.3320141188
83333.3320995152
83333.3321557724
83333.3322131558
83333.3322691899
83333.3323317642
83333.3323735832
83333.3324192817
83333.3325364481
83333.3327879504
83333.3326835424
83333.3330026233
83333.3327847732
83333.3332408247
83333.3331216658
83333.3330170845
83333.3331108683
83333.3331012668
83333.3333469486
83333.333322713
83333.3330805912
83333.3330442486
83333.3330245717
83333.3329985707
83333.3329978191
83333.333370108
83333.3333859387
83333.3332485184
83333.3330182913
83333.332999364
83333.3328863882
83333.3327208613
83333.3328454353
83333.3333246614
83333.3334362954
83333.3333800733
83333.3331596902
83333.3328952078
83333.3326447358
83333.3331936893
83333.3333537071
83333.3334191979
83333.3332981154
83333.3330374832
83333.3327665071
83333.3325417816
83333.3330186415
83333.3331830574
83333.3333066587
83333.3333061725
83333.3331344554
83333.3328731692
83333.3326295979
83333.3324431986
83333.3328309548
83333.3329779521
83333.3331130745
83333.3331807575
83333.3331149906
83333.3329319414
83333.3327049238
83333.3325005411
83333.3323501826
83333.3326519483
83333.3327707338
83333.3328882073
83333.3329714892
83333.332970317
83333.3328678582
83333.3327024669
83333.33252448
83333.3323683779
83333.332260161
83333.3324933366
83333.3325843304
83333.3326769304
83333.3327526215
83333.3327810004
83333.3327379019
83333.3326319719
83333.3324971867
83333.3323649513
83333.3322534785
83333.3321807407
83333.3323583996
83333.3324257824
83333.3324951879
83333.3325552169
83333.3325882981
83333.3325766178
83333.332516306
83333.3324230666
83333.3323210972
83333.3322282383
83333.3321550628
83333.332109968
83333.33225625
83333.3321837028
83333.3321225105
83333.3320782548
83333.3320518934
83333.3321292975
83333.3320807966
83333.3320430995
83333.3320182909
83333.3330088237
83333.3331059851
83333.3328503872
83333.332892893
83333.3326047701
83333.3326527954
83333.3328892745
83333.3328452279
83333.3329324238
83333.3329091508
83333.3319959573
83333.3320372233
83333.332003817
83333.3320842552
83333.3321376484
83333.3321955094
83333.3322539143
83333.3323131488
83333.3323606284
83333.3323912513
83333.3324219201
83333.3325702491
83333.3327375334
83333.3326202682
83333.3328083869
83333.3326746426
83333.3330420466
83333.3329470759
83333.3326938057
83333.3326975215
83333.3328015847
83333.3329097247
83333.3331783503
83333.333174498
83333.3330055007
83333.3329794598
83333.3329747886
83333.3332513681
83333.33329722
83333.3332030177
83333.3329959843
83333.332935078
83333.3330056274
83333.3329759839
83333.3329633412
83333.3332334056
83333.3333331158
83333.3333028109
83333.3331366857
83333.3328933907
83333.3329247005
83333.3326481638
83333.3327383614
83333.33275163
83333.3331470257
83333.3332924126
83333.3333543082
83333.3332485838
83333.3330174278
83333.3327720119
83333.3325648349
83333.333011353
83333.3331672258
83333.3332840986
83333.3332828835
83333.3331232378
83333.3328806974
83333.3326491153
83333.3324706315
83333.3328531551
83333.3329983938
83333.3331296391
83333.3331938251
83333.333129443
83333.3329492756
83333.3327275498
83333.3325280491
83333.332382187
83333.3326926908
83333.3328163577
83333.3329386388
83333.3330269553
83333.3330307087
83333.3329293776
83333.3327593831
83333.3325742266
83333.3324130781
83333.3323002283
83333.3325428953
83333.3326417411
83333.3327429047
83333.3328268608
83333.3328610375
83333.3328188545
83333.3327080405
83333.3325635661
83333.3324203832
83333.3322999364
83333.3322204802
83333.3324105356
83333.3324863229
83333.3325652688
83333.3326350192
83333.332676088
83333.3326680766
83333.3326053631
83333.332504221
83333.3323909886
83333.3322863042
83333.3322025461
83333.3321498024
83333.3323536685
83333.3324129617
83333.3324671354
83333.3325040538
83333.3325104035
83333.3324785567
83333.3324132816
83333.3323302418
83333.3322467926
83333.3321747927
83333.3321213013
83333.3320887141
83333.3321933479
83333.332135303
83333.332089021
83333.3320573168
83333.3320384202
83333.3320894061
83333.3320515298
83333.3320237701
83333.3320066444
83333.3329607549
83333.3325738142
83333.3325957468
83333.3326104501
83333.3329068308
83333.3329543464
83333.331992409
83333.3320285186
83333.3319970053
83333.3320705235
83333.332119196
83333.3321733334
83333.3322304227
83333.3322883181
83333.3323468949
83333.3323845678
83333.3324010951
83333.3324475593
83333.3325687174
83333.3325940211
83333.3325610296
83333.332684299
83333.3326210302
83333.3328474703
83333.3327774959
83333.3326655975
83333.332989154
83333.3329880072
83333.3328609619
83333.3327311247
83333.3328622041
83333.3329105173
83333.3330918162
83333.3331317281
83333.3330711758
83333.3329269781
83333.3329392423
83333.3331235068
83333.3332141719
83333.3332036081
83333.3330760604
83333.3328689738
83333.3328532978
83333.3328047523
83333.3328768477
83333.3330777902
83333.333204665
83333.3332611397
83333.3331812085
83333.3329882975
83333.3327624228
83333.3325671076
83333.3326429662
83333.332684834
83333.3326782543
83333.3329801809
83333.3331228191
83333.3332293052
83333.3332309009
83333.3330892487
83333.3328702717
83333.3326567079
83333.3324902768
83333.3328531049
83333.3329919132
83333.3331159502
83333.3331765011
83333.3331179579
83333.3329488753
83333.3327391719
83333.3325472023
83333.3324090193
83333.3327150621
83333.3328384955
83333.3329591828
83333.3330451747
83333.3330494075
83333.3329506996
83333.3327825713
83333.3325995041
83333.3324396916
83333.3323285712
83333.3325790892
83333.3326821003
83333.3327876184
83333.3328757015
83333.3329135033
83333.332873501
83333.3327615559
83333.3326124039
83333.3324635574
83333.3323386411
83333.3322551406
83333.3324532743
83333.3325353949
83333.3326213202
83333.3326980472
83333.3327449015
83333.3327398613
83333.332676032
83333.332569386
83333.3324476432
83333.3323342433
83333.3322434645
83333.3321854799
83333.3324052626
83333.3324721202
83333.3325341707
83333.332578069
83333.3325888909
83333.3325576109
83333.3324884029
83333.3323977795
83333.3323049137
83333.3322235781
83333.3321622338
83333.3321242531
83333.3323439786
83333.33239177
83333.3324283911
83333.3324439558
83333.332431115
83333.3323891409
83333.3323259993
83333.3322548941
83333.3321880591
83333.3321335818
83333.3320952411
83333.3320719082
83333.3321432618
83333.3320980166
83333.3320639148
83333.3320418016
83333.3320289212
83333.332058187
83333.3320295733
83333.3320100366
83333.3319991412
83333.3325303043
83333.332576062
83333.3325684372
83333.3327226552
83333.3319918986
83333.3320230812
83333.3319937008
83333.3320595984
83333.3321028001
83333.3321514474
83333.3322039605
83333.3322579467
83333.3323188242
83333.3323717081
83333.3323925487
83333.3324170842
83333.3324734174
83333.3325483592
83333.3325430103
83333.3325037115
83333.3325899004
83333.3325595675
83333.332706575
83333.3326658378
83333.3326046122
83333.3328231479
83333.3328169692
83333.3327371803
83333.3326286801
83333.3329285254
83333.3329552947
83333.3329090078
83333.332800289
83333.3329927329
83333.3330612369
83333.3330552481
83333.3329630685
83333.3328027968
83333.3329907894
83333.3330974047
83333.3331461936
83333.3330863037
83333.3329322911
83333.3327350259
83333.3329300378
83333.3330560265
83333.3331485934
83333.333151948
83333.333033059
83333.3328423796
83333.3326445796
83333.3324912514
83333.3325633432
83333.3326118305
83333.3326275469
83333.3328337747
83333.3329621996
83333.3330756121
83333.3331310718
83333.3330800404
83333.3329268325
83333.3327342962
83333.3325548443
83333.3324259155
83333.3327199119
83333.3328389581
83333.3329541768
83333.3330354357
83333.3330404348
83333.3329483455
83333.3327883307
83333.3326124719
83333.3324577817
83333.3323526606
83333.3326010225
83333.3327044261
83333.3328097591
83333.3328969181
83333.332934494
83333.3328960972
83333.3327860074
83333.3326375071
83333.3324885043
83333.3323637634
83333.3322805221
83333.3324856422
83333.3325713235
83333.3326609874
83333.332741395
83333.3327914524
83333.3327886359
83333.3327252264
83333.3326162603
83333.3324898922
83333.3323715343
83333.3322771637
83333.3322161825
83333.3323793153
83333.3324476686
83333.332520232
83333.3325880892
83333.3326371351
83333.3326514589
83333.3326210317
83333.3325493759
83333.3324532032
83333.3323531473
83333.3322649732
83333.332198184
83333.3321562823
83333.3323945451
83333.3324487299
83333.332491284
83333.3325112303
83333.3325001788
83333.3324568087
83333.3323890923
83333.3323111861
83333.3322367174
83333.3321751304
83333.3321311674
83333.3321040907
83333.3323277896
83333.3323620903
83333.3323818226
83333.3323806939
83333.3323561007
83333.3323110188
83333.3322537928
83333.3321948357
83333.3321427642
83333.3321026378
83333.332075792
83333.3320596657
83333.3321040789
83333.3320699279
83333.3320457627
83333.3320312524
83333.3320234965
83333.3320343497
83333.33201378
83333.3320011803
83333.3319954317
83333.3324862506
83333.3325367383
83333.3325598169
83333.3319947542
83333.3320215003
83333.3319936473
83333.3320522217
83333.3320894553
83333.3321322997
83333.3321792534
83333.3322278853
83333.3322834243
83333.3323440839
83333.3323782172
83333.3324035005
83333.3324355886
83333.3324912974
83333.3325204385
83333.3325301372
83333.3324533643
83333.3325172492
83333.3325016731
83333.332603202
83333.332579982
83333.3325464963
83333.3326972078
83333.3326898341
83333.3326380759
83333.3325766122
83333.3327879815
83333.3328037903
83333.33276925
83333.3326905182
83333.3325831948
83333.3328604609
83333.3329070297
83333.3329000868
83333.3328282592
83333.3327114053
83333.3328898406
83333.3329715032
83333.3330065987
83333.3329601444
83333.3328419755
83333.3326820214
83333.3328647571
83333.3329715845
83333.3330475931
83333.3330493255
83333.3329527845
83333.3327937722
83333.332620439
83333.3327986956
83333.3329137862
83333.3330136497
83333.3330612995
83333.3330168845
83333.3328827048
83333.33271069
83333.3325454401
83333.3324277749
83333.3324850854
83333.3325407216
83333.3325700765
83333.3327092957
83333.3328205718
83333.3329271274
83333.3330013603
83333.3330062579
83333.3329225945
83333.3327750729
83333.3326112719
83333.3324659216
83333.3323690211
83333.3326091348
83333.3327095991
83333.332811185
83333.3328944483
83333.3329303534
83333.3328945432
83333.3327897565
83333.3326466225
83333.3325020466
83333.3323812491
83333.3323020399
83333.3325068714
83333.3325932246
83333.332683276
83333.3327637283
83333.3328137999
83333.3328117411
83333.3327497084
83333.3326415066
83333.3325146126
83333.3323953247
83333.3323007528
83333.3322394188
83333.332408424
83333.3324798511
83333.3325556576
83333.3326266839
83333.3326786189
83333.3326951514
83333.332665745
83333.3325933176
83333.3324942259
83333.3323899109
83333.3322977893
83333.3322281235
83333.3321838397
83333.332317913
83333.3323750721
83333.3324362512
83333.3324952899
83333.3325423017
83333.3325656317
83333.3325562329
83333.3325122203
83333.3324413544
83333.3323583117
83333.3322779875
83333.3322111405
83333.3321631414
83333.3321331289
83333.3323767253
83333.3324160318
83333.3324397878
83333.3324409222
83333.3324162682
83333.3323686976
83333.3323068945
83333.332242152
83333.3321841126
83333.3321387598
83333.3321079643
83333.3320891472
83333.3323048164
83333.332325749
83333.3323314697
83333.3323188593
83333.3322884135
83333.3322446745
83333.3321951816
83333.3321478967
83333.3321086192
83333.3320801026
83333.3320622329
83333.3320520134
83333.332074098
83333.3320494648
83333.3320335361
83333.3320251949
83333.3320219574
83333.3320168542
83333.3320032944
83333.3319965303
83333.3319948155
83333.332444407
83333.3324888343
83333.3325319681
83333.3319992063
83333.3320235581
83333.331996146
83333.332049182
83333.3320801546
83333.3321166547
83333.3321576998
83333.3322013179
83333.332249466
83333.3323054413
83333.3323510528
83333.3323841304
83333.3324134905
83333.3324465545
83333.3324850416
83333.3324989133
83333.3325067203
83333.3324104237
83333.3324602378
83333.3324511351
83333.3325250916
83333.3325114122
83333.3324931983
83333.3325985822
83333.332593738
83333.3325615874
83333.3325232838
83333.332674735
83333.3326851286
83333.3326610179
83333.3326036716
83333.3325376647
83333.3327428107
83333.3327740035
83333.3327681017
83333.3327147946
83333.3326274169
83333.3325307966
83333.3327861858
83333.3328449154
83333.3328671667
83333.3328303373
83333.3327400026
83333.3326184694
83333.3327887934
83333.3328740078
83333.3329310594
83333.3329287811
83333.3328519884
83333.3327252267
83333.3325820151
83333.3327511098
83333.3328505012
83333.3329343973
83333.3329716771
83333.3329323334
83333.3328190277
83333.3326722338
83333.3325268482
83333.3326857671
83333.3327867023
83333.3328820595
83333.3329469634
83333.3329498975
83333.3328749429
83333.3327428792
83333.3325945718
83333.3324613098
83333.3323725006
83333.3324238058
83333.3324701982
83333.3325098581
83333.3326048368
83333.3326995986
83333.3327945654
83333.332871537
83333.3329042761
83333.3328711235
83333.3327739916
83333.33264025
83333.3325041435
83333.332390895
83333.3323180682
83333.3325171224
83333.3326015429
83333.3326890692
83333.3327667471
83333.332814835
83333.3328130735
83333.3327538434
83333.3326494755
83333.3325259525
83333.3324094942
83333.3323180851
83333.3322586621
83333.3324287924
83333.3325010606
83333.33257751
83333.3326489754
83333.3327012952
83333.3327184049
83333.3326898857
83333.3326182063
83333.3325189619
83333.3324135748
83333.3323204818
83333.3322505999
83333.3322055905
83333.332344264
83333.3324040398
83333.3324680629
83333.3325298979
83333.3325794267
83333.3326048209
83333.3325966906
83333.3325527207
83333.3324803331
83333.3323942924
83333.3323104143
83333.3322405102
83333.3321902709
83333.3321581587
83333.3322666052
83333.332314655
83333.3323663697
83333.3324172852
83333.3324604462
83333.3324873255
83333.3324903492
83333.3324659724
83333.3324168268
83333.3323517008
83333.332282508
83333.3322198547
83333.3321705835
83333.3321368565
83333.3321158105
83333.3323515047
83333.3323760347
83333.332384146
83333.332372235
83333.3323405757
83333.3322939037
83333.3322402319
83333.3321882575
83333.3321444759
83333.332112216
83333.3320915999
83333.3320794578
83333.3322762397
83333.3322855938
83333.3322808957
83333.332261395
83333.3322293338
83333.3321895961
83333.3321485324
83333.3321119845
83333.3320836116
83333.332064606
83333.3320538914
83333.3320487992
83333.3320519078
83333.332035447
83333.3320263341
83333.3320228258
83333.3320235386
83333.3320048584
83333.331997307
83333.3319950728
83333.3319963766
83333.3324058363
83333.3324434352
83333.3324893136
83333.3320012692
83333.3320267452
83333.3319997272
83333.3320498765
83333.3320754995
83333.332105608
83333.3321401432
83333.332178134
83333.3322196759
83333.3322671882
83333.3323141514
83333.3323560496
83333.3323874115
83333.332413758
83333.3324448698
83333.332466427
83333.3324755993
83333.3324719484
83333.3323744715
83333.3324144525
83333.3324082026
83333.332464557
83333.3324564262
83333.3324453728
83333.3325220219
83333.3325192432
83333.3324999424
83333.3324758274
83333.3325838196
83333.3325911016
83333.3325755528
83333.3325363977
83333.3324934766
83333.3326439785
83333.3326654814
83333.3326615832
83333.3326233531
83333.3325590107
83333.332494114
83333.3326904367
83333.3327319547
83333.3327463713
83333.3327190779
83333.3326514446
83333.3325605066
83333.3324802873
83333.332709305
83333.3327740868
83333.3328143688
83333.3328091573
83333.3327494395
83333.3326512907
83333.3325394423
83333.3326948383
83333.3327768725
83333.3328432544
83333.3328693321
83333.3328345276
83333.3327422924
83333.3326223723
83333.3325010568
83333.3326519286
83333.3327405504
83333.3328226161
83333.3328762048
83333.3328756948
83333.3328097898
83333.3326960706
83333.3325674925
83333.3324500408
83333.3325899753
83333.3326768939
83333.3327630174
83333.3328316725
83333.3328596487
83333.3328285675
83333.3327404658
83333.3326191469
83333.3324948751
83333.3323909459
83333.3323237629
83333.3323716649
83333.3324145944
83333.3324514553
83333.3325173684
83333.3325976491
83333.3326802405
83333.3327528815
83333.3327973406
83333.3327952696
83333.3327397512
83333.3326417624
83333.3325251146
83333.3324149216
83333.3323293274
83333.3322729841
83333.3324403978
83333.3325114482
83333.332586225
83333.3326557739
83333.3327064824
83333.3327231033
83333.3326957454
83333.3326264791
83333.3325298393
83333.3324265481
83333.3323353629
83333.3322675991
83333.3322230163
83333.3323636741
83333.3324243858
83333.3324892268
83333.3325516812
83333.3326017386
83333.3326277328
83333.3326203023
83333.332576942
83333.3325046772
83333.3324179717
83333.3323329948
83333.3322622897
83333.3322116073
83333.3321785747
83333.3322906898
83333.3323408942
83333.3323950441
83333.3324484676
83333.3324939092
83333.3325226367
83333.3325269491
83333.3325030299
83333.3324532219
83333.3323862414
83333.3323143361
83333.3322488597
83333.3321972724
83333.332161761
83333.3321390148
83333.3322235251
83333.3322640565
83333.3323079351
83333.3323517692
83333.332390456
83333.3324178305
83333.3324278948
83333.3324167153
83333.3323844072
83333.3323357109
83333.3322789153
83333.3322232794
83333.3321759803
83333.3321408707
83333.3321181642
83333.3321044717
83333.3323201713
83333.3323318682
83333.3323282883
83333.3323084307
83333.3322745508
83333.3322318778
83333.3321872469
83333.3321470585
83333.3321153967
83333.3320937856
83333.3320812226
83333.3320748204
83333.3322440906
83333.3322443413
83333.3322326775
83333.3322099265
83333.3321791262
83333.3321448701
83333.3321122279
83333.3320852988
83333.3320662105
83333.3320549961
83333.332049799
83333.3320492843
83333.3320363804
83333.3320268181
83333.3320229623
83333.3320232678
83333.3320262504
83333.3319975576
83333.33199472
83333.3319957867
83333.3319995889
83333.3323721108
83333.3324036892
83333.3324436606
83333.3320284361
83333.3320013139
83333.3320517386
83333.3320749432
83333.3320995455
83333.3321277127
83333.3321593714
83333.332194454
83333.3322339468
83333.3322776929
83333.3323188368
83333.3323570558
83333.3323836169
83333.3324077034
83333.3324307459
83333.3324438272
83333.3324463843
83333.3324330943
83333.3323445297
83333.3323771538
83333.3323724824
83333.3324168163
83333.3324116611
83333.332403885
83333.3324623264
83333.3324606772
83333.3324488385
83333.3324333695
83333.3325120237
83333.332517203
83333.3325074435
83333.3324819281
83333.3324524964
83333.3325626479
83333.3325777799
83333.332575528
83333.3325493041
83333.3325040642
83333.3324589917
83333.3326068616
83333.3326364418
83333.3326463802
83333.3326269614
83333.332577675
83333.332510653
83333.3324513389
83333.3326333517