/*--------------------------------*- C++ -*----------------------------------*\
  =========                 |
  \\      /  F ield         | OpenFOAM: The Open Source CFD Toolbox
   \\    /   O peration     | Website:  https://openfoam.org
    \\  /    A nd           | Version:  12
     \\/     M anipulation  |
\*---------------------------------------------------------------------------*/
/*   Windows 32 and 64 bit porting by blueCAPE: http://www.bluecape.com.pt   *\
|  Based on Windows porting (2.0.x v4) by Symscape: http://www.symscape.com   |
\*---------------------------------------------------------------------------*/
FoamFile
{
    format      ascii;
    class       surfaceScalarField;
    location    "300";
    object      phi;
}
// * * * * * * * * * * * * * * * * * * * * * * * * * * * * * * * * * * * * * //

dimensions      [0 3 -1 0 0 0 0];

internalField   nonuniform List<scalar> 
28758
(
-5.5410177909774e-05
2.46166821034019e-05
4.22595432011387e-06
-8.690419190485e-05
2.7384351445951e-05
4.10964964439174e-06
-3.51753261785852e-05
-1.20836650385057e-06
-6.15069166982885e-05
1.61865892579553e-05
-0.000113817247064861
1.59341021176387e-05
1.09789262352172e-05
8.831309221502e-05
-7.5410629206136e-05
1.5083878432028e-05
-6.02014803266859e-07
-9.26239743498207e-05
1.72323204511211e-05
1.79943687403733e-05
-1.5699050816052e-05
6.50240758093231e-05
3.81271716103753e-06
-4.11754595457114e-06
-2.46435013469116e-06
2.02359650708619e-06
3.34992352120297e-06
7.30959468883038e-06
1.33475210261334e-06
3.42468478570753e-06
7.28297795119294e-06
5.74714449674905e-06
-8.18444341532937e-05
1.88044672339089e-05
3.56340577468541e-06
-9.41069448787935e-05
-5.55607718925381e-07
1.3017465550668e-05
9.53954302381785e-05
-9.20673657219548e-05
9.55917598559836e-06
2.19661921199872e-06
-2.89269881943913e-06
-7.24393529876314e-06
2.73788700915001e-06
6.7967184559275e-06
-7.27265524210005e-05
7.08957670957807e-06
2.46884784981245e-05
-8.00187748555095e-07
7.67344943320587e-06
8.2283824366181e-06
-3.58536035613574e-06
7.7802379342354e-05
5.47932496909749e-06
-2.29613175569309e-05
4.0914381873415e-05
1.05817959563547e-05
-1.34733856093233e-06
-5.32240358280591e-06
2.06942523676076e-06
8.4130200952627e-06
-1.36513805158409e-06
-1.77905410089103e-06
6.79839619365543e-07
2.43946179305833e-06
-2.42945650590328e-06
-4.33618367406874e-06
-7.18232529267658e-06
-1.21390875019292e-06
1.18352103484733e-06
-2.09254383951765e-06
4.82705596812113e-06
2.75030661186798e-06
4.4639142716183e-06
7.58275161820376e-06
-8.57081306968601e-05
1.08928693094109e-05
1.55233676163136e-06
3.82309105143447e-05
-7.38359139599816e-05
1.73265773791134e-05
2.12862081333055e-05
-7.30848574266595e-05
6.90127718743071e-06
6.47447187531639e-06
7.05000696503434e-05
-6.67044837459782e-05
1.24433073735703e-05
-6.67973640153856e-06
-1.51227625271351e-05
9.01394939132442e-05
-9.11674978106842e-05
1.51885980294839e-05
3.15876412730499e-06
1.60144592674255e-05
1.41723176232558e-05
-1.94673760825817e-06
5.57630851582985e-06
-1.66022385983341e-07
5.73546962227937e-06
1.22726866822922e-06
5.91640221059612e-06
-0.000106252196215819
0.000111915587421114
-4.49023189350793e-06
-1.23849633240323e-05
-7.55564660107255e-05
4.55465529343584e-06
0.000113991632664014
7.51405135826326e-06
1.47803174514973e-06
6.58432665095325e-06
4.57389560565491e-06
6.06810889714767e-05
1.65969352039941e-06
-7.09373965348964e-06
5.08639084696473e-05
1.10708598185642e-05
5.35775155496534e-06
7.76578936758383e-06
7.46667512550068e-05
7.82848840783363e-06
-1.44584738211069e-05
2.22647553271243e-05
1.09664954233439e-05
-3.34874671558603e-05
-2.91327334118548e-05
2.98804816909373e-05
7.26039313207821e-06
1.35795332454622e-05
-9.61362990637215e-06
4.45013018417649e-08
-2.9947674063449e-07
7.12539850343662e-07
-1.58011373600813e-06
1.87048155900026e-06
-9.37410004113502e-06
-2.12082764406945e-06
-1.58962691818865e-06
-2.06671858145763e-06
-5.45525700345369e-06
2.6612342553832e-06
-2.49865050552911e-06
3.3345014100939e-06
7.62443183821731e-06
9.58944321058678e-06
8.00415761974551e-06
4.15780778899977e-06
8.95027990146113e-07
-6.65675972817965e-05
2.01403969015107e-05
-9.38443567772864e-06
-8.60695720586899e-05
1.5226626835544e-05
-1.44566946701646e-06
7.44085628210333e-06
-7.0964703169619e-05
1.61548435373915e-05
-9.33397631340088e-05
1.00286976641722e-06
3.33621203338123e-05
-3.02840061023901e-05
1.54666554792209e-05
-6.10147129301102e-06
6.11079174177194e-05
-6.18054570817173e-05
1.89427847886721e-05
-9.73640931357454e-06
-1.88695339636001e-05
0.000156851458349783
-0.000141708919478409
1.14403890611082e-05
-9.22893966788809e-07
7.72646966941978e-06
5.02949118126343e-05
-1.4478445895672e-05
5.14027531813497e-05
-0.000131417776907282
0.000105809839931289
2.24816669141468e-06
-2.55283993761023e-05
5.80747812186555e-05
3.75993547216022e-06
4.13867312691303e-05
8.06918746320882e-06
8.29590506717522e-07
1.09394179542853e-05
3.0163001860992e-05
-3.16641264679438e-06
2.78496953070298e-06
3.99121539707063e-05
1.08902014406426e-05
1.42290769134685e-05
5.23991183993138e-05
3.90518692479137e-06
-3.63662710639984e-06
2.80493304572815e-05
1.19927010845683e-05
-3.58781536430602e-06
4.35858983462099e-05
1.66067326479427e-05
5.48327299388642e-06
7.69322066481977e-05
5.67360534402609e-05
-9.41405487467814e-06
1.17505132233652e-05
7.41101080391426e-06
-1.77964635999665e-05
1.79073394235946e-05
1.60669228689925e-05
-2.58743785686793e-05
2.61351897013254e-05
2.4442871255668e-05
-1.17462363395822e-06
2.1544838823483e-06
-7.72415264343857e-06
-2.31706612416003e-06
-3.40134946918422e-06
4.76491902215973e-06
5.20154777160689e-06
-2.88805255715047e-06
1.0099290644471e-05
-6.20821355719673e-06
1.81548974706627e-05
-2.64446335855882e-05
2.39027020727021e-05
-7.60168248615506e-06
-7.2516545709035e-05
2.33046703416305e-05
-6.75140127870337e-06
1.19164675295561e-05
-0.000155295796412037
1.63795674736147e-05
-0.000123829362721805
5.33090714577122e-06
1.90103973399849e-05
-6.80164471190265e-06
1.92728731809659e-05
-1.60149715708641e-05
4.77189625906075e-05
-4.2370361475741e-05
1.55122974617022e-05
-8.01958894743989e-06
-2.91278582390106e-05
0.000109205271234676
-9.47718493415847e-05
1.63984123449692e-05
2.47928368595283e-05
-6.08901454099672e-07
1.93512925572213e-05
5.29055132438437e-05
4.1907735706986e-05
-3.48184533807941e-06
-1.35329304264481e-05
3.93010623565332e-05
3.79996235456169e-05
-0.000117106466317027
8.30868103790511e-05
7.13996728599672e-06
1.40486047747257e-05
2.64275339745858e-05
-1.05263235445492e-05
5.99969088824654e-06
2.53934641511317e-05
1.55480713681422e-06
1.35987522405443e-05
4.01316169988488e-05
5.05126547431557e-06
7.89069306239091e-07
2.38156566551904e-05
1.16707767491193e-05
7.73783538022365e-06
3.60177287707807e-05
1.59459069261402e-05
1.05227734355492e-05
6.03867423868167e-05
4.7684223905337e-05
-4.10537763986753e-06
1.48099204049233e-05
7.93071737322912e-06
-6.217963629711e-06
2.42687496767659e-05
1.97313044835815e-05
-3.46487197085986e-06
3.66839645235938e-05
3.44454600309349e-05
2.49458401986889e-06
4.72094727488836e-05
4.64046393881193e-05
-6.01422940405208e-06
2.98047452515426e-06
-1.13285355957813e-05
1.16641170483031e-05
1.06870540385201e-05
-1.78780328331463e-05
1.5668070283192e-05
2.00394907517288e-05
-1.95596233089637e-05
1.96528322096906e-05
3.15706977327397e-05
-2.36219965178564e-05
5.02644593108349e-06
1.67469656318112e-05
1.48365950493207e-06
2.05370030450638e-05
-5.66952676210239e-06
2.92004259577475e-05
1.15729697419753e-07
1.67064591940666e-05
2.7886591395989e-07
-3.48519450718205e-05
1.90052207857453e-05
-1.08206562122805e-05
-3.16904673641525e-06
-9.80700125187805e-05
1.60953551119884e-05
-0.000118958247888841
4.0136458370183e-06
1.47765505721003e-05
1.18967180057205e-05
6.9818789766173e-06
-1.43822746270693e-05
4.0988993650165e-05
-2.34769877523091e-05
9.63890625720858e-06
-2.76535862659676e-05
-1.69589718791582e-05
0.000115881937132992
-9.68088409993117e-05
6.26470531144029e-06
1.85126547589071e-05
7.09057926530718e-07
2.06060557683595e-06
1.63358070853517e-05
2.02634729685439e-05
4.69958435370023e-06
-1.26504117774739e-05
1.37863988733264e-05
3.34642967455733e-05
4.0066779679148e-05
3.3118956500741e-05
6.4192519802629e-06
-0.000108344446940443
9.13387065160012e-05
7.18674923526798e-06
1.17759081451486e-05
2.52538167002734e-05
-8.20456908663454e-06
7.85153021237189e-06
2.74166739964435e-05
-2.84098148480873e-06
8.64470415985868e-06
3.97363158944862e-05
-4.31958960402662e-06
-2.92926027808335e-07
2.01528345278147e-05
6.32260935916804e-06
9.87476688261159e-06
3.03160909286287e-05
9.2333927631913e-06
2.79552701295736e-06
6.87084073429257e-05
5.99520641178621e-05
-9.93855480171189e-07
1.47236449685894e-05
5.98047570490133e-06
-1.04279172553143e-06
2.33486849151477e-05
1.91646106692762e-05
4.00747073163812e-06
3.47764984875513e-05
3.40838146555407e-05
2.20886856135398e-06
3.9852847365849e-05
4.81839425207953e-05
-3.79109205835956e-06
3.38241548400683e-06
-6.38374250633219e-06
1.49449803731064e-05
1.23096675138629e-05
-7.75557223896047e-06
2.11063401802483e-05
2.51864516885098e-05
-5.34980123389647e-06
2.65041126029612e-05
4.09410261006315e-05
-5.27667191991952e-06
1.47063802637546e-05
4.06603686460067e-05
-7.3742529886638e-06
5.09808338598989e-06
-1.15727466946098e-05
1.12851233133045e-05
1.22178225033655e-05
-1.69211565717133e-05
1.2864120277082e-05
2.16940693110052e-05
-1.66099093225335e-05
9.71919305717573e-06
2.86079271286893e-05
-6.37755786259515e-06
2.10751992143572e-06
9.64499930641521e-06
-2.02471413064844e-07
1.91120432554635e-05
1.04590797650271e-05
1.45519738072496e-05
2.81602997649701e-05
6.25907475112145e-06
-5.81619777771777e-06
-3.09921306496345e-06
6.73896611145474e-06
-7.83265415784369e-06
-4.14019896851297e-07
-0.000101046040232852
9.92591236333612e-06
-0.000109496368669231
4.75153614990156e-06
2.13462159368253e-05
-1.63915037722571e-05
1.36362034309528e-06
6.63544078231846e-07
6.20660702679843e-05
-5.67363074597229e-05
-2.65047811075608e-06
-7.42264992952046e-06
-4.58409309089991e-05
0.000116278812564457
-8.84582353334689e-05
-3.36852016158834e-06
1.98257594366855e-05
-4.71856833736783e-06
-3.78168653003632e-06
4.12925246426947e-07
1.87328232836961e-05
1.82679456584451e-06
-1.53268876921454e-05
1.64652483362087e-06
2.9193357198668e-05
1.10683836971784e-05
2.11921966758427e-05
5.55799361566418e-06
4.54085919531533e-05
4.80978432243958e-05
4.25154340767607e-06
-0.000110417500718006
7.37323562022104e-05
-1.96903323847846e-06
7.18284600297489e-06
2.55154288028577e-05
4.23849194311555e-07
1.09810492707122e-05
2.71984774818482e-05
-5.07418188959125e-06
4.05626242684462e-06
5.31913463777642e-05
5.25860764389166e-06
2.05522217250326e-06
2.02242228654315e-05
4.84429007743842e-06
7.17955797579546e-06
3.34055227006961e-05
6.18501672528529e-06
-5.24609438225201e-06
6.79952410206588e-05
5.20056348659658e-05
5.0367517560033e-07
1.45946870122308e-05
4.06060636347447e-06
-3.8143190804917e-07
2.30695485156384e-05
1.29077645331432e-05
2.65590672703721e-06
4.29544250032095e-05
3.63389537329318e-05
2.76221527235435e-06
4.85576807895693e-05
5.62497061085485e-05
-2.13345467072399e-06
1.01977905771463e-05
2.86821250512096e-06
-3.84683640437025e-06
1.59063176662485e-05
1.08859154130544e-05
-3.14554089392084e-06
2.26346862659001e-05
2.66963812740406e-05
-1.30112603029608e-06
2.61106781305217e-05
4.37773395806142e-05
-3.29157668238862e-06
1.16386883242043e-05
4.56285925283066e-05
-5.07231561764113e-06
5.90528997689857e-06
-7.60030917670083e-06
1.46758846213752e-05
1.47676730059687e-05
-9.67650016221063e-06
1.7094704337776e-05
2.73512051670969e-05
-8.95825601701198e-06
1.24666110576596e-05
3.55291561893986e-05
-1.02350652651416e-05
1.74884471101454e-06
3.42326365076606e-05
-8.14700715351992e-06
6.61480618750325e-06
-1.14482250702094e-05
9.90231415040518e-06
1.27610698498127e-05
-1.36056258698977e-05
8.6893588214659e-06
1.93441255471334e-05
-1.32152082526549e-05
4.13389640480985e-06
2.27837083331116e-05
-3.83976963235452e-06
3.38104271323945e-06
6.6954986541753e-06
2.47678611043956e-05
4.01968517427638e-06
2.31691487444181e-06
2.82378218311654e-06
-9.13380623023838e-06
-2.08481691225115e-06
1.08619087960753e-06
-5.04339664993152e-05
-7.82657915365035e-06
2.44700105679995e-06
-2.28883180212914e-05
-5.44458800974795e-05
-9.03079075209111e-06
-0.000124294729324043
-4.25956660381173e-06
2.50988809885466e-05
-3.02015820474572e-05
9.37851303897701e-07
5.52847034807019e-06
3.93265431962373e-05
-3.14224306073606e-05
-8.74594483415217e-06
-1.14510223411112e-06
-2.62907116456668e-05
0.000132224070786435
-0.000102300682595698
-1.44238401836231e-05
2.17232089915834e-05
-8.94720762444204e-06
-4.3583669234072e-06
-4.27395145109725e-06
2.1569060077371e-05
-3.28085953021696e-06
-1.28250901420886e-05
-1.30326535443767e-06
2.3805454943059e-05
-1.3818021103354e-06
2.24718419377323e-05
1.92896224743116e-06
1.48982635143891e-05
3.34183358236499e-05
5.3392735761871e-06
4.47486507507672e-05
2.85095802444947e-05
4.72568373749482e-06
-0.000114963297170834
9.16445145800098e-05
-4.94095812603151e-06
4.65598316602121e-06
2.77672206721861e-05
-1.41479136644139e-07
9.75584498199939e-06
2.35086500241804e-05
3.23198090307628e-06
-1.12985169132765e-07
3.47019336288077e-05
9.21771498184301e-06
7.15836035374196e-06
1.91378479974383e-05
2.95747680521671e-06
9.16232405558205e-06
3.9404331248175e-05
6.73005459678726e-06
-7.28982767314311e-06
8.82804462172873e-05
5.12459882065461e-05
2.35752908795574e-06
1.4605207663526e-05
3.76515097716509e-06
1.35646088037866e-06
2.49832236800688e-05
1.15286663185074e-05
-3.1278749527974e-06
4.52080064055227e-05
3.47560523942356e-05
1.29435572832809e-06
4.75192126061596e-05
5.07030007457436e-05
-6.7486961718197e-07
1.08316784520065e-05
2.30441843134155e-06
-2.38029962281312e-06
1.67427676657698e-05
8.92082929581367e-06
-1.86858279896885e-06
2.77497866135266e-05
2.68354353564781e-05
1.06819930558531e-06
3.42987875869134e-05
4.82285604101645e-05
1.87051239508957e-07
1.82222855296985e-05
4.94471089276869e-05
-2.52774915760176e-06
7.44043853965603e-06
1.63059797056415e-06
-3.30627679303731e-06
1.14545843461978e-05
5.55389657679229e-06
-5.79989301642836e-06
1.66394292049312e-05
1.5080743861508e-05
-6.44921798994656e-06
1.91020703871217e-05
3.04777161313463e-05
-5.72453760342116e-06
1.27162863417818e-05
3.94660466449671e-05
-7.1028217340825e-06
1.72057951550564e-06
3.93939806897506e-05
-5.98437242147029e-06
7.88455828637452e-06
-8.36733082766539e-06
1.30461917927111e-05
1.57352903141806e-05
-9.45589080869205e-06
1.15912720510406e-05
2.40768091169429e-05
-9.51284871791963e-06
5.60747839098606e-06
2.79681576030026e-05
-1.00032118434956e-05
-1.18223603253895e-06
2.83190224585106e-05
-8.53497345047341e-06
7.4896696125387e-06
-1.03294033135764e-05
7.60548896891619e-06
1.20574507737194e-05
-1.08168197242941e-05
5.38313422611958e-06
1.60247681911509e-05
-1.03838481703858e-05
1.70510738460948e-06
1.7834526832186e-05
-4.54885993607068e-06
-2.31655086353904e-06
-4.95550148229889e-06
5.18803352263726e-06
-6.1853222519692e-06
-2.8973299700576e-06
-7.0192374610631e-06
-3.36016820389919e-05
-3.26123150103432e-06
4.57650995310869e-06
-2.53484039968575e-05
-1.36678749679063e-05
8.53453031253313e-07
1.7549534063618e-06
-9.55391648741311e-05
-1.51002807238824e-05
-0.000113447438603532
-4.0204863984061e-06
3.23038573564942e-05
-2.93190647741533e-05
2.70254073411488e-06
-4.74948475337694e-06
3.55591484356921e-05
-2.71419826834825e-05
-1.10531382365538e-05
-5.8150469483216e-07
-2.43131923059249e-05
0.000110070938316238
-9.04717493051829e-05
-1.08549356549701e-05
2.26567662131883e-05
-1.19833432045122e-05
-3.39331719389087e-06
-5.00236140088333e-06
2.40988228672015e-05
-6.47461659089612e-06
-1.10291352661451e-05
-1.7755965095571e-06
1.92154397202887e-05
-4.50878154470964e-06
2.44369372024789e-05
-7.37174824771233e-07
2.76327064366236e-06
2.73999773081412e-05
5.18406807392353e-06
1.2893226180752e-05
1.50927658005667e-05
5.86288690751591e-06
7.01106243118413e-05
3.06254030459245e-05
-4.36581807490604e-06
-0.000103075969230432
8.0173337965325e-05
-6.3515139795292e-06
6.87903006409187e-06
2.76705588180597e-05
2.41025323867349e-06
7.41669075278815e-06
2.32811700983602e-05
6.82520009341344e-06
-3.80614061859715e-06
2.9577578394527e-05
9.53324962793667e-06
8.0009339617429e-06
1.65818172020927e-05
6.08424362487088e-06
7.58963485288165e-06
2.81551557019841e-05
1.13514371063511e-05
-8.161349213556e-08
6.18320336826418e-05
5.02484293347741e-05
4.30091151381162e-06
1.39571039551515e-05
3.23735103077668e-06
8.25690144069149e-06
2.58533579968016e-05
9.60797361184782e-06
3.27363798831645e-06
5.86393576665126e-05
2.9969641027577e-05
1.21065655926231e-06
7.15430668583404e-05
4.98972977149769e-05
7.94298632964201e-07
1.10473506286598e-05
2.08868397660657e-06
3.30326489250988e-07
1.74137038977016e-05
8.62402191654639e-06
-1.54607239553801e-06
2.98670455712058e-05
2.65471057930504e-05
-8.938675975344e-07
3.7033850790098e-05
4.72035104756887e-05
-2.31466438151739e-07
1.66114011940949e-05
4.74033784360168e-05
-1.38325013945835e-06
8.12637956740231e-06
1.56079720410462e-06
-1.60675859503012e-06
1.24393929977427e-05
4.90826440846584e-06
-3.78347101758763e-06
1.8895663948552e-05
1.57585182180469e-05
-3.74667212964508e-06
2.43954178065546e-05
3.40362683522256e-05
-1.39515706829631e-06
1.75367026281623e-05
4.45847856567849e-05
-4.36738638318291e-06
5.16791405737077e-06
4.43070354717303e-05
-2.48874614813764e-06
5.67349102136499e-06
9.89088858231597e-07
-3.28676102842433e-06
8.50222552079133e-06
3.3133262816792e-06
-4.18479524213344e-06
1.22127324599162e-05
8.18101047909416e-06
-6.91577988125385e-06
1.54075635369942e-05
1.73236992444584e-05
-7.43585728893028e-06
1.37732668855735e-05
2.74007038793205e-05
-7.26602228538223e-06
6.67712726224251e-06
3.22626651188701e-05
-7.69958197659735e-06
-5.57806904279394e-07
3.31393620292997e-05
-6.6735131878671e-06
9.10751161817034e-06
-8.08914136452518e-06
1.01699663585692e-05
1.49163300580045e-05
-8.41145088972093e-06
7.41277817238086e-06
1.98661277877078e-05
-8.38321141726702e-06
2.73054297012358e-06
2.20547199277304e-05
-9.09950922091117e-06
-1.82337036058864e-06
2.32103945143467e-05
-8.14979661478182e-06
7.60761745203695e-06
-8.86551803543625e-06
5.4231008917813e-06
1.07384876144063e-05
-8.80045582500188e-06
3.28859760126562e-06
1.30766414465785e-05
-8.49690702675694e-06
6.92093903459513e-07
1.41043759855963e-05
-4.90265585202692e-06
-2.72549569714229e-06
-9.64603318038291e-06
-7.97077292640774e-07
-1.25729865271535e-05
4.27732460957693e-06
-6.17027172358693e-06
-1.92353911951152e-05
-7.39665354262914e-06
-5.94825419309905e-06
-1.94746073860894e-05
-1.32409727731103e-05
-3.51777005998683e-06
-2.80576695932731e-06
-9.03907494627141e-05
-1.15220781278651e-05
-0.000100572829235997
-9.32940662043294e-06
8.83058586167725e-05
-9.95813879179295e-05
8.87956642718039e-06
5.09850580097752e-06
2.62918858948839e-05
-2.43100122607308e-05
-4.79103100141223e-06
-1.29934651170315e-05
-1.44291206473298e-05
5.97175288868222e-05
-5.04369155696082e-05
-6.2879279336706e-06
2.26002857116231e-05
-1.43040742390283e-05
-2.0948895738521e-06
-4.23768384491556e-06
2.53053951431261e-05
-8.95223945657083e-06
-9.67523928611159e-06
-1.37220181265028e-06
1.57781507240212e-05
-5.28700850895814e-06
2.57639267155877e-05
-2.51460370064275e-06
-2.09861835533415e-06
2.49869919492636e-05
3.77442339970311e-06
1.08524807797998e-06
1.38813863012174e-05
5.31020665190859e-06
2.02347530287625e-05
1.72025408146078e-05
-9.48982090609603e-07
4.26664842665621e-05
3.41548744667325e-05
-1.01382745993578e-06
-9.91534673492537e-05
8.04180111209155e-05
-2.04517044118276e-06
2.22482152767123e-05
5.66926481546491e-05
1.62440460144574e-05
5.28921228679506e-06
2.08921061817957e-05
8.90592775796313e-06
5.41951683658579e-07
2.30365397974644e-05
1.31751718535542e-06
6.84215129266302e-06
1.54605955152509e-05
8.97934501125437e-06
4.02712534851073e-06
2.36761686927007e-05
1.62891099617885e-05
-4.81815783272194e-06
2.88073504199298e-05
4.5179996236045e-05
4.66236278230273e-06
1.26626503803117e-05
3.55770657545822e-06
9.1500221730168e-06
1.98631127600421e-05
1.34831362516426e-05
9.37748194121982e-06
3.73703063135049e-05
2.97093327679977e-05
6.06990160845364e-09
4.20824220111644e-05
5.2037143301717e-05
2.02990273349446e-06
1.07624338275195e-05
1.95906083034949e-06
4.33755286267328e-06
1.708212846606e-05
8.00133233728192e-06
7.6804105790086e-06
3.4089090434605e-05
2.49317476536415e-05
6.35283487629336e-06
4.9857185986411e-05
4.44088437316799e-05
3.79253604502044e-07
2.43224426471389e-05
4.51989167605798e-05
-2.98321264397723e-07
8.44668107029667e-06
1.51573768749091e-06
2.91108368613577e-07
1.28932756256033e-05
4.7112345095666e-06
-9.9516905680691e-07
1.97819519584799e-05
1.59207968085577e-05
-1.81707789929193e-06
2.66675874138915e-05
3.49837844346899e-05
-6.16693275170259e-07
1.80816342890748e-05
4.49548265126869e-05
-2.67293774381245e-06
4.48383193809087e-06
4.23103415154743e-05
-1.66411552775541e-06
6.2755780198585e-06
1.02616889751095e-06
-1.92930820076089e-06
9.36161158173455e-06
3.28111995903683e-06
-2.15010368555841e-06
1.3613390874656e-05
8.15583986432698e-06
-4.51705390555561e-06
1.82021601429339e-05
1.95530450118608e-05
-4.26454192062452e-06
1.685180942348e-05
3.15498456639932e-05
-3.58153248268498e-06
9.20198500601239e-06
3.68662080988672e-05
-4.60308572774661e-06
1.26830034309024e-06
3.78435965220552e-05
-2.36178758329983e-06
4.46696680271589e-06
6.40108404661298e-07
-3.06385279120591e-06
6.50766486602234e-06
2.08631884873873e-06
-3.80951209752484e-06
9.18248524577041e-06
4.97814482424182e-06
-4.93358041167846e-06
1.18155726060062e-05
1.00330670642209e-05
-6.36022112355716e-06
1.23920599987245e-05
1.69759817090127e-05
-6.71131751456843e-06
9.35610117570094e-06
2.30215793856562e-05
-6.54534135976958e-06
3.93066311680327e-06
2.59363047812375e-05
-6.94703688348458e-06
-1.41758784904783e-06
2.71174528323502e-05
-6.62028883757902e-06
9.34429169035579e-06
-7.22142486633279e-06
7.37768656763066e-06
1.33073194825567e-05
-7.18196278913896e-06
4.72591521776178e-06
1.62522415180643e-05
-7.09170958342366e-06
1.35098215704338e-06
1.74751497987851e-05
-8.12668849880524e-06
-1.56860298868723e-06
1.89927563800451e-05
-7.32350573638872e-06
7.19099316949343e-06
-7.50900265847679e-06
3.81899451269501e-06
9.26083589993492e-06
-7.2830492612341e-06
2.14005864572553e-06
1.06600390469464e-05
-7.05413413316051e-06
4.29465773441306e-07
1.13584374831374e-05
2.16968021750757e-06
-5.23785157673872e-06
-1.07277042552914e-05
1.3216256182436e-06
-1.47517966458687e-05
-3.48867348840044e-06
-2.91481712581543e-06
-0.000112523808192377
-2.20991863782811e-06
7.75570240990292e-06
-1.72314235538169e-05
-9.97331132239099e-06
-1.62945049069094e-05
-1.18232371377761e-06
-5.79433923757754e-05
-6.35105719002236e-06
-0.000105718603749263
-3.9465994275565e-06
9.9196882904471e-05
-7.11331975408223e-05
-1.74217918299536e-05
-1.76231750472661e-06
0.00010716634594317
-0.000111661035586044
4.17358936176571e-06
6.28595509183914e-07
-2.20862131690158e-05
7.19939926074418e-05
-6.60647557395158e-05
-3.12441097771829e-06
2.16552608713667e-05
-1.61107972524313e-05
-8.66244359474933e-07
-2.89363613178046e-06
2.53075272517282e-05
-1.14125628232177e-05
-8.57445247767752e-06
-6.894021146815e-07
1.32745335251878e-05
-4.79829677200643e-06
2.64905072653474e-05
-4.88052662557487e-06
-4.29878522398321e-06
2.5003985259416e-05
1.76717797002717e-06
-2.8551692223291e-06
1.69601788623998e-05
3.55079495368095e-06
4.83903670564982e-06
1.75010955161287e-05
1.72616874839648e-07
1.24990425404929e-05
2.23192420755854e-05
-1.61236875082452e-06
3.18561830829458e-05
4.32505912793351e-05
4.29742815966294e-06
-0.000109886610576668
9.24818454831046e-05
-6.72660657961941e-06
4.86214514610248e-05
7.2918349391446e-05
-9.46496980533457e-08
1.68610811234096e-05
2.80486299517734e-05
1.70721609398758e-05
2.43810454437369e-05
6.58878630729463e-05
3.36835051400165e-05
4.6450241641339e-06
1.4090538716917e-05
8.99868509331263e-06
2.13222684788973e-06
1.92018437285996e-05
1.46355169202781e-05
-2.97953161852643e-06
2.76136929117341e-05
4.38592161143753e-05
4.35130001511814e-06
1.174691084163e-05
4.02473823159107e-06
8.09534117669437e-06
1.71314586089543e-05
1.65787084892896e-05
2.48454790739923e-06
2.12434750103252e-05
3.07459295696226e-05
3.90076152646898e-07
2.1451764952732e-05
5.52004792833748e-05
2.51525981278095e-06
1.00664943865429e-05
2.1107933251928e-06
5.27956452031559e-06
1.48588597367191e-05
7.6199269244479e-06
1.01593111983969e-05
2.36758350895254e-05
2.46986913535238e-05
9.3766698139915e-06
3.03608740881658e-05
3.84070651652749e-05
3.26078005048697e-07
1.41128727782312e-05
5.04765147595559e-05
5.95417000885915e-07
8.40536762248866e-06
1.4633247749896e-06
2.18371926944077e-06
1.26978936917044e-05
4.45067280551975e-06
4.79909675824242e-06
2.01158055069146e-05
1.61803359992849e-05
6.76579456444215e-06
3.05152157559192e-05
3.5690840341731e-05
3.91130881997804e-06
2.16034077624553e-05
4.2599886446057e-05
-2.71472383505763e-06
7.22255066968228e-06
4.28571785861419e-05
-8.72338526167297e-07
6.6122620439362e-06
1.04263994749971e-06
-5.69832090379809e-07
9.79450740066067e-06
3.25502352626391e-06
-2.86092861857908e-08
1.42403491117653e-05
8.13133577180625e-06
-1.52621249039039e-06
1.92919613815167e-05
2.03055754699989e-05
-1.48048514841496e-06
1.76332832222875e-05
3.26480641410187e-05
-1.27890369376416e-06
9.747166510563e-06
3.73888356414967e-05
-2.46518301383486e-06
1.30468649088315e-06
3.60125440540549e-05
-1.7530441535644e-06
4.97752259628776e-06
6.89310366476827e-07
-2.08300027628335e-06
7.21998120382345e-06
2.18694236245003e-06
-2.28272192367763e-06
1.02121978867013e-05
5.15551894030913e-06
-2.70562288595651e-06
1.34286627261643e-05
1.07013766066152e-05
-3.59096661707302e-06
1.45961657605213e-05
1.90394285602416e-05
-3.72809132765838e-06
1.14844841693797e-05
2.62840975021644e-05
-3.38764344445158e-06
5.40915418385548e-06
2.95676222193015e-05
-3.73175909072334e-06
-3.75008523420749e-07
3.07045145288895e-05
-2.23175392227311e-06
3.59875739791679e-06
4.35883539322254e-07
-2.83269580447214e-06
5.11986187304724e-06
1.37139741967664e-06
-3.48945783353782e-06
7.09776505238224e-06
3.18213194562441e-06
-4.22772876703338e-06
9.13722428863776e-06
6.27420270194586e-06
-4.95023447186419e-06
1.01480904546291e-05
1.06069783211361e-05
-5.47874323861041e-06
9.1972918131458e-06
1.53920963028739e-05
-5.46566589801519e-06
6.21189585870047e-06
1.90240267351678e-05
-5.44484008825255e-06
2.22647100765831e-06
2.06453555189506e-05
-6.28827980780778e-06
-1.51140575272776e-06
2.19921483784784e-05
-6.09102849801748e-06
8.8752831264132e-06
-6.25047580362569e-06
5.28365941617158e-06
1.14910338558561e-05
-6.06674782551778e-06
3.15382698771968e-06
1.32330761253035e-05
-5.94235166356455e-06
8.48697334708734e-07
1.39460551919908e-05
-7.34147164348215e-06
-8.73993961715825e-07
1.57401339050202e-05
-6.4285478071208e-06
6.51010377970476e-06
-6.37179818044511e-06
2.78746574204456e-06
7.87074290125845e-06
-6.10310231205782e-06
1.58856533320645e-06
8.75122187047758e-06
-6.00795034994951e-06
5.37087340639265e-07
9.36278587276123e-06
-4.14066408611934e-06
-4.96954781071289e-06
-8.87190598498868e-06
-1.0603117698163e-05
-1.01932719179111e-05
2.8450222060914e-06
1.53164394896391e-06
-7.89867086221387e-05
2.14774226131403e-06
3.49588005765106e-06
-0.000116489916676241
3.06209368463619e-06
-4.50801256300898e-07
-8.82532093989347e-06
-7.26379590399738e-05
-7.24704046638946e-06
-0.000117122229407421
-5.53630871214504e-06
-8.49876996526741e-05
6.86795237861642e-05
-1.11356950940377e-06
0.000120409561430852
-0.000106059688159417
-1.52671385423007e-05
3.32857981118311e-06
-1.49966532526776e-05
9.78232510654013e-05
-8.60395305297655e-05
7.17152139263924e-07
1.98781491310245e-05
-1.70731491064324e-05
1.42070535316976e-07
-1.4443387591547e-06
2.42209917184427e-05
-1.35799272936258e-05
-7.79138891892918e-06
2.09272798368566e-08
1.14578770398543e-05
-3.52130975433932e-06
2.65364900044978e-05
-7.9372343577667e-06
-4.51202851126689e-06
2.61203292867795e-05
-1.48484285425576e-06
-4.05315474588938e-06
2.13030528516904e-05
1.47745053631168e-06
-1.04309789075107e-06
2.19831468771683e-05
1.1182846014406e-07
4.54050408150404e-07
2.33803059421925e-05
-1.34249750958176e-06
4.61601591599972e-06
3.60848055162023e-05
9.37431412763592e-07
3.85232465193562e-05
6.00727900322105e-05
-1.81674236969176e-06
-0.000112497773982988
9.79795440421643e-05
-7.20502263335956e-06
-4.14962420533793e-05
3.68480603145449e-05
5.35369974998249e-05
-2.67326989173174e-07
3.72186362686253e-05
3.55898027762033e-05
1.69710154336969e-05
9.53586963235605e-05
2.64745179391022e-05
2.28628171479555e-05
7.48279538698937e-06
1.49514828790678e-05
1.02593711193293e-05
2.22924714033025e-05
2.80715531735519e-05
3.47282446397315e-05
4.96217176747928e-05
1.16977507743692e-06
7.77357830844592e-05
3.56706607303308e-06
1.08157543368769e-05
4.05901045775925e-06
5.37176735984092e-06
1.49757808234384e-05
1.59482991760063e-05
-3.63641314848608e-07
1.71603747678605e-05
2.79370356438639e-05
3.61918812385679e-06
2.24662793639622e-05
5.66871464678133e-05
2.68159501628318e-06
9.38891782893293e-06
2.19165272238875e-06
5.1392240851001e-06
1.34696370364438e-05
7.8268803829198e-06
8.02284859666881e-06
1.72532748972159e-05
2.27053572025788e-05
4.86127056708048e-06
1.70935816121048e-05
3.96195350793466e-05
4.66421103379609e-06
3.97557570368487e-06
5.15028120201975e-05
1.13437586855058e-06
8.07546544984612e-06
1.45206710699569e-06
2.90853190112693e-06
1.1731833203288e-05
4.5129952333137e-06
6.18146045023997e-06
1.6570594143954e-05
1.33427869090551e-05
9.66535404261059e-06
2.13530315997761e-05
3.08069707334241e-05
5.81967453283424e-06
1.38572792695914e-05
3.67542907586287e-05
7.40693142139982e-07
4.00940623594485e-06
4.3465720362081e-05
-1.90651688581907e-07
6.69091269567318e-06
1.03276605352972e-06
6.33728716694635e-07
9.78766592484149e-06
3.16998502108356e-06
2.44548481017121e-06
1.41448501523051e-05
7.94752558887868e-06
4.51247761348788e-06
1.97512739844406e-05
2.09055795243882e-05