/*--------------------------------*- C++ -*----------------------------------*\
  =========                 |
  \\      /  F ield         | OpenFOAM: The Open Source CFD Toolbox
   \\    /   O peration     | Website:  https://openfoam.org
    \\  /    A nd           | Version:  12
     \\/     M anipulation  |
\*---------------------------------------------------------------------------*/
/*   Windows 32 and 64 bit porting by blueCAPE: http://www.bluecape.com.pt   *\
|  Based on Windows porting (2.0.x v4) by Symscape: http://www.symscape.com   |
\*---------------------------------------------------------------------------*/
FoamFile
{
    format      ascii;
    class       volVectorField;
    location    "300";
    object      U;
}
// * * * * * * * * * * * * * * * * * * * * * * * * * * * * * * * * * * * * * //

dimensions      [0 1 -1 0 0 0 0];

internalField   nonuniform List<vector> 
10107
(
(-0.00494295169239089 -0.00561286178906277 -0.00152112992634802)
(-0.00348560000708834 -0.00829472476615837 -0.00414154138772083)
(-0.00453925860251315 -0.00775400659861185 0.00563435747078869)
(-0.00452754880639314 -0.0102228378465394 -0.0018685445477148)
(0.00171832697858491 -0.0136110230988342 -0.0083384861595489)
(-0.00183088945720796 -0.0257107419256921 -0.010226318179055)
(-0.000655173502747885 -0.0167885967076327 -0.00537537186895524)
(-0.0036450710906756 -0.0260459340531945 -0.00275447189038874)
(-0.00501232741544525 -0.00737003395587763 0.00308073334264405)
(-0.0056359919617326 -0.00615175196775368 -0.00123167122410079)
(0.00106990088273213 -0.0205332325729897 -0.00497882422852096)
(0.000896037259721965 -0.0262529591048483 -0.0100371186168721)
(0.00310656636759907 -0.0274742752926534 -0.00418575521603926)
(-0.00130390803167603 -0.0283107637146729 -0.0085185573554921)
(-0.00282077810165722 -0.0235084710532679 -0.00609803902130655)
(-0.00208017503086871 -0.0102106156889214 -0.0059326512785806)
(-0.00330120981550881 -0.0153774449814478 -0.00856123653855462)
(-0.00218619304135592 -0.0284050786591182 -0.00697251257207203)
(-0.00194200816831089 -0.024444012787204 1.11166397422108e-05)
(-0.00276464405513066 -0.0247459842544518 -0.00302957644356198)
(-0.00474253792764129 -0.0126882956541973 0.00440459778471085)
(-0.00312859050196673 -0.000959142629776247 0.00360752062024413)
(-0.00373221871021704 -0.00300237499678002 0.00542018383754833)
(-0.00458031235321661 -0.0102023768239363 0.00314533322421882)
(-0.00533950522641873 -0.00212893603007508 0.00225739195157354)
(0.000482470961746089 -0.031700464035249 -0.00312661718628697)
(-6.65074061679626e-05 -0.0302091500445955 -0.00383151180304727)
(-0.000259980033363861 -0.0297522643574674 -0.0071038013595408)
(-0.000222077312930611 -0.0219314825761029 -0.00583865867805322)
(0.00362492338800362 -0.024275667377984 -0.00337539670729688)
(-0.00316792394344659 -0.0201841806860932 -0.00982149615778782)
(-0.00256366504752557 -0.0296093947305655 -0.00923486243033854)
(-0.00142340830382225 -0.0246385544450287 -0.00669223487206938)
(-0.00118895352895526 -0.0261393788462055 -0.00859993633576761)
(-0.00238427074978283 -0.0227115959837556 -0.00421556304083456)
(0.00408511627512134 -0.0318876467294135 -0.000577288692388495)
(0.00229379977972839 -0.0302365172586277 -0.00662901529321614)
(0.000231008357582971 -0.0248781532118996 -0.00696016688067384)
(-0.00222980087371427 -0.0181130647362413 -0.00617898033739886)
(-0.0021083736327125 -0.0198157915224054 -0.0098951111401671)
(-0.000524979313275306 -0.0284120337348538 -0.00688550202560611)
(-0.00265268284475587 -0.0278711086376797 -0.00978672433139204)
(0.00146858047969756 -0.0163036918435446 0.00222966648492762)
(0.000440468922477977 -0.0145109635522293 0.000712387553503286)
(-0.00322292497704788 -0.0264197454323769 -0.00446455439271765)
(-0.0016561702099073 -0.0232517517715246 -0.0022069592609928)
(-0.00138827909574017 -0.0212480573554404 0.00297017016087602)
(-0.00280451447837164 -0.0212683775187546 -0.00242060041686931)
(-0.00203946459746469 -0.0127739303488807 0.00383050517641493)
(-0.00197811164700455 -0.0197054061209509 0.00111072911223636)
(-0.00257935408891303 -0.0112882007536017 0.00348930004692352)
(0.0033685403723034 -0.0293878789812357 -0.00386139680173316)
(-0.000592520762393001 -0.030135461624231 -0.00148584401439775)
(-0.000147102599654012 -0.0301619359940985 -0.000879634301785729)
(-0.00300370271413908 -0.0144900316724309 -0.00960909872603755)
(-0.00170327842152371 -0.0318469253124443 -0.00771453738172318)
(0.00558317640220004 -0.0460228159219311 -0.00666226872137301)
(0.00164252995288049 -0.0324403723025218 -0.000321776311076466)
(-0.00262114284628102 -0.0118603044662681 -0.0146616728688122)
(-0.0076235420333314 -0.0176406922136188 -0.0123218283466576)
(-0.00426281970427026 -0.0312208244060594 -0.00585817865102708)
(-0.000688110387382056 -0.025824197160412 -0.00594748294100666)
(0.006002046223351 -0.0240537317329076 -0.0043858207982129)
(-0.00269690712524863 -0.0466817245697824 -0.000248464297171345)
(-0.000748298315661831 -0.0203025400067266 -0.00665242084032126)
(-0.00106951902216881 -0.0199875056322804 -0.00518766182065153)
(-0.00141944473344607 -0.0200402893329085 -0.00261374859841395)
(-0.00314019053569892 -0.0122829332323509 -0.0156451951333115)
(0.000305986723516769 -0.0201773074431083 -0.0123063659797247)
(-0.00622339425121004 -0.0165585419513726 -0.0131239244281399)
(0.00179762144962079 -0.0202618285611288 -0.00596632893732545)
(0.000477350348378762 -0.0217888107811686 -0.00799485662162151)
(-0.0018929138946616 -0.0212958554034549 -0.0105747274127381)
(0.00124846716550905 -0.00708971442972982 0.00324059359488999)
(0.00381000500822303 -0.00972401594331883 0.0018293177912657)
(0.000126061826004455 -0.0114631713452731 -0.00293987115640532)
(-0.000749512762454981 -0.023935898047739 -0.00459812788575602)
(-0.00493980847833336 -0.0175290627891041 -0.00370747820824202)
(-0.00101109905878509 -0.0178383543220524 0.00268119438904137)
(-0.00302867489782256 -0.0177497905621072 0.00176254343589538)
(0.000565491162809374 -0.0333174472386032 -0.000677401975204395)
(0.00468837313341842 -0.0519525899766314 -0.00559606003296401)
(0.000386564113537654 -0.0372422415571933 -0.00516289753473678)
(-0.00150242733208393 -0.00454933154737016 -0.00522762873474466)
(-0.00186486247100709 -0.0069326612028097 -0.0146399655818077)
(-0.00684598616701475 -0.0166295661243275 -0.0121197331735294)
(-0.0030770524459022 -0.037381590395368 -0.00905785907276545)
(-0.00402229993245911 -0.0504221307410369 0.000491880468716278)
(-0.00605718993417725 -0.00572581724011155 -0.0204375549788018)
(-0.0076435122060563 -0.0156044203372301 -0.0139948516095473)
(-0.00993736326517682 -0.0278641967794252 -0.00775045055918908)
(0.00150991701656118 -0.0101768913502985 -0.0108387262523712)
(0.00256753197524642 -0.0255342119093947 -0.00699845986879259)
(0.00418569406349369 -0.0147884940425577 -0.00531244750514939)
(-0.00598269822212504 -0.0382628014220704 -0.00789240134660461)
(-0.00106514469795143 -0.0201287279045988 -0.0039290989478576)
(-0.00709135193898205 -0.00969997963696032 -0.0169967538321329)
(-0.00257125988918337 -0.0118838277605435 -0.0157985832685911)
(-0.00830187957704477 -0.0151235713388137 -0.0142561699522077)
(0.00113992547742947 -0.014833978015799 -0.0101106852548714)
(-0.00185701657837788 -0.0152601776372933 -0.0128600872959632)
(-0.00675309826794429 -0.0193305962475676 -0.00953690101521329)
(0.00127169076523299 -0.00915900660238298 -0.000905788864944487)
(0.00367180953601654 -0.0139772466683094 -0.00564764088482038)
(0.00069758813158181 -0.014745136790983 -0.00882196572022954)
(0.00374119333452122 -0.0146938345412141 -0.00996431664995009)
(0.000464273838538083 -0.00427108151359187 0.00267752076499192)
(0.00284121891874878 -0.00545629164218276 0.00249433208914461)
(0.00381621438665714 -0.00645154340945344 0.000918552663818567)
(0.00420301556073501 -0.00759799808061334 -0.00248452212907257)
(-0.000857748484840588 -0.0530337750066277 -0.000305936983546703)
(0.000926826177265002 -0.0407051326881145 -0.00822842262918688)
(-0.00468574703529056 -0.0202453026985364 -0.00994450395738094)
(-0.000790693551224143 0.0108211400431833 -0.0132126852496425)
(-0.00247835511973036 0.0013611445508352 -0.0262850333964676)
(-0.00587670729643992 -0.0110469196965859 -0.0146663601749111)
(-0.00806847805321306 -0.029817287101755 -0.00738593204163638)
(-0.00743791565143394 -0.0459914354409857 -0.00673989090170779)
(-0.0129676232567785 -0.00347267488759557 -0.0105384585318728)
(-0.0143280293445072 -0.0144920706475749 -0.0166417715229153)
(-0.00352305685764523 -0.0299223362322425 -0.016106361812806)
(-1.91653647383421e-06 -0.00287998777705214 -0.0105973664477722)
(-0.000434438369633834 -0.00924655822929999 -0.0115526382842009)
(0.00507545429120928 -0.00422512434794347 -0.0066101887071346)
(-0.00154489791978126 -0.0158046959816509 -0.0100781149456589)
(0.00071720117237543 -0.03490430405724 -0.0142146227850232)
(-0.0125233423324802 -0.00636143622681906 -0.00875119828816871)
(-0.00552857444772096 -0.0111573666323401 -0.0124722211423765)
(-0.0139177428848065 -0.0163421971403115 -0.0145432035718234)
(-0.000892751171504855 -0.0103237064127657 -0.00903183137780937)
(-0.00678429416039689 -0.0133396964258468 -0.0141601710758543)
(-0.00361670828672553 -0.0259521860597433 -0.0130652018548884)
(0.000571985841142991 -0.00857540169104177 -0.00295640413933003)
(0.00174424652153567 -0.0118612721517198 -0.00886721484670635)
(-0.00232542155837374 -0.0130361653450413 -0.0100997137395884)
(0.00211984693502568 -0.0106292584704521 -0.00996781769154096)
(0.000499750144466922 -0.00539722310402909 0.00129183233713792)
(0.00285125512362724 -0.0072382641679754 -0.00109730130306506)
(0.00408579737219756 -0.00943331100102823 -0.00448731467561548)
(0.00492479340145178 -0.00952137843798596 -0.00802859195093442)
(0.00582450768432558 -0.00237137281191476 -0.00951271266795464)
(0.00125134523735656 -0.00372766770584465 0.0023377289371928)
(0.00308550901344473 -0.00438906253516371 0.00195150796293527)
(0.00461727004171369 -0.0041414761007385 0.000781193614835934)
(0.00614436660312208 -0.00181980824331636 -0.00153509563264719)
(-0.0044859033219744 -0.0486135779740107 -0.00417401895666135)
(-0.00204539155743996 -0.0300331412626452 -0.0050093291035978)
(-0.00222262384678853 0.00575530663824239 -0.0111346469281845)
(-0.00952277312430017 0.0118623916915447 -0.034413281993409)
(-0.0199475671189447 0.0280186469099519 -0.0110192342116244)
(0.00417068916313059 -0.00261585945566275 -0.0195973092813526)
(-0.00102608345846907 -0.0307630364237834 -0.0211976007294593)
(-0.00212196087939354 -0.0348349163442338 -0.0113607771179327)
(-0.00531560841358335 -0.00518022212543003 0.00260283223591191)
(-0.0166511974913024 -0.0198190460620065 -0.000435165009622939)
(-0.0151600316139656 -0.0246114216724947 -0.0107110468365994)
(-0.000789198021472307 0.000661211468537319 -0.00823361935941855)
(-0.000235941464402926 -0.00155974564075362 -0.00977408609356215)
(0.00480745050965562 0.00204500204581506 -0.00420514802215236)
(-0.0017620427024852 -0.00584436504264156 -0.009951151401957)
(0.00356921897572014 -0.0213805810853543 -0.0114499929189718)
(-0.0191172017214611 -0.0383859920770477 -0.00797199285349676)
(-0.00635417555785469 -0.00782683372257626 -0.00472053522704383)
(-0.00887450083914615 -0.00913457641261521 -0.00728142875233755)
(-0.0171440577866637 -0.0221611047763228 -0.00272782714749586)
(-0.00225575369421408 -0.00846118489960833 -0.00632424572618927)
(-0.0116543238708794 -0.0145684628895263 -0.0122816601604238)
(-0.00778096497205519 -0.0223126029500157 -0.010079211504017)
(-0.00013688072267462 -0.00786889111126608 -0.0029035477573263)
(-0.00301303743944029 -0.0106313344483382 -0.00882517928242511)
(-0.00374873066746203 -0.0187356143201031 -0.0111895926960681)
(0.00621322296060147 -0.0128092164072876 -0.00938012608510896)
(0.00033387856336808 -0.00572329985467159 0.00021754603751989)
(0.00135623773644679 -0.0072626765054573 -0.00286151580483623)
(0.00174476588865351 -0.00989761728195086 -0.00652543354666824)
(0.0042660458145601 -0.00812827161820561 -0.00844351265358196)
(0.00498939542240725 0.000211442623934409 -0.00901301140206572)
(0.00132588562336242 -0.00471322570714057 0.00102121535832665)
(0.00326992658229491 -0.00581963098390833 -0.000557327788417289)
(0.00522709340086141 -0.00595943168846844 -0.00288985141312142)
(0.00714995340130717 -0.00237457507233781 -0.00509188378830742)
(0.00532124544767569 0.00338355428312168 -0.005975279490087)
(0.00168839278427428 -0.00319420800608643 0.002076788934505)
(0.00322474543121906 -0.00325130964486877 0.00173878787393915)
(0.00478785756000143 -0.00211148796479217 0.000854046881390978)
(0.00528783674139495 0.000236048687659027 -0.000768719289892181)
(-0.000840598092118319 -0.0381540419740608 -0.00608641791992573)
(0.00177725345516385 -0.0361151342485295 -0.0151801749979195)
(0.0233213032508837 0.0149180588728722 -0.0177664728134773)
(-0.0263508982419889 0.0111613204342909 -0.00324928014608327)
(-0.0047130422616936 -0.000347978464229317 0.0104633260145113)
(-0.011548371891819 -0.0149287171279804 0.00245692169327305)
(-0.00787079484546682 -0.0113568207976314 -0.0104281294780398)
(-0.0246856828092523 -0.0443264539403268 -0.00494630961202972)
(0.000529419389614601 -0.00939664539915728 0.00402514760081393)
(-0.00897820767869402 -0.0124534530179453 0.00208393253491168)
(-0.00453752615869632 -0.0348413533250238 0.0104856582817266)
(-0.000760551479343995 0.00135058504246174 -0.00665843118545795)
(-0.000947740456209157 0.00153390846389507 -0.00749036601120318)
(0.00343385452903645 0.00249946901693358 -0.00294445841790111)
(0.00024254961936636 8.8913547662934e-06 -0.00745383542504742)
(0.000221950848050662 -0.00718520680205918 -0.00875201501407909)
(-0.00607336958737159 -0.0185670745206372 -0.0100071551773068)
(-0.00139510009638735 -0.0436310894777157 0.00361015785328628)
(-0.00208687180072244 -0.0116776715984411 0.00104539696730673)
(-0.00477025685322099 -0.00686878741854047 -0.00659535187140891)
(-0.0130336041269453 -0.0122612368918984 -0.00434061042390893)
(-0.00314504905688775 -0.00676164545912039 -0.00514758623960567)
(-0.0154457376655175 -0.0176774179233615 -0.00523276565566149)
(-0.00511400188198989 -0.032266633630158 0.00505099773064856)
(-0.000414477823849716 -0.00727053531799752 -0.00273406010541298)
(-0.00596964564351822 -0.0102702833363139 -0.00672491967805371)
(-0.00666689631006392 -0.0192827598795798 -0.00857838125103383)
(-0.000248678532973565 -0.010868329168356 -0.00955976773801475)
(0.000160136054286899 -0.0058333056363742 -0.000337454693838457)
(-0.000460841238131028 -0.00707987794707834 -0.00282169951280305)
(-0.001866397966057 -0.0130571927916542 -0.00725709331893492)
(0.00439852521054657 -0.0120029056529906 -0.00884084328622499)
(0.00484627111438126 -0.00274243179252982 -0.00909328740732523)
(0.000220854728177774 -0.00418669384775579 0.00108189552500686)
(0.000922452983982242 -0.00507500862585744 7.00435108214133e-05)
(0.0020163932659311 -0.00642773433897542 -0.00181047570617223)
(0.00437194022315322 -0.00680359869319517 -0.00410706453829867)
(0.00676448304278215 -0.00197866610934356 -0.005986411541892)
(0.00506284905965076 0.00448027199047283 -0.00613145927117565)
(0.00184100138031974 -0.0040927426959785 0.00101482707758683)
(0.00361992667871887 -0.00437391860658693 0.000103712736456866)
(0.00563501884352471 -0.00308649010226906 -0.00123011687761083)
(0.00630147227839541 5.77196279978236e-05 -0.00252011592381476)
(0.00404045092664315 0.00309309551593097 -0.00397816572622692)
(0.00195610732087164 -0.00253998754945381 0.0019012522306686)
(0.00319612544470435 -0.00213900271323209 0.00159195087696348)
(0.00415521673368642 -0.000922122694500986 0.000837308575989224)
(0.00390471987347382 0.000602009911636557 -0.000521905249856235)
(-0.0188960074588915 -0.0542488845280812 -0.00274559366948367)
(0.0173156150590223 0.00263285045375515 -0.00701185952746059)
(-0.0131617677475825 -0.0169627172634905 0.0011003659750749)
(-0.00352618199490111 -0.000465444986045788 0.0176526785265644)
(0.0045464558720332 -0.022476645254224 0.0077408946327704)
(-0.00560552518371083 -0.00573703927525048 0.00731889827461263)
(-0.00088927519089831 -0.0317587199884979 0.0221717721511568)
(-0.00154050292784041 -0.0411390464258796 0.00481162353612847)
(-0.000626520449026637 -0.0132938412181169 0.00894429263869612)
(-0.000511056002097719 -0.0152634852913663 0.00950161568574762)
(-0.00814805297149087 -0.0247548627083179 0.000931834479463753)
(-0.000352938249299857 0.00107020155770138 -0.00566514954756308)
(-0.00103247511309483 0.00194805048548899 -0.00647114881820843)
(0.00234840622958836 0.00187729413207899 -0.00239769737659347)
(-0.000621940564433503 0.00211966493210147 -0.00643325738599768)
(0.000783946081616904 -0.00208959711994221 -0.00728602579410885)
(-0.00475553478493229 -0.00710790626418339 -0.00918293459733086)
(-0.00373515592261997 -0.0290689262392224 -0.00146323154694381)
(-0.00490208694916547 -0.0325810013550087 0.00339890344529305)
(0.000501552015317706 -0.0111814919243891 0.0116929801328992)
(-0.00131745004297171 -0.00874668950592315 -0.00115011246481257)
(-0.00687935051109475 -0.0108921072141016 0.00299909410267806)
(-0.00163445511443841 -0.00580488084101069 -0.00504044756726213)
(-0.0112911969514765 -0.00990497223793272 -0.00700673575113581)
(-0.00947455680576483 -0.0194890525665953 -0.00457056154071393)
(-0.000513194955658316 -0.00643865742459977 -0.00285976676144725)
(-0.00784016107185369 -0.00978594713875012 -0.00545072117001848)
(-0.00753292345868545 -0.0285772408461742 -0.000694761056532898)
(-0.000891408466235334 -0.0230133056296747 -0.00298592093861766)
(9.4059721280764e-05 -0.0057351947006535 -0.000825953294034662)
(-0.00114096715945495 -0.00678418266384755 -0.00256508794312053)
(-0.00440565103236613 -0.0130907595599049 -0.00585123088661124)
(0.000291390734460125 -0.0131022079835546 -0.00804069451303479)
(0.00393635711524642 -0.00194324426545334 -0.00887523580931665)
(0.000189891123282735 -0.00448521930079589 0.000559969214762019)
(0.000456400191344889 -0.00526463142647574 -0.000414125828188023)
(0.000258111706323626 -0.00718122656087339 -0.00225221410108474)
(0.00315127062300853 -0.0101850582784823 -0.00515950182669773)
(0.00689209298075996 -0.00414518243832334 -0.00723051318963052)
(0.00514606845928685 0.00276325797530131 -0.00722873726828339)
(0.000147452790224139 -0.00323239296636347 0.00127077188988816)
(0.000653105135145632 -0.00386756953562905 0.000982289913789545)
(0.0015004886883317 -0.00457169621693948 0.000228929538795815)
(0.00315996802975244 -0.00512186488839426 -0.000731863761236976)
(0.0056075544155496 -0.00398416324785838 -0.0021636684639055)
(0.00660754071134259 -0.000199989948187148 -0.00325229378256216)
(0.00427676358867039 0.003575084616242 -0.00425881238572163)
(0.00224186048227793 -0.00335408351912531 0.00113276980858758)
(0.00378062135178075 -0.00299450036366175 0.000594589688265419)
(0.00506049637435262 -0.00149628771640036 -0.000246415241636098)
(0.00481341766202436 0.000583388641781087 -0.0013953235090034)
(0.00295695631743062 0.00226552642574275 -0.00299643924525245)
(0.0020441326602535 -0.00186740412236289 0.00172309890909509)
(0.0028908650148245 -0.00129817549316864 0.00139527631275484)
(0.00328200119040404 -0.000331531296748162 0.000695110691093568)
(0.00277768658197811 0.000523383822254576 -0.000482299960399178)
(0.00032325850882248 -0.0450136490197928 0.00400100848807997)
(0.000793333214019797 -0.0359288822410345 0.0216915177307977)
(-0.00623225588355429 -0.00586327827229661 0.00562988080770863)
(0.0138183171681029 0.0147953735450838 0.0113577786410374)
(-5.89063734358115e-05 -0.0104320226598672 0.00545035605110837)
(0.00293808987404454 -0.00312302023713912 0.0135524366666675)
(-0.00482443919728517 -0.0288257034183736 0.000989325383460975)
(-0.0044296944334123 -0.0366509382684454 0.00518277264757051)
(-0.00251212429810402 -0.0143488726714763 0.00441931519968044)
(-0.00680284216441353 -0.00988834385976161 0.0123552863447337)
(-0.00990383588028017 -0.00962023864499207 0.00922875692246879)
(5.23206924180293e-05 0.000583835596903626 -0.00500274504241234)
(-0.000611591245221255 0.0015299400520087 -0.00574994334090189)
(0.00157679452062335 0.00117115288370196 -0.00219210951268934)
(-0.000992830069060732 0.00231257351734996 -0.00623746911244012)
(-0.0004340670312712 0.000700220446000073 -0.00708486835072779)
(-0.00266199013675207 -0.00246102284802879 -0.00858724057089029)
(-0.00761428131153321 -0.00821010131590214 -0.00615127054698103)
(-0.00773249209590284 -0.0114476520396124 0.00144670075458017)
(-0.00696390414711417 -0.0203868348762165 0.00987121681783628)
(4.15992517715852e-06 -0.0164170896569292 0.0113832265063281)
(0.000614328938679533 -0.00884158093611901 0.00879968763850369)
(-0.00490869066441034 -0.00831472962722518 0.0130185150371294)
(-0.000369187523623856 -0.00582524022054216 -0.00240891084965056)
(-0.00533840017820223 -0.00662685142243477 -0.00141866868580611)
(-0.00959107565448899 -0.00475916652397674 0.00369310283473612)
(-0.000213809090719864 -0.00547874544453193 -0.00283551073801196)
(-0.00478565169619656 -0.00568451906416007 -0.00592074140132367)
(-0.00887463272999845 -0.0138076189954035 -0.00759384447494782)
(-0.00632300245783245 -0.00866963903683679 -0.00285021372695562)
(7.11193606484939e-05 -0.0053852324040618 -0.0012418580442192)
(-0.00147030243472519 -0.00608010775710183 -0.00284907950084803)
(-0.00584707342094075 -0.0156494514167041 -0.004493719202313)
(-0.00157055138591147 -0.0207872560791675 -0.00393009962583875)
(2.46118621773095e-06 -0.00449354491886031 -0.00540103351468292)
(0.000174749547304981 -0.0045866194171576 7.07621779197016e-05)
(0.0002680596865618 -0.00523594557751129 -0.000837520979660548)
(-0.000625299494615712 -0.00710970348240416 -0.00240136590363085)
(0.0012992362061282 -0.0110568537790245 -0.00494976927425911)
(0.00589937645317654 -0.00399458351665699 -0.00713314626272437)
(0.00412447230537706 0.0037626638914497 -0.00719990056002479)
(0.00014788911336438 -0.00355305265980716 0.00087321844727711)
(0.000562555154171589 -0.00417121685731272 0.000493172801383171)
(0.00102033131046438 -0.00495420146590797 -0.000323922236083423)
(0.00258987571177734 -0.0061222202535076 -0.00138411861812565)
(0.00574709127126726 -0.00552895697763669 -0.00327967529045779)
(0.0070386979106641 -0.0010623340207341 -0.00456408674213679)
(0.0046083342219552 0.00310974619680889 -0.00520448601599619)
(0.000100462227913551 -0.0025636721932908 0.00128248272148331)
(0.000447694409028095 -0.00303449517683712 0.00120554723379572)
(0.00108220755835418 -0.00352057163884495 0.000941114266226965)
(0.00216501007142428 -0.00391712261197784 0.000512961082075671)
(0.00390477034727769 -0.00371868943821498 -6.28594461123986e-05)
(0.00551375845626742 -0.0022064685097718 -0.000901284517836528)
(0.00547457513427847 0.000318019612050958 -0.00184975126729186)
(0.00339547054786772 0.00250486491028755 -0.00328944326411655)
(0.00245156234705543 -0.00255955015150127 0.0011908578930778)
(0.0035565979085435 -0.00192370631955016 0.000791947238084044)
(0.00412442831032625 -0.000679403495751509 0.000105855875034025)
(0.00353046219677548 0.000570088319637204 -0.000970851169408661)
(0.00202035724540114 0.0015117667753112 -0.00253609497460318)
(0.00194698250141944 -0.00131157162579761 0.00151900109026661)
(0.00243279615801194 -0.000778720719115203 0.00116283619225878)
(0.00249653346598537 -0.000122720918319229 0.00051197731623196)
(0.00196974248233372 0.000310862691426952 -0.000531469437957607)
(-0.00191613432636499 -0.041454666032631 0.00281791782933239)
(-0.00537807845629024 -0.0369766090695553 -0.00135744120753444)
(0.00803384074813402 -0.00257748926103124 0.0135657449842269)
(0.0010072812281068 0.00571294378158531 -0.000363530439811479)
(-0.00287779257711318 -0.00940630774923795 0.00185071843392443)
(-0.00638310852417358 -0.00828550484650859 0.0113558714684441)
(-0.00782463940829769 -0.00932563015810611 0.0131283811432342)
(-0.00749353570896955 -0.0325450983868463 0.0112215037153185)
(-0.00194908845285065 -0.0194363960541428 0.00224802917945124)
(-0.00614414534717249 -0.0170941518281888 0.0081017569334523)
(-0.00884125637589076 -0.019801679007394 0.0136966252788276)
(0.000365813376891339 0.000182199222838373 -0.00447194023254616)
(-0.00029546320019975 0.00092954772346384 -0.00504207407128487)
(0.00106212438680142 0.000571915387274088 -0.00211805712903726)
(-0.000954472283416314 0.00188260854568658 -0.00575544574285661)
(-0.00118996228482789 0.00165393883863475 -0.0067826265653523)
(-0.00188963683285718 0.000585901537016975 -0.00763365888273062)
(-0.00408489938334014 -0.00266153185204689 -0.00567908954917755)
(-0.00757094759287749 -0.00266523852879119 -0.00135191704340811)
(-0.00983781376569283 -0.00558410206206955 0.00329351510887176)
(-0.00312329942157206 -0.0368363534160851 0.0121837808667011)
(-0.00097181872915707 -0.0233686318592445 -0.000191904954804415)
(0.000958476010881409 -0.0136767944147447 0.0116012737239726)
(-0.00216449980644865 -0.0154642860684513 0.0133676228661)
(0.000316196409976162 -0.00566395542323723 0.00240017588156349)
(-0.00192184026476631 -0.00579292807918372 0.00959567068618024)
(-0.00827650350320739 -0.00682182341454039 0.012541841843834)
(5.46940709956824e-05 -0.0050199521060042 -0.00195001720366036)
(-0.00145216893600877 -0.00425232530872298 -0.00264999660701653)
(-0.00605959954178356 -0.00487092311232872 -0.0015676323150512)
(-0.00503906903468909 0.00175272020901122 0.00294215345423897)
(0.000123720671887333 -0.00488017182385263 -0.00140020619528242)
(-0.000727921389457692 -0.00470721575790507 -0.00302886081636758)
(-0.00424060032472255 -0.00752812297356361 -0.00658776340893882)
(-0.00437711378973449 -0.0100098920166105 -0.0068356090680785)
(-0.00185004879055195 0.000870240164982655 -0.00356678766248688)
(0.000163613585929693 -0.00448905659261292 -0.00032743321387075)
(0.0001791286413829 -0.00495012155169654 -0.00127408969029025)
(-0.00101664393768945 -0.0067269003039096 -0.00290721601225383)
(-4.15579662107423e-05 -0.0133424504860313 -0.00474318645201183)
(0.00361261321983392 -0.00625389589341613 -0.00494860152631301)
(0.00175776770053229 0.00272697365372192 -0.00396560684597535)
(0.000147323325522507 -0.00371356220211972 0.000485657182255076)
(0.000514416809086494 -0.00428124779358019 2.81474066075832e-05)
(0.000770808269015238 -0.00498607564659199 -0.000806232004658891)
(0.00194308916700205 -0.00628894805129761 -0.00197043611427265)
(0.0052141947902827 -0.00560148821937429 -0.00377746585910495)
(0.0062356187926359 -0.000986010100317444 -0.0048512923467509)
(0.00343089834919502 0.00343975174098257 -0.00515578048404372)
(0.000106789338473538 -0.0028565944171227 0.000982705416890201)
(0.000448224271131689 -0.00334809008341442 0.000824808461345951)
(0.000996995831546211 -0.00386599044208423 0.000464128073035684)
(0.0019669186348576 -0.00439806945192217 -7.8104303763362e-05)
(0.0040185521345229 -0.00442182921762612 -0.00078185254359879)
(0.00592147085847013 -0.00301612163555297 -0.00178285948824325)
(0.00593198937713411 -0.000251805473691582 -0.00274703718292866)
(0.00369139283367981 0.00241260124000271 -0.00386254890044027)
(7.039315165227e-05 -0.00207322013819736 0.00124808028394854)
(0.000307365512888294 -0.00242292149904594 0.00123328907165031)
(0.00074603036639587 -0.00278490750520034 0.00113988903718904)
(0.00149637241195766 -0.0030878730842857 0.000962693993704257)
(0.00262941235413705 -0.00311977359214968 0.000686582574539376)
(0.00396639596037176 -0.00252760202398209 0.000274094392984877)
(0.00474776282263599 -0.00115792597002003 -0.000365138371052274)
(0.00416802468681764 0.000463933073007556 -0.00130732538398734)
(0.00236002129369812 0.00175662680540929 -0.00272892558050932)
(0.00241259011584664 -0.00186526939461517 0.0011485451034563)
(0.00307093785504913 -0.00122235497635253 0.000777407693049446)
(0.00319536898062062 -0.000334577004544574 0.000148212680106802)
(0.00253027473238372 0.000367163579695624 -0.000837179984058621)
(0.00131283510780486 0.000836553027371584 -0.00229744831825835)
(0.001730723516545 -0.000922450643048372 0.00131179772884191)
(0.00197008879519142 -0.000511966331519141 0.000945680388911323)
(0.00188931314276767 -0.000112049336429977 0.00034869001254744)
(0.00143379189153484 7.72069949305172e-05 -0.000583869080839855)
(-0.00502662231372297 -0.0376586762470989 0.00405949663600846)
(-0.00739965317627156 -0.0164601310936889 0.0126488145332319)
(-0.00304488052505351 0.00370229428475289 0.0130392595714677)
(-0.00241577995043528 -0.0105418481940852 -0.00364865662155905)
(-0.000917820837496852 -0.0132264400101398 0.00401803470786442)
(-0.00600679004246385 -0.0170492747691497 0.00602732025800366)
(-0.00984394463012756 -0.021101864843857 0.0143417849946722)
(-0.00538403294846995 -0.0409227600055893 0.010231144218928)
(-0.00178642719230338 -0.00230611812269513 0.005130481141788)
(-0.00405905311811046 -0.0418971951943199 -0.00550564901693075)
(-0.00880016076432083 -0.0104003648335003 0.00997284247924212)
(0.000591072388656829 -8.11681930376923e-05 -0.00409517625296684)
(-1.24599295633117e-05 0.000407216697144618 -0.00443785600408616)
(0.000774709901394822 0.00013617417709529 -0.00208154403433643)
(-0.000843226348499418 0.00121807511175903 -0.00503421963367165)
(-0.00153303791402002 0.00165695208754738 -0.00593464946565581)
(-0.00211926524553906 0.00166706370627177 -0.00628974996425563)
(-0.00346692736487748 0.000788627838414364 -0.00408538875972706)
(-0.00546663295674164 0.000933318946903211 -0.00140692562968051)
(-0.00824812019652232 0.00111723207496052 0.00205936887167613)
(-0.00383813771146042 -0.0119473168502801 0.00946051453290396)
(-0.00620849421507494 -0.0147995327006321 0.0083838227458099)
(-0.00124793013704042 -0.0146272190663131 -0.00347205523892304)
(0.00132964380547294 -0.0218349207441211 0.00302468096833769)
(-0.00224660966236444 -0.0365190695753504 -0.00360837612175724)
(0.000797371108018936 -0.00722502913583785 0.00511818275787645)
(0.00117778490415266 -0.0115214174042612 0.0128017466138613)