/*--------------------------------*- C++ -*----------------------------------*\
  =========                 |
  \\      /  F ield         | OpenFOAM: The Open Source CFD Toolbox
   \\    /   O peration     | Website:  https://openfoam.org
    \\  /    A nd           | Version:  12
     \\/     M anipulation  |
\*---------------------------------------------------------------------------*/
/*   Windows 32 and 64 bit porting by blueCAPE: http://www.bluecape.com.pt   *\
|  Based on Windows porting (2.0.x v4) by Symscape: http://www.symscape.com   |
\*---------------------------------------------------------------------------*/
FoamFile
{
    format      ascii;
    class       volScalarField;
    location    "200";
    object      k;
}
// * * * * * * * * * * * * * * * * * * * * * * * * * * * * * * * * * * * * * //

dimensions      [0 2 -2 0 0 0 0];

internalField   nonuniform List<scalar> 
10103
(
2.02671647943425e-07
2.01633853815219e-07
3.30827142037946e-06
3.5207859182243e-06
2.0114124251787e-07
3.30937053634736e-06
3.51371712516914e-06
1.19909563584535e-05
4.50919947352564e-05
1.50193957945331e-05
2.00405047979247e-07
3.29277333625768e-06
3.49847303449163e-06
1.19849184455343e-05
4.50903386853993e-05
1.50086710089266e-05
2.30645493804456e-05
0.000102173378205461
0.000106923696914994
3.25441310263809e-05
1.98552800761545e-07
3.25789163478235e-06
3.46630044672562e-06
1.19170360109906e-05
4.48960480102433e-05
1.49271657444246e-05
2.30527840693089e-05
0.00010213572806367
0.000106870319856046
3.2513542609219e-05
3.53045890292087e-05
0.000155644565617008
0.000195552940956384
0.000169325680795744
5.42089799033595e-05
1.95552289271884e-07
3.2049865304821e-06
3.41338821053742e-06
1.17930906483437e-05
4.44987811191516e-05
1.47775840685368e-05
2.29247633112727e-05
0.000101745320932387
0.000106447973151595
3.2330834825395e-05
3.52884660797088e-05
0.000155579819846907
0.000195442718804694
0.000169192759581341
5.41398135835721e-05
4.84123674082416e-05
0.000205468608041467
0.000274935105258213
0.000282932032382525
0.000231832947895308
7.89475265691485e-05
1.91441534930746e-07
3.13474037452371e-06
3.34140089320391e-06
1.16131148394054e-05
4.39189293251844e-05
1.45552144152907e-05
2.2695719142423e-05
0.000101016757736779
0.000105668052590614
3.20125652206875e-05
3.50986367482484e-05
0.000155025443608044
0.000194768142244657
0.000168552824783676
5.38310258428914e-05
4.83927912640981e-05
0.000205386697941542
0.000274787611106513
0.000282726264313714
0.000231605826031882
7.88234657359085e-05
6.23340708564564e-05
0.000252013846205816
0.000348600823286
0.000381756685998726
0.000368776361354906
0.000293619826358457
0.000106721550119163
1.86223641798366e-07
3.04774012784702e-06
3.25150472390465e-06
1.13774193846748e-05
4.31652423850087e-05
1.42624093842994e-05
2.23665858205342e-05
9.99628501748065e-05
0.000104554628695666
3.155020515601e-05
3.47579653382498e-05
0.000154011385492767
0.000193555431008196
0.000167412385635678
5.33036163061043e-05
4.81408803420887e-05
0.000204688901307032
0.000273895512465165
0.000281772086129516
0.000230734483708621
7.8363708944397e-05
6.2313430309427e-05
0.000251924440921322
0.000348429533889131
0.000381500703426001
0.000368454762163384
0.000293284649962999
0.000106525885177091
7.67888472256309e-05
0.000295823845907611
0.000416929917178524
0.000472899463448486
0.00048467055157008
0.000452598874398945
0.000354731012654022
0.000137631367191746
1.79889113221523e-07
2.94430708430454e-06
3.14413508145812e-06
1.1087166544764e-05
4.22401602161736e-05
1.39009653738609e-05
2.19367941097867e-05
9.85869261889125e-05
0.000103108717553641
3.09454383982466e-05
3.42713273865376e-05
0.000152545429739959
0.000191814625921181
0.000165789409722599
5.25469102566706e-05
4.76863430636783e-05
0.000203414482176032
0.000272297360498962
0.000280093977605638
0.000229218704715388
7.75909894462888e-05
6.19996802162711e-05
0.000251101137349159
0.000347345430022758
0.000380282829171447
0.000367205050996173
0.000292163331731658
0.000105887364810188
7.67713793423847e-05
0.000295736149173915
0.000416748004780225
0.000472610287853348
0.000484282242765296
0.000452143072588373
0.000354272971004339
0.000137345522424624
9.13137972940061e-05
0.000337072814653397
0.000480317787113269
0.000557413409027666
0.000590106413694702
0.00058424380478323
0.000533918965276899
0.000415308042045052
0.00017077796733664
1.72428147657116e-07
2.8248933209449e-06
3.01972240904512e-06
1.0742839997991e-05
4.11430893860543e-05
1.34716730015734e-05
2.14076178304738e-05
9.68872354879593e-05
0.000101325984132192
3.01990448604656e-05
3.36371087463857e-05
0.000150626585584535
0.000189541658808309
0.000163678437808632
5.15597625961282e-05
4.70377779974926e-05
0.000201573466786448
0.000269998671550063
0.000277694781639954
0.000227066399488874
7.64907475912348e-05
6.14302318236303e-05
0.000249591063871038
0.000345395833077979
0.000378136560102511
0.000365047025132132
0.000290251610667483
0.00010482910141121
7.63989719863824e-05
0.000294803826450972
0.000415497399244361
0.000471161006182184
0.000482724365213571
0.000450581396321287
0.000352882148208499
0.000136498102241009
9.13032719686854e-05
0.000336995420828327
0.000480137538343041
0.000557107069590414
0.00058967297100847
0.000583703226125921
0.00053331232375527
0.000414712029643963
0.000170384829093277
0.00010549604829494
0.000375642513562362
0.000539114738462737
0.000635699214352816
0.000687448864262237
0.000702149051635303
0.000680008434439623
0.00061270334953731
0.000474761858664181
0.000203006367897918
1.63844795682606e-07
2.87885174145136e-06
2.69014200797406e-06
1.03454285414225e-05
3.98737183677151e-05
1.29756776899496e-05
2.07792426211006e-05
9.48582907188958e-05
9.9200549862838e-05
2.93117305262841e-05
3.28549747610017e-05
0.000148249361702964
0.00018672668906274
0.000161068620091917
5.03409950231819e-05
4.61928300406209e-05
0.000199160471866952
0.000266991435864618
0.000274563494077204
0.000224264971430991
7.50567314385128e-05
6.06159103338974e-05
0.000247407175969985
0.000342586626194038
0.000375061821242844
0.000361974061137055
0.000287544353648896
0.000103327392100706
7.571584654041e-05
0.000293081665683586
0.000413233403821613
0.000468592723481912
0.000480023446671998
0.000447927387643475
0.000350550679143916
0.000135106475199381
9.08771331779041e-05
0.000335969931009718
0.000478744761135225
0.000555457687666273
0.000587848951161303
0.000581790255044123
0.00053142319339173
0.000413031730231138
0.000169303035999304
0.000105495487650247
0.000375582503289832
0.000538947079582934
0.00063539081312367
0.00068698993761001
0.00070155076339064
0.000679298818842244
0.000611931091550495
0.000474016330008152
0.00020250166637872
0.000119079210383485
0.000411401435576125
0.000593518560467061
0.000708162040033655
0.000777566626745891
0.000810204343490951
0.000809050641919906
0.000771911475189302
0.000688788797262506
0.000531674342947638
0.000225484800641249
1.54174890145405e-07
2.72232508021843e-06
2.54086911625607e-06
1.24147694766489e-05
3.84326769951498e-05
9.89648232564872e-06
2.00526701244716e-05
9.24945764974529e-05
9.6726872760384e-05
2.82852591964724e-05
3.19252956638254e-05
0.000145404041273756
0.000183357047181641
0.00015794845824492
4.88904941415388e-05
4.51492022402097e-05
0.000196165652683952
0.000263260933592742
0.000270682745858024
0.000220796570223871
7.32840085273484e-05
5.95540447258923e-05
0.000244543305971229
0.000338907312410784
0.000371043486483935
0.00035796693131735
0.000284019814902105
0.000101368925377781
7.47361423324626e-05
0.000290584938817667
0.000409963424938265
0.000464905588524334
0.000476170874868081
0.000444163980691546
0.000347255643363834
0.000133135290193514
9.00853540831059e-05
0.000334058234903763
0.000476202504402861
0.000552513673154148
0.000584667504618123
0.000578524772542799
0.000528257809493712
0.000410254130783441
0.000167537683885278
0.000105021669718904
0.000374478981618504
0.000537434860898126
0.000633571545907242
0.000684937707071067
0.000699340319302586
0.00067701841135979
0.000609700223457656
0.000472032646767516
0.00020118052311332
0.000119091572496359
0.000411364477792098
0.000593372972878288
0.000707865353879171
0.000777100632443714
0.0008095721412815
0.000808271052687355
0.000771018599797438
0.000687840178752608
0.000530779409049471
0.000224905135463474
0.000131933632467672
0.000444328174016626
0.000643666936771511
0.000775124355317509
0.000861055788021469
0.00091003387324619
0.000926370379725059
0.000910939436006357
0.000859996289906221
0.000761958289454311
0.000585050258039186
0.000208189551417874
1.4349500916817e-07
2.55121609170186e-06
2.37824543907456e-06
1.17916386612968e-05
3.6821765013996e-05
9.39810729401608e-06
2.71230423360241e-05
9.39009253872807e-05
8.97915284782416e-05
1.92301554043767e-05
3.08490864545591e-05
0.000142080215469814
0.000179419666080867
0.000154307794749293
4.72109339235286e-05
4.3907264809947e-05
0.000192576058936844
0.000258788611726957
0.000266032624345844
0.000216643770722345
7.11710596152779e-05
5.82419385113965e-05
0.000240984220612934
0.000334338611444748
0.000366058539209903
0.000352999937405502
0.000279651381982743
9.89417321954142e-05
7.34560594875627e-05
0.000287306725548493
0.000405675168653182
0.000460081781240215
0.000471142998909141
0.00043926180686325
0.00034296541723157
0.00013055861336346
8.89470973041176e-05
0.000331277788154444
0.000472519688218191
0.00054827605994801
0.000580120028283793
0.000573888351643265
0.000523787092387455
0.000406336431749775
0.000165036814038419
0.000104130965869266
0.000372399683134528
0.000534648046866892
0.000630296689353868
0.000681331898331876
0.000695544130594846
0.000673180396349522
0.000606008087933578
0.000468785797454947
0.000199034131403767
0.000118577053322572
0.000410196751096062
0.000591762231869092
0.000705904306924874
0.000774855751652149
0.000807109839935973
0.000805665561565627
0.00076836053443118
0.000685256586993681
0.000528488060565561
0.000223391505180847
0.000131961746338422
0.000444318746816868
0.000643551303275347
0.000774851475297163
0.000860599473517336
0.000909389696691577
0.000925549250317793
0.000909965440339194
0.000858910232378526
0.00076083344851237
0.000584037207402473
0.000207677295719769
0.000143994891187922
0.000474496578320189
0.000689708402283551
0.000836842094601359
0.00093832737347527
0.00100257537468101
0.00103441857853404
0.00103638481173071
0.00100794107042314
0.000944296251582989
0.000833240376876646
0.000643326468218039
1.31948479957643e-07
2.36694473354966e-06
2.20351550315939e-06
1.11097346896652e-05
3.50438512587251e-05
8.85359102873046e-06
2.58302721974046e-05
9.07204230497517e-05
8.67459385207058e-05
1.83150415201459e-05
4.53088793615057e-05
0.00015013903461251
0.00017490253789747
0.000138268493566949
2.96285963283087e-05
4.24683951199636e-05
0.000188377120646988
0.000253554547247186
0.000260593293689994
0.000211792375505065
6.87230147278767e-05
5.66784562193952e-05
0.000236713697764072
0.000328856550726333
0.000360079848149779
0.000347045457619508
0.000274414934690159
9.60419596592313e-05
7.18731693476305e-05
0.000283230252239868
0.00040034567799889
0.000454093336523471
0.000464907800491804
0.000433185238093071
0.000337641809929885
0.000127353862219362
8.74544145275448e-05
0.000327620649954838
0.000467682732519972
0.000542724945182584
0.000574179973045503
0.000567847144403716
0.000517969043131883
0.000401230572221071
0.000161754842585031
0.000102844743145652
0.000369364446417614
0.000530597121195665
0.000625568242652518
0.000676164593121538
0.000690144086360145
0.000667755720910334
0.000600811709921149
0.000464214231851727
0.000195989499802431
0.000117597057669074
0.000407971309715747
0.000588762364026143
0.000702340361733066
0.000770877972223062
0.000802850314221014
0.000801254371959285
0.000763942732132228
0.000681024160853611
0.000524762623944496
0.000220943482340171
0.000131412108657235
0.000443099299363596
0.000641860931140614
0.000772774295336891
0.000858194588788137
0.000906716562842611
0.000922672430395967
0.000906958687273488
0.000855866881926826
0.000757890447709798
0.000581440313854305
0.000206182707998505
0.000144040571800464
0.000474517987580508
0.000689628938156338
0.000836603210321578
0.000937895455205391
0.00100193897245922
0.00103358150093691
0.00103536300334415
0.00100676432606161
0.000943018257560299
0.000831967280027698
0.00064228759176452
0.000176294685811045
0.000155226116919508
0.000502025338744284
0.000731815876406627
0.000893544515958873
0.00100967936886901
0.00108837617695678
0.00113454897255702
0.00115151572276056
0.00114047590321773
0.00109996967336638
0.00102500632240915
0.000906656709247336
1.19724001363079e-07
2.17146408238852e-06
2.01857745439734e-06
1.03734150455043e-05
3.31025476625e-05
8.26602711209078e-06
2.44134913024375e-05
8.71840837240087e-05
8.33559905443673e-05
1.73118307893434e-05
4.31942129557177e-05
0.000145437247775132
0.000169795249553698
0.000133961082252907
2.82680273148768e-05
6.59533936267092e-05
0.000206233460401207
0.000254346726165648
0.000247539435058569
0.000183554547756273
4.08344849753868e-05
5.48648993905662e-05
0.000231713706929814
0.000322434837022403
0.000353079003766231
0.000340077293895508
0.000268293987939809
9.26798473588209e-05
6.99852643997893e-05
0.000278333903174233
0.000393945766410704
0.000446906507967825
0.000457429213217671
0.000425898184142442
0.000331253310283716
0.000123513427727711
8.56067744765034e-05
0.000323068643255814
0.00046166538455707
0.000535828123284073
0.000566809943465176
0.000560358912194393
0.000510756154052588
0.000394883218337442
0.000157651737885284
0.000101152152112761
0.000365364119165055
0.000525267421066423
0.000619364613672283
0.000669406755117282
0.000683103280121027
0.000660698496904116
0.000594053353877804
0.000458246815119509
0.000191973075596587
0.000116175015407631
0.000404708405849063
0.000584385123441679
0.000697176608488179
0.000765160205868333
0.000796776120158647
0.000795009430321335
0.000757724492072472
0.000675084900964264
0.00051952282179931
0.000217463985970475
0.000130352525926962
0.000440746351977083
0.000638677110661201
0.000768959762214422
0.00085389287507067
0.000902053501074514
0.000917766960571466
0.000901932796644266
0.000850862770667648
0.000753106942085411
0.000577233952645043
0.000203798048410636
0.0001434613958863
0.000473257769824533
0.000687875661889198
0.000834432912466124
0.000935360165817487
0.000999091884081746
0.00103047993809138
0.00103206963559918
0.00100335287513161
0.00093958532140052
0.000828655127267422
0.000639338483880838
0.000174938747212489
0.000155290100142874
0.000502079482946283
0.000731777064518391
0.000893347729925566
0.00100928428529667
0.001087764819387
0.0011337186470389
0.00115047540129982
0.00113924700007983
0.00109859412035374
0.00102356818355874
0.000905323423011918
0.000743115494097263
0.000508774579737647
0.000165602787398595
0.000527042236169915
0.000770175233731168
0.000945451713269335
0.00107535990742306
0.00116777666132973
0.00122749529092013
0.00125812497826808
0.00126172600035102
0.00123851100205538
0.00118659281253902
0.00110164912454585
1.07039300758807e-07
1.96716312879849e-06
1.82555023376308e-06
9.58827083933125e-06
3.10032601896421e-05
7.64030779374397e-06
2.28802876494832e-05
8.32911828012044e-05
7.96207593614349e-05
1.62262579015163e-05
4.08783968119471e-05
0.000140198943550965
0.000164088859617392
0.000129151738947249
2.67732831372242e-05
6.28805122773668e-05
0.00019996264970185
0.000247277236850312
0.000240725582069754
0.000178095981709777
3.90098076929763e-05
8.88836842559407e-05
0.000261282515093142
0.00033207290655168
0.000345028542527995
0.000315047054173167
0.000225965177399638
5.28029675192247e-05
6.77929295498642e-05
0.000272595931230118
0.00038644316346947
0.000438484925849967
0.000448670621538661
0.000417368864476146
0.00032378348087864
0.000119057262183585
8.3401528172738e-05
0.000317597446536228
0.000454433834675605
0.000527545767356929
0.000557966381469453
0.000551377992857934
0.000502102758401664
0.000387253156697726
0.000152712550263889
9.90530741156236e-05
0.000360378946616335
0.000518629662382025
0.000611649732127204
0.000661016321026419
0.000674374081517494
0.000651954909895604
0.000585670725203042
0.000450809304265465
0.000186913907146049
0.000114298534853993
0.000400400497517253
0.000578614793255368
0.000690389813847196
0.00075767116690129
0.000788847954976068
0.000786882817886233
0.000749646745516203
0.000667362819703419
0.000512670388596608
0.000212862302815429
0.000128806937276716
0.000437282182896895
0.000634012379283516
0.000763411873575291
0.000847687981937261
0.000895383792091442
0.000910805917575511
0.000894849618220097
0.000843845502838194
0.000746411551428817
0.000571325822268499
0.000200386954204471
0.000142331441035915
0.000470795447971802
0.00068453417012046
0.000830402882125845
0.000930778340395078
0.000994078785058405
0.00102514736951342
0.00102652597626119
0.0009977131849043
0.000933988873474467
0.000823302176085935
0.00063459045812368
0.000172776727309799
0.000154686609305997
0.000500787895657742
0.000729975367888774
0.000891104575641876
0.00100664504963942
0.00108477682694351
0.00113043326925271
0.00114694752487163
0.00113553807020962
0.00109477855246714
0.00101974129437748
0.000901605601440791
0.000739653663612178
0.00050612197505197
0.000165684710661756
0.00052712944552151
0.000770179650846118
0.000945302932892571
0.00107501166092056
0.00116720495801257
0.00122669141080857
0.00125709170540903
0.00126047791662668
0.00123708197884177
0.00118505595864869
0.00110015271224811
0.000977435306532037
0.000842857882764338
0.000629736178153355
0.000175108930016031
0.000549669147741785
0.000804972550139867
0.000992779392057269
0.00113559598729418
0.00124102860965267
0.00131366741291836
0.00135715548710174
0.00137392541526279
0.00136499446945917
0.00132997198799531
0.00126676667551486
9.41054287719187e-08
1.75681058017906e-06
1.6269260632128e-06
8.76135497821032e-06
2.87532064150059e-05
6.98167165838339e-06
2.12400223455956e-05
7.90416479944871e-05
7.55412819262127e-05
1.50656507702086e-05
3.83725220107554e-05
0.000134420549629122
0.000157775728234702
0.000123836036463228
2.51520495879357e-05
5.95268978314792e-05
0.000192977225262387
0.000239371035585445
0.000233097279433147
0.000171991053843901
3.70014863309308e-05
8.46962224263259e-05
0.000253383230396331
0.000323013663886834
0.000335903184251252
0.000306668358193853
0.000219450903896713
5.04968980669305e-05
0.000114041862131676
0.000315235954714556
0.000407572852944195
0.000438597501434001
0.000428792187540418
0.000377804647512107
0.00026599322036805
6.5297242267171e-05
8.08380011441656e-05
0.00031118018912737
0.0004459499379339
0.000517834060460382
0.000547603299730743
0.000540859843443923
0.000491972413646122
0.000378325871462417
0.000146968739918127
9.65454768312269e-05
0.00035438195256153
0.000510645637394958
0.000602378234658851
0.000650943007664713
0.000663902745986608
0.000641468778079835
0.000575606259303489
0.00044184586871281
0.000180786211550709
0.000111967044866985
0.00039502540614469
0.000571419480599098
0.000681940307223964
0.000748364633269702
0.000779013369264196
0.000776815586558467
0.000739641788044176
0.000657776010601113
0.000504099674593227
0.000206969608228778
0.000126762014466499
0.000432699558388827
0.000627850190251385
0.000756105675107274
0.000839546681864527
0.000886666051922438
0.000901739672333708
0.000885649867977324
0.000834741618618201
0.00073770764431999
0.000563586817346044
0.000195920063285657
0.000140673901726546
0.000467155960663961
0.000679617724826336
0.000824517673857736
0.000924144166410605
0.000986883571444499
0.00101755790726105
0.00101869610407619
0.000989797951203459
0.000926168012156017
0.000815832484291877
0.000627950470425944
0.000169710118039099
0.000153494663634783
0.000498232460768157
0.000726499916576661
0.000886890682929037
0.00100182285854929
0.00107946185212723
0.00112473216717203
0.001140960392178
0.00112936451166578
0.00108852700596246
0.00101354372201957
0.000895643760766813
0.000734217753033368
0.000501965294393652
0.000165061576092333
0.000525814299575115
0.000768341740735263
0.000943004401321089
0.00107229175426046
0.00116410544306086
0.00122325837202698
0.00125337404970789
0.00125652887766996
0.00123296295063168
0.00118083831651635
0.0010959114311389
0.00097323581013513
0.000838908808142653
0.000626525851257545
0.000175207252179302
0.000549788191418686
0.000805020801283212
0.000992682264592654
0.00113530208106144
0.00124050840949345
0.00131290660566684
0.00135615121069861
0.00137268638733616
0.00136354845399372
0.00132838591563116
0.0012651831461851
0.00117010359329496
0.00104681291664819
0.000912265927622562
0.000701246655414904
0.000183735530417543
0.000570019038462831
0.000836387586201381
0.00103573961690432
0.00119060658099507
0.00130834905772964
0.00139333050719488
0.00144910358853291
0.00147821316796043
0.00148204257833479
0.00146090361522454
0.00141401186521714
8.1132207874348e-08
1.54332073690984e-06
1.42537982946712e-06
7.90110041460936e-06
2.63623377762168e-05
6.29625253878374e-06
1.95047808385094e-05
7.44369995983289e-05
7.11202016473656e-05
1.38385393066089e-05
3.56878944108734e-05
0.000128098028695175
0.000150849762305415
0.000118011573712393
2.34142677195312e-05
5.59080281161577e-05
0.00018527227151505
0.000230615561493754
0.000224641019334325
0.000165231664652941
3.48191225536488e-05
8.01607243114451e-05
0.000244602518501725
0.000312883272369641
0.000325680240256412
0.000297276264771939
0.000212156091793775
4.79546857161663e-05
0.000108555325661686
0.000305631484602454
0.000396492809652518
0.000427178724004744
0.000417793824663348
0.000367998170687958
0.000258503702464879
6.25024154336285e-05
0.000140521045739173
0.000368124213767005
0.000480342768533082
0.000528764352869281
0.000535675369131555
0.000506648140733318
0.000436173939306225
0.000303789330926192
7.79161679843014e-05
9.36271253247652e-05
0.000347342650806044
0.000501271744283777
0.00059149927613486
0.000639132309961821
0.000651633906215867
0.000629187799724755
0.000563818932474475
0.000431341435382059
0.000173611365902313
0.00010917740223754
0.00038855213264686
0.000562756670193201
0.000671777490571511
0.000737184135354897
0.000767211562275486
0.000764743370731893
0.000727641380747194
0.000646250575939406
0.000493730687450344
0.000199844426242595
0.000124216547990354
0.000426974238501912
0.000620155909955712
0.000746998181505589
0.000829418656448421
0.000875843358384225
0.000890504930513997
0.000874262431904282
0.000823467010815983
0.000726887359409541
0.000553863254332377
0.000189937316591415
0.000138476233958783
0.000462330075688939
0.000673108656323346
0.000816750700400968
0.000915422467040083
0.000977462845376714
0.00100766024264241
0.0010085203427114
0.000979536562288738
0.000916034166789783
0.000806125679662322
0.000619254709037218
0.000165685550656065
0.000151736741664595
0.000494440420634478
0.000721364418244196
0.000880710837257029
0.00099481211802595
0.00107180415766332
0.00111659024845756
0.00113247988904467
0.00112068310459574
0.00107978745559278
0.00100491593574184
0.000887366513133767
0.000726684058895676
0.000496176420605584
0.000163815098902018
0.000523180128440846
0.000764753275237402
0.000938634886923958
0.00106726496561594
0.00115853199352017
0.001217240608004
0.00124700658426423
0.00124990223088621
0.00122616900746173
0.00117397642102441
0.00108910227075238
0.000966666880394821
0.000832766737559257
0.00062155373001162
0.000174568539019774
0.000548455785721883
0.000803156630372728
0.000990343089951952
0.00113252161835704
0.00123732318427381
0.00130935779221943
0.00135228267447884
0.00136854533048163
0.0013591878825343
0.00132386338497523
0.00126054733010691
0.00116536433754635
0.00104221987615725
0.000907921045957711
0.000697636571517669
0.000183845464805023
0.000570166738657416
0.000836478108762324
0.00103569546102591
0.00119037195795772
0.00130788943137483
0.00139262633851683
0.00144814676162668
0.00147700715569548
0.00148061015455132
0.00145930778775676
0.00141239470379233
0.0013377259169521
0.00123413913495687
0.00110892618203584
0.000963440909266285
0.000749848661700715
0.000191475874385597
0.000588195280462875
0.000864591545435269
0.00107454083982251
0.00124060938877449
0.00136994520074173
0.00146669160990273
0.00153425763787851
0.00157516390533453
0.00159093058196468
0.00158219926705442
0.00154883308650449
6.82770853807412e-08
1.32968983100187e-06
1.22383508821865e-06
7.01692665891777e-06
2.38437871866363e-05
5.59100494824312e-06
1.76902683621534e-05
6.94819782256635e-05
6.63622880425496e-05
1.25547815407853e-05
3.28401418896988e-05
0.000121228820837669
0.000143307230896449
0.000111677907184402
2.15718214352485e-05
5.20313451841908e-05
0.000176838849137805
0.000220999808692601
0.000215345911588133
0.000157812192699716
3.24747970076652e-05
7.52996958947163e-05
0.000234934069424035
0.000301665656570179
0.000314339893129841
0.00028685123807019
0.000204068677228321
4.51871470708688e-05
0.000102693453833297
0.000294994487159595
0.000384114552295588
0.000414386639705366
0.000405458496122852
0.000356994244960287
0.000250107798319596
5.94162774405439e-05
0.00013353241194998
0.000356705299055889
0.000467204710873785
0.000515057121759953
0.000522140161760394
0.000493944586105878
0.000425066681876057
0.000295398101755877
7.46400986274816e-05
0.000165562207696315
0.000419346512471251
0.000550293275203139
0.000615068283234594
0.000637514317829916
0.00062552903342131
0.000578959918934507
0.000490461786735562
0.000339228741491689
9.02971284264223e-05
0.000105926839299838
0.00038094685151639
0.000552577387532317
0.000659843905638214
0.000724067284448677
0.000753377800257674
0.000750601558243633
0.000713585031938454
0.000632737984432951
0.000481532781948647
0.000191265741301148
0.000121167417998425
0.000420072732458185
0.000610882940535399
0.000736033745929622
0.00081724165956932
0.000862848502963812
0.000877030260214381
0.000860611320082655
0.000809938265582603
0.00071385231021898
0.000542039949493457
0.000182966823302161
0.00013573546332342
0.000456291952064609
0.000664969578638271
0.000807055618448176
0.000904558957442393
0.000965755553620709
0.000995387089123066
0.000995924653513514
0.000966844889080188
0.000903483572552625
0.000794039917223137
0.000608278488424891
0.0001603095074955
0.000149401164518022
0.000489401047442188
0.000714549596850113
0.000872536675999868
0.000985575595199202
0.00106175824202641
0.00110595441577362
0.00112144556927029
0.00110942509868115
0.00106847879168254
0.000993753395170651
0.000876625114884703
0.000716846521654955
0.000488564671043527
0.000161968251545357
0.000519255811083937
0.000759427843210137
0.000932199019548142
0.00105992553903056
0.00115046888405778
0.00120861345335258
0.00123795651017395
0.00124055789320013
0.00121665510122606
0.00116442480354875
0.00107967548279813
0.000957615003644504
0.000824310446782579
0.000614676544214725
0.000173274609050291
0.000545755713084739
0.000799473424134778
0.000985842887884124
0.00112732215352738
0.00123153023980088
0.00130306968912234
0.00134558984232925
0.00136153250777753
0.00135193747661471
0.00131645748880286
0.00125307422204572
0.00115795209719266
0.00103508451341584
0.000901233285816657
0.00069210830910276
0.000183193717797797
0.000568821918943092
0.000834595501256358
0.00103332772860718
0.00118754799554468
0.00130464087528734
0.00138898969623508
0.00144416134119872
0.00147271526372459
0.00147605877935641
0.00145454554441424
0.0014074532978894
0.00133257660261631
0.00122901958830679
0.00110395660116201
0.000958751952871001
0.000745913983193684
0.000191592354030854
0.000588365374840509
0.000864720313794927
0.00107454854108502
0.00124043646087322
0.00136955249232592
0.00146605465144895
0.00153336336696662
0.00157401095329811
0.00158953737448327
0.00158062603329835
0.00154722354868454
0.00148843977101896
0.00140268205386955
0.00129182538967691
0.00115919588623495
0.000999909290615936
0.000782705540967249
0.000198276044828236
0.000604281058916213
0.000889744089237072
0.00110938726185483
0.00128582404437837
0.00142602703916676
0.00153394153904523
0.00161281871505811
0.00166508740255381
0.00169227672376606
0.0016951694161033
0.0016739380816945
5.58607806611784e-08
1.11914242388738e-06
1.02555561303028e-06
6.11921305816934e-06
2.1214948296839e-05
4.87363496579959e-06
1.5815310256861e-05
6.41851916495375e-05
6.1274761868168e-05
1.1225405576163e-05
2.98532050891314e-05
0.00011381615864688
0.000135147887228035
0.000104836115971549
1.96379638299759e-05
4.79082124914915e-05
0.000167668166534708
0.000210516289278113
0.000205204109808806
0.000149728916292823
2.99833010850557e-05
7.00989115617176e-05
0.000224359335879111
0.000289345024357754
0.000301865895207436
0.000275377072523932
0.000195179266076081
4.22085345752754e-05
9.65003557068989e-05
0.000283329501210118
0.000370420625483091
0.000400196883595966
0.000391758931998124
0.000344766757655584
0.000240788979277941
5.60509323474905e-05
0.000126219445588126
0.000344139702585
0.000452554085839265
0.000499708499506483
0.000506959561638026
0.000479683273347652
0.00041259139538976
0.0002859818739981
7.10169004065268e-05
0.000156853473781396
0.000405973894221025
0.000535038982042831
0.000599076418015763
0.000621495377348865
0.000610080239559109
0.000564707969376402
0.000478169536799646
0.000330008355822144
8.65589010110724e-05
0.000181750946325388
0.00046758283273364
0.000617232918007245
0.000697427577099061
0.000734330089530452
0.000737447569097724
0.000708949667059825
0.00064607882403357
0.000540829227998912
0.000372173082942457
0.000102213861280372
0.000117609351496326
0.000411956376894671
0.000599977133134863
0.000723148505500224
0.000802945872967009
0.00084760828262304
0.000861241114176023
0.000844622559308032
0.000794084598561473
0.000698536681193159
0.00052802138965635
0.000173827993216275
0.000132447800528233
0.000449005393374665
0.000655150006564219
0.00079537182902269
0.000891485839186778
0.000951688221306206
0.000980660546799568
0.000980826744029437
0.000951633815306129
0.000888412406698267
0.000779438670988497
0.000594853876585299
0.000153923137454849
0.000146482777061702
0.000483085421321445
0.00070601535691525
0.000862318359413326
0.000974055152416046
0.00104925894763681
0.00109275344331919
0.00110778031454293