/*--------------------------------*- C++ -*----------------------------------*\
  =========                 |
  \\      /  F ield         | OpenFOAM: The Open Source CFD Toolbox
   \\    /   O peration     | Website:  https://openfoam.org
    \\  /    A nd           | Version:  12
     \\/     M anipulation  |
\*---------------------------------------------------------------------------*/
/*   Windows 32 and 64 bit porting by blueCAPE: http://www.bluecape.com.pt   *\
|  Based on Windows porting (2.0.x v4) by Symscape: http://www.symscape.com   |
\*---------------------------------------------------------------------------*/
FoamFile
{
    format      ascii;
    class       volScalarField;
    location    "200";
    object      omega;
}
// * * * * * * * * * * * * * * * * * * * * * * * * * * * * * * * * * * * * * //

dimensions      [0 0 -1 0 0 0 0];

internalField   nonuniform List<scalar> 
10103
(
3.73734922155493
3.73735139990989
3.98683253486339
3.04791046762875
3.73734077550497
3.98685621615656
3.04790917893939
4.20371297736552
1.02513826490872
3.02834735616194
3.737337763125
3.98680068813873
3.04791210468647
4.20375907813518
1.02479753462817
3.02834794752523
4.33730861222848
0.987256284436434
0.834360805501805
2.99243724289199
3.73732114530662
3.98681679011599
3.04791498764207
4.203664915431
1.02474090821968
3.02835118919333
4.3373393973255
0.986957657462946
0.834176425074528
2.99244006801209
4.40627919263996
1.04807958531328
0.621830655920032
0.841162328548723
2.97494419100702
3.73728427170651
3.9867989189361
3.04790170369421
4.20369924186754
1.02453801147201
3.02835913660116
4.33728647904058
0.986243708935411
0.833936334384204
2.99244799032097
4.40629050079893
1.04784584844127
0.621639010115478
0.840969579546461
2.97495134666853
4.43507589818257
1.10561288029941
0.603311549823696
0.55404515008085
0.871902915400248
2.97384212483954
3.73722872139226
3.98676421136003
3.04792987876444
4.20369169356904
1.02377291323807
3.02836007758106
4.33729950117782
0.984958100574334
0.833466488155422
2.99246698653983
4.40628175629652
1.04703005186213
0.621000510085748
0.84046640897165
2.97496934782962
4.43508596841634
1.10542563540035
0.603147050713555
0.55385551902645
0.871675367401221
2.97385721902173
4.43971636349095
1.15293338130281
0.618615978862694
0.488715253277609
0.547080837186197
0.90616281597689
2.97198803640423
3.73714643361032
3.98670658375187
3.04794837432847
4.20367229261342
1.02242680368964
3.02840564255434
4.33730123297346
0.983033743058516
0.832373153734269
2.99250586118799
4.40627431959321
1.0455786733221
0.619889734706009
0.839654010728594
2.9750102350848
4.43508636903859
1.10458135699904
0.602462398181587
0.553226397762595
0.871008788250446
2.97389427764657
4.43972528214075
1.15278299230517
0.618472178470885
0.48854950253723
0.546871210330999
0.905896892960089
2.97201657546414
4.43310442460738
1.19118325122053
0.640288814259834
0.475489820582238
0.453747387833032
0.557467651325262
0.937759040130749
2.96211912703611
3.73702866342576
3.9866247707707
3.04797769752047
4.20363732171202
1.02049559526974
3.02845593145822
4.33729825297123
0.980461135146089
0.830673035156009
2.99257645964016
4.40627734069788
1.0434645982224
0.618234417470918
0.838234080513587
2.97509292121143
4.43507521138449
1.10306766384252
0.601264895023738
0.552156006612852
0.869951928524435
2.97397663997968
4.43973336842385
1.15192474463212
0.617781821160628
0.487936316629607
0.54621977963707
0.905127012257941
2.97208661131671
4.43310833819501
1.19106347284005
0.64016278881219
0.475339934354095
0.453564960719143
0.557234139972633
0.937455625650436
2.96216578014264
4.42456998660237
1.2227234622606
0.661832072732457
0.478655535738023
0.421683532063013
0.445826848375038
0.572560762076413
0.964679209405199
2.95324750513219
3.73686764118494
3.98651152396347
3.04801915079783
4.20358842097583
1.01796638287298
3.0285325872903
4.33728088860487
0.977221399908439
0.828371694682891
2.99269304030253
4.40628011236471
1.04067523460092
0.61601137913562
0.836207355387723
2.97524339474053
4.43507851029866
1.10086534009352
0.59953819322019
0.550586159850849
0.868300767047291
2.97414178543704
4.43971614115761
1.15037036029839
0.616562126872027
0.486879381592124
0.545125601092081
0.903911222642413
2.97224123066895
4.43311275021556
1.19019955851858
0.639472140845656
0.474745911597582
0.452970311728515
0.556550631286196
0.936616380410275
2.96228657760098
4.42456977819959
1.22263036365926
0.661722683424561
0.478518744671686
0.421519051583477
0.445625829126597
0.572301990853854
0.964340956683273
2.95331968323941
4.41827024575506
1.24972312103455
0.68177515582039
0.487437684301903
0.411923684025942
0.400828093471008
0.448101838385305
0.587832736861811
0.98845295465353
2.98372909100893
3.73665261468742
3.04807018476487
3.98635918382598
4.20352274260704
1.01481474901553
3.0286380357441
4.33726201484686
0.973287287658944
0.82544622042094
2.99286812541596
4.40627353604342
1.03718623666427
0.61319692902624
0.833575265483409
2.9754914056977
4.43507944353046
1.0979607487774
0.597261288939314
0.548492862521998
0.866040499614369
2.97444144727839
4.43972260943726
1.14810285597214
0.614806570160126
0.485362367098769
0.543547557974947
0.902103333136627
2.97254967116919
4.43310458148978
1.18861800585545
0.638238864128896
0.473712369438288
0.451962279408315
0.555415945661476
0.935281636248009
2.96255378015007
4.42457057845584
1.22176583614595
0.661034263368656
0.477937744142093
0.42096357130198
0.445026540545233
0.571585397959612
0.96345594157368
2.95350873117985
4.41827379458625
1.24965521495536
0.681682241169077
0.487313466141624
0.411773520722174
0.400648948273623
0.447881722982811
0.587548795091185
0.98808365699409
2.98382676028519
4.41468847815087
1.27354569110166
0.699981947844339
0.498063938981489
0.411525090127825
0.381811435696142
0.39386990873106
0.45392731738543
0.601721630754759
1.01495682181201
3.21034670515829
3.73636100712315
3.04812856616502
3.986177159555
3.02876727472946
1.01101051584851
4.20343550655953
4.33723769441154
0.96862378607521
0.821860932115418
2.99310457387179
4.4062689143869
1.03296598091282
0.609761124232883
0.830314540263488
2.97586066853844
4.43508062320651
1.09432772258658
0.594407766088824
0.545854055864998
0.863164688080144
2.97493357574233
4.43972415789802
1.1451064637656
0.612497882417712
0.483366056259943
0.541461632431433
0.899685325398281
2.97310666001544
4.43310349426461
1.18630358051589
0.636458409912378
0.472231123936477
0.450525773041987
0.553800962367684
0.933372313397595
2.96308620753859
4.42456961313311
1.22016763786358
0.659791621206036
0.476917819655104
0.420015972623105
0.444026644633566
0.570408489498314
0.962032212406239
2.95392509349629
4.4182697262471
1.24879460371519
0.680998190627131
0.486742454802323
0.411243368658585
0.40010464636039
0.447268978080518
0.586801871552277
0.987157293005953
2.98408378225068
4.41469615940661
1.2735026314287
0.699905828461589
0.497952511294788
0.411387871278696
0.381649447881594
0.393676530341278
0.453688714390099
0.601414423679227
1.01456071693017
3.21045868736685
4.41297865150931
1.29484802665229
0.716577361588631
0.509081362326418
0.415364020101232
0.374643894472942
0.368085984462086
0.392895443082624
0.460178882254807
0.613460900991583
1.05619029471228
4.87759952916195
3.73597001609313
3.04819214804633
3.98586592895936
3.02891045680058
1.00651867547896
4.2033414642153
2.99338842102497
0.817569309179689
0.963190930271448
4.33720574194912
4.40626270054063
1.02797471115241
0.605667561824481
0.82638877493646
2.97635217452197
4.43508457337518
1.08993105721169
0.590947231682525
0.542641623951995
0.859649792770717
2.97566089829504
4.43972696868825
1.14135863584168
0.609611228967671
0.48086780281447
0.538845889751917
0.896649558498699
2.97401593288769
4.43310881036563
1.18323898587675
0.634114936537856
0.470286840994663
0.448642779796489
0.551682915692915
0.930853565295456
2.96404445955458
4.42456137573636
1.2178196574809
0.657990701108029
0.475452718304986
0.418666573670027
0.442613052483939
0.568752207057022
0.960047240643475
2.95476459648408
4.41826801530798
1.24718684129813
0.67974990969952
0.48573056511906
0.410332723330909
0.399193296256381
0.446261314921362
0.585587515398009
0.98568142720192
2.98467273924207
4.41468665981303
1.2726490097034
0.699228116838614
0.497390490488279
0.41087574706758
0.381141211069356
0.393131656762585
0.453060470291955
0.600640473395923
1.01359382842249
3.21076452338719
4.41298208579994
1.29482940869381
0.71651839032918
0.508983074406095
0.415239207965517
0.374496594402835
0.367913196369292
0.392688719149331
0.459923940088776
0.613135136955728
1.05577894015456
4.87775595528554
4.41227332312209
1.31392217250759
0.731676830095765
0.519867793214383
0.421159503373429
0.373402404600597
0.355865323771361
0.362116421302649
0.394038162000364
0.464606578313592
0.619416798223629
1.10351683978137
3.73542850845234
3.04826009650922
3.98554453769171
3.0290614195225
1.00130887364474
4.20314921555509
2.99369149855641
0.812515647778607
0.956945994953993
4.33716393661953
2.9769277438473
0.82174874762192
0.600874290364245
1.02216615243629
4.40625490917017
4.43507805427943
1.08472735274727
0.586844297394003
0.53882147302329
0.855459152072402
2.97661598811017
4.439735406989
1.13681987759016
0.606116007250675
0.477841027688927
0.535673122783
0.892974661540215
2.9753486863003
4.43311223617488
1.17939942036307
0.631185785850676
0.467858913140219
0.446292674746976
0.549040468808828
0.927721481958925
2.9656010962143
4.42457074454339
1.21470527690518
0.655616029659732
0.473528964989504
0.416901090313004
0.440769143806411
0.566596095770028
0.957473820889672
2.95628368553332
4.41825931584835
1.2448158555977
0.677933248478371
0.4842721182909
0.409033563182366
0.397905313051569
0.44484777195021
0.583895200377064
0.983656673778739
2.98588096766863
4.41468373781182
1.27103895006525
0.697977245371374
0.496384358359481
0.409988867698288
0.380285782297282
0.392234134617
0.452040910173862
0.599397262903325
1.01207878628861
3.2115270184991
4.41297538578652
1.29398623271123
0.715848641352283
0.508429927237837
0.414741399081199
0.374013896974528
0.36741362369943
0.392139142794733
0.459281805601323
0.61233858139657
1.05475807532863
4.87817068871056
4.41226776602996
1.31392650023389
0.731635174852098
0.519782855643661
0.421046839965796
0.373268351437409
0.355709475648374
0.361933866385868
0.393820165473205
0.464340311682374
0.619088873621849
1.10314069445089
3.18378836646791
4.41201757233935
1.3309384046813
0.745360576496943
0.530127272806148
0.427788158706763
0.375279877539478
0.35077588652052
0.3461362917088
0.359668957129919
0.394866173035565
0.463910277645224
0.601179306665348
3.73469763655541
3.04834526558004
3.98511409370256
3.02922984717811
0.995367051844184
4.20299215625941
2.99398959432219
0.806642491444307
0.949837705252558
4.33710942990764
2.97751119685036
0.816334952635661
0.595334395992287
1.01548906872734
4.40624563905747
2.97770537882038
0.850538786309736
0.534353678623418
0.582058430673823
1.07866661580005
4.43507133324402
4.43972516836721
1.13144252716624
0.601976635572032
0.474254853220535
0.531909901604323
0.8886200534842
2.97707661850531
4.43312040385567
1.17474841310323
0.627640315507144
0.464922272966262
0.443451088199718
0.545847103266165
0.923954850394337
2.96786816926001
4.42457469765671
1.21079699962205
0.652645270847367
0.471127663126721
0.414701448739759
0.438475686681137
0.563920454919637
0.954316502372707
2.95875325819566
4.41826963566356
1.24166512547563
0.675532755066608
0.4823545053815
0.407333595564319
0.396227666194957
0.443014152006188
0.581710899213458
0.981081793990669
2.98812129146836
4.41467459517049
1.26866824734166
0.69614921778476
0.494928658266318
0.408720014507209
0.379075152218157
0.390975498892165
0.45062180897734
0.597681152082989
1.01003595834849
3.21320532689983
4.41297161728593
1.29239101872002
0.71459816645646
0.507428862558469
0.413871235132184
0.373195686244701
0.366587356084815
0.391246760640771
0.458252429631235
0.611074179942255
1.05320074942157
4.87934849469073
4.41226402572497
1.31309622883102
0.730974944063979
0.519238780660028
0.420561362677088
0.372805222797921
0.355242115157386
0.361437485401879
0.3932660373339
0.463688826910278
0.618276559840137
1.10205148638733
3.18392126296775
4.41200703796252
1.33096438808513
0.745336001782234
0.530055765503382
0.427687448017633
0.375158125006435
0.350634623975554
0.345973046972496
0.359478537837088
0.394641375257048
0.463647175948565
0.600894975745502
0.693555825447944
0.956020398628542
4.41193220525402
1.34604743255219
0.757696560883581
0.539710009612475
0.434650368120801
0.378810327930076
0.349663822143712
0.33815379633835
0.341012735369791
0.35831893324491
0.393275919778554
0.452570959650734
3.73376668954166
3.048482783321
3.98461401927223
3.02945354012724
0.988692216271252
4.20280529136216
2.9942910102377
0.799899418953887
0.941823650639352
4.33706569708152
2.97802345510432
0.810078850067892
0.588996313608848
1.00788741533043
4.40623384469903
2.97874411127788
0.844818094514338
0.529192831223754
0.576544550787152
1.07169211535921
4.43507478299562
2.97899934388573
0.883519587681391
0.527515673986626
0.470074054002638
0.59715264644528
1.12517409804985
4.43971475459327
4.43311048421536
1.1692336763391
0.623442007865943
0.461447786000305
0.440089426397321
0.542068287579144
0.919503570685328
2.9707810159132
4.42458348821906
1.20605669580944
0.64904876532326
0.468224837760324
0.412045877283131
0.435709752516182
0.56069950061672
0.950558023565878
2.96235524925807
4.41827419319998
1.23770425082321
0.672526077424325
0.47995964931222
0.405216594967
0.394144093797401
0.440743058994406
0.579018902877004
0.977975339320943
2.9917960980358
4.4146859961745
1.26548742676436
0.693728292395671
0.493011144731847
0.407057943831918
0.377498252925611
0.389344516354463
0.448792413602035
0.595487184606618
1.0074930584568
3.21627900450719
4.41296243576115
1.29002916139254
0.712763921850701
0.505974594674982
0.412621975111831
0.372034939046047
0.365427508443847
0.390005080934956
0.456831375139782
0.609347496899167
1.05114659706073
4.88259044344408
4.41225584405502
1.31151750878107
0.729728394934627
0.518242887118661
0.419704049443024
0.372013465042817
0.354464276015084
0.360628747404717
0.3923774983028
0.462655491429479
0.617002031330645
1.10048956291817
3.18443161688371
4.41200226911478
1.33014812855088
0.744686316949058
0.529521090751769
0.427213178121668
0.374710961135146
0.350191618408388
0.345514607205671
0.35898421163326
0.394085857410674
0.46299367532405
0.600081689500178
0.69252521300471
0.954751505124234
4.4119211858135
1.34609391997255
0.757688516842675
0.539651821133077
0.434561411601895
0.378700186490683
0.349535513665056
0.338006608961618
0.340843840574595
0.358124560400833
0.393056732144824
0.452346630775525
0.516742423546596
0.557403530837494
0.707659992086594
4.4118995275966
1.35940270826435
0.768756362615916
0.548543134202435
0.441407932498797
0.383170665680803
0.350827019805098
0.334770712849149
0.330948992640062
0.338055127784
0.3564704047084
0.387438978032261
3.73273214225141
3.04875147233586
3.98413707827086
3.02981072677852
0.981314684863884
4.20266882073121
2.9946608096763
0.792258250855771
0.93284729547923
4.33705768860459
2.97844811532053
0.80291726914654
0.581806765171306
0.999302346832105
4.40624125098417
2.97952090987583
0.838215563793846
0.523288994032435
0.570253479757829
1.06374154067535
4.43507790662619
2.98071858754717
0.877576870097833
0.522442981199644
0.46525946201492
0.591598537690431
1.11795467061171
4.43972288954153
2.97396486408835
0.914279560534265
0.537659591112238
0.436174733512161
0.457402435332778
0.618549889710105
1.16279982405661
4.43310355791921
4.4245732802205
1.20043305809455
0.644789346077346
0.464792208747231
0.40890899665474
0.432443766926784
0.556896393624704
0.94613772181258
2.96698405533615
4.418283770928
1.23289471730531
0.668883300100165
0.477064458328407
0.40266261323755
0.391635114759791
0.438013275076664
0.575796048787797
0.974328044622351
2.9972445107505
4.41469518915327
1.26147565414071
0.690691356328901
0.490614109597799
0.404987580098436
0.375541014188152
0.387327185655174
0.446539113593837
0.592808107341815
1.00449975703963
3.2219366922213
4.41297483687434
1.28684012172987
0.710326847126739
0.504054887182858
0.41098293792283
0.370521756363129
0.363924746931036
0.388405575275658
0.455013094457269
0.607164877883883
1.04864794952565
4.88752227851304
4.41225570098546
1.30915555359331
0.72789155115545
0.516790044295197
0.418468437071087
0.370886677254675
0.353370157963568
0.359502680405932
0.391151163795996
0.461241913481091
0.615282827446069
1.09850030277623
3.1861432496099
4.41199000804579
1.32858596341112
0.743445305700942
0.528530888820983
0.426366540517729
0.373939175367466
0.349448499244332
0.344763416785114
0.358189116707198
0.393204290475496
0.461966123810002
0.598827418279978
0.690994248734008
0.952887270706842
4.41191577026331
1.34529175202277
0.757049942665595
0.539126810452033
0.434097682221021
0.378266688057631
0.349111871840491
0.337576642130977
0.340392129557951
0.357633918429531
0.392504525367404
0.451695943055978
0.515934105340517
0.556460360126839
0.706476667522192
4.41188856594604
1.35946806602659
0.768763983330685
0.548497945668533
0.441330472502537
0.383071598432691
0.350710480425804
0.334637292110163
0.330797519769729
0.337884067366687
0.356283160741523
0.387256363452147
0.426596971951211
0.464298611802436
0.515145594955188
0.658447642492043
4.41190497621237
1.37115597461533
0.778618100319366
0.556599975026823
0.447865136628422
0.387874848244787
0.353281072270299
0.334120322669878
0.325901507085211
0.326680672986918
0.335818474863703
0.35317988548168
3.73151955475405
3.04933261594638
3.98391687682987
3.03044320290094
0.973293923076126
4.20274494385181
2.99522890948021
0.783717720284749
0.922858567262568
4.33716974658718
2.97889182525409
0.794807842307533
0.573711085643857
0.989668383763891
4.40630343576115
2.97994622591734
0.830650352939352
0.516590845972192
0.56313236031394
1.05474848496879
4.43509295505786
2.98174569539078
0.870655844391256
0.516639740765474
0.459768579636529
0.585264644510303
1.10971583446742
4.43972784740026
2.97665176294687
0.908150140057736
0.532566483297618
0.431670132812333
0.452749586428622
0.612917737298725
1.15538420344229
4.43310362571774
2.97203803679816
0.940930667364483
0.552459551741474
0.428645029751534
0.40526202153959
0.460797812496598
0.639824959862235
1.19386824799078
4.42456921235463
4.41827315177398
1.22718351432542
0.664567406055706
0.473641180751382
0.399648300424454
0.388677848742113
0.434798005170182
0.572003224150124
0.970070103448518
3.00434827639555
4.41469688854442
1.2566094675243
0.687008591348813
0.487714815501677
0.402490193173894
0.37318639790979
0.384906439636711
0.443843714261848
0.589626385686505
1.00106096501985
3.22967143266788
4.41298840925913
1.28280230308672
0.707264200072528
0.501652124539098
0.408939699005448
0.368643462698857
0.362067419383263
0.386437617463441
0.452790207628334
0.604533487971799
1.04584111300389
4.90074117467561
4.41226470640602
1.30596136338117
0.725443658771753
0.514867615671099
0.416844117546509
0.369415666216883
0.351951668984073
0.358052499012216
0.389582664281941
0.459450107275438
0.613139275139586
1.096108821759
3.18875765259067
4.41199921231785
1.32622709242767
0.741607190278708
0.527079939835987
0.425141208769776
0.372836719627658
0.348400139197265
0.343715571680875
0.35709115949194
0.391998332831196
0.460575701574285
0.597161496693812
0.688982754557299
0.950441102469449
4.41190367474504
1.34374561967619
0.755815699328013
0.538142775787432
0.433260496370674
0.377510808714561
0.348394849305384
0.336866895458267
0.339661633509596
0.356852871430508
0.391635310171853
0.450687119312108
0.514736482798269
0.555057193988632
0.704729125532956
4.41188297337482
1.35867960814483
0.768136624795585
0.547982742529431
0.440876867087817
0.382650250779964
0.350302886952289
0.334229619747059
0.330377575570396
0.337439444566513
0.355798738141409
0.386706821563104
0.425929893810249
0.463527038757559
0.514236343521126
0.657301244136211
4.41189465792056
1.37123707685892
0.778639975276163
0.556567240457095
0.447798862307825
0.387786418833136
0.353175428697869
0.333999012928511
0.325764556874744
0.326528091240054
0.335655498661307
0.353028399886994
0.377240874633979
0.404859523922601
0.438535498136321
0.501485508768303
0.648302848878937
4.41190842946719
1.38144647572773
0.787362463599858
0.563882988486985
0.453909953846504
0.392626716204374
0.35642874096397
0.335105253454994
0.323895568483151
0.320523854547672
0.323919330858241
0.333518278511939
3.73119428472262
3.05053386832833
3.98428819725289
3.03160179573688
0.964725493789262
4.20336756119692
2.99619148125814
0.774293766509834
0.911816783351419
4.33759606027879
2.9795889926814
0.785741823672422
0.56465587109526
0.978920603355056
4.40650204661802
2.98021101692259
0.822071293882726
0.509048990703115
0.555124799545235
1.04464113521551
4.43516288998876
2.98180967585644
0.862683984759679
0.510054691484767
0.453556740700609
0.578097496617227
1.10038458100967
4.43974510435196
2.97777386801731
0.900948392221106
0.526727625663129
0.426536136893528
0.447449664432301
0.606494623300024
1.14691377053525
4.43311186194363
2.97617231439773
0.934731044261219
0.547322117961684
0.424276295326946
0.401073236024457
0.456206210066266
0.634108571730091
1.18629557716966
4.42456125810728
3.01230598021972
0.965017410153786
0.56757756204735
0.431063729312005
0.385246098241381
0.396147307541028
0.469658299830833
0.659535591589379
1.22051159196865
4.41826854400994
4.41468992709466
1.25082749547714
0.682642531866111
0.484285927699897
0.399543748926722
0.370414542145693
0.382061863253187
0.440681278367165
0.585903131551453
0.997115600349077
3.24161347205935
4.412981495787
1.27788467501933
0.703547114499477
0.498743722814841
0.406474281210964
0.366384639523591
0.359841425022438
0.384087831923163
0.450150557181848
0.601446460852842
1.04269354351286
4.91328183671417
4.41227823508888
1.30190907016032
0.722361418173406
0.512457972614807
0.4148169987101
0.367588588542176
0.350198635528831
0.356269759145378
0.387666527380891
0.457282316303165
0.610601948286775
1.09369637811639
3.19693607991513
4.41200460182899
1.32302526286157
0.739151759104453
0.525155321388884
0.423526853280297
0.371394799354017
0.347039199078359
0.342365445438685
0.355687279281757
0.390469777405407
0.458834440241125
0.595113362543357
0.686527479019035
0.947426182107914
4.41191349574454
1.34139278252426
0.75397908708793
0.536694268169282
0.432043549327288
0.376426665580585
0.347379681067864
0.33587407857959
0.338651134833921
0.355783847227473
0.39045909478683
0.449342717637199
0.513166540434362
0.553212578139198
0.702406028336035
4.41187097527514
1.35714708846253
0.766909942707336
0.5470053653098
0.440048462302959
0.381907671597572
0.349606330626146
0.333550942062251
0.329693614874481
0.336727787871772
0.355033559080345
0.385854016459624
0.424949426965494
0.462391879527339
0.512896586101965
0.655623693450533
4.4118896373895
1.37046120157922
0.77802354596006
0.556061850879447
0.447355115535065
0.387376217015362
0.352781637096177
0.333609456390083
0.325369209369934
0.326117543827272
0.335218964756159
0.352546882130186
0.376669161029035
0.404210402505309
0.437785396149101
0.500581356539435
0.647157000914384
4.411898946231
1.38153990406579
0.787396552950978
0.563861902039407
0.453854499377231
0.392548565851073
0.356333362992861
0.334994867399815
0.323771059831119
0.320386334282932
0.323775343852664
0.333390648669806
0.348454941522327
0.367534558752112
0.391151637264955
0.427426853043563
0.498225687972274
0.649246028130945
4.41191565696349
1.39038272036811
0.795066414004087
0.570412331501752
0.459482076879726
0.397243529971008
0.359895944909966
0.337049195705498
0.323763158017775
0.317568127459042
0.317180289104469
0.321863961963279
3.72980706632655
3.05303312703156
3.9858017671708
3.03371779020565
0.955751208667666
4.20505698251919
2.99783450459337
0.764015858300613
0.899698846738327
4.33872403581603
2.98084623152946
0.77572495767335
0.554587242859178
0.967000012913364
4.40704449504757
2.98079964889272
0.812478327591056
0.500618335396854
0.546171930273668
1.03334596517353
4.4353653944105
2.98127239084857
0.853616465240409
0.502643354709487
0.446578171223645
0.570039825374009
1.08988332018936
4.4398049416014
2.97658412991545
0.892521662050625
0.520091381336514
0.420732942379749
0.441460907970922
0.59922569758325
1.13731053754039
4.4331268676292
2.97712680683831
0.927258480336409
0.541408887453969
0.419298046636164
0.396308933258329
0.450979093865122
0.627588053799921
1.17764009251161
4.42457271021127
3.01909300005156
0.958851035982987
0.562430152621988
0.42677078165006
0.38131093365458
0.392130784701441
0.465080990609842
0.653739733662029
1.21280967644622
4.41825941046303
3.2535983286712
0.9924052779016
0.581560209231918
0.437017444988482
0.378769467426113
0.36720304238797
0.396123422939537
0.480296196850338
0.677549762311108
1.24406820854577
4.41468508493501
4.41297828644528
1.27204147835524
0.699137227016806
0.495302463675125
0.403565521363395
0.363727364927352
0.357230226251272
0.381339457046098
0.447074459841745
0.597875507299624
1.03933311206237
4.94475963855479
4.4122706148914
1.29696457025033
0.718615047436569
0.509538646307685
0.412369551894376
0.365391052626305
0.34809882585823
0.354144212751021
0.385395542561542
0.454737681835654
0.607679929624438
1.0909665804384
3.20514503594968
4.41201799720138
1.31895830913181
0.736054818226465
0.522739160790423
0.421509533044451
0.369602055324573
0.345356394463938
0.34070595310724
0.353973630234983
0.388620969528892
0.456758844008406
0.592747923650753
0.683725754363325
0.944072625563255
4.41191902232994
1.33818501933779
0.751518704410641
0.534768264728365
0.430436498452602
0.375005658519359
0.346059439321513
0.334593209659353
0.337358388111872
0.354429109686656
0.388985960636455
0.447684897784477
0.511257215679177
0.550951723963522
0.699496614483457
4.41188085684322
1.35480284608696
0.765076720001847
0.545560160520018
0.438838894179626
0.380838022172294
0.348616199206494
0.332598244789049
0.328744823808179
0.335751964476126
0.353997552690132
0.384718409407469
0.423670158888335
0.460917897997421
0.511148733245125
0.653409663632791
4.41187795539698
1.36893924013939
0.776804737207565
0.555091541979783
0.446535180575791
0.386645279898728
0.35210180619401
0.332954948251664
0.32472001662109
0.325455735618812
0.334525384278416
0.351797097347444
0.37583284682359
0.403266210280521
0.436693962106726
0.499267945081763
0.645500522127838
4.4118952858957
1.38077569092179
0.786790490282677
0.563366226742316
0.453420456412436
0.392148874441219
0.355951863958846
0.334620567781959
0.32339542782973
0.320001932977105
0.323374090594419
0.332957379623214
0.347949929770025
0.366973423521484
0.390515311421164
0.426680889122024
0.497307263515504
0.648078855186147
4.41191028755742
1.3904848633107
0.795110642868101
0.570401931918331
0.45943706185679
0.397175406015175
0.359810417668136
0.336948923358928
0.323649627484877
0.317443234958323
0.317051531803828
0.321754952796641
0.330950532085287
0.343835954096689
0.360449865082345
0.383891513744237
0.423427104278525
0.498880303547593
0.653692300383796
1.39804418639386
0.80179627181853
0.576217439298449
0.464553924434979
0.401613430028012
0.363444079055621
0.339521513030013
0.324778760353654
0.316620989395556
0.3136429360111
0.315020241013869
3.73222390316149
3.05702376403129
3.98802086140757
3.03739650218479
0.946578592211017
4.20832058114266
3.00059479822098
0.752924878501373
0.886503579679414
4.34115802681052
2.9830000182944
0.764764246732406
0.543449142247526
0.953862416696799
4.40834345907444
2.98228923855998
0.801902756071915
0.491254162368183
0.536212329726396
1.0207961592983
4.43591004973567
2.9812211633034
0.843513720515861
0.49437184866026
0.438786745186371
0.561031412000697
1.07813163371413
4.43999119860972
2.97371997420901
0.882813357355146
0.512621347099215
0.414222632167176
0.434740092407924
0.591052423548539
1.12649059049681
4.43317923465626
2.97269085907046
0.918237207962573
0.534655987253297
0.413673269973968
0.390934745577423
0.44507610126482
0.620207141164083
1.16781844982965
4.42458602420099
3.02013570071261
0.95106869056452
0.55645462712023
0.421877015103876
0.376842046014263
0.387568199347447
0.459871668304295
0.647126815186887
1.20400175332267
4.41827085300465
3.26799751162666
0.986495920936026
0.576478370306924
0.432808643147866
0.375002247489553
0.363527510847861
0.392202194247506
0.475711111237651
0.671681435387706
1.23626030240188
4.41467513577452
4.96589621338643
1.03521416490956
0.593733782028124
0.443529657390194
0.378171797943792
0.354214999490557
0.360651611237849
0.400189634662576
0.491297252411377
0.693990591128262
1.26520960896696
4.41297355357068
4.41226721043568
1.29108158046632
0.714167274090514
0.506082389328716
0.409481170538399
0.362806416982647
0.345638061823579
0.351663604202589
0.382759744198875
0.451810175923362
0.604391868027375
1.08880478493239
3.22819544540167
4.41201010782603
1.31399038707996
0.732285599921283
0.519808825233152
0.419071947413454
0.367444734447576
0.343340606760381
0.33872858079844
0.351945550257425
0.386454788245978
0.454367198416701
0.590094872127197
0.680631293888947
0.940202665403061
4.41193244564022
1.33411036245099
0.748409840752427
0.532346568769295
0.428425413949604
0.373236700354884
0.344425348790574
0.333017934006933
0.335780391470672
0.352791367448621
0.387229366078119
0.445748789604078
0.509072639627103
0.548333058564817
0.696010110627634
4.41188593691433
1.3515954908862
0.762612943210769
0.543633889912708
0.437237747245229
0.379432772588397
0.347325758984986
0.331366835126967
0.327529265798231
0.334514337126146
0.352699955174608
0.383318867993638
0.422120876680414
0.459143532412943
0.509021686913961
0.650650653095979
4.41188734811947
1.36660970762369
0.77497611949442
0.55365072295134
0.445332616576489
0.385587729631787
0.351131347404172
0.332032537530437
0.323816231562269
0.324545529440636
0.333584392613058
0.350798453977513
0.374745718155404
0.402052993464157
0.435292977007479
0.497573465246596
0.643334523251524
4.41188423709314
1.37926344787849
0.785579953219836