/*--------------------------------*- C++ -*----------------------------------*\
  =========                 |
  \\      /  F ield         | OpenFOAM: The Open Source CFD Toolbox
   \\    /   O peration     | Website:  https://openfoam.org
    \\  /    A nd           | Version:  12
     \\/     M anipulation  |
\*---------------------------------------------------------------------------*/
/*   Windows 32 and 64 bit porting by blueCAPE: http://www.bluecape.com.pt   *\
|  Based on Windows porting (2.0.x v4) by Symscape: http://www.symscape.com   |
\*---------------------------------------------------------------------------*/
FoamFile
{
    format      ascii;
    class       volScalarField;
    location    "200";
    object      p;
}
// * * * * * * * * * * * * * * * * * * * * * * * * * * * * * * * * * * * * * //

dimensions      [0 2 -2 0 0 0 0];

internalField   nonuniform List<scalar> 
10103
(
83333.3285714489
83333.3285668334
83333.3285714529
83333.3285714513
83333.3285622163
83333.3285668266
83333.3285668362
83333.3285714594
83333.3285714584
83333.328571442
83333.32855762
83333.3285621996
83333.3285622198
83333.3285668186
83333.3285668311
83333.328566843
83333.3285714815
83333.3285714675
83333.3285714544
83333.3285714242
83333.3285530475
83333.3285575944
83333.3285576303
83333.3285621742
83333.3285622058
83333.3285622396
83333.3285668102
83333.3285668265
83333.3285668426
83333.3285668487
83333.3285715257
83333.3285714909
83333.3285714689
83333.3285714376
83333.3285714054
83333.3285485069
83333.3285530106
83333.3285530642
83333.3285575441
83333.3285576052
83333.3285576609
83333.3285621311
83333.3285621826
83333.328562229
83333.3285622659
83333.3285667995
83333.3285668191
83333.3285668445
83333.3285668542
83333.3285668548
83333.328571592
83333.3285715359
83333.3285714969
83333.3285714598
83333.3285714205
83333.3285713886
83333.3285440095
83333.3285484578
83333.3285485296
83333.3285529334
83333.3285530268
83333.3285531048
83333.3285574594
83333.3285575559
83333.3285576374
83333.3285577017
83333.3285620637
83333.3285621384
83333.3285622096
83333.3285622622
83333.328562295
83333.3285667873
83333.328566809
83333.3285668427
83333.3285668673
83333.3285668664
83333.3285668628
83333.3285716787
83333.3285716022
83333.3285715447
83333.3285714925
83333.3285714491
83333.3285714056
83333.3285713732
83333.3285395672
83333.3285439478
83333.3285440378
83333.328548353
83333.3285484794
83333.3285485805
83333.3285528039
83333.32855295
83333.3285530687
83333.3285531595
83333.3285573311
83333.3285574677
83333.3285575912
83333.3285576864
83333.3285577494
83333.3285619732
83333.3285620693
83333.3285621668
83333.3285622523
83333.3285622989
83333.3285623264
83333.3285667746
83333.3285667971
83333.3285668346
83333.3285668716
83333.3285668906
83333.328566879
83333.328566872
83333.3285717846
83333.3285716879
83333.3285716114
83333.3285715445
83333.3285714852
83333.328571438
83333.3285713914
83333.3285713577
83333.3285351918
83333.3285394931
83333.3285396006
83333.3285438156
83333.3285439749
83333.3285440995
83333.3285481777
83333.3285483749
83333.3285485319
83333.3285486503
83333.3285526114
83333.3285528149
83333.3285529948
83333.3285531333
83333.3285532261
83333.3285571608
83333.3285573362
83333.3285575004
83333.328557649
83333.3285577433
83333.3285578022
83333.3285618625
83333.3285619779
83333.3285620969
83333.3285622159
83333.3285623007
83333.3285623361
83333.3285623596
83333.3285667626
83333.3285667847
83333.3285668226
83333.3285668685
83333.3285669009
83333.3285669103
83333.328566891
83333.3285668813
83333.3285719097
83333.3285717933
83333.3285716975
83333.3285716162
83333.3285715404
83333.3285714787
83333.3285714264
83333.3285713764
83333.3285713401
83333.3285308955
83333.3285351056
83333.3285352299
83333.3285393336
83333.3285395253
83333.3285396734
83333.3285435944
83333.3285438429
83333.3285440386
83333.3285441858
83333.3285479199
83333.3285481922
83333.3285484307
83333.3285486136
83333.3285487376
83333.3285523583
83333.328552618
83333.3285528546
83333.3285530687
83333.3285532112
83333.328553302
83333.3285569521
83333.3285571641
83333.3285573641
83333.3285575628
83333.3285577183
83333.3285578038
83333.32855786
83333.3285617342
83333.3285618672
83333.3285620038
83333.3285621488
83333.3285622733
83333.3285623477
83333.3285623738
83333.3285623942
83333.3285667525
83333.3285667731
83333.3285668103
83333.3285668595
83333.3285669016
83333.3285669282
83333.3285669269
83333.3285669026
83333.3285668901
83333.3285720546
83333.3285719187
83333.328571804
83333.3285717056
83333.3285716171
83333.3285715363
83333.3285714696
83333.3285714134
83333.3285713594
83333.328571319
83333.3285266909
83333.3285309375
83333.3285307976
83333.3285349197
83333.3285351426
83333.3285353133
83333.328539067
83333.3285393664
83333.3285396003
83333.328539777
83333.3285432709
83333.3285436123
83333.3285439102
83333.3285441388
83333.3285442957
83333.3285475829
83333.3285479284
83333.3285482407
83333.3285485224
83333.3285487142
83333.3285488388
83333.3285520494
83333.3285523626
83333.3285526498
83333.3285529311
83333.3285531597
83333.3285532966
83333.328553386
83333.3285567084
83333.3285569545
83333.3285571872
83333.3285574252
83333.3285576417
83333.3285577904
83333.3285578655
83333.3285579218
83333.3285615903
83333.3285617394
83333.3285618919
83333.3285620553
83333.3285622104
83333.3285623297
83333.3285623925
83333.3285624128
83333.3285624308
83333.3285667452
83333.3285667639
83333.3285667994
83333.3285668473
83333.3285668963
83333.3285669316
83333.3285669493
83333.3285669417
83333.3285669139
83333.3285668981
83333.3285722199
83333.328572064
83333.3285719305
83333.328571814
83333.3285717102
83333.3285716135
83333.3285715293
83333.3285714589
83333.328571398
83333.328571338
83333.3285712923
83333.328522592
83333.3285267357
83333.3285265821
83333.3285310301
83333.3285308389
83333.3285305862
83333.3285346084
83333.3285349575
83333.3285352284
83333.3285354337
83333.3285386781
83333.3285390885
83333.3285394453
83333.3285397198
83333.3285399106
83333.3285428496
83333.3285432814
83333.3285436704
83333.3285440215
83333.328544264
83333.3285444248
83333.3285471727
83333.3285475883
83333.3285479661
83333.3285483337
83333.3285486374
83333.328548827
83333.3285489523
83333.3285516886
83333.3285520521
83333.3285523873
83333.3285527212
83333.3285530317
83333.3285532585
83333.3285533865
83333.3285534774
83333.3285564321
83333.3285567104
83333.3285569741
83333.3285572443
83333.3285575066
83333.3285577253
83333.3285578626
83333.3285579304
83333.3285579882
83333.3285614323
83333.3285615963
83333.3285617633
83333.3285619406
83333.3285621174
83333.3285622707
83333.3285623809
83333.3285624364
83333.3285624522
83333.32856247
83333.3285667417
83333.3285667577
83333.3285667913
83333.3285668363
83333.3285668853
83333.328566926
83333.3285669565
83333.328566967
83333.3285669542
83333.3285669241
83333.3285669059
83333.3285724061
83333.3285722298
83333.3285720772
83333.3285719423
83333.3285718219
83333.32857171
83333.3285716084
83333.3285715198
83333.3285714456
83333.3285713783
83333.3285713112
83333.3285712588
83333.328518614
83333.3285226381
83333.328522473
83333.3285268354
83333.3285266266
83333.3285263465
83333.3285311657
83333.328530934
83333.3285306287
83333.3285302317
83333.3285341551
83333.3285346335
83333.3285350477
83333.3285353665
83333.3285355911
83333.328538173
83333.3285386908
83333.3285391566
83333.3285395771
83333.3285398705
83333.3285400696
83333.3285423381
83333.3285428565
83333.328543326
83333.3285437821
83333.3285441624
83333.3285444064
83333.3285445708
83333.3285466941
83333.3285471762
83333.3285476164
83333.3285480505
83333.328548458
83333.328548765
83333.3285489473
83333.3285490765
83333.3285512786
83333.3285516903
83333.3285520716
83333.3285524504
83333.3285528217
83333.3285531426
83333.3285533602
83333.3285534809
83333.3285535762
83333.3285561252
83333.3285564339
83333.3285567272
83333.328557025
83333.3285573225
83333.3285575947
83333.3285578061
83333.3285579349
83333.3285579989
83333.3285580603
83333.3285612614
83333.3285614392
83333.32856162
83333.3285618089
83333.3285619996
83333.3285621769
83333.3285623259
83333.328562428
83333.3285624787
83333.3285624932
83333.3285625122
83333.3285667428
83333.3285667554
83333.3285667865
83333.328566828
83333.3285668739
83333.3285669167
83333.3285669523
83333.3285669759
83333.3285669814
83333.3285669646
83333.3285669332
83333.3285669081
83333.328572614
83333.3285724166
83333.3285722444
83333.3285720909
83333.328571953
83333.328571825
83333.3285717066
83333.3285716
83333.3285715075
83333.3285714283
83333.328571352
83333.328571273
83333.3285147733
83333.32851866
83333.3285184854
83333.3285227421
83333.3285225197
83333.3285222147
83333.328526983
83333.3285267292
83333.3285263929
83333.3285259505
83333.3285313448
83333.3285310888
83333.3285307289
83333.3285302601
83333.3285297157
83333.3285335674
83333.3285341703
83333.3285347114
83333.3285351995
83333.3285355426
83333.3285357806
83333.3285375607
83333.3285381814
83333.3285387431
83333.3285392878
83333.3285397447
83333.3285400443
83333.3285402512
83333.3285417417
83333.3285423425
83333.3285428891
83333.328543426
83333.3285439323
83333.3285443208
83333.3285445598
83333.3285447319
83333.3285461498
83333.328546696
83333.3285471972
83333.3285476886
83333.3285481721
83333.3285485977
83333.3285488984
83333.3285490748
83333.3285492114
83333.3285508215
83333.3285512793
83333.3285517053
83333.3285521249
83333.328552543
83333.3285529355
83333.3285532535
83333.3285534636
83333.3285535815
83333.3285536838
83333.3285557885
83333.3285561257
83333.3285564484
83333.3285567715
83333.3285570955
83333.3285574067
83333.3285576789
83333.3285578829
83333.3285580074
83333.3285580726
83333.3285581387
83333.3285610785
83333.3285612689
83333.3285614629
83333.3285616626
83333.3285618632
83333.3285620567
83333.3285622318
83333.3285623745
83333.3285624715
83333.3285625202
83333.3285625367
83333.3285625554
83333.3285667493
83333.3285667576
83333.3285667857
83333.3285668233
83333.3285668646
83333.3285669048
83333.3285669417
83333.3285669721
83333.3285669912
83333.3285669931
83333.3285669742
83333.3285669308
83333.3285669018
83333.3285728447
83333.3285726254
83333.3285724329
83333.3285722602
83333.328572104
83333.328571959
83333.3285718236
83333.3285716994
83333.3285715885
83333.3285714912
83333.3285714035
83333.3285713128
83333.3285110874
83333.3285148182
83333.3285146357
83333.3285187655
83333.3285185333
83333.328518206
83333.328522897
83333.3285226271
83333.3285222641
83333.3285217794
83333.3285271789
83333.3285268973
83333.3285265012
83333.3285259818
83333.328525374
83333.3285315626
83333.3285312882
83333.3285308987
83333.328530347
83333.3285297332
83333.3285290471
83333.3285328556
83333.3285335775
83333.3285342304
83333.3285348621
83333.3285353933
83333.3285357479
83333.3285359999
83333.3285368473
83333.3285375662
83333.3285382195
83333.3285388596
83333.3285394648
83333.3285399351
83333.3285402332
83333.3285404537
83333.3285410637
83333.3285417442
83333.3285423662
83333.3285429728
83333.3285435708
83333.3285441025
83333.3285444881
83333.3285447237
83333.3285449078
83333.3285455423
83333.3285461507
83333.3285467114
83333.3285472561
83333.3285477974
83333.3285483124
83333.3285487402
83333.3285490353
83333.3285492109
83333.3285493585
83333.3285503181
83333.3285508205
83333.3285512902
83333.3285517488
83333.3285522049
83333.3285526494
83333.3285530485
83333.3285533614
83333.3285535687
83333.3285536898
83333.328553801
83333.3285554234
83333.3285557886
83333.328556139
83333.3285564866
83333.3285568327
83333.3285571719
83333.3285574882
83333.3285577566
83333.3285579562
83333.3285580803
83333.328558151
83333.3285582222
83333.3285608846
83333.3285610868
83333.3285612933
83333.3285615032
83333.3285617117
83333.3285619149
83333.3285621074
83333.3285622792
83333.3285624175
83333.328562512
83333.3285625619
83333.32856258
83333.3285625935
83333.3285667623
83333.3285667655
83333.32856679
83333.3285668231
83333.328566859
83333.3285668941
83333.3285669282
83333.3285669602
83333.3285669867
83333.3285670023
83333.3285670018
83333.3285669743
83333.3285669304
83333.3285668996
83333.3285730992
83333.3285728569
83333.3285726436
83333.3285724511
83333.3285722758
83333.3285721127
83333.3285719598
83333.328571818
83333.3285716887
83333.3285715727
83333.3285714677
83333.328571366
83333.3285075738
83333.3285111306
83333.3285109411
83333.3285149228
83333.3285146839
83333.3285143366
83333.3285189226
83333.3285186429
83333.3285182575
83333.3285177337
83333.3285231026
83333.3285228037
83333.3285223783
83333.328521813
83333.328521145
83333.3285274189
83333.3285271152
83333.3285266855
83333.3285260761
83333.3285253937
83333.3285246271
83333.3285318188
83333.3285315225
83333.3285311164
83333.3285305156
83333.3285298008
83333.328529059
83333.3285282378
83333.3285320267
83333.3285328623
83333.3285336213
83333.3285343635
83333.3285350651
83333.3285356154
83333.3285359737
83333.3285362478
83333.3285360365
83333.3285368506
83333.3285375937
83333.328538316
83333.3285390287
83333.3285396664
83333.328540138
83333.328540437
83333.3285406764
83333.3285403063
83333.3285410646
83333.328541761
83333.3285424331
83333.3285431001
83333.328543739
83333.3285442782
83333.328544661
83333.3285448994
83333.3285450995
83333.3285448724
83333.3285455412
83333.3285461609
83333.3285467572
83333.3285473472
83333.3285479263
83333.3285484549
83333.3285488808
83333.3285491755
83333.3285493575
83333.3285495178
83333.3285497701
83333.3285503164
83333.3285508283
83333.3285513248
83333.3285518145
83333.328552298
83333.3285527564
83333.3285531557
83333.328553466
83333.3285536761
83333.328553806
83333.3285539262
83333.3285550308
83333.3285554232
83333.3285558006
83333.3285561719
83333.328556538
83333.3285568984
83333.3285572455
83333.3285575624
83333.3285578278
83333.328558026
83333.328558156
83333.328558233
83333.3285583019
83333.3285606808
83333.3285608939
83333.3285611121
83333.3285613319
83333.3285615474
83333.328561757
83333.3285619597
83333.3285621506
83333.3285623197
83333.3285624556
83333.32856255
83333.3285625997
83333.3285626216
83333.3285626062
83333.3285667833
83333.32856678
83333.3285668002
83333.3285668285
83333.3285668583
83333.3285668868
83333.3285669154
83333.3285669448
83333.3285669733
83333.3285669966
83333.3285670095
83333.3285670011
83333.3285669651
83333.3285669138
83333.3285668839
83333.3285733786
83333.3285731126
83333.3285728774
83333.3285726645
83333.3285724694
83333.3285722871
83333.3285721159
83333.3285719559
83333.3285718084
83333.3285716738
83333.3285715504
83333.328571433
83333.3285042494
83333.328507615
83333.3285074189
83333.3285112328
83333.3285109889
83333.3285106232
83333.3285150777
83333.3285147934
83333.3285143891
83333.3285138293
83333.3285191288
83333.3285188225
83333.3285183751
83333.328517769
83333.328517044
83333.3285233543
83333.3285230324
83333.3285225725
83333.3285219128
83333.3285211664
83333.3285203224
83333.328527706
83333.3285273733
83333.3285269225
83333.3285262593
83333.3285254673
83333.3285246405
83333.3285237228
83333.3285321142
83333.3285317835
83333.3285313675
83333.3285307421
83333.3285299496
83333.3285291086
83333.3285282459
83333.3285272956
83333.3285310848
83333.3285320309
83333.3285328942
83333.3285337309
83333.3285345563
83333.3285352974
83333.3285358542
83333.3285362204
83333.328536524
83333.3285351306
83333.3285360379
83333.32853687
83333.32853767
83333.3285384632
83333.3285392256
83333.3285398763
83333.3285403495
83333.3285406573
83333.3285409192
83333.3285394707
83333.3285403053
83333.3285410755
83333.3285418116
83333.3285425376
83333.3285432525
83333.3285439119
83333.3285444533
83333.328544839
83333.3285450887
83333.3285453056
83333.3285441418
83333.3285448705
83333.3285455477
83333.3285461945
83333.328546829
83333.3285474571
83333.3285480589
83333.3285485924
83333.3285490184
83333.3285493189
83333.3285495146
83333.3285496874
83333.3285491785
83333.3285497674
83333.3285503219
83333.3285508549
83333.3285513762
83333.3285518912
83333.3285523925
83333.328552857
83333.3285532555
83333.3285535666
83333.3285537861
83333.3285539288
83333.3285540493
83333.3285546121
83333.3285550307
83333.3285554344
83333.3285558291
83333.3285562142
83333.3285565918
83333.3285569609
83333.3285573121
83333.3285576284
83333.3285578922
83333.3285580921
83333.3285582261
83333.3285583114
83333.3285583257
83333.3285604683
83333.3285606913
83333.3285609207
83333.3285611498
83333.3285613719
83333.3285615862
83333.3285617947
83333.3285619969
83333.3285621868
83333.3285623542
83333.328562489
83333.3285625816
83333.3285626271
83333.3285626344
83333.3285626189
83333.3285668135
83333.3285668027
83333.3285668175
83333.3285668403
83333.3285668635
83333.3285668845
83333.3285669057
83333.3285669294
83333.3285669556
83333.3285669817
83333.3285670026
83333.328567008
83333.3285669838
83333.328566941
83333.3285668938
83333.3285668693
83333.3285736839
83333.3285733941
83333.3285731361
83333.3285729015
83333.3285726858
83333.3285724834
83333.3285722927
83333.3285721138
83333.3285719476
83333.3285717944
83333.3285716526
83333.3285715174
83333.3285011297
83333.3285042883
83333.3285040855
83333.3285077144
83333.3285074659
83333.3285070829
83333.3285113831
83333.3285110971
83333.3285106763
83333.3285100829
83333.3285152768
83333.3285149714
83333.3285145083
83333.3285138659
83333.3285130872
83333.3285193779
83333.328519053
83333.328518574
83333.3285178724
83333.3285170669
83333.328516149
83333.3285236583
83333.3285233025
83333.3285228214
83333.3285221066
83333.3285212448
83333.3285203372
83333.3285193262
83333.3285280455
83333.3285276615
83333.3285271964
83333.3285265051
83333.3285256295
83333.3285246949
83333.3285237321
83333.3285226701
83333.3285324504
83333.328532074
83333.3285316397
83333.328531002
83333.3285301635
83333.3285292305
83333.3285282823
83333.3285273008
83333.328526225
83333.3285300323
83333.3285310869
83333.3285320535
83333.3285329803
83333.3285338977
83333.3285347808
83333.3285355408
83333.3285361062
83333.3285364904
83333.3285368274
83333.3285341309
83333.3285351299
83333.3285360503
83333.3285369269
83333.3285377893
83333.3285386395
83333.3285394292
83333.3285400873
83333.3285405684
83333.3285408944
83333.3285411793
83333.3285385585
83333.3285394689
83333.3285403115
83333.3285411109
83333.3285418917
83333.3285426653
83333.328543411
83333.3285440804
83333.3285446257
83333.3285450218
83333.3285452908
83333.3285455235
83333.3285433516
83333.3285441387
83333.3285448734
83333.3285455703
83333.3285462471
83333.3285469164
83333.3285475719
83333.3285481857
83333.3285487215
83333.3285491513
83333.3285494661
83333.3285496806
83333.3285498552
83333.3285485445
83333.3285491754
83333.3285497706
83333.3285503409
83333.3285508928
83333.3285514353
83333.3285519691
83333.3285524811
83333.3285529482
83333.3285533465
83333.3285536609
83333.3285538863
83333.3285540376
83333.3285540834
83333.3285541681
83333.3285546122
83333.3285550415
83333.3285554592
83333.328555863
83333.3285562562
83333.3285566417
83333.3285570167
83333.3285573702
83333.3285576861
83333.3285579491
83333.3285581474
83333.3285582772
83333.3285583482
83333.328558361
83333.3285602481
83333.3285604801
83333.3285607199
83333.328560958
83333.3285611863
83333.3285614044
83333.3285616162
83333.3285618245
83333.3285620271
83333.3285622168
83333.3285623833
83333.3285625154
83333.3285625971
83333.3285626314
83333.3285626327
83333.3285626201
83333.3285668539
83333.3285668347
83333.3285668433
83333.3285668599
83333.3285668758
83333.3285668885
83333.328566901
83333.3285669168
83333.3285669375
83333.328566962
83333.3285669863
83333.3285670002
83333.3285669884
83333.3285669561
83333.3285669155
83333.3285668823
83333.3285668621
83333.3285740142
83333.3285737019
83333.3285734218
83333.3285731636
83333.3285729262
83333.3285727028
83333.3285724913
83333.3285722924
83333.3285721067
83333.3285719344
83333.3285717738
83333.3285716204
83333.3284982285
83333.3285011657
83333.3285009563
83333.3285043848
83333.3285041315
83333.328503732
83333.3285078598
83333.3285075723
83333.3285071362
83333.3285065113
83333.328511571
83333.3285112705
83333.3285107958
83333.3285101204
83333.3285092911
83333.3285155093
83333.3285151957
83333.3285147072
83333.3285139712
83333.3285131113
83333.328512123
83333.3285196767
83333.3285193213
83333.3285188264
83333.3285180723
83333.3285171485
83333.328516165
83333.3285150642
83333.328524027
83333.3285236057
83333.3285231079
83333.3285223652
83333.3285214168
83333.3285203954
83333.3285193367
83333.3285181662
83333.3285284447
83333.3285279913
83333.3285274949
83333.3285267869
83333.3285258608
83333.3285248275
83333.3285237722
83333.328522676
83333.3285214737
83333.3285328261
83333.3285323985
83333.3285319308
83333.3285312759
83333.3285304125
83333.3285294148
83333.3285283775
83333.3285273267
83333.3285262278
83333.3285250286
83333.3285288707
83333.3285300321
83333.3285311015
83333.3285321173
83333.3285331143
83333.328534097
83333.328535014
83333.3285357879
83333.3285363692
83333.3285367831
83333.3285371522
83333.3285330388
83333.3285341291
83333.3285351365
83333.3285360893
83333.3285370168
83333.3285379352
83333.3285388238
83333.3285396291
83333.3285402964
83333.3285407947
83333.3285411473
83333.328541453
83333.3285375709
83333.3285385554
83333.3285394701
83333.3285403332
83333.3285411672
83333.328541991
83333.3285428003
83333.3285435641
83333.3285442397
83333.328544793
83333.3285452094
83333.3285455036
83333.3285457395
83333.3285425031
83333.3285433475
83333.3285441385
83333.3285448859
83333.3285456048
83333.3285463113
83333.3285470086
83333.3285476817
83333.3285483019
83333.3285488396
83333.3285492752
83333.3285495993
83333.3285498213
83333.3285499006
83333.3285478693
83333.3285485412
83333.3285491767
83333.3285497835
83333.3285503661
83333.3285509346
83333.3285514946
83333.3285520416
83333.3285525601
83333.3285530281
83333.3285534259
83333.328553738
83333.3285539553
83333.3285540926
83333.3285541381
83333.3285536996
83333.3285541684
83333.3285546229
83333.3285550632
83333.3285554856
83333.3285558936
83333.3285562927
83333.3285566847
83333.3285570645
83333.3285574196
83333.3285577346
83333.3285579938
83333.3285581819
83333.3285583015
83333.328558364
83333.3285583773
83333.3285600214
83333.3285602614
83333.3285605108
83333.3285607575
83333.3285609916
83333.328561213
83333.3285614267
83333.3285616379
83333.3285618474
83333.3285620514
83333.3285622414
83333.3285624055
83333.328562525
83333.328562594
83333.3285626219
83333.3285626288
83333.3285626192
83333.3285669045
83333.3285668769
83333.328566879
83333.3285668884
83333.3285668964
83333.3285669
83333.3285669027
83333.328566909
83333.3285669217
83333.3285669411
83333.3285669647
83333.3285669827
83333.3285669795
83333.3285669586
83333.3285669284
83333.3285668993
83333.3285668775
83333.3285668606
83333.3285743618
83333.3285740312
83333.3285737334
83333.3285734524
83333.3285731919
83333.3285729462
83333.328572713
83333.3285724929
83333.3285722866
83333.3285720943
83333.3285719143
83333.328571742
83333.3284955592
83333.3284982613
83333.328498046
83333.3285012594
83333.3285010016
83333.3285005862
83333.3285045261
83333.3285042364
83333.3285037853
83333.3285031306
83333.3285080369
83333.3285077404
83333.3285072557
83333.3285065492
83333.3285056722
83333.3285117804
83333.3285114841
83333.3285109917
83333.3285102267
83333.328509316
83333.3285082608
83333.3285157783
83333.3285154496
83333.3285149556
83333.3285141733
83333.3285131948
83333.3285121399
83333.3285109531
83333.3285200449
83333.3285196196
83333.3285191136
83333.3285183366
83333.3285173268
83333.3285162257
83333.3285150756
83333.3285138003
83333.3285244813
83333.3285239605
83333.328523421
83333.3285226603
83333.3285216606
83333.328520536
83333.3285193795
83333.3285181728
83333.3285168475
83333.328528906
83333.3285283716
83333.3285278185
83333.3285270846
83333.3285261293
83333.3285250263
83333.3285238753
83333.3285227047
83333.3285214771
83333.3285201364
83333.328533232
83333.3285327565
83333.3285322393
83333.3285315567
83333.3285306721
83333.3285296344
83333.3285285247
83333.3285273968
83333.3285262449
83333.328525029
83333.3285237078
83333.3285276012
83333.328528869
83333.3285300399
83333.3285311447
83333.3285322172
83333.3285332777
83333.3285343057
83333.3285352444
83333.3285360349
83333.3285366421
83333.3285370958
83333.328537492
83333.3285318559
83333.3285330358
83333.3285341298
83333.3285351593
83333.3285361507
83333.3285371283
83333.32853809
83333.3285390027
83333.3285398192
83333.3285405004
83333.3285410272
83333.3285414134
83333.3285417274
83333.3285365095
83333.3285375667
83333.3285385531
83333.3285394795
83333.3285403668
83333.3285412371
83333.3285420971
83333.3285429307
83333.328543705
83333.3285443858
83333.3285449487
83333.3285453793
83333.3285456784
83333.3285457959
83333.3285415976
83333.3285424981
83333.3285433445
83333.3285441422
83333.3285449035
83333.3285456459
83333.3285463785
83333.3285470965
83333.3285477805
83333.3285484037
83333.3285489418
83333.3285493752
83333.328549687
83333.3285498925
83333.3285499732
83333.3285471541
83333.3285478656
83333.328548541
83333.3285491838
83333.3285497972
83333.3285503913
83333.3285509745
83333.3285515486
83333.3285521052
83333.3285526273
83333.3285530943
83333.3285534868
83333.3285537845
83333.3285539937
83333.3285541225
83333.3285541678
83333.3285532082
83333.3285537005
83333.3285541794
83333.328554642
83333.3285550828
83333.3285555056
83333.3285559169
83333.328556322
83333.3285567202
83333.328557104
83333.3285574598
83333.3285577711
83333.3285580201
83333.328558196
83333.3285583075
83333.3285583703
83333.3285583838
83333.3285597896
83333.3285600363
83333.3285602946
83333.3285605492
83333.3285607889
83333.3285610132
83333.3285612281
83333.32856144
83333.3285616527
83333.328561865
83333.3285620709
83333.3285622597
83333.3285624117
83333.3285625166
83333.3285625791
83333.3285626132
83333.3285626252
83333.3285626185
83333.328566964
83333.3285669275
83333.3285669245
83333.3285669266
83333.3285669261
83333.3285669201
83333.3285669121
83333.3285669076
83333.3285669104
83333.3285669221
83333.3285669414
83333.3285669594
83333.3285669607
83333.3285669482
83333.3285669299
83333.328566909
83333.3285668905
83333.3285668774
83333.3285668641
83333.3285743749
83333.3285740598
83333.3285737658
83333.3285734835
83333.3285732148
83333.3285729588
83333.3285727163
83333.3285724883
83333.3285722749
83333.3285720745
83333.3285718823
83333.3284931348
83333.3284955882
83333.3284953684
83333.3284983517
83333.3284980906
83333.3284976603
83333.3285013972
83333.3285011053
83333.3285006399
83333.3284999567
83333.3285046951
83333.3285043996
83333.328503905
83333.3285031689
83333.3285022468
83333.3285082263
83333.3285079428
83333.3285074472
83333.328506656
83333.3285056974
83333.3285045788
83333.3285120071
83333.3285117177
83333.3285112311
83333.3285104276
83333.3285094003
83333.3285082783
83333.3285070096
83333.3285161104
83333.3285157221
83333.3285152319
83333.3285144364
83333.3285133758
83333.3285122021
83333.3285109652
83333.3285095893
83333.3285205235
83333.3285199742
83333.3285194248
83333.3285186349
83333.3285175772
83333.3285163714
83333.3285151202
83333.3285138077
83333.3285123633
83333.3285250364
83333.3285243882
83333.3285237658
83333.3285229714
83333.3285219416
83333.328520745
83333.3285194884
83333.3285182036
83333.3285168512
83333.3285153731
83333.3285294172
83333.3285288052
83333.3285281704
83333.3285273927
83333.3285264093
83333.3285252618
83333.3285240332
83333.3285227802
83333.3285214961
83333.3285201374
83333.32851866
83333.3285336587
83333.3285331429
83333.3285325643
83333.3285318409
83333.3285309301
83333.3285298644
83333.3285287033
83333.3285275057
83333.3285262918
83333.3285250382
83333.3285237062
83333.328522264
83333.3285262256
83333.3285275982
83333.32852887
83333.3285300645
83333.3285312116
83333.3285323403
83333.3285334509
83333.328534509
83333.328535465
83333.3285362775
83333.3285369257
83333.3285374243
83333.3285378432
83333.3285305838
83333.3285318517
83333.3285330322
83333.328534138
83333.3285351939
83333.328536227
83333.3285372478
83333.3285382401
83333.3285391681
83333.3285399941
83333.3285406907
83333.3285412393
83333.3285416254
83333.3285417869
83333.3285353755
83333.3285365042
83333.3285375608
83333.3285385511
83333.3285394922
83333.328540408
83333.3285413118
83333.3285421994
83333.3285430486
83333.3285438287
83333.3285445118
83333.3285450734
83333.3285454873
83333.3285457647
83333.3285458852
83333.3285406361
83333.3285415915
83333.3285424922
83333.3285433401
83333.3285441443
83333.3285449225
83333.3285456875
83333.3285464417
83333.3285471744
83333.3285478645
83333.3285484872
83333.328549019
83333.3285494334
83333.3285497356
83333.3285499327
83333.3285500136
83333.3285464004
83333.3285471497
83333.3285478638
83333.3285485427
83333.3285491868
83333.3285498067
83333.328550412
83333.3285510087
83333.3285515944
83333.3285521578
83333.3285526808
83333.3285531429
83333.3285535227
83333.3285538101
83333.328554011
83333.3285541369
83333.328554182
83333.3285526967
83333.3285532099
83333.328553712
83333.3285541965
83333.3285546556
83333.328555093
83333.3285555161
83333.3285559321
83333.328556344
83333.3285567485
83333.3285571352
83333.3285574892
83333.3285577916
83333.3285580266
83333.3285581955
83333.3285583093
83333.3285583713
83333.3285583866
83333.3285595545
83333.3285598059
83333.3285600719
83333.328560334
83333.3285605789
83333.328560806
83333.3285610214
83333.328561233
83333.3285614463
83333.3285616627
83333.3285618786
83333.3285620851
83333.3285622627
83333.3285623991
83333.328562498
83333.3285625646
83333.3285626045
83333.3285626217
83333.3285626192
83333.3285669849
83333.3285669751
83333.3285669738
83333.3285669656
83333.3285669496
83333.3285669304
83333.3285669141
83333.3285669055
83333.3285669074
83333.3285669195
83333.3285669339
83333.3285669356
83333.3285669278
83333.3285669186
83333.3285669084
83333.3285668966
83333.328566886
83333.3285668791
83333.3285668713
83333.3285743943
83333.3285740927
83333.3285737984
83333.3285735086
83333.3285732295
83333.3285729637
83333.3285727128
83333.3285724772
83333.3285722552
83333.3285720421
83333.3284909795