/*--------------------------------*- C++ -*----------------------------------*\
  =========                 |
  \\      /  F ield         | OpenFOAM: The Open Source CFD Toolbox
   \\    /   O peration     | Website:  https://openfoam.org
    \\  /    A nd           | Version:  12
     \\/     M anipulation  |
\*---------------------------------------------------------------------------*/
/*   Windows 32 and 64 bit porting by blueCAPE: http://www.bluecape.com.pt   *\
|  Based on Windows porting (2.0.x v4) by Symscape: http://www.symscape.com   |
\*---------------------------------------------------------------------------*/
FoamFile
{
    format      ascii;
    class       surfaceScalarField;
    location    "200";
    object      phi;
}
// * * * * * * * * * * * * * * * * * * * * * * * * * * * * * * * * * * * * * //

dimensions      [0 3 -1 0 0 0 0];

internalField   nonuniform List<scalar> 
28828
(
3.34650487516705e-06
-1.45410443553831e-08
5.15197968715096e-09
3.35179465379937e-06
-4.71714147877856e-09
-5.60914752940662e-10
3.25758987693857e-06
-2.45016505598417e-08
7.31756521157955e-10
3.38443983992364e-06
-1.13687818782459e-08
1.40315231140801e-08
3.35139928881096e-06
5.02419125385676e-09
-4.6225421414092e-09
3.26483488447287e-06
-7.29672176670703e-09
-4.65657236899298e-09
3.389759846132e-06
-3.53198592583307e-09
-2.33528872228475e-09
3.1729425397804e-06
-3.60424950591198e-08
-4.65497680410958e-09
2.07954118481426e-06
-9.9031535033047e-09
4.09056998772993e-09
3.41828530790664e-06
-1.0209496328369e-08
1.69082174054184e-08
3.34650496589927e-06
1.61515865632192e-08
-1.12614534727392e-08
3.26484592072106e-06
1.13640868316321e-08
-6.34338355499906e-09
3.39302222604315e-06
6.47135800786969e-09
-1.43720116637475e-08
3.18111893227907e-06
-8.1627253646512e-09
-7.29978756003391e-09
2.07865999077686e-06
-1.78707247169461e-09
-5.51852564826208e-09
3.42309693387586e-06
-4.60573345936702e-09
-2.54195921080664e-09
3.12109508226316e-06
-4.82907287671751e-08
-5.77328350872615e-09
1.22567918274383e-06
-9.18857331151661e-09
-8.43413931116531e-10
1.11291979409888e-06
-4.74261268723847e-09
4.72660655676806e-09
3.37163660130748e-06
-8.2527167353829e-09
1.50430229907406e-08
3.33656727286306e-06
2.85732650722911e-08
-1.86308178839814e-08
3.25718243564672e-06
3.41286005285397e-08
-1.03118074996096e-08
3.38981133071236e-06
1.76282908953969e-08
-2.56663654532817e-08
3.17709159964064e-06
2.16133406037873e-08
-6.22839661335562e-09
2.08055486423867e-06
9.49564772382153e-09
-1.12475975736653e-08
3.42099121923073e-06
6.4554643551415e-09
-1.87246801651986e-08
3.13022276913655e-06
-8.64236651046974e-09
-8.64689392213824e-09
1.22268773471729e-06
5.09375760155403e-10
-6.58887882930001e-09
1.10817900724476e-06
-1.85327508934514e-09
-3.52300637561608e-09
3.37710819212767e-06
-4.81433820654052e-09
-3.18153022086448e-09
3.05602588483405e-06
-5.91091072096463e-08
-5.99972930847845e-09
9.58735150420531e-07
-1.05448954753081e-08
-1.95163035724578e-09
5.42415467205234e-07
-2.82153297943655e-09
7.83767155618506e-10
8.3113244932318e-07
-3.5003508968687e-09
2.9144586186893e-09
3.20081794598918e-06
-6.22319239471492e-09
1.18927516213584e-08
3.32129396022773e-06
4.15962998304093e-08
-2.63250905929649e-08
3.24328634430078e-06
5.84289063359428e-08
-1.59576171838609e-08
3.37988401821668e-06
2.90703756288655e-08
-3.77780667401481e-08
3.16563732147749e-06
5.47219050308173e-08
-9.12690433654692e-09
2.082027722437e-06
2.28858291141937e-08
-1.70462518123956e-08
3.4113356277862e-06
1.69723357967906e-08
-3.29877709069011e-08
3.12634567169779e-06
3.16183566811687e-08
-6.11896121729889e-09
1.2228386032406e-06
1.18224730538389e-08
-8.69907464534504e-09
1.10654386463842e-06
6.46458925755508e-09
-9.60898692946106e-09
3.37378278459619e-06
4.58895011072186e-09
-1.99851735464157e-08
3.06593405244038e-06
-9.71215465159156e-09
-8.82023235705666e-09
9.56103957717959e-07
1.56020422912835e-09
-7.06122745786087e-09
5.36399165116928e-07
1.93326363157971e-09
-4.36099944823652e-09
8.26791115551668e-07
-9.28281275888754e-10
-3.06757285501689e-09
3.20632171373669e-06
-4.06558904813233e-09
-4.61094804362637e-09
2.96166574163217e-06
-6.85021360160781e-08
-6.22690094004345e-09
8.16587154515738e-07
-1.16475580551078e-08
-2.60036697931534e-09
4.12059415551447e-07
-2.65853700300835e-09
-3.53809331688284e-10
3.90832854510086e-07
-1.44086480375142e-09
4.78853649766227e-10
6.79554751303795e-07
-2.38773280774507e-09
1.44058343972098e-09
2.91862569210594e-06
-4.99224411385084e-09
9.33020835022145e-09
3.30066951182836e-06
5.48902983029224e-08
-3.42659780399859e-08
3.22378445152628e-06
8.33428947506326e-08
-2.2237436294975e-08
3.36379701062739e-06
4.06855872955959e-08
-5.0913481997888e-08
3.14855207466194e-06
8.94408981133438e-08
-1.39274767219933e-08
2.08234610776554e-06
3.67852901422217e-08
-2.39891013787812e-08
3.39557275146655e-06
2.61235462459833e-08
-4.81486873009531e-08
3.11423375657429e-06
7.3742605727194e-08
-6.90261554246837e-09
1.22368950942039e-06
2.48178745957115e-08
-1.19096157514413e-08
1.10614976626606e-06
1.52808773599717e-08
-1.49459238357451e-08
3.36350580848382e-06
1.32112892620325e-08
-3.59190797326334e-08
3.06366660579017e-06
3.95272709359212e-08
-5.64269104787785e-09
9.55689828587304e-07
1.41298850851003e-08
-8.01036188458177e-09
5.32873121762699e-07
8.5058455178269e-09
-7.21788188675294e-09
8.24029162974373e-07
5.77776128010771e-09
-8.03775878261012e-09
3.20401241496277e-06
3.29971982239315e-09
-2.09764532278936e-08
2.97204066453931e-06
-1.13196180877206e-08
-8.7564572099314e-09
8.13919956885433e-07
2.40377154353113e-09
-6.98967149824329e-09
4.07764855268501e-07
3.61986741872685e-09
-4.45066001467037e-09
3.8598015309046e-07
2.65974953777818e-09
-3.09496600629657e-09
6.75516211330589e-07
-1.18587432687989e-10
-2.97369695880849e-09
2.92356273362535e-06
-3.58757988089593e-09
-5.95865532387679e-09
2.84951578449607e-06
-7.67726111824946e-08
-6.5266192717136e-09
7.23008354400587e-07
-1.23361111564533e-08
-3.01767681603588e-09
3.47814135867102e-07
-2.79126423486483e-09
-1.04817834331271e-09
2.79341820868319e-07
-7.56424235302924e-10
-2.61109255725054e-10
3.15101582952423e-07
-5.00782950209729e-10
4.42222476564811e-11
5.69667070897836e-07
-1.6727314021968e-09
5.18552270150766e-10
2.57041542288702e-06
-4.18864609296304e-09
7.8997676684851e-09
3.27479266252522e-06
6.82875122716242e-08
-4.24002492581449e-08
3.19906728936157e-06
1.08501289274125e-07
-2.88884191922981e-08
3.34219864358354e-06
5.23964043211443e-08
-6.50615966655066e-08
3.12634791087244e-06
1.24871667323387e-07
-1.93363397412506e-08
2.08146052628414e-06
5.10197714798989e-08
-3.16860983201465e-08
3.3745414628085e-06
3.50025421315358e-08
-6.48850076657779e-08
3.09637866951945e-06
1.17328772445159e-07
-1.00375998701977e-08
1.22414760431597e-06
3.85371336228593e-08
-1.61348588111347e-08
1.10569442013996e-06
2.3238018084429e-08
-2.06499710183809e-08
3.34808395748161e-06
2.02536287542529e-08
-5.29843357828463e-08
3.05236360398896e-06
8.94403046738928e-08
-4.38913572262882e-09
9.55727832997818e-07
2.73922989810964e-08
-9.51119214559294e-09
5.30560440368691e-07
1.56727280464045e-08
-9.99326607419672e-09
8.22092003639196e-07
1.26762646112332e-08
-1.24771173502148e-08
3.19545966401755e-06
1.00522800558032e-08
-3.74042196142826e-08
2.97114503804218e-06
4.55743116329156e-08
-5.14823696321958e-09
8.13172389638083e-07
1.63863535189635e-08
-7.15295577337954e-09
4.04480119218299e-07
1.03284917604356e-08
-6.54951229884618e-09
3.82076909994901e-07
8.21194332942072e-09
-5.74789362904975e-09
6.72381792894973e-07
5.42310235951137e-09
-7.02731995627169e-09
2.92205972798544e-06
2.34118816428305e-09
-2.18123525563347e-08
2.86004095368873e-06
-1.31525893706381e-08
-8.69075181995118e-09
7.20151244369244e-07
3.18025805333268e-09
-6.66893406330299e-09
3.44170347117541e-07
4.65360106126259e-09
-4.37856188029091e-09
2.76141253512607e-07
4.45982548796603e-09
-3.05029500825537e-09
3.11115973715342e-07
3.2518978407248e-09
-2.47877501808316e-09
5.6576581536138e-07
3.28265518347722e-10
-2.98623692987546e-09
2.57440365410096e-06
-3.15685815497508e-09
-6.79193143670955e-09
2.74223602567184e-06
-8.44112780807739e-08
-6.55763690658999e-09
6.586463443486e-07
-1.26999793661454e-08
-3.3328295715244e-09
3.10811785720436e-07
-2.74094963583622e-09
-1.47449272235313e-09
2.25903949393067e-07
-4.40547364785773e-10
-7.37012427590014e-10
2.13272743475624e-07
3.76442081020016e-10
-4.26723722911018e-10
2.65497883854526e-07
2.0291308647315e-10
-2.54501481145174e-10
4.84907919513678e-07
-1.20878311154676e-09
1.07840236641156e-11
2.20613769560109e-06
-3.60777238905495e-09
7.55102519324843e-09
3.24365419101525e-06
8.16492432181604e-08
-5.0530799817937e-08
3.16936982687549e-06
1.33707064192669e-07
-3.57198096951239e-08
3.3156414976611e-06
6.41638647478076e-08
-7.99974870694839e-08
3.09929007230582e-06
1.60686386949298e-07
-2.51259716471145e-08
2.07943062613373e-06
6.55215412901011e-08
-3.99869315638532e-08
3.34872036494667e-06
4.39663641079604e-08
-8.32146579403673e-08
3.07350590481282e-06
1.61608083001658e-07
-1.38633659222367e-08
1.22404876863686e-06
5.26846178655414e-08
-2.0898553311127e-08
1.10490178287307e-06
3.10240799353138e-08
-2.69108872083195e-08
3.32824869166691e-06
2.680528986696e-08
-7.18515262847339e-08
3.03509603005956e-06
1.40476122541632e-07
-5.87576407282032e-09
9.55200799911103e-07
4.1282371408815e-08
-1.22506343226792e-08
5.2809647889143e-07
2.2823349088346e-08
-1.32545538315167e-08
8.20046571766736e-07
1.88257493759166e-08
-1.7173738108005e-08
3.18234436973831e-06
1.55442951358472e-08
-5.54114390445726e-08
2.96100117356729e-06
1.02417817440642e-07
-2.84381168135095e-09
8.13017594158948e-07
3.06477677733407e-08
-7.48259709296994e-09
4.01864790415118e-07
1.7302865038396e-08
-8.53036821203765e-09
3.7885771995643e-07
1.40891030199086e-08
-8.18577050966627e-09
6.69690910204972e-07
1.11356630400662e-08
-1.08690399538729e-08
2.91523429936535e-06
8.04666003244321e-09
-3.86257853550189e-08
2.86006521954145e-06
5.02607792255324e-08
-4.71219256032579e-09
7.19118488664632e-07
1.84903711161017e-08
-6.21827247856926e-09
3.41140846537555e-07
1.20880951245794e-08
-5.88457817924418e-09
2.72846975965708e-07
1.00731780406458e-08
-5.1147143605948e-09
3.07322135943454e-07
8.16629744250513e-09
-4.6960722953041e-09
5.62386275003283e-07
5.13071304729936e-09
-6.43801640016985e-09
2.57318343012337e-06
1.91582045423781e-09
-2.25093186958698e-08
2.75278333332631e-06
-1.52495883078436e-08
-8.44229433963145e-09
6.5547409340457e-07
4.01289962022151e-09
-6.34938600041032e-09
3.07312045661085e-07
5.62902683388941e-09
-4.14424155055011e-09
2.23377981141906e-07
5.61982302825862e-09
-3.01156607285752e-09
2.1074342601292e-07
5.10443248091324e-09
-2.37351735140161e-09
2.61855670691633e-07
3.67038503481683e-09
-2.17789881026342e-09
4.81074633018557e-07
7.18917500285061e-10
-3.02734880107871e-09
2.20910086009952e-06
-2.60592029608595e-09
-7.14178442186809e-09
2.65553766143872e-06
-9.16118447270406e-08
-6.53694072461183e-09
6.15403659020298e-07
-1.29088706595574e-08
-3.3620375615212e-09
2.91079587425331e-07
-2.57938651844487e-09
-1.70965614518336e-09
1.99057337217872e-07
-7.04606500640275e-11
-1.01873654465538e-09
1.64981741168402e-07
9.1673220557971e-10
-7.43076591196995e-10
1.74722355693266e-07
1.1267154542182e-09
-4.84430643490265e-10
2.32378184222704e-07
6.04178278903222e-10
-3.83449369357562e-10
4.19203637578001e-07
-9.56147420038931e-10
-1.52129067249266e-10
1.86817444166426e-06
-3.28129153209487e-09
8.34703361201672e-09
3.20710812676732e-06
-5.82867014301617e-08
9.4831664288081e-08
3.13483406436503e-06
1.58761873829811e-07
-4.25659676705062e-08
3.28448525957712e-06
7.58819509433071e-08
-9.5260071427865e-08
3.06747641180514e-06
1.96588054283534e-07
-3.10543931077552e-08
2.07635606380472e-06
8.02206705334475e-08
-4.86928956857967e-08
3.31861902691993e-06
5.29724390542846e-08
-1.02863855770672e-07
3.04589629265285e-06
2.06332342486746e-07
-1.80376548423093e-08
1.22341913035475e-06
6.71335636637402e-08
-2.60994331248927e-08
1.10379200073641e-06
3.88663432291533e-08
-3.37741145866701e-08
3.30446109096027e-06
3.33287130162969e-08
-9.27538214629752e-08
3.01281109856674e-06
1.92127557881e-07
-8.23316670072005e-09
9.54023063874321e-07
5.558241752101e-08
-1.55800359601561e-08
5.25138633098653e-07
2.99588434211948e-08
-1.68792523608805e-08
8.17656315135835e-07
2.463017814807e-08
-2.2340595023303e-08
3.16553749306863e-06
2.05205558195385e-08
-7.55586147939476e-08
2.9449551469478e-06
1.60025652578857e-07
-3.49266444198938e-09
8.12162355977562e-07
4.53472206523506e-08
-9.08406205615936e-09
3.99007889039953e-07
2.43753290636112e-08
-1.09489398712335e-08
3.75453057900564e-07
1.9801917856533e-08
-1.08244636220993e-08
6.66794600744104e-07
1.62548725901949e-08
-1.49833696932914e-08
2.90446966128042e-06
1.25425794335596e-08
-5.71790174617466e-08
2.85108467336735e-06
1.13302373232263e-07
-1.90133142668297e-09
7.18893540311747e-07
3.39147135061751e-08
-5.88314735645647e-09
3.38580549467449e-07
1.9558239612974e-08
-7.17791029828268e-09
2.69656662697883e-07
1.57876393491879e-08
-7.03639934485377e-09
3.03779863004885e-07
1.32955561155403e-08
-6.801686118772e-09
5.59220536485481e-07
1.01148302046852e-08
-9.77305935792504e-09
2.5678395902192e-06
6.53785057371213e-09
-3.98194756926025e-08
2.75345998718418e-06
5.38508382306746e-08
-4.2680288173485e-09
6.54230239616583e-07
2.0486582274613e-08
-5.46627265270959e-09
3.04429244710133e-07
1.38896359633344e-08
-5.13730626342977e-09
2.20493478559446e-07
1.17098975554707e-08
-4.63606084674096e-09
2.07675802548011e-07
1.01745371666612e-08
-4.05594553091502e-09
2.58165292554369e-07
8.14120721952504e-09
-4.01417603896719e-09
4.77660249836584e-07
5.03524259687195e-09
-6.1450221794557e-09
2.20780008779053e-06
2.07762958864367e-09
-2.32853064995014e-08
2.66607961108356e-06
-1.75543957453976e-08
-8.22740665018835e-09
6.12013364580159e-07
4.87960008164369e-09
-5.9158734591151e-09
2.87583746307895e-07
6.66332539062899e-09
-3.88568682450322e-09
1.96682949460712e-07
6.69152319244647e-09
-2.84127087586664e-09
1.63055911513286e-07
6.35645676146185e-09
-2.33865916120475e-09
1.72409474591154e-07
5.51696146221095e-09
-1.90653801756379e-09
2.28936089707698e-07
3.96707652352568e-09
-1.98422107940558e-09
4.1553830991197e-07
1.0367289429037e-09
-3.00387239456753e-09
1.87009734497863e-06
-2.06505544698791e-09
-6.99108071072343e-09
2.59463484194084e-06
-9.85486772230059e-08
-6.50007209151606e-09
5.88073204655175e-07
-1.30784458113859e-08
-3.30403803215256e-09
2.8242901528538e-07
-2.31786055180052e-09
-1.77665302045164e-09
1.88083186657249e-07
3.5722028885395e-10
-1.15489835818204e-09
1.42697307460617e-07
1.44467027386035e-09
-8.92394527284542e-10
1.31654952800714e-07
1.69931819774169e-09
-6.79031897703128e-10
1.53128315467939e-07
1.59032259022698e-09
-4.47185375546088e-10
2.10845761673729e-07
7.50570320458151e-10
-3.45113549727417e-10
3.69361504768585e-07
-8.76051389487525e-10
-2.5326655536655e-11
1.59419985881372e-06
-3.31539608007604e-09
1.05699518880683e-08
3.16467506949711e-06
-6.52157274709531e-08
1.07652272550268e-07
3.24896375104599e-06
-1.10150143596139e-07
8.73969945203124e-08
3.09542830667853e-06
-4.92046558452029e-08
1.83447811552808e-07
3.03089732282036e-06
2.32338139313421e-07
-3.69848079865156e-08
2.07229997353598e-06
9.5041799858057e-08
-5.76598729919967e-08
3.28470797273874e-06
6.19344978497675e-08
-1.23282965312101e-07
3.01362706537274e-06
2.51169886665325e-07
-2.23230074261402e-08
1.22233294110789e-06
8.17859170938138e-08
-3.15208473327566e-08
1.10251786648768e-06
4.67081712210905e-08
-4.11549521933226e-08
3.27729857387703e-06
3.98717715983025e-08
-1.15575249569511e-07
2.98582750860087e-06
2.44166110169007e-07
-1.08424118589523e-08
9.52223488689177e-07
7.01468203250358e-08
-1.92514553437162e-08
5.21650075221455e-07
3.70637615966309e-08
-2.08057882153061e-08
8.14976655582759e-07
3.03201669684684e-08
-2.80890843335588e-08
3.14570297053359e-06
2.54104258127603e-08
-9.8324698696745e-08
2.92399160483344e-06
2.18126710286295e-07
-5.03999812485313e-09
8.10550486624894e-07
6.03166671101975e-08
-1.13456994212559e-08
3.95624323676499e-07
3.14570465345977e-08
-1.36929068733728e-08
3.71557601452466e-07
2.53480454768092e-08
-1.36966381720059e-08
6.63535216126255e-07
2.09882335503761e-08
-1.95521538463792e-08
2.89071746260902e-06
1.66063570325628e-08
-7.84162532921343e-08
2.83633192472659e-06
1.76850864833564e-07
-2.06983695012637e-09
7.17894816204006e-07
4.95641585010542e-08
-6.71536784959073e-09
3.35722252886909e-07
2.70206022339146e-08
-8.87058176328714e-09
2.66163615761921e-07
2.14321790683262e-08
-9.08509372542149e-09
2.99984011573337e-07
1.82519815613512e-08
-9.0243475064478e-09
5.55788676075544e-07
1.45405854204106e-08
-1.35483910469789e-08
2.55901718540524e-06
1.08018208496792e-08
-5.91550971735362e-08
2.74548940580516e-06
1.22480676971023e-07
-1.20454083419586e-09
6.53942158181153e-07
3.69662035893252e-08
-4.66371185975057e-09
3.01957862291603e-07
2.20565418689608e-08
-5.90942622059649e-09
2.17479426868204e-07
1.77278192176537e-08
-6.10412669760105e-09
2.04341831903685e-07
1.52753597829177e-08
-5.68136199083953e-09
2.54500191052592e-07
1.27825276031872e-08
-5.80380310470805e-09
4.74115148220979e-07
9.43922625535462e-09
-9.12809479352609e-09
2.20351640237381e-06
5.56115949174236e-09
-4.10930211540433e-08
2.66724361870818e-06
5.6580102617458e-08
-3.89478065685593e-09
6.10574963355247e-07
2.2424959877275e-08
-4.76737789699128e-09
2.84721170343022e-07
1.57477870362386e-08
-4.4613826948416e-09
1.93983463896211e-07
1.33629834629956e-08
-4.09052774638776e-09
1.6043232267903e-07
1.18395279253368e-08
-3.67607015950463e-09
1.6945468114709e-07
1.02854554645294e-08
-3.24512766772728e-09
2.2537293504859e-07
8.1503838697138e-09
-3.56587615892419e-09
4.12311625562517e-07
5.08681318194903e-09
-5.92561418441044e-09
1.86874429256936e-06
1.98699755419007e-09
-2.39149980969752e-08
2.60522420422477e-06
-2.00634756128621e-08
-8.07267945719162e-09
5.84500468928393e-07
5.74432374080961e-09
-5.51828666502294e-09
2.78978677653978e-07
7.75911583432384e-09
-3.56147354000327e-09
1.85729599353496e-07
7.79337513050408e-09
-2.63413843866966e-09
1.40920815930203e-07
7.4711502030255e-09
-2.17971158211006e-09
1.29881194199724e-07
6.78633014677676e-09
-1.83502544886718e-09
1.50868449803826e-07
5.87823631068066e-09
-1.55752187892596e-09
2.07569824625711e-07
4.10578490205294e-09
-1.77769612944653e-09
3.65976053625383e-07
1.28850254064199e-09
-2.96946513642813e-09
1.59529721590296e-06
-1.80315353652502e-09
-6.28024342233896e-09
2.55768068931581e-06
-1.05401405511739e-07
-6.4117323842372e-09
5.73285889620128e-07
-1.32910911691087e-08
-3.20570208567026e-09
2.8129169591578e-07
-2.03164825277609e-09
-1.72956781424616e-09
1.86651567922428e-07
8.14089547933553e-10
-1.17926379246429e-09
1.35429638261846e-07
1.98783940154243e-09
-9.32496390616576e-10
1.12675877845679e-07
2.30720940081623e-09
-7.69909370878363e-10
1.15028655055352e-07
2.2278296802436e-09
-5.46093346539863e-10
1.41878345258773e-07
1.73236083601921e-09
-3.37793681330565e-10
1.9687632182193e-07
7.57324398254009e-10
-2.25219841904685e-10
3.39334196937871e-07
-1.02577371214098e-09
3.30084944821599e-10
1.43343166440122e-06
-3.20543012489292e-09
1.44052928356006e-08
3.11552836056085e-06
-7.08335870383874e-08
1.19983711473598e-07
3.20897753292357e-06
-1.23730338022112e-07
9.85037347706316e-08
3.05086806938017e-06
-5.53321924888805e-08
2.07548922837706e-07
3.24736576945194e-06
-1.43487883166215e-07
7.06934625422063e-08
2.06720654837771e-06
-6.65861106196362e-08
1.09872152871633e-07
2.98939226705623e-06
-4.27659578182202e-08
2.67718608787082e-07
2.97662714913387e-06
2.95919952202056e-07
-2.65755465890376e-08
1.22085676418883e-06
9.65873394116141e-08
-3.70501523939853e-08
1.10125783437391e-06
5.44494110323722e-08
-4.89114364784972e-08
3.2474260539874e-06
4.63841867299776e-08
-1.39799007570844e-07
2.95421469727937e-06
2.96332008755918e-07
-1.35466467339728e-08
9.4988518166304e-07
8.48698102488875e-08
-2.30574968134843e-08
5.17697775950995e-07
4.40621169578546e-08
-2.49198281682956e-08
8.12213202949666e-07
3.58798645550118e-08
-3.43937408017446e-08
3.12369528596676e-06
3.031065891475e-08
-1.23879453715521e-07
2.89835166724461e-06
2.76509244357024e-07
-6.70892460511849e-09
8.08254870493867e-07
7.5455277456384e-08
-1.38507397661907e-08
3.91660393882627e-07
3.84355445923466e-08
-1.66573756938317e-08
3.67148181539902e-07
3.07296398962723e-08
-1.68021104044005e-08
6.60028791180507e-07
2.55239616515484e-08
-2.46949891063253e-08
2.8748477593122e-06
2.06773800887787e-08
-1.031192148221e-07
2.81683647811068e-06
2.40777347182965e-07
-3.1540027905061e-09
7.1606557091167e-07
6.5356654000478e-08
-8.24395573956933e-09
3.32292907545561e-07
3.44189248433485e-08
-1.08744443447038e-08
2.62173358717459e-07
2.69322871384331e-08
-1.12870674797446e-08
2.95720764634876e-07
2.29803344327034e-08
-1.1423973195756e-08
5.51980605660379e-07
1.85943659303927e-08
-1.7731358548314e-08
2.54783558613493e-06
1.44014701279594e-08
-8.16336436610851e-08
2.73194499630284e-06
1.9137187305374e-07
-9.7566784557808e-10
6.5289383455482e-07
5.35367342970309e-08
-4.98794149304275e-09
2.99168488311298e-07
3.01156336270335e-08
-7.02268607169274e-09
2.14098263605949e-07
2.36076680405632e-08
-7.6643203664316e-09
2.00613051470981e-07
2.02572054571696e-08
-7.36169860936665e-09
2.50514508123263e-07
1.7222165818355e-08
-7.71891248727044e-09
4.7042125638678e-07
1.34563857799759e-08
-1.25047660555357e-08
2.19627893255909e-06
9.22620650132838e-09
-6.11409477282025e-08
2.66003552821572e-06
1.30224771461153e-07
-5.2779919320171e-10
6.10126874642708e-07
3.98929393871816e-08
-3.68213163681639e-09
2.82277089750248e-07
2.46584973112371e-08
-4.82214991004612e-09
1.91111771495045e-07
1.98699976547933e-08
-5.17882036657475e-09
1.57349413015927e-07
1.72087334169288e-08
-4.95536362239212e-09
1.66093184698924e-07
1.50286095615192e-08
-4.5657001169243e-09
2.21682419018966e-07
1.24471529938507e-08
-5.12069794865533e-09
4.08596732812076e-07
9.05693673418133e-09
-8.91151533755056e-09
1.86509206236995e-06
5.12917226283354e-09
-4.25602397646523e-08
2.60676831620858e-06
5.86292134908586e-08
-3.58588114812981e-09
5.82874368306824e-07
2.43238688505558e-08
-4.16630200636647e-09
2.76142197976437e-07
1.76469622851688e-08
-3.83056327027616e-09
1.83104818055085e-07
1.50906676246375e-08
-3.56359346110882e-09
1.38492272099201e-07
1.34335079130413e-08
-3.25535345671469e-09
1.27364177266646e-07
1.19939504431954e-08
-2.86749086164125e-09
1.47993094703189e-07
1.04047780633319e-08
-2.62423429826647e-09
2.04139300680164e-07
8.16943097057536e-09
-3.21773815463768e-09
3.62872179007186e-07
5.13204499338244e-09
-5.96537099269767e-09
1.59376598515172e-06
1.95798058137629e-09
-2.43339690719407e-08
2.56842053307082e-06
-2.28091807790404e-08
-7.98275945092327e-09
5.69552972786724e-07
6.57828795406498e-09
-5.16946612899437e-09
2.77864938606968e-07
8.87886217306268e-09
-3.20932969187313e-09
1.84315949805407e-07
8.93417481951111e-09
-2.3662408922877e-09
1.33680045025408e-07
8.57815020388772e-09
-1.98963629180657e-09
1.1103941908999e-07
7.95742523465531e-09
-1.71375570488442e-09
1.13291789600789e-07
7.16143944365014e-09
-1.37984740815277e-09
1.39686992041401e-07
5.98677492207514e-09
-1.24688951618239e-09
1.93860087350597e-07
4.17484210700207e-09
-1.64797771480195e-09
3.36236766568189e-07
1.34054116522258e-09
-3.0141752040689e-09
1.43367565137882e-06
-2.00386959509984e-09
-4.51789412153709e-09
2.54077149281265e-06
-1.12309439968615e-07
-6.35553875074974e-09
5.68007238146057e-07
-1.35825237973514e-08
-3.09381449172963e-09
2.85498634778474e-07
-1.76293016179169e-09
-1.62749902660895e-09
1.91151061723712e-07
1.26849133393465e-09
-1.10501128423343e-09
1.36869151703279e-07
2.5320426269076e-09
-9.08563302583336e-10
1.07507478261589e-07
2.9128613813257e-09
-7.65600716458e-10
9.85787219729336e-08
2.80769116435844e-09
-5.79380001956735e-10
1.08178114700169e-07
2.38482483234477e-09
-3.68566280687623e-10
1.3678724159558e-07
1.70763772319899e-09
-1.79994284453752e-10
1.91100228568213e-07
5.6334144784129e-10
-1.5296454070987e-11
3.54014591915422e-07
-1.12632010240091e-09
1.18252778251558e-09
1.27983770551735e-06
-2.44198844724257e-09
3.05854662803362e-06
-7.48154468179071e-08
1.31815077353867e-07
3.1640269152769e-06
-1.34984662242017e-07
1.09104755950511e-07
3.00058858544097e-06
-6.06121431225908e-08
2.30892680629139e-07
3.20656797232526e-06
-1.61960685341114e-07
7.902986869387e-08
2.06085757226426e-06
-7.50576415304406e-08
1.2460507259837e-07
2.94261635572912e-06
-4.8203505374043e-08
3.02524017079188e-07
3.2154354940578e-06
-1.64221623872946e-07
5.27293631574176e-08
1.10014074814674e-06
-5.676005215246e-08
6.19953808856498e-08
1.21901183153469e-06
-4.25433297786257e-08
1.115022847669e-07
2.93467283936416e-06
-3.07317314948582e-08
3.4041982176531e-07
2.91787654443908e-06
3.48481463047744e-07
-1.62116896944305e-08
9.47059996458152e-07
9.96962087160806e-08
-2.68523424887063e-08
5.13367033380536e-07
5.08720559315331e-08
-2.91406725859809e-08
8.09599209152396e-07
4.12373922787464e-08
-4.11466582925306e-08
3.10058673596894e-06
3.52610993111776e-08
-1.51936737972381e-07
2.86811612843445e-06
3.35015781947466e-07
-8.44811030216468e-09
8.05350546658084e-07
9.06856405233158e-08
-1.64539691718258e-08
3.87162106476324e-07
4.52290721825786e-08
-1.97245404065445e-08
3.62313206981419e-07
3.58905515367695e-08
-2.00933182801136e-08
6.56539612656722e-07
2.98707371860669e-08
-3.04659658380599e-08
2.85800414944802e-06
2.49670613263698e-08
-1.32002458830186e-07
2.79283331349537e-06
3.04917340560791e-07
-4.3956756117496e-09
7.1351285614377e-07
8.1228099523843e-08
-9.92980830366703e-09
3.28276637378486e-07
4.16383893268873e-08
-1.30344130023313e-08
2.57655562056515e-07
3.22093795929141e-08
-1.36199998720131e-08
2.90999414405573e-07
2.74726453828368e-08
-1.4028641593653e-08
5.47968230542551e-07
2.24394336022818e-08
-2.24461659742658e-08
2.5352505249472e-06
1.79084029028778e-08
-1.08439920245346e-07
2.71378111704993e-06
2.60631025436087e-07
-1.69589463284411e-09
6.50951126128807e-07
7.01407018979302e-08
-5.99229610775603e-09
2.9576163129161e-07
3.80097927422642e-08
-8.42795481018637e-09
2.10210478357588e-07
2.9284231926836e-08
-9.3377110236679e-09
1.96407752292794e-07
2.50259538702427e-08
-9.12866510072814e-09
2.46068973179461e-07
2.14086733259645e-08
-9.79214108725198e-09
4.66335958454968e-07
1.71109345275714e-08
-1.63539584812528e-08
2.18712990384821e-06
1.23030956195975e-08
-8.47871065537044e-08
2.64759644537002e-06
2.04079798163041e-07
-2.69882422563772e-10
6.08951550170828e-07
5.74063357155057e-08
-3.66536713421621e-09
2.79518565381143e-07
3.33836967909921e-08
-5.49581617845238e-09
1.87852652490117e-07
2.61659750349739e-08
-6.3217655591076e-09
1.53803516452995e-07
2.23936185357096e-08
-6.25470443390881e-09
1.62276183664173e-07
1.9610187815948e-08
-5.93244388998658e-09
2.17641609406581e-07
1.65697299589954e-08
-6.7922428943685e-09
4.04745852160175e-07
1.27634602917044e-08
-1.21913106027703e-08
1.85895371723346e-06
8.4844156169217e-09
-6.34839528625379e-08
2.60018029387022e-06
1.36922098771355e-07
-1.03210876158876e-10
5.82311809911781e-07
4.27871565814087e-08
-2.85664116618523e-09
2.73690803595181e-07
2.73162189536866e-08
-3.88831717827174e-09
1.8030404543295e-07
2.21705652495736e-08
-4.32078729126643e-09
1.35579909785388e-07
1.92015625415252e-08
-4.25864782796968e-09
1.24303256012478e-07
1.70106329146614e-08
-3.8767806596589e-09
1.44649494853296e-07
1.49110680925261e-08
-3.6847514046241e-09
2.00466895624127e-07
1.22835644846367e-08
-4.67580758882576e-09
3.5917886418173e-07
8.97836075588657e-09
-9.06539288403051e-09
1.59028398245405e-06
5.0893159698865e-09
-4.41668310109144e-08
2.57038511470772e-06
6.01295266338371e-08
-3.45863248491698e-09
5.67752436607047e-07
2.62003432165452e-08
-3.65940298725404e-09
2.75010185961906e-07
1.95734913315929e-08
-3.23698968562644e-09
1.81717502763943e-07
1.6886576799632e-08
-3.02731695986401e-09
1.3133355996282e-07
1.50559274815568e-08
-2.83989825667289e-09
1.08746113847975e-07
1.35637989116989e-08
-2.53194351640602e-09
1.10846743883785e-07
1.21361502553154e-08
-2.15331308050587e-09
1.36889886987098e-07
1.04595468061899e-08
-2.1179031689993e-09
1.90601980983694e-07
8.18943419858125e-09
-3.01546777160827e-09
3.33224000186304e-07
5.179323749065e-09
-6.17364148449343e-09
1.43150973580607e-06
1.75124875021848e-09
-2.39201768657578e-08
2.55176987605959e-06
-2.5821198488766e-08
-7.9786023273615e-09
5.64131260072689e-07
7.35829182185725e-09
-4.8828868577742e-09
2.82080021378679e-07
9.99614806500165e-09
-2.86742869334527e-09
1.8883024465356e-07
1.01007563151073e-08
-2.05441093569389e-09
1.35128326760607e-07
9.7055021358118e-09
-1.75193152429228e-09
1.05947749562397e-07
9.05324063932173e-09
-1.52535840634242e-09
9.7013557064438e-08
8.2577396203104e-09
-1.24450352018677e-09
1.06479543220441e-07
7.28902073140631e-09
-9.8370944482848e-10
1.34703639427956e-07
6.00919099721373e-09
-9.97260398692685e-10
1.88293752082759e-07
4.12483423397564e-09
-1.62448358917888e-09
3.5059323529455e-07
1.26664142901385e-09
-2.85870052751633e-09
1.27754476895576e-06
-3.82454200042767e-09
1.6046212722084e-09
2.5403419208288e-06
-1.19420041450215e-07
-6.34898486379517e-09
5.699614815863e-07
-1.39865731580593e-08
-2.99777973442517e-09
2.93672475007481e-07
-1.54185130228386e-09
-1.50862359413327e-09
1.99609095041808e-07
1.70164327486442e-09
-9.88478969851397e-10
1.43535237749122e-07
3.06255207366788e-09
-8.15532052160782e-10
1.10302771072323e-07
3.48058585975635e-09
-7.01689833216933e-10
9.4706106246009e-08
3.37117229491074e-09
-5.55442437928464e-10
9.37359513713949e-08
2.95286914966793e-09
-3.6501119792395e-10
1.06762119489602e-07
2.3226560955831e-09
-1.57359232016891e-10
1.36000914923818e-07
1.48070275756378e-09
3.37403719259669e-11
1.98700588919716e-07
2.65984760975436e-10
4.67107457544032e-10
5.20508593525008e-07
-1.10254076495937e-09
2.9924350746687e-06
-7.71306683835608e-08
1.43256159471802e-07
3.11312896126802e-06
-1.43089748620857e-07
1.19193001852063e-07
2.94374691099425e-06
-6.48313632909709e-08