/*--------------------------------*- C++ -*----------------------------------*\
  =========                 |
  \\      /  F ield         | OpenFOAM: The Open Source CFD Toolbox
   \\    /   O peration     | Website:  https://openfoam.org
    \\  /    A nd           | Version:  12
     \\/     M anipulation  |
\*---------------------------------------------------------------------------*/
/*   Windows 32 and 64 bit porting by blueCAPE: http://www.bluecape.com.pt   *\
|  Based on Windows porting (2.0.x v4) by Symscape: http://www.symscape.com   |
\*---------------------------------------------------------------------------*/
FoamFile
{
    format      ascii;
    class       volVectorField;
    location    "200";
    object      U;
}
// * * * * * * * * * * * * * * * * * * * * * * * * * * * * * * * * * * * * * //

dimensions      [0 1 -1 0 0 0 0];

internalField   nonuniform List<vector> 
10103
(
(-5.18570200031831e-07 6.22693334871634e-07 -0.000502355087977478)
(-1.04800031829361e-06 -1.0367598163716e-06 -0.000504040080728605)
(-3.30068368316593e-07 1.98299673043927e-06 -0.000534319543366339)
(-1.66919623543887e-06 1.67591327639645e-06 -0.000607074471580992)
(-1.4291191254068e-06 -3.11276280737405e-06 -0.000504313268923634)
(-1.0871617886236e-06 -1.83413456816533e-06 -0.000540335714386939)
(-2.0369900883009e-06 -3.10933308963502e-07 -0.000614351239641933)
(4.990286613576e-08 3.18508815945547e-06 -0.000368042050724336)
(5.39013460132344e-08 4.50824350460627e-06 -0.000432485606080006)
(-1.83411223128464e-06 2.00465880210103e-06 -0.000419469291709504)
(-1.36998433141149e-06 -4.90977765502932e-06 -0.000502316083669274)
(-9.361333705805e-07 -6.60059313470336e-06 -0.000538489296913051)
(-2.03044843061938e-06 -3.17493331278224e-06 -0.000612045681895878)
(-7.03135670547582e-07 -1.7136696544456e-06 -0.000372870962314143)
(-1.51021552470923e-07 1.07973500819057e-06 -0.000444577384063403)
(-7.89940135360881e-07 7.94277044340263e-07 -0.000427677450382424)
(1.93737490510352e-07 3.17495527672107e-06 -0.00027700712661644)
(8.51691047963327e-07 4.88435129242415e-06 -0.000288246363701552)
(2.84636964024332e-07 3.41022997313447e-06 -0.000294978470783131)
(-9.13093114778096e-07 1.50937593719705e-06 -0.000301706882191687)
(-1.61728111998698e-06 -6.42701323834924e-06 -0.000497494573474367)
(-1.00563788415347e-06 -1.00051364797375e-05 -0.000537365304847524)
(-2.32609292584791e-06 -5.10612564457897e-06 -0.000610084800619925)
(-5.91563035669186e-07 -6.2612928562701e-06 -0.000374580447168902)
(-7.24324755890306e-08 -2.14457555647772e-06 -0.000447912872296186)
(-2.27693640775262e-07 -7.37826267111403e-07 -0.00042937077071118)
(-1.36263005658584e-07 -9.1555983100662e-07 -0.00028160498708761)
(-2.72625275004115e-07 1.68015788568864e-06 -0.000298597123803734)
(4.17996410510862e-07 9.78844227307672e-07 -0.000305491542705434)
(2.99747090397079e-08 8.06807898642382e-07 -0.000309336943452835)
(-1.39325796456692e-08 3.62559299805569e-06 -0.000226391076474212)
(2.71245217266379e-07 4.87572375718773e-06 -0.000224545441014038)
(6.68364836436791e-07 3.49002553934697e-06 -0.000176453962113796)
(6.32667524196701e-07 2.84650488844962e-06 -0.000216435170204203)
(1.61392530112883e-08 1.47298872980913e-06 -0.000233794595930926)
(-2.10824507272768e-06 -7.77659872555025e-06 -0.000490666193727918)
(-1.48563499022711e-06 -1.29151405407945e-05 -0.000534171868259354)
(-3.30283385779978e-06 -6.63569989016238e-06 -0.00060585324729682)
(-3.77383043195848e-07 -9.39089522820121e-06 -0.000376148682064107)
(-4.01066743916376e-07 -4.37411843963746e-06 -0.000449533425722898)
(-1.02750436580393e-06 -1.91359073082727e-06 -0.000431180825364102)
(-1.68623330718676e-07 -4.65457163833353e-06 -0.000284341522693982)
(-3.49043464434099e-07 -1.10819726799043e-06 -0.000302658993469038)
(5.15645200602632e-07 9.1422364511981e-08 -0.0003100195522482)
(1.79721428138708e-07 3.49424057809165e-07 -0.000312958057832862)
(-1.25047560612439e-07 5.94388365479998e-07 -0.000231185217333668)
(-2.82767684982099e-07 2.1257955646216e-06 -0.000232680510197557)
(6.22208592275607e-07 1.90684253002654e-06 -0.000185134025979764)
(8.72929653045171e-07 2.01067686285258e-06 -0.000224859305294628)
(3.31545945349706e-07 1.2643527367406e-06 -0.000241285768502138)
(-3.15406903090168e-09 4.58656877528331e-06 -0.000192806835742738)
(2.67992668086759e-07 5.37905908905314e-06 -0.000195293769790946)
(5.47487365218686e-07 3.49921024922399e-06 -0.000128932749221905)
(7.31069554508896e-07 2.76936481359485e-06 -0.000120314080969158)
(9.22767064040365e-07 2.60156573169554e-06 -0.000178139460583667)
(8.3267841124156e-07 1.50275635427409e-06 -0.000190189536848385)
(-2.67810503139088e-06 -9.11744374270155e-06 -0.00048233040609597)
(-2.11908666847808e-06 -1.57883530276628e-05 -0.000529576599868549)
(-4.61194240105595e-06 -8.15035519880573e-06 -0.000600156405666243)
(-5.02262172935666e-07 -1.22794791523358e-05 -0.000376216993987213)
(-1.01712313064972e-06 -6.4874203070608e-06 -0.000449752411004268)
(-2.37734742978381e-06 -2.99509285880742e-06 -0.00043138242908417)
(-7.97136975569741e-08 -7.6521914393151e-06 -0.000286729783491278)
(1.77042030758238e-08 -3.24426589330363e-06 -0.000304553961842539)
(1.89277492460628e-07 -7.54667461045361e-07 -0.00031211377716983)
(-8.49987839530503e-07 -2.60191180252985e-07 -0.000315809898419971)
(-1.08494087113446e-07 -2.46477022200791e-06 -0.000233939860846562)
(-9.72057076403157e-08 -3.42675681555977e-07 -0.000236503247064344)
(4.87409243426169e-07 7.75706753535506e-07 -0.000189332244297659)
(6.82900554999582e-07 1.29380222751193e-06 -0.000229150915600791)
(1.56916039974505e-07 1.07465311783986e-06 -0.000245118541241555)
(-9.35079092429477e-08 2.26939032993493e-06 -0.000197678435373598)
(-1.50762365562033e-08 3.0180461147721e-06 -0.00020238444295798)
(4.65653204072899e-07 2.3118881827423e-06 -0.00013537684599887)
(7.93673840712923e-07 2.16545711061307e-06 -0.000127001297469883)
(8.71271901401002e-07 2.45234879005373e-06 -0.000185250653794998)
(6.7838106685862e-07 1.51825710042589e-06 -0.000197335629649888)
(5.31303626922481e-08 5.93792383866372e-06 -0.000168033088742885)
(3.27444632509718e-07 6.18819403999576e-06 -0.000176200590323336)
(5.24969869721411e-07 3.7755944643338e-06 -0.000108452409257992)
(6.9317915821445e-07 2.81106614293294e-06 -8.61434964768506e-05)
(8.03092072000404e-07 2.42963043682762e-06 -9.62431626608024e-05)
(1.13782115368004e-06 2.21938531761497e-06 -0.000152976318170184)
(1.34827866281959e-06 1.37769015454913e-06 -0.000159778695488288)
(-3.21441571465543e-06 -1.04856935058389e-05 -0.000472626020500549)
(-2.78595073057498e-06 -1.87759652356691e-05 -0.000523873057103769)
(-5.96165450324492e-06 -9.73285021012176e-06 -0.000593329886422298)
(-8.08990416953872e-07 -1.52936973985051e-05 -0.000375325023603246)
(-1.87303854445408e-06 -8.67687674288798e-06 -0.000449150885276156)
(-3.88398200109897e-06 -4.09518307286003e-06 -0.000430743729194397)
(-8.4914761009564e-08 -1.04882260670709e-05 -0.000288048203535986)
(-1.34940585580522e-08 -5.33601060144921e-06 -0.000305483027914257)
(-4.70000483630167e-07 -2.11724821559879e-06 -0.000313174376918452)
(-2.25163896429631e-06 -1.00205168033954e-06 -0.000317446563869645)
(3.32222698832533e-08 -5.22629425516536e-06 -0.000236549414580956)
(1.92897379285878e-07 -2.52151631177782e-06 -0.000238335413750805)
(3.99122952265762e-07 -2.76472488181665e-07 -0.000191227053149966)
(1.14520668756726e-07 5.02023968103462e-07 -0.000231179898398706)
(-9.09350974096231e-07 5.19559518436773e-07 -0.000247906810125237)
(-2.40072774218003e-08 -2.66131250978354e-07 -0.000200299914052847)
(8.51747202170157e-08 6.60614416892974e-07 -0.000205946849413052)
(4.16882321131843e-07 1.27819722552639e-06 -0.000138846174299476)
(6.61618883967454e-07 1.67196064595176e-06 -0.000130535267554713)
(5.35325703479489e-07 1.88603058136528e-06 -0.000189163050478114)
(1.46687920379106e-07 1.23833561013303e-06 -0.000201036632184585)
(3.64229617807299e-08 4.03532773083273e-06 -0.00017298549809737)
(2.08502431635889e-07 4.01620803107588e-06 -0.000182707052226351)
(4.60803704276336e-07 2.85385181245209e-06 -0.000113838209183897)
(6.85610939027328e-07 2.39659958206346e-06 -9.09705324220322e-05)
(7.88400428156123e-07 2.29345397850071e-06 -0.000101652110470992)
(8.32696391633027e-07 2.29628033459844e-06 -0.000159223454660051)
(8.48690409928587e-07 1.43361090128581e-06 -0.000166522434599267)
(3.94014489305096e-08 7.44736487964878e-06 -0.000148820204065289)
(4.18101908187148e-07 7.21368934906492e-06 -0.000160822771153235)
(5.0622920052707e-07 4.2704250054607e-06 -9.50097719137472e-05)
(6.63917626921681e-07 3.04739384770709e-06 -7.15865596005614e-05)
(7.47338983865313e-07 2.5484229047011e-06 -6.83618691067479e-05)
(8.12821041611344e-07 2.20606081531811e-06 -8.13242013435906e-05)
(1.27200680215951e-06 1.93341122031134e-06 -0.00013240745426239)
(1.69219258768637e-06 1.27490566104861e-06 -0.000137447370696686)
(-3.67599039114342e-06 -1.18690056170594e-05 -0.000461547723641502)
(-3.43274301913252e-06 -2.18376589411264e-05 -0.000517121672580347)
(-7.21517021395421e-06 -1.13813523336804e-05 -0.000585411537719903)
(-1.17039214247012e-06 -1.84688541575752e-05 -0.000373719745719981)
(-2.82603209647897e-06 -1.09941128923864e-05 -0.000447980387159375)
(-5.36037523235566e-06 -5.23401037082888e-06 -0.000429553741600163)
(-1.99072736270728e-07 -1.34554742413419e-05 -0.000288682064711384)
(-3.54091714173119e-07 -7.52764679682522e-06 -0.000305878580478181)
(-1.3110100364385e-06 -3.57221068191156e-06 -0.000313762752112826)
(-3.7272066522796e-06 -1.78078074206489e-06 -0.000318609848198762)
(1.18083991780391e-07 -7.90382638663562e-06 -0.000238316083029839)
(2.94824201878088e-07 -4.6925697253865e-06 -0.000239458836634474)
(2.00251681237904e-07 -1.45315053328621e-06 -0.000192518803805413)
(-6.37091223891373e-07 -4.48267526401992e-07 -0.000232429748900629)
(-2.23782319807912e-06 -4.32973796263547e-08 -0.000249852218764528)
(1.60741450903934e-07 -2.78258399918521e-06 -0.000203024643851342)
(2.45128112593823e-07 -1.60205044232284e-06 -0.000207704596820018)
(4.71356201310147e-07 2.6639437889858e-07 -0.000140538496464635)
(4.59740839083521e-07 1.07544098303592e-06 -0.000132208008871199)
(-1.28002602817778e-07 1.21160897326107e-06 -0.000191116253513824)
(-9.87027987263516e-07 8.54619282169592e-07 -0.00020363571744315)
(9.25932699471205e-08 1.8574995229744e-06 -0.000175515096492089)
(1.85241668838343e-07 1.75869822238993e-06 -0.000186109476105328)
(4.24262569903623e-07 1.94846471425636e-06 -0.000116893990505752)
(6.07440252076884e-07 2.02520101739812e-06 -9.37498558397522e-05)
(6.02923919753679e-07 2.13058099780522e-06 -0.000104705838782184)
(3.26883463746195e-07 2.00988654593247e-06 -0.000162787907994664)
(2.54504852791849e-08 1.14817598961461e-06 -0.000169985270104219)
(6.37351655719238e-08 5.82337080208409e-06 -0.000153838702599578)
(3.46193280574425e-07 5.13733168941463e-06 -0.000167048502787243)
(4.6505237677364e-07 3.5373225530726e-06 -9.98889490604613e-05)
(6.46973508269973e-07 2.80685362888e-06 -7.54979550881327e-05)
(7.22837677674797e-07 2.50751319880792e-06 -7.21797463826759e-05)
(6.91132832748261e-07 2.32015994383232e-06 -8.59739826272764e-05)
(7.89157912551619e-07 2.13171861863137e-06 -0.00013801639426914)
(9.46369501705092e-07 1.35306326293823e-06 -0.000143675486429022)
(1.3733690236771e-08 8.97645770983589e-06 -0.000133527199845496)
(3.29383307143718e-07 8.33057380141228e-06 -0.000147589324431257)
(4.67611231540269e-07 4.89277306112169e-06 -8.38854181017534e-05)
(6.21613454675435e-07 3.43217510770783e-06 -6.16757328762885e-05)
(7.39795241136062e-07 2.79491030415754e-06 -5.61947642694551e-05)
(7.11790137357166e-07 2.42761346235446e-06 -5.72710603751163e-05)
(7.87720314034622e-07 2.02869932026296e-06 -6.93417666857735e-05)
(1.356639257149e-06 1.72565675019243e-06 -0.000114137875963762)
(1.96488471915484e-06 1.21836297850168e-06 -0.000120728341681212)
(-4.03455356166784e-06 -1.32322627905668e-05 -0.000449020149033646)
(-4.00773145590942e-06 -2.49244277325434e-05 -0.000509265541309635)
(-8.25602863603261e-06 -1.30715081172405e-05 -0.000576317527516757)
(-1.56341572147052e-06 -2.17955688336558e-05 -0.000371463323790311)
(-3.82078811985622e-06 -1.34448048130447e-05 -0.00044634718048838)
(-6.69955485321282e-06 -6.45486408576639e-06 -0.000427867376312638)
(-3.67193242101408e-07 -1.65751808702452e-05 -0.000288810012036436)
(-7.89515761221746e-07 -9.85269372966035e-06 -0.000305890515513877)
(-2.22037915627304e-06 -5.03278722246808e-06 -0.000314064491041945)
(-5.17062094280456e-06 -2.57977873295198e-06 -0.000319557312889561)
(9.94779018612492e-08 -1.07155568088897e-05 -0.000239612100783121)
(1.69045746025003e-07 -6.9725077420175e-06 -0.000240185350998195)
(-1.46719960546901e-07 -2.72513389159426e-06 -0.000193640382181042)
(-1.50077257514038e-06 -1.42891977187691e-06 -0.000233415243085664)
(-3.6649254157711e-06 -6.17064629208457e-07 -0.000251562776458915)
(1.94606595004118e-07 -5.31422067126073e-06 -0.000204981378931741)
(3.37853532247839e-07 -3.88744017203301e-06 -0.000208857367661233)
(4.69791433268824e-07 -8.26737669287753e-07 -0.000141796815158749)
(1.80358051469539e-07 3.59419790655044e-07 -0.000133447021440883)
(-9.41521883591421e-07 5.38023351752078e-07 -0.000192460973018518)
(-2.30473993712808e-06 4.37724449089882e-07 -0.000205614256305566)
(2.38057785133072e-07 -4.55287250277358e-07 -0.000178341654452358)
(3.05679473289028e-07 -5.2936187528637e-07 -0.000187847512663815)
(4.99079468701937e-07 1.00829794108234e-06 -0.000118480007251326)
(5.52884915025174e-07 1.56185384114512e-06 -9.51851585716621e-05)
(3.14546379443108e-07 1.79265672138946e-06 -0.000106264515837119)
(-4.48551370940714e-07 1.59398796643076e-06 -0.000164671865468896)
(-1.14887499649474e-06 9.0818956224101e-07 -0.000172344045373078)
(1.34362021295998e-07 3.89296386559206e-06 -0.000156300413834165)
(2.81120286637642e-07 2.92326298441411e-06 -0.000170383363857548)
(4.28070316623121e-07 2.75268395444406e-06 -0.000102704340286757)
(6.03721855742527e-07 2.55877407593342e-06 -7.78812717904013e-05)
(6.01027529265621e-07 2.44992037464317e-06 -7.45250754579237e-05)
(4.36901191502056e-07 2.3833713708099e-06 -8.86996781501595e-05)
(1.40867370753764e-07 2.03365635604683e-06 -0.000141263663348048)
(-4.13561518312942e-08 1.10928980058702e-06 -0.000146887344532537)
(5.00096129430229e-08 7.56403169017236e-06 -0.000138644508664433)
(3.02090184583912e-07 6.3256543004783e-06 -0.000153590355951618)
(4.48738778887123e-07 4.31818520468358e-06 -8.84829485888797e-05)
(6.09313634771109e-07 3.35623369137267e-06 -6.51518330589704e-05)
(7.28222208805872e-07 2.86980713825125e-06 -5.92093866606626e-05)
(6.36017437372056e-07 2.60665941256393e-06 -6.04989610289438e-05)
(5.71728474924435e-07 2.30389384972582e-06 -7.34612182617509e-05)
(7.49031564865898e-07 1.99895851041497e-06 -0.000119174598799289)
(1.08141771215477e-06 1.27274807405573e-06 -0.000126416963667688)
(-1.82739214869861e-08 1.04822980649956e-05 -0.000120954339772532)
(2.20462119704425e-07 9.49578594019563e-06 -0.00013617596258774)
(3.83350591839314e-07 5.58669910022319e-06 -7.41493890328467e-05)
(5.62922603734869e-07 3.91357776533111e-06 -5.31768095684327e-05)
(6.94913553408378e-07 3.15084390847256e-06 -4.76593501073731e-05)
(6.73960928295459e-07 2.63902440698182e-06 -4.64415428314703e-05)
(6.2152208839326e-07 2.29259535525728e-06 -4.81376002278593e-05)
(7.55462199997762e-07 1.87229594932772e-06 -5.85745100263395e-05)
(1.42835184928925e-06 1.53147093458262e-06 -9.8429002319927e-05)
(2.17497709873151e-06 1.24459667223719e-06 -0.000107625895363259)
(-4.27178966691772e-06 -1.45399772805384e-05 -0.000434939593006428)
(-9.0103779758963e-06 -1.47831807107239e-05 -0.000565880687183689)
(-4.46396155113439e-06 -2.79960600940861e-05 -0.000500161030374829)
(-1.93795963268429e-06 -2.52457713419176e-05 -0.000368538111291381)
(-4.7398119540344e-06 -1.60111706650427e-05 -0.000444249427074248)
(-7.80076806088095e-06 -7.73072320263354e-06 -0.000425587817990346)
(-5.83085367883475e-07 -1.98948515684514e-05 -0.000288462061927919)
(-1.28084688172108e-06 -1.2327887591542e-05 -0.000305579858433607)
(-3.14980480713794e-06 -6.56769167168562e-06 -0.000314149015123905)
(-6.50788904430691e-06 -3.42851821194436e-06 -0.000320337255528064)
(-1.53600972488548e-09 -1.37099769161418e-05 -0.000240498709521756)
(-5.42784837228647e-08 -9.40389652069201e-06 -0.000240622844566631)
(-5.84349622038745e-07 -4.10006718619584e-06 -0.000194683600440506)
(-2.41243613843965e-06 -2.41253829781361e-06 -0.000234276648410191)
(-5.10121489711688e-06 -1.20022418991115e-06 -0.000253232448251244)
(1.96572761661155e-07 -8.00229430049331e-06 -0.000206594476836106)
(3.25520998887064e-07 -6.29550079619619e-06 -0.000209706775890698)
(3.44512451434648e-07 -2.03282403259395e-06 -0.000142955454385531)
(-1.88942882164156e-07 -4.32793718618581e-07 -0.000134640272979045)
(-1.85289901299383e-06 -1.34305137156253e-07 -0.000193639552804605)
(-3.73789300732296e-06 1.66701582108462e-08 -0.000207476663531397)
(2.84901258969804e-07 -2.86869831818642e-06 -0.000180395107123222)
(3.5128228206548e-07 -2.89820001053092e-06 -0.000189017920633521)
(5.65735889700064e-07 -3.1757507255413e-08 -0.000119716927821513)
(4.55388552537247e-07 9.85618251620797e-07 -9.63391188616357e-05)
(-3.39417430458295e-08 1.33369350139393e-06 -0.000107496348313681)
(-1.34385747292938e-06 1.13281255933348e-06 -0.000166082532269509)
(-2.51797272661482e-06 5.2698192974713e-07 -0.000174232659852741)
(2.8145632442859e-07 1.74787972207887e-06 -0.00015923468511309)
(3.49825759802826e-07 6.07425987231237e-07 -0.000172105297053793)
(5.1259694918388e-07 1.88671849298926e-06 -0.000104226048108834)
(6.04605741319793e-07 2.21713463860011e-06 -7.9218460629585e-05)
(4.5718440266536e-07 2.25537731527247e-06 -7.58435870510567e-05)
(7.92114595234852e-08 2.24746128577754e-06 -9.01922964200548e-05)
(-7.37151516053293e-07 1.79406978858097e-06 -0.000143054972704168)
(-1.28864246174608e-06 9.37185761866252e-07 -0.000149021889210469)
(1.40618655262192e-07 5.81910746289145e-06 -0.000141080073680854)
(2.81623697267654e-07 4.14173969249796e-06 -0.000156898973130169)
(4.16804503384772e-07 3.64687578934833e-06 -9.11837305094074e-05)
(5.94207457038553e-07 3.22970943565006e-06 -6.73307655302213e-05)
(6.32248530936807e-07 2.93195267602535e-06 -6.11933372201943e-05)
(4.67411823044519e-07 2.75747950739509e-06 -6.25802465342347e-05)
(2.48498321048796e-07 2.52375309669814e-06 -7.59292739009253e-05)
(-1.39909154890563e-08 2.02354874128227e-06 -0.000122111876944946)
(-2.95205801989037e-08 1.07403883104783e-06 -0.000129367215984142)
(2.39631385792115e-08 9.24754486500524e-06 -0.000126206014087367)
(2.29011119480715e-07 7.53783409158832e-06 -0.000142026256298633)
(3.87318355540839e-07 5.15789753147266e-06 -7.85425751343848e-05)
(5.69879700707749e-07 3.99286503645294e-06 -5.64159743778869e-05)
(6.91120886463029e-07 3.38438890647737e-06 -5.02860780066556e-05)
(6.30288365866066e-07 2.89561979417881e-06 -4.89449468959955e-05)
(4.90185124414293e-07 2.65347890830805e-06 -5.09870338380386e-05)
(4.59101314032965e-07 2.26551501061881e-06 -6.22870156831287e-05)
(7.33582530232503e-07 1.85690281102178e-06 -0.000102962957727868)
(1.28941011793156e-06 1.25331801852504e-06 -0.000112787036817032)
(-1.01777429362019e-07 1.19674646786151e-05 -0.000110379263809905)
(1.12997537012853e-07 1.06677910538393e-05 -0.000126138639017568)
(2.78304303128607e-07 6.31817910386332e-06 -6.53572062605093e-05)
(4.69501648018496e-07 4.43761216453166e-06 -4.53890172832913e-05)
(6.03891807980993e-07 3.54930697408342e-06 -4.01721768162501e-05)
(6.21703391561333e-07 2.98635697006995e-06 -3.86357001612355e-05)
(5.70410436459065e-07 2.57797277031475e-06 -3.83134218502088e-05)
(5.25524431990039e-07 2.14792370894696e-06 -3.99201818140891e-05)
(7.32773629942251e-07 1.7442207602153e-06 -4.92103179749359e-05)
(1.50539685786041e-06 1.36851521512324e-06 -8.59354933657515e-05)
(2.17921057385292e-06 1.32260964295642e-06 -9.16747376422581e-05)
(-4.42152143586918e-06 -1.57626118980823e-05 -0.000419176406879958)
(-9.41293426304329e-06 -1.64857364887979e-05 -0.000553859575648327)
(-4.79474596150633e-06 -3.09979933225901e-05 -0.000489615603919989)
(-8.55253125762636e-06 -9.05299095359697e-06 -0.000422550380165019)
(-5.51672053817525e-06 -1.86817537431911e-05 -0.000441603972837706)
(-2.26196811779794e-06 -2.87730625955672e-05 -0.000364847558659205)
(-8.20852946051522e-07 -2.34024190752088e-05 -0.000287622782028165)
(-1.77324994230591e-06 -1.49477772430889e-05 -0.000304944686156265)
(-4.0134775586193e-06 -8.2309284683866e-06 -0.000314012552862102)
(-7.61748523498635e-06 -4.3717155625975e-06 -0.000320910603952981)
(-1.35443857310191e-07 -1.69630344289108e-05 -0.000241009929592608)
(-3.43356666762155e-07 -1.20170536875009e-05 -0.000240797238836688)
(-1.08729907862814e-06 -5.60785726774714e-06 -0.000195661970781619)
(-3.33036084268705e-06 -3.47981942052269e-06 -0.00023506360702726)
(-6.493558557262e-06 -1.85393005410379e-06 -0.000254935781506286)
(1.32948842892619e-07 -1.09210497327141e-05 -0.000207896021214696)
(1.84372178609806e-07 -8.88116189056394e-06 -0.000210305560621416)
(1.24755671677207e-07 -3.38223491483993e-06 -0.000144079068748395)
(-6.17138452793509e-07 -1.31397265835765e-06 -0.000135864069593097)
(-2.82291688486731e-06 -8.37914602816875e-07 -0.00019479119710503)
(-5.24966349236033e-06 -4.58040691563155e-07 -0.00020940315706233)
(2.85262068205022e-07 -5.47508031809383e-06 -0.00018221725952414)
(4.1205967544304e-07 -5.4282265319792e-06 -0.000189960500465282)
(5.39787855346369e-07 -1.2092834456342e-06 -0.000120883292339952)
(2.79324044928384e-07 2.94701329206187e-07 -9.74955618830636e-05)
(-4.42684143649469e-07 7.96367943837561e-07 -0.000108733685633629)
(-2.34151807774994e-06 6.47413899228975e-07 -0.000167402002531538)
(-4.03427128316722e-06 1.19189885407135e-07 -0.000176080501471383)
(3.51425578432245e-07 -5.67397064117473e-07 -0.00016137156708875)
(3.75631241014626e-07 -1.82960982982934e-06 -0.00017327328436092)
(6.075613914519e-07 8.98212881866041e-07 -0.000105454803393297)
(5.86135247067565e-07 1.74974057651919e-06 -8.03485955864335e-05)
(2.80946731901821e-07 1.93789751336896e-06 -7.69697810498528e-05)
(-3.29739072862439e-07 1.97120462367714e-06 -9.14442784513617e-05)
(-1.72545069656693e-06 1.46705212823384e-06 -0.000144497558238453)
(-2.73686448745556e-06 5.69463670249485e-07 -0.000150762488602073)
(2.92220564518122e-07 3.81317850310751e-06 -0.000144129350914644)
(3.70294763980943e-07 1.80589993081355e-06 -0.000158653970844876)
(5.04148304509707e-07 2.85703829605756e-06 -9.26872578298198e-05)
(6.3334452041019e-07 2.9957026093758e-06 -6.86217395333733e-05)
(5.42872212268988e-07 2.87493482246816e-06 -6.2415352624137e-05)
(2.62825757983511e-07 2.76215767664051e-06 -6.3848117868438e-05)
(-1.70473604418271e-07 2.5314684420233e-06 -7.73558828594077e-05)
(-9.60085580707602e-07 1.89210779176116e-06 -0.000123794425013045)
(-1.34140324421012e-06 8.83101545321867e-07 -0.0001312679274213)
(1.17887727411524e-07 7.66501595638917e-06 -0.000128644294592698)
(2.45625829808686e-07 5.3742624136175e-06 -0.000145342246033205)
(3.6911822125961e-07 4.59802972792789e-06 -8.11528999897803e-05)
(5.65794440545311e-07 3.98784381435554e-06 -5.84810213677473e-05)
(6.272653709475e-07 3.56173701147879e-06 -5.20848560699931e-05)
(5.08456998000977e-07 3.2055947115814e-06 -5.07050470012944e-05)
(2.7985549984425e-07 2.96301119348321e-06 -5.28816993170365e-05)
(6.87948868351603e-08 2.59642041949743e-06 -6.45522651347373e-05)
(-1.24189608527899e-07 1.98896444274479e-06 -0.000105618672574817)
(1.09651639639127e-07 1.09372792301542e-06 -0.000115494580213072)
(-2.51516109498185e-10 1.08895545070222e-05 -0.000115782113119845)
(1.45204304896524e-07 8.75823119731671e-06 -0.000131900245677304)
(2.9513076068269e-07 6.02443399054468e-06 -6.96138735922459e-05)
(4.93511932862525e-07 4.66745657743008e-06 -4.84726992373103e-05)
(6.15665406820262e-07 3.92878896782794e-06 -4.25994768978846e-05)
(5.93259977767827e-07 3.44386291114397e-06 -4.08078819147254e-05)
(4.76443178391878e-07 3.0352453991089e-06 -4.05150881198864e-05)
(3.37222190093628e-07 2.63636993164122e-06 -4.24796943597386e-05)
(3.66333764711937e-07 2.22201560378972e-06 -5.25389149130838e-05)
(7.60118777699515e-07 1.68733968507049e-06 -9.00720096517941e-05)
(1.40012511300722e-06 1.41807585967058e-06 -9.70831963223789e-05)
(-1.61170646343751e-07 1.34240186808475e-05 -0.000101245812523487)
(7.05188499107413e-09 1.18324915519028e-05 -0.000117251929747059)
(1.68511176608353e-07 7.0657056845113e-06 -5.727702121104e-05)
(3.59204241595455e-07 4.98559172009459e-06 -3.80561684900179e-05)
(5.07892056644092e-07 3.98311134807318e-06 -3.31526479075499e-05)
(5.51486361853723e-07 3.36223328849576e-06 -3.17032499469233e-05)
(5.14765541740624e-07 2.88809646586081e-06 -3.10794654210729e-05)
(4.46153165080352e-07 2.4528398183517e-06 -3.09529806039925e-05)
(4.574370099801e-07 2.03631820025733e-06 -3.24473969245659e-05)
(7.19010998321958e-07 1.61763096616715e-06 -4.12738469226436e-05)
(1.52437758960636e-06 1.45304712585152e-06 -7.53666095208373e-05)
(2.05201316467601e-06 1.12737805033548e-06 -7.09048478005322e-05)
(-4.49309601365722e-06 -1.68689925067846e-05 -0.000401613003420561)
(-9.4732862134893e-06 -1.81617326627055e-05 -0.000539975143204232)
(-4.98975613430653e-06 -3.38798970867096e-05 -0.000477408422584541)
(-8.86950046731533e-06 -1.04153113727491e-05 -0.000418556211779792)
(-6.07899967671803e-06 -2.14320416757107e-05 -0.000438285288316652)
(-2.53344664562762e-06 -3.23435125559368e-05 -0.000360235541419092)
(-8.36346903229733e-06 -5.39754769014383e-06 -0.000321177361948862)
(-4.7324709661022e-06 -1.00280321006275e-05 -0.000313588064529837)
(-2.21805117268627e-06 -1.76966068341385e-05 -0.000303920183426966)
(-1.04036805370748e-06 -2.70782894756397e-05 -0.00028623031056088)
(-2.89432726485794e-07 -2.04762064445669e-05 -0.000241125680376602)
(-6.60792974478361e-07 -1.48144567120723e-05 -0.000240697790866069)
(-1.59218607586044e-06 -7.27311327412966e-06 -0.000196554394278953)
(-4.19932310904694e-06 -4.67520751717363e-06 -0.00023577055508814)
(-7.71531273378395e-06 -2.58763743181743e-06 -0.000256656676721962)
(2.99989239744963e-08 -1.41510245819312e-05 -0.000208887453657627)
(-1.82533934533779e-08 -1.16806029757926e-05 -0.000210668454980996)
(-1.59237771070255e-07 -4.90576875283323e-06 -0.000145169329518863)
(-1.08168566543357e-06 -2.32350733244677e-06 -0.000137117455622174)
(-3.82550378355901e-06 -1.65346262862233e-06 -0.00019596719317048)
(-6.78572784774129e-06 -1.0276337636259e-06 -0.000211472170661675)
(2.66462627551595e-07 -8.36441568147046e-06 -0.000183794011991151)
(3.26913658499128e-07 -8.16651836964041e-06 -0.000190681226264172)
(4.20887472835773e-07 -2.5643983602776e-06 -0.00012203054720253)
(3.93326261642193e-08 -5.33550080919265e-07 -9.87088970175164e-05)
(-8.98369956097261e-07 1.62730800112491e-07 -0.000110049345095008)
(-3.42274339815009e-06 8.79734844630385e-08 -0.000168761938727142)
(-5.69032869255358e-06 -3.93134550560091e-07 -0.00017804285476524)
(3.33686867314195e-07 -3.11088141340299e-06 -0.000163351855080893)
(4.61055581835394e-07 -4.46139804015921e-06 -0.000174275992791162)
(6.36281979840247e-07 -2.55576120107522e-07 -0.000106639979764255)
(5.0242703725337e-07 1.13693082613306e-06 -8.1495552901394e-05)
(5.40614943726555e-08 1.49995136145469e-06 -7.81396973198258e-05)
(-7.89659278390492e-07 1.6020458486914e-06 -9.27360607986335e-05)
(-2.82385117979039e-06 1.07781379893387e-06 -0.000145904120476605)
(-4.35234894515703e-06 9.60418621001728e-08 -0.000152503837449463)
(4.0849986734709e-07 1.59271648757727e-06 -0.000146341304043241)
(4.17719771439467e-07 -6.91579202851866e-07 -0.000159869665253829)
(6.13951697486275e-07 1.92353499455258e-06 -9.39222701192832e-05)
(6.61913568728732e-07 2.62653528301591e-06 -6.97466541803681e-05)
(4.42600304761143e-07 2.67969640853282e-06 -6.35088157721357e-05)
(2.79094772678845e-08 2.62273179501845e-06 -6.49815241602451e-05)
(-6.41269955804951e-07 2.39512144485214e-06 -7.86126116007507e-05)
(-2.02618913378394e-06 1.63714517353569e-06 -0.000125235267776108)
(-2.85960783581395e-06 4.55899728484083e-07 -0.000132829467088257)
(2.23196331194987e-07 5.79416352921036e-06 -0.000131819308968535)
(3.60473508425771e-07 3.03394156980354e-06 -0.000147143877809202)
(4.62938233700012e-07 3.89048575608798e-06 -8.26465880616766e-05)
(6.18684784987783e-07 3.86124389396107e-06 -5.9751031368343e-05)
(5.83773981139615e-07 3.61701922326853e-06 -5.32655200473577e-05)
(3.70126711151387e-07 3.36235278096748e-06 -5.18771319565613e-05)
(2.48319759896586e-08 3.11453838362992e-06 -5.41082579559585e-05)
(-4.04615186626898e-07 2.70953381088865e-06 -6.59168650364461e-05)
(-1.12193731531321e-06 1.91324564498157e-06 -0.00010718515992813)
(-1.20550753640293e-06 8.46053218276778e-07 -0.000117208605364917)
(1.90227624781728e-07 9.4677301638313e-06 -0.000118228590072875)
(1.88087683364848e-07 6.62596452230903e-06 -0.000135246811204591)
(2.89013607811289e-07 5.57692128082501e-06 -7.21801023479584e-05)
(5.02207841935433e-07 4.79082793370202e-06 -5.04682333494746e-05)
(5.89539464253285e-07 4.2371885455474e-06 -4.4296721544474e-05)
(5.11082201293891e-07 3.83862978822619e-06 -4.23937829978303e-05)
(3.20354155942531e-07 3.45830634625529e-06 -4.21148248327943e-05)
(8.28087598214443e-08 3.08421711210759e-06 -4.42242487708848e-05)
(-9.04220854388427e-08 2.62338374231748e-06 -5.45987906696762e-05)
(-1.65416077213705e-07 1.98084105516545e-06 -9.25039481017661e-05)
(4.21977622921844e-07 1.21017516155576e-06 -9.96387061722271e-05)
(1.02469237936019e-09 1.25014716849394e-05 -0.000106814903562149)
(6.30194943032138e-08 9.9861017759397e-06 -0.000122974699396203)
(1.93307420238241e-07 6.90839764286082e-06 -6.14453019556922e-05)
(3.9185184587481e-07 5.36805890025101e-06 -4.10369103262235e-05)
(5.3355086470485e-07 4.51064438979903e-06 -3.54537873793776e-05)
(5.45187560343791e-07 3.93792901239829e-06 -3.36883215186988e-05)
(4.55019173015024e-07 3.48131568617868e-06 -3.29680384485026e-05)