/*--------------------------------*- C++ -*----------------------------------*\
  =========                 |
  \\      /  F ield         | OpenFOAM: The Open Source CFD Toolbox
   \\    /   O peration     | Website:  https://openfoam.org
    \\  /    A nd           | Version:  12
     \\/     M anipulation  |
\*---------------------------------------------------------------------------*/
/*   Windows 32 and 64 bit porting by blueCAPE: http://www.bluecape.com.pt   *\
|  Based on Windows porting (2.0.x v4) by Symscape: http://www.symscape.com   |
\*---------------------------------------------------------------------------*/
FoamFile
{
    format      ascii;
    class       volScalarField;
    location    "200";
    object      k;
}
// * * * * * * * * * * * * * * * * * * * * * * * * * * * * * * * * * * * * * //

dimensions      [0 2 -2 0 0 0 0];

internalField   nonuniform List<scalar> 
10166
(
5.01454862190251e-07
5.01668397579151e-07
3.76965046056987e-06
4.34321827486752e-06
4.9974451252155e-07
3.78525498881347e-06
4.35100520029709e-06
1.14205268518834e-05
3.81147382678717e-05
1.45505563216963e-05
4.95119588640043e-07
3.7848302980607e-06
4.33932664522441e-06
1.14734778325997e-05
3.82439740657918e-05
1.45563831325092e-05
2.21256450950509e-05
9.02411594331034e-05
9.28421200733182e-05
2.99959292096471e-05
4.87805200206717e-07
3.76608732971639e-06
4.30517429059779e-06
1.14703771008303e-05
3.82082134380468e-05
1.4497439754634e-05
2.22078740457659e-05
9.03747671286958e-05
9.2885018223709e-05
2.9988240389118e-05
3.44815612395018e-05
0.000144370159681921
0.000179456671955742
0.000151051655356614
4.86072695244917e-05
4.78033748103308e-07
3.73015964679924e-06
4.2499457364457e-06
1.141360767538e-05
3.80247849608149e-05
1.43698382487604e-05
2.21785909553519e-05
9.01787261072166e-05
9.25975820586366e-05
2.98540181831506e-05
3.45724207932988e-05
0.000144477868992035
0.000179469882859244
0.000150974265192121
4.85905846826023e-05
4.78376780579154e-05
0.000196030251831401
0.000259677100865353
0.000262758828482042
0.000208840251794805
6.96682889857481e-05
4.65929111971538e-07
3.67778270462103e-06
4.17536961521423e-06
1.13053852398065e-05
3.77053491189002e-05
1.41771238667333e-05
2.20511554870294e-05
8.96870081921183e-05
9.20151943549368e-05
2.9590450202052e-05
3.44921793841468e-05
0.000144106204385929
0.000178941526637063
0.000150431479983811
4.83721499020378e-05
4.7929510536772e-05
0.000196117077650982
0.000259686516075256
0.000262671735240191
0.000208682461026797
6.96397206442746e-05
6.1955346581106e-05
0.000244408084621546
0.000334682721844615
0.000362003339762482
0.00034356359503349
0.000265091281265786
9.30633937799887e-05
4.51403079382785e-07
3.60909405045238e-06
4.08220488806715e-06
1.11460799459834e-05
3.72553438081597e-05
1.39226492346859e-05
2.18276903977598e-05
8.89142556593896e-05
9.11531865271561e-05
2.91998616923194e-05
3.42622449590479e-05
0.000143298924737132
0.000177913852904859
0.000149454973998155
4.79510536014329e-05
4.77863417090317e-05
0.000195587772868641
0.000258965213275473
0.000261867644034181
0.000207924287944628
6.93206519758876e-05
6.20420483422645e-05
0.000244476553225129
0.000334680547025513
0.000361912806683569
0.000343381228004763
0.000264868857424238
9.30121771458652e-05
7.65653467027743e-05
0.000289739893827166
0.000404600314949811
0.000454288641280252
0.000459887146747635
0.000421722916628532
0.000319798185371719
0.000118315856631405
4.34277866857551e-07
3.52312517445598e-06
3.97002495286735e-06
1.09344215204952e-05
3.66760770922457e-05
1.36085398590763e-05
2.15060328361249e-05
8.78658334397372e-05
9.00172430496686e-05
2.86854798541607e-05
3.38858287331858e-05
0.000142068886124537
0.000176400014623616
0.000148054548345895
4.73276455890999e-05
4.74403715181801e-05
0.000194493665317036
0.000257560805126594
0.000260381851227101
0.000206590055448448
6.87133779079261e-05
6.18295209422523e-05
0.000243803513970366
0.000333771942854065
0.000360881350403436
0.000342311294854114
0.000263904147536883
9.2568786766495e-05
7.66436190266322e-05
0.000289795661685509
0.000404584189379815
0.000454180577014228
0.000459683789842565
0.000421442525128878
0.000319502709204982
0.000118226136865892
9.11862103543447e-05
0.000332262709518497
0.000469619363877621
0.000540394838367305
0.000566671063541767
0.000554162186581376
0.000496869757864292
0.000372913479242762
0.00014372775371391
4.14356518218979e-07
3.41841093294978e-06
3.83794297389118e-06
1.06694156020362e-05
3.59635248437576e-05
1.32350558273564e-05
2.10844460400813e-05
8.65412483636945e-05
8.86096864949945e-05
2.80490871242664e-05
3.33610010382885e-05
0.000140416967417669
0.000174402275196423
0.000146232448413728
4.65033521001765e-05
4.68961030225176e-05
0.00019284673101493
0.000255485033388519
0.000258221572644843
0.000204683000825311
6.78156480844311e-05
6.13595013546656e-05
0.000242448537408831
0.000332011293377082
0.000358950436278335
0.000340379950136007
0.000262216959671547
9.1738371203131e-05
7.63601771177759e-05
0.000288993328900997
0.000403500375299042
0.000452925812107386
0.000458340743430589
0.000420102947879476
0.000318318976288482
0.000117627907297887
9.12630796958293e-05
0.000332311416823726
0.000469593925984381
0.00054026823135057
0.000566436597134643
0.000553832096827276
0.000496478511961046
0.000372538793480199
0.000143585502357404
0.000105423621010257
0.000371859443706682
0.000529952225116656
0.000620457271396865
0.000665865382216397
0.00067393604352954
0.000644529861471874
0.000569085964216731
0.00042365873151916
0.000164953020979292
3.91491067994345e-07
3.68468024107287e-06
3.29311036502281e-06
1.03478885364117e-05
3.51106024060783e-05
1.28014755320061e-05
2.05608130224333e-05
8.49348952703513e-05
8.69272086574201e-05
2.72914487054404e-05
3.26854497575879e-05
0.000138338462037134
0.000171917529709362
0.000143989353187924
4.54788838214848e-05
4.61514109479993e-05
0.000190645123807077
0.000252735929136919
0.000255384165534494
0.000202200367442661
6.66243613638697e-05
6.06360305269118e-05
0.000240423478363921
0.000329410469741803
0.000356126783265904
0.000337587012618647
0.000259803576994688
9.05116747434902e-05
7.57610843913781e-05
0.00028740139199252
0.000401410427853498
0.000450572608344657
0.000455890842850667
0.000417722927477163
0.000316262735583739
0.000116525195046059
9.09150363031765e-05
0.000331395250841762
0.000468353002267885
0.000538807470599359
0.000564833429165848
0.000552166358952746
0.000494852495483287
0.000371119728820979
0.000142803482337148
0.000105501396490245
0.000371909105066122
0.000529925675894151
0.00062031938865475
0.000665602662679974
0.00067355591259351
0.000644058565757113
0.000568574067142427
0.000423203728100487
0.000164731550156135
0.000119050725787741
0.000408409417655404
0.000585756317326249
0.00069471864772628
0.000758041655100127
0.000784306063395582
0.000776212517249157
0.000731082425204663
0.000638384107207811
0.000470702560196335
0.000173958377713548
3.65604577802445e-07
3.50915638777031e-06
3.14654322057554e-06
1.23062044633244e-05
3.41081146853608e-05
9.96654077967619e-06
1.99307640812244e-05
8.30360692951731e-05
8.49631861421555e-05
2.64124586001997e-05
3.18553107811146e-05
0.000135824189722913
0.000168937056887221
0.000141321849951595
4.42545612271416e-05
4.51983371224503e-05
0.000187879902870092
0.000249303753604448
0.000251862080504008
0.000199139843236496
6.51362048486704e-05
5.96550540321215e-05
0.000237723814909214
0.000325964423096988
0.000352403240406824
0.000333923352801312
0.000256652049822721
8.88776120888671e-05
7.48531066891698e-05
0.000285032161391729
0.000398326650383751
0.000447128253914774
0.000452333030719312
0.000414293276525436
0.00031331885862031
0.00011489768937854
9.01965735180983e-05
0.000329588809489266
0.000465965234169593
0.000536067116605302
0.00056190159922015
0.000549190257289022
0.00049200419580618
0.000368664206136432
0.000141383522898911
0.000105097407881519
0.000370896214488609
0.000528549225826508
0.000618676561192288
0.000663763648193441
0.000671592438931243
0.000642056923641409
0.000566649438670999
0.000421539794239286
0.000163751019561195
0.000119133207143889
0.000408470975805561
0.000585736463385081
0.00069457904162613
0.000757761018869826
0.000783885307750981
0.000775670526332373
0.000730457287102228
0.000637747407020296
0.000470178438367013
0.000173723817897355
0.000131947156064801
0.000441986473452826
0.000637162027555986
0.000763421604230056
0.000843639566502152
0.00088659374308851
0.000896461896544234
0.000873735127022077
0.000814102606175862
0.000705085108802005
0.000514123813927052
0.000158994097441662
3.36615385187334e-07
3.31053722120947e-06
2.97568274220004e-06
1.17482849293479e-05
3.29467239683348e-05
9.5226380778263e-06
2.54113031375099e-05
8.27093507730688e-05
8.08301993223213e-05
1.91898613950862e-05
3.08654378430599e-05
0.000132859586251469
0.000165448726834169
0.000138223972504062
4.28316508717581e-05
4.4037011333389e-05
0.000184536767947599
0.000245173310767258
0.000247642757553534
0.000195495160218418
6.3350628633404e-05
5.84161444082765e-05
0.000234336660927796
0.000321658464535985
0.000347764339201022
0.000329376458687577
0.000252750989391938
8.68261190885244e-05
7.36358840882598e-05
0.000281879548784859
0.000394241110894805
0.000442582547965992
0.000447652489632158
0.000409795302687601
0.000309461891578384
0.000112720927697432
8.91165358956848e-05
0.000326906061586839
0.00046244403316699
0.000532054620720749
0.000557640242665519
0.000544893404541176
0.000487913240799416
0.000365141924619641
0.000139287570215208
0.000104271320205985
0.000368902663907371
0.000525898024954214
0.000615589358307576
0.000660394622367953
0.000668078273407884
0.000638543062960761
0.000563315116951271
0.000418661824563014
0.000161997580798115
0.000118679867644605
0.000407381926172494
0.000584244090427702
0.000692778778796783
0.000755715230498147
0.000781658268635984
0.000773336235745347
0.000728108119034224
0.000635516996688154
0.000468277564954547
0.000172628075213564
0.000132036078643587
0.000442063744528538
0.000637158519494468
0.000763290747571045
0.000843353951486529
0.000886147047577341
0.000895865385681711
0.000873017212943249
0.000813317060821064
0.000704329052153235
0.000513614109842884
0.000158949307503223
0.000144049953383817
0.000472709037413384
0.000684320217113147
0.000826775972465908
0.00092297594986143
0.000981591123203081
0.00100744187314159
0.00100282195014562
0.000966819673372658
0.000894091938047747
0.000771328186512775
0.000567950411895912
3.0475169314509e-07
3.08828845756295e-06
2.77898343978731e-06
1.11265509410099e-05
3.16132535623247e-05
9.0126804108115e-06
2.42890398256864e-05
8.01534142464949e-05
7.83031620991616e-05
1.83339543813875e-05
4.12140717673985e-05
0.00013469011614667
0.000161438631647332
0.000129427022924439
2.97116847938879e-05
4.26629359663709e-05
0.000180596960656817
0.000240325755939776
0.000242712078516026
0.000191262195755763
6.12734014569105e-05
5.69155333817429e-05
0.000230244637382238
0.000316471123205321
0.000342189911846403
0.000323928727543861
0.000248092560385956
8.43561424812853e-05
7.21067243418861e-05
0.000277928957537651
0.000389135023599796
0.000436914867279183
0.000441826217782337
0.000404206840977522
0.000304669752057777
0.00010997359472282
8.7674414880575e-05
0.000323341357233218
0.000457779707938787
0.000526756292622247
0.000552030961756425
0.000539252182127135
0.000482548286833158
0.00036050822772188
0.000136471384348608
0.000103034115119802
0.000365944491328004
0.000521987090574638
0.000611066013754377
0.000655494964892528
0.000663003346221778
0.000633495933793888
0.000558536458423857
0.000414518988087658
0.000159406689897513
0.000117755609243902
0.000405231962390716
0.000581360522206203
0.000689384019602437
0.000751956342899412
0.000777664270258099
0.000769235355875036
0.000724043988012579
0.000631682430377465
0.000464975958697967
0.00017066464250063
0.000131540964714827
0.000440911282475148
0.000635572353486968
0.000761357621054486
0.000841131103595776
0.000883691671561053
0.000893241797273914
0.000870302233875535
0.000810614028203394
0.000701790390370224
0.000511517060658906
0.000158036456511716
0.000144152277450296
0.000472805934711
0.000684340109303547
0.000826664369241249
0.000922698761582863
0.000981135204034156
0.00100681094903955
0.00100203516001667
0.000965916484257866
0.000893148344624838
0.000770499956266696
0.000567595133813299
0.000155322398039486
0.000500715008880485
0.000727420688569672
0.000884987463935442
0.000996294766240353
0.0010697694519946
0.00111039639157683
0.00112138409477493
0.00110371300035468
0.00105566157220218
0.000971953099396977
0.000843915162536081
2.70819962659086e-07
2.84322661063663e-06
2.55779967914252e-06
1.04396818418701e-05
3.00934376879413e-05
8.43675735790431e-06
2.30461622812718e-05
7.72812377660532e-05
7.54369740919955e-05
1.73626243205801e-05
3.94077871473141e-05
0.000130710508088824
0.000156891562206797
0.000125508111332899
2.83918273845796e-05
5.8918914914804e-05
0.000186443638858948
0.000237056295864359
0.000234740638398526
0.000176040231778542
4.10735102473564e-05
5.51490657865781e-05
0.000225426006493146
0.000310377239678409
0.000335657307663929
0.000317564627121404
0.000242675003435084
8.1481274105665e-05
7.02616255796894e-05
0.000273159386922827
0.000382981903285128
0.000430097234603898
0.00043482901766949
0.000397506318895323
0.000298928387731882
0.000106653640120524
8.58670653771481e-05
0.00031887834165958
0.000451949684387946
0.000520146896832778
0.000545045493223932
0.000532235818220212
0.00047587588724955
0.000354722613219033
0.000132890474777549
0.000101384540774527
0.000362015047215832
0.000516805533142957
0.000605090825353661
0.000649043239276666
0.000656340208272134
0.000626880145192882
0.000552265159675364
0.000409042016316919
0.000155909973326899
0.000116374846506851
0.000402038694098951
0.000577102108671715
0.000684403857645465
0.000746484197573252
0.000771893556469156
0.000763347596666104
0.000718231340166796
0.000626191000714833
0.000460194664100678
0.000167733833721608
0.000130529558144877
0.00043862433444703
0.000632490132721655
0.000757693530525618
0.000837028384973968
0.000879273016649443
0.000888624200080886
0.00086560803150455
0.000805990890617287
0.000697443437417191
0.000507822773827973
0.000156285340878614
0.000143622091786029
0.000471602951501363
0.000682678096807767
0.000824622344912409
0.000920327717396762
0.000978486270922338
0.00100394059590613
0.000999008001979734
0.000962814006731771
0.000890085970645486
0.00076765838631003
0.000565286867178075
0.000155440941212152
0.00050083653427051
0.000727469742829967
0.000884904260098441
0.000996038703997544
0.00106932089263991
0.00110975203704971
0.00112055471919379
0.00110272626617938
0.00105457511470056
0.000970886984674121
0.000843114815169199
0.000686044304430331
0.00016573781953464
0.000526143569815338
0.00076666096176345
0.000938270527533983
0.00106381503410595
0.00115142909836022
0.00120602114999473
0.00123117731982946
0.00122884874220859
0.00119912983125721
0.00114012370081131
0.00104799149966457
2.35929064179252e-07
2.57864637288786e-06
2.31573204448515e-06
9.68974060809934e-06
2.83778502048293e-05
7.79919371299402e-06
2.16837975271954e-05
7.4075001869682e-05
7.22167483926743e-05
1.62793465798206e-05
3.74166286115753e-05
0.000126272589892485
0.000151790808785585
0.000121086321828867
2.69083035506588e-05
5.63051641424326e-05
0.000181039778714172
0.00023066064734692
0.000228397400655435
0.000170846547822091
3.92683914731233e-05
7.82346097155267e-05
0.000236511259602699
0.000310272987322428
0.000328143681817183
0.000303350448009607
0.000219858606010263
5.31156396660612e-05
6.80971733977559e-05
0.000267546520135603
0.000375750962495495
0.000422098804434088
0.000426634665508797
0.000389677602677985
0.00029223419594928
0.000102780329965696
8.36913131102662e-05
0.000313492791002103
0.000444922802401055
0.000512192319927525
0.000536649475920499
0.000523811796627633
0.000467867699874944
0.000347763676705508
0.000128542145801227
9.93193375969814e-05
0.000357095544560248
0.000510327534528368
0.000597633622868357
0.000641005144969361
0.000648051625611205
0.000618654400257432
0.000544451373792645
0.000402163507520223
0.000151411796543561
0.000114534814674894
0.00039779309258042
0.000571457563851744
0.000677820731591841
0.000739274937306969
0.000764315637086068
0.000755634830650478
0.000710620677061923
0.000618973106481814
0.000453830592354769
0.000163760331890852
0.00012901730521606
0.000435221876268842
0.000627928819613766
0.000752308267866051
0.00083104610091069
0.000872881804879462
0.000881993328608571
0.000858903396977101
0.000799399701573318
0.000691215159043874
0.00050242821674441
0.000153541026020735
0.000142532938962643
0.000469198627844894
0.00067942543674152
0.000820725723969291
0.000915924963477803
0.000973695227227663
0.000998870621715587
0.000993766907276736
0.000957520773147778
0.000884891994226449
0.000762789022582357
0.000561161818025199
0.000154884240581652
0.000499594633515304
0.000725748262855445
0.000882775074765275
0.000993546642909243
0.00106651139082359
0.00110667510882147
0.00111726577358704
0.00109929117013099
0.00105108131246161
0.000967460413462981
0.000839936613506567
0.000683425229864343
0.000165872323438888
0.000526293625862521
0.000766743896835554
0.000938223170902794
0.00106359124667577
0.00115100319267949
0.00120538337666492
0.00123033110224761
0.00122781220537422
0.00119794652340166
0.0011388900866545
0.00104690749858409
0.000921292441731509
0.000799100458081804
0.000175278664172424
0.000549125641589787
0.000802236519208895
0.000986842100063455
0.00112575049185002
0.00122680060148837
0.00129471408056219
0.00133316284679233
0.00134454071700242
0.00132981689467769
0.00128864192467033
0.00121927295883219
2.01210386314051e-07
2.30036201170082e-06
2.05858205954898e-06
8.88145735732778e-06
2.64677911926241e-05
7.10848602380384e-06
2.02071631573889e-05
7.05141344706532e-05
6.86297200713954e-05
1.50927261573423e-05
3.5245954147378e-05
0.000121361832840913
0.000146118189920395
0.000116148743161962
2.52673392730498e-05
5.34494212664746e-05
0.000175035674492956
0.000223509207411889
0.000221276308328341
0.000164999678903184
3.72519247321297e-05
7.46596505902288e-05
0.000229616481732826
0.000302043035371721
0.000319626852802783
0.000295364996080708
0.000213521117423358
5.08157020271447e-05
9.84272434468396e-05
0.000284622456685871
0.000380713908558899
0.000417218860689911
0.000412888186373282
0.000367410348689702
0.000261066728890835
6.56151048998049e-05
8.11431398234128e-05
0.000307157318970513
0.000436663193857417
0.000502854069562769
0.000526806744916671
0.000513950347443224
0.000458507922383934
0.00033963809512881
0.00012343650940908
9.68352613876794e-05
0.000351159343388792
0.000502517538465448
0.000588654488543722
0.000631339119481083
0.000638095663233817
0.000608778179559337
0.000535055953887871
0.000393843480832354
0.000145926519031049
0.000112231427129759
0.000392474692233457
0.000564397726925558
0.000669600515559918
0.00073028982458967
0.000754887636595925
0.000746049613170412
0.000701156579038734
0.000609956003972704
0.000445773485527599
0.000158527753071689
0.000127002836236369
0.000430694350632466
0.000621873906053439
0.000745182577113549
0.000823158140118457
0.000864485022405325
0.00087330881628373
0.000850138277649903
0.000790773909847634
0.00068300809718706
0.0004951852698
0.000149771637472264
0.000140903283084808
0.000465612773642931
0.000674599800158977
0.000814984639118097
0.000909491106629991
0.000966753211789452
0.000991582762361447
0.00098628314851745
0.000949994575031658
0.000877505079179886
0.000755803890332317
0.000555074786447787
0.000153729406782897
0.000497091059248631
0.000722350992831743
0.000878679617429157
0.00098888488690702
0.0010613966919972
0.00110121141891226
0.00111155146005704
0.00109342684147215
0.00104518296579529
0.000961681124788079
0.000834499528938967
0.000678749219757825
0.000165293582519665
0.000525022895339084
0.000764977367646779
0.000936026236647918
0.00106100297024637
0.00114806363484069
0.00120213698167125
0.00122682624139801
0.0012241038668845
0.00119410308471426
0.00113500162586089
0.00104309141476481
0.000917713799049647
0.000796218710442592
0.000175428446066985
0.000549304095965608
0.00080235663665702
0.000986836197204712
0.00112556813516434
0.00122641067469732
0.00129410093974306
0.0013323234389368
0.00134348541594861
0.00132857886440765
0.001287302014797
0.00121800553339933
0.00111835012219007
0.000996991959516315
0.000877529287496332
0.000183936658087609
0.000569780751045314
0.000834335793539788
0.00103091843840405
0.00118231535238212
0.00129608991573222
0.00137673612559152
0.00142786180505831
0.00145201501096409
0.00145056881870186
0.00142387522309219
0.00137136065701128
1.67867353411792e-07
2.01550770202034e-06
1.79344150030065e-06
8.02696107873361e-06
2.43782922442119e-05
6.37791707686796e-06
1.86219867797825e-05
6.65882015646996e-05
6.46744521257919e-05
1.38166742423456e-05
3.29033704515783e-05
0.000115950662067998
0.000139854823888144
0.000110686355848536
2.34819333039876e-05
5.03637909173114e-05
0.000168408809728031
0.000215585300372063
0.000213359048634076
0.000158487297427489
3.50340348138401e-05
7.08046777755515e-05
0.000221994559235907
0.000292859181607933
0.000310085375529357
0.000286397467234736
0.000206395722082844
4.82543407991695e-05
9.36802198594357e-05
0.000276142441047537
0.000370613603315882
0.000406559520633812
0.000402435400428272
0.000357929011790894
0.000253695545592741
6.28163378470081e-05
0.000117716961772155
0.000330412668231888
0.00044779935596188
0.000502627272959274
0.0005154815934777
0.000492092353081405
0.000427133726625307
0.000299846016891055
7.82228470761487e-05
9.39279699637927e-05
0.000344175117266831
0.000493334043391347
0.000578108138902564
0.000619999734171563
0.000626431165973203
0.000597217855531701
0.000524062368190033
0.000384084231637501
0.000139382841735752
0.000109462412786529
0.000386053378823549
0.000555882775401353
0.000659697913254231
0.000719480343015605
0.00074355950029558
0.000734541070026998
0.000689787955225224
0.000599080985724161
0.000435953116816884
0.000152164286862039
0.000124481677084561
0.000425019288954676
0.0006142944637404
0.000736278605806465
0.000813321376850291
0.000854034858643886
0.000862518145318046
0.000839253295257146
0.000780039338970702
0.00067271696213364
0.000485907840429717
0.000144569741229159
0.000138731043089952
0.000460835696433619
0.000668185992749253
0.000807377656242
0.000900997810299846
0.000957624842415236
0.000982034636409903
0.000976506187517893
0.000940172358251722
0.000867838405760471
0.000746568558216936
0.000546816245943561
0.000151995321229228
0.000493346597068012
0.000717295876670721
0.00087262815623189
0.000982054049691899
0.00105396811200374
0.00109334346754585
0.00110338517577849
0.00108509620268524
0.0010368301293022
0.000953482181906013
0.00082670209541474
0.000671805449707419
0.000164081206465825
0.000522436780343808
0.000761458825188174
0.000931762499518624
0.00105611995790942
0.00114267027182185
0.00119633294572764
0.0012207037168573
0.00121775216268155
0.00118761640036565
0.00112849051249385
0.00103670656448775
0.000911736331331613
0.000791019920239032
0.000174831863420434
0.000548012821380065
0.000800557222182538
0.000984588479151305
0.00112290577068152
0.00122336870275448
0.00129071880680028
0.00132864385547062
0.00133955563358874
0.00132445469209011
0.00128305033392929
0.00121369868103348
0.00111405150189996
0.000993082503819049
0.000874339779758235
0.000184102009465778
0.000569985075595873
0.000834493347798506
0.00103095752089984
0.00118218136353068
0.00129574695599465
0.00137616319264533
0.00142705006234828
0.0014509683692298
0.00144931270223906
0.00142248040682184
0.00136998775156907
0.00129036656113867
0.00118457798587365
0.0010642231338911
0.000936081150461205
0.000191718225070166
0.000588218373878173
0.000863137753104031
0.00107071371689638
0.00123372720693026
0.00135949875370365
0.00145229167037981
0.0015155795833988
0.00155190868250687
0.00156281009966277
0.00154895975505951
0.00151034526445022
1.36650997384746e-07
1.73168434908641e-06
1.52825781064895e-06
7.1414222061427e-06
2.2133024030959e-05
5.62242442567755e-06
1.69446176670994e-05
6.23034578814307e-05
6.03619203258675e-05
1.24705697158707e-05
3.0395309665241e-05
0.0001100196859032
0.000132987715070632
0.000104698754834016
2.15704603831226e-05
4.70501699445148e-05
0.000161137365149579
0.000206866170205847
0.000204629056548536
0.000151301883410358
3.26255985899963e-05
6.67022725237954e-05
0.000213638366209324
0.000282703439669007
0.000299498529705328
0.000276426682320654
0.000198469234634526
4.54444651291933e-05
8.86627423658446e-05
0.00026684359359865
0.000359371301868993
0.00039463557494287
0.000390712820035806
0.000347279020418607
0.000245410995067323
5.9706851694516e-05
0.000111490552017691
0.000320179961280844
0.000435760989136308
0.000489824661408179
0.000502640893981061
0.000479869142892102
0.000416296789218907
0.000291531229595752
7.49329055660166e-05
0.000132065250982306
0.000372992744469497
0.000511491723441095
0.000583952644380735
0.000613018704147036
0.000606941180383961
0.000565945638640805
0.000482731690696071
0.000336112756690329
9.05974136753279e-05
0.0001062226185475
0.000378491758171926
0.000545866521958714
0.000648060682455296
0.000706792410595699
0.000730278605236764
0.000721060832646263
0.000676476778624851
0.000586323957959831
0.000424333045304134
0.00014428632113004
0.000121450830348361
0.000418165628202648
0.000605147565774181
0.000725545829836214
0.000801480924041404
0.000841473864491493
0.000849562341576584
0.000826187587137487
0.000767126738565499
0.00066025190146106
0.000474475116475828
0.000138308101860007
0.000136011257009917
0.000454842996757845
0.000660149943519007
0.000797863494470523
0.000890397683476444
0.000946257642589723
0.000970169115423711
0.00096437323320502
0.000927980512858936
0.000855793355702458
0.000734923694199728
0.00053609245403815
0.000149680724906948
0.000488350579745443
0.000710566476731947
0.000864597358949533
0.00097302341244412
0.00104418784490707
0.00108302681585267
0.00109271561621185
0.00107423887258136
0.00102594622166115
0.000942752244975202
0.000816361992443575
0.000662318964528851
0.000162256181473803
0.000518556375279497
0.000756206097509837
0.000925441947480612
0.00104894249118906
0.00113481422307772
0.00118795411557071
0.0012119384775244
0.00120872408842921
0.00117844595574743
0.00111930931924347
0.0010276859455621
0.000903182085049972
0.000783277662380403
0.000173570406666918
0.000545358201994593
0.0007969381160902
0.000980183931756651
0.00111783579358059
0.00121773781731548
0.00128462291686086
0.00132217076113295
0.00133278768387142
0.00131747318274304
0.00127594049669758
0.00120656310978937
0.00110706500493269
0.000986564890015137
0.000868623863368115
0.000183492139488231
0.00056867922124175
0.000832671319042759
0.0010286734926122
0.00117946427730192
0.00129262717736302
0.00137267557251063
0.0014232324836739
0.00144686226369266
0.0014449654246235
0.00141794406048277
0.00136530483266736
0.00128553373431281
0.00117989832166368
0.00105993865253966
0.000932568906652311
0.00019188157464481
0.000588444100302205
0.000863330205445182
0.00107079874220785
0.00123364615404944
0.00135921124815003
0.00145177180629656
0.00151481328882824
0.00155089428788343
0.00156156702917993
0.00154755228699783
0.0015089275946976
0.00144515627725252
0.00135562367347653
0.00124450261127154
0.00111868062724967
0.000978518717638905
0.000198620177085601
0.00060453540758432
0.000888809600543935
0.00110643865233659
0.0012802083329447
0.00141723506743777
0.00152156912106678
0.00159652545999527
0.00164456790849404
0.00166724752295582
0.00166537775601346
0.00163920815053597
1.0830180678966e-07
1.45472537992936e-06
1.26979907716201e-06
6.24010285412605e-06
1.97589923632304e-05
4.85681171342095e-06
1.51978582515414e-05
5.76704939282436e-05
5.57089232255312e-05
1.10757098617286e-05
2.7740455875042e-05
0.000103562590954183
0.000125512225886961
9.81945388655229e-05
1.95567773503613e-05
4.35039118977791e-05
0.000153207420153685
0.000197329734040675
0.000195073783041804
0.000143443213458566
3.0050519890995e-05
6.23522022192695e-05
0.000204521303895066
0.000271556136824361
0.000287846134941645
0.000265433828148137
0.000189732447129306
4.24052405026379e-05
8.34605540870102e-05
0.000256742957892369
0.000346979282652514
0.000381426597059124
0.000377693565170731
0.000335434770632224
0.000236199058952113
5.63007649344355e-05
0.000105018766979984
0.000309056084194117
0.000422420819943701
0.000475527871041733
0.000488254545541315
0.000466151038803116
0.000404116434459844
0.000282187836898345
7.12827764592072e-05
0.000123939196285345
0.000360715201813918
0.000497397325837498
0.00056897563059268
0.000597824750373123
0.000592119339575879
0.000552119491554295
0.000470666992487962
0.000326941827002486
8.68459923473071e-05
0.000135563662033878
0.000411041581068946
0.000571724499528391
0.000661208454639822
0.000705569214133793
0.000714993209192517
0.000692169838834016
0.000634632920053212
0.000534299447753983
0.000369759080078306
0.000102511339596764
0.000117904557345654
0.000410095162170963
0.000594383427630794
0.00071292554106256
0.000787574550677594
0.000826739559553481
0.000834381478655303
0.000810886845864984
0.000751989371612766
0.000645562300382316
0.000460724022745668
0.000130033161832123
0.000132740345637881
0.000447601556916348
0.000650444380186386
0.000786386784281776
0.000877629749177589
0.000932587250537365
0.000955919816122181
0.000949815975525798
0.000913344947601983
0.000841276754847068
0.000720722818742193
0.000522692460560539
0.000146780088399829
0.000482076891463398
0.000702125873118215
0.000854542277465461
0.000961741381397426
0.0010319988224985
0.00107019982964895
0.0010794764993127
0.00106078120817072
0.00101244071648615
0.000929359066920685
0.000803256596921968
0.000649952766792124
0.000159817220547387
0.000513369552112636
0.000749201056898342
0.000917039123202383
0.0010394373371678
0.00112445505709716
0.00117695374538735
0.00120047798004216
0.00119696070143484
0.00116652281448392
0.00110736708543713
0.00101588695278426
0.000891815703066093
0.000772677842377326
0.000171665180835164
0.000541361673333819