/*--------------------------------*- C++ -*----------------------------------*\
  =========                 |
  \\      /  F ield         | OpenFOAM: The Open Source CFD Toolbox
   \\    /   O peration     | Website:  https://openfoam.org
    \\  /    A nd           | Version:  12
     \\/     M anipulation  |
\*---------------------------------------------------------------------------*/
/*   Windows 32 and 64 bit porting by blueCAPE: http://www.bluecape.com.pt   *\
|  Based on Windows porting (2.0.x v4) by Symscape: http://www.symscape.com   |
\*---------------------------------------------------------------------------*/
FoamFile
{
    format      ascii;
    class       volScalarField;
    location    "200";
    object      nut;
}
// * * * * * * * * * * * * * * * * * * * * * * * * * * * * * * * * * * * * * //

dimensions      [0 2 -1 0 0 0 0];

internalField   nonuniform List<scalar> 
10166
(
1.34174030586007e-07
1.3423122942948e-07
9.45525878646886e-07
1.42497360961065e-06
1.33716385964501e-07
9.49439963308322e-07
1.42753691032448e-06
2.71677308988434e-06
3.28911906185286e-05
4.80475508737642e-06
1.324793700925e-07
9.49332999131581e-07
1.42371286908897e-06
2.72936663027975e-06
3.30356216448962e-05
4.80670597728215e-06
5.10124517298346e-06
9.03727139930352e-05
9.78078525520237e-05
1.00239012180297e-05
1.30522873272993e-07
9.4463546154642e-07
1.41249766419885e-06
2.72861597587081e-06
3.30153566569854e-05
4.78726570238318e-06
5.12019088260954e-06
9.05731443405083e-05
9.78060643485806e-05
1.00213305997504e-05
7.82555904168885e-06
0.000139652627378819
0.000277416367025195
0.000164847088911389
1.63388684104936e-05
1.27909436083358e-07
9.35629843912226e-07
1.3943759047089e-06
2.71513422125175e-06
3.28765699685622e-05
4.74508924735112e-06
5.11341852925082e-06
9.04361480174755e-05
9.74095571254433e-05
9.97645917537763e-06
7.84616405537157e-06
0.000139855675751022
0.0002775384966059
0.000164487631543427
1.63332334939319e-05
1.07862013352968e-05
0.0001800921732772
0.000429107190051435
0.000460435641546436
0.000226104849397684
2.34270200432068e-05
1.24672322760795e-07
9.22499561197399e-07
1.36990399116113e-06
2.68941519545586e-06
3.26376262700611e-05
4.68142662323067e-06
5.08407522626551e-06
9.00429769578151e-05
9.67459459993797e-05
9.88831254566063e-06
7.82796244039309e-06
0.000139628421867253
0.000276807601298983
0.00016367511193682
1.62597222114555e-05
1.08069091826482e-05
0.000180265365457582
0.000429480312600939
0.00046000833058651
0.000225555383178839
2.34173025499416e-05
1.39547629850938e-05
0.00021495673937846
0.000545044029810876
0.000737530416582426
0.000615107103128293
0.000279780310846121
3.1313513086608e-05
1.20788183002538e-07
9.05277020327433e-07
1.3393295267504e-06
2.65151446027383e-06
3.23044983141304e-05
4.59735438209586e-06
5.03259406511009e-06
8.94206239447419e-05
9.58591981579801e-05
9.7576590502269e-06
7.77578907937845e-06
0.000139056506078311
0.00027548677661428
0.000162484723753119
1.61179463832298e-05
1.07746333865388e-05
0.000179947718887605
0.000428737730630786
0.000458637243772067
0.000224512766482797
2.33097270692715e-05
1.39742995920816e-05
0.000215088478905394
0.000545422688560504
0.000737542561795846
0.000614179106250852
0.000279192404167281
3.12959804711845e-05
1.72712368380385e-05
0.000246160350511106
0.000638607274136817
0.000959577169313938
0.00100932461873672
0.000742260612256346
0.000327896352165212
3.99429756952036e-05
1.16209411236828e-07
8.83736194105428e-07
1.30251051508755e-06
2.60115246887461e-06
3.18785893039242e-05
4.49355801762553e-06
4.95840493006864e-06
8.85760816720929e-05
9.47584197384027e-05
9.58554677020723e-06
7.69037786373292e-06
0.000138159092806746
0.000273644944221775
0.000160949640967811
1.59079485074304e-05
1.06966422960397e-05
0.000179217164455775
0.000427189625564664
0.000456456257327897
0.000222981496384469
2.31048794417321e-05
1.39264383211518e-05
0.000214679762554921
0.000544571371615864
0.000736104920119349
0.000612378886447177
0.000278019444275086
3.11460578626502e-05
1.72889055371842e-05
0.000246256895949629
0.000638882206359147
0.000959780047839588
0.00100868782010433
0.00074123281677452
0.000327286948300917
3.99120576160323e-05
2.06090288423372e-05
0.000274524554972257
0.000717589853880882
0.00113781498459108
0.00134638962434601
0.00123413994030867
0.000849476074390742
0.000371724890033236
4.86676946003116e-05
1.10883318444599e-07
8.57499174644755e-07
1.25915867267198e-06
2.53816769492417e-06
3.13562565601792e-05
4.37012037914512e-06
4.86118094115846e-06
8.75087918374805e-05
9.34510884141303e-05
9.37252394914695e-06
7.57125101611294e-06
0.000136934864810549
0.000271297446496307
0.000159076969034961
1.56300953963524e-05
1.05739201207237e-05
0.00017808700428142
0.000424894641767166
0.000453502576203172
0.000220978282359253
2.28017450686466e-05
1.38205889536081e-05
0.000213800659960607
0.000542765037536919
0.000733491820314493
0.000609591185492988
0.000276242199266288
3.0865044641077e-05
1.72249803406042e-05
0.000245765760211356
0.000637867363146415
0.000958208332491962
0.00100662056113248
0.000739201651609325
0.000325981803565271
3.97084811453646e-05
2.06264189889519e-05
0.00027459485243443
0.000717759294899193
0.00113798420844753
0.0013460397898336
0.00123326327290365
0.000848463352352292
0.000371115867159804
4.86183382426581e-05
2.38608079349424e-05
0.000300146278619032
0.000785775300964024
0.00128463621971936
0.00162432890932932
0.00167783700381986
0.00142133581903
0.000943059088397895
0.000409777054279852
5.52841790656617e-05
1.04770360845111e-07
1.2088568740156e-06
8.26094411097204e-07
2.46173258199027e-06
3.07308746736671e-05
4.22680906677338e-06
4.74050375535579e-06
8.62125219817511e-05
9.19375652026532e-05
9.11882665641169e-06
7.41792482696096e-06
0.00013537663447502
0.000268448509978756
0.000156878273039455
1.52844933096458e-05
1.04059939460337e-05
0.00017655175065848
0.000421856417047865
0.000449782744035922
0.000218505185881797
2.23989418544599e-05
1.365762926211e-05
0.000212460401172604
0.00054004706250044
0.000729742656439823
0.000605802364680898
0.000273868398760904
3.0449166037473e-05
1.70898597478514e-05
0.000244752667673552
0.000635781695068512
0.000955175051159494
0.0010030922343674
0.000735991754528136
0.000323959889956963
3.93326829549376e-05
2.05477746582451e-05
0.000274034344971567
0.000716586316983652
0.00113619777317035
0.00134372853586351
0.00123075869829451
0.000846239651576334
0.00036968593181957
4.83504500555577e-05
2.38784338314593e-05
0.000300200671612341
0.000785869405407129
0.00128471806521541
0.00162407859707629
0.00167719163325163
0.00142040111227503
0.000942075095962186
0.000409172475481996
5.52081459290533e-05
2.69669370358671e-05
0.000323030473330095
0.000845184529926716
0.00140817039440682
0.00185407874892877
0.00205626664861125
0.0019573497689805
0.00158267332813333
0.00102586789762034
0.000437397945661549
5.41867863418539e-05
9.7850407219335e-08
1.15125034049438e-06
7.89362000936195e-07
4.06310848042696e-06
2.99933086979857e-05
2.37104550144701e-06
4.59527323154369e-06
8.46737102570395e-05
9.02144304582984e-05
8.82443718800603e-06
7.22954172225574e-06
0.000133472265388314
0.000265091290352551
0.000154360771687587
1.48711811746417e-05
1.01910823003072e-05
0.000174598925548588
0.000418061147764217
0.000445299354585913
0.000215574287025985
2.18950102733364e-05
1.34366528641801e-05
0.000210650375887464
0.000536409532401291
0.000724851988825122
0.000601003552140766
0.000270886780616655
2.98938497967975e-05
1.68850366428821e-05
0.000243224320665415
0.000632654008960107
0.000950719350395243
0.000998081367798583
0.000731567017999537
0.000321213631560026
3.87763560884015e-05
2.0385436638671e-05
0.000272903930290353
0.000714244972746278
0.00113273037233788
0.00133953258306347
0.00122650271655599
0.000842639937073727
0.000367408247959124
4.78629337737729e-05
2.37870406910586e-05
0.000299583873244724
0.00078456996484309
0.00128271514657889
0.00162147621175651
0.00167427108765095
0.00141755475524227
0.000939661605063508
0.00040760389636915
5.48748046800046e-05
2.69856506747066e-05
0.000323083365529013
0.000845232676310882
0.00140817293622343
0.00185383084046833
0.00205572127981295
0.0019565565954823
0.00158170721853864
0.00102491067055794
0.000436757712149454
5.41118353119413e-05
2.98997512029965e-05
0.000343430847966439
0.00089710674744582
0.00151357337586342
0.00204620064595299
0.00237423924659136
0.00242807897991587
0.0021982412826001
0.00172793727181997
0.0010998491876814
0.000446626137901271
3.25967911874571e-05
9.01012110098355e-08
1.08606632102867e-06
7.46558002437705e-07
3.878718774461e-06
2.9133777275072e-05
2.26548859404987e-06
8.48914730099038e-06
8.82763493772518e-05
8.28732753473826e-05
4.42447380704893e-06
7.00491085859311e-06
0.000131201250445731
0.000261211265299103
0.00015152661120638
1.43906563917181e-05
9.92924663901772e-06
0.0001722101360126
0.000413483448501841
0.000440046576856403
0.000212192036185296
2.12896025596581e-05
1.31575707305888e-05
0.000208354208810227
0.000531825083065027
0.000718797291284916
0.000595192217661434
0.000267294619657599
2.91949087711964e-05
1.66104325721829e-05
0.000241170394642412
0.000628467005253283
0.000944823655833589
0.00099156134914652
0.000725898995004116
0.00031771109199194
3.80294330610919e-05
2.01412948300958e-05
0.000271209867179052
0.000710753943642166
0.00112761161280534
0.00133344261118123
0.00122044493517371
0.00083761021368272
0.000364255670387271
4.71399899657686e-05
2.36000767453165e-05
0.000298356321179678
0.000782019642769388
0.00127885701251803
0.00161664219800817
0.00166905998512644
0.00141266872605921
0.000935662340427322
0.000405035807591065
5.42764967693868e-05
2.68830359156424e-05
0.000322428378013746
0.000843831586157043
0.00140598184329164
0.00185093728156444
0.00205237747843329
0.00195312442691028
0.00157854346850933
0.00102229565176462
0.000435047868396733
5.37654099475448e-05
2.99199669550201e-05
0.00034348444161125
0.000897137830872712
0.00151352273519083
0.00204592928168445
0.00237370501293323
0.00242732181941552
0.00219732561028872
0.00172694264559363
0.00109883058927762
0.000445961742973249
3.25865632705816e-05
3.26475189014756e-05
0.000361612764483182
0.000942620940160646
0.00160426819881503
0.0022085764533496
0.00264147773589624
0.00283083754478393
0.00275051036656189
0.00241476366636857
0.00186821493950308
0.00117557114528556
0.000452548168802848
8.15841459724373e-08
1.01313160809329e-06
6.97265489644855e-07
3.67326800068976e-06
2.81387798469667e-05
2.1442655792636e-06
8.11341145600002e-06
8.61058944502034e-05
8.07916560221118e-05
4.22716520716772e-06
1.38445033322272e-05
0.000148379847981303
0.000256788183527375
0.000128538178752847
6.74306818857637e-06
9.61943632256388e-06
0.000169360354646081
0.000408086220204019
0.000434014243988215
0.000208369542357845
2.05849244796909e-05
1.28196009355362e-05
0.000205551317621134
0.000526252271679694
0.000711546089125598
0.00058835680236889
0.00026310106490065
2.83516870006877e-05
1.62654551246992e-05
0.000238573954493689
0.000623184768043087
0.000937446605913738
0.000983493716364659
0.000718964245751411
0.000313434988474202
3.70830733868628e-05
1.98153395826379e-05
0.000268942872932026
0.000706090620352249
0.00112081127276639
0.00132542006211858
0.00121253986296696
0.000831094778578836
0.00036016610783554
4.61631581704085e-05
2.3320024000224e-05
0.000296524691380764
0.000778231839646303
0.00127316356788986
0.00160957167374871
0.00166151927334582
0.00140567349507401
0.00092999878739856
0.000401416630640351
5.33868213676231e-05
2.66736312093416e-05
0.000321128901466259
0.000841107329209523
0.00140179092911814
0.00184553131461425
0.00204628221242836
0.00194701593903812
0.00157305110251222
0.00101786473740326
0.00043218361988948
5.31412752765421e-05
2.98078568300814e-05
0.000342798059941313
0.000895665057161144
0.0015111800400542
0.00204277833355336
0.0023699591611571
0.00242330937799907
0.00219341853494122
0.00172346476886277
0.00109597917608344
0.000444145740820993
3.23966632030265e-05
3.26708143525044e-05
0.000361670236398812
0.000942647552558852
0.00160419668663978
0.00220828666674108
0.00264092731325691
0.00283004988691138
0.00274955135895063
0.0024137269294685
0.00186714278990259
0.00117433793614992
0.000451981523668433
3.52043822130358e-05
0.000377823956067685
0.000982624130406703
0.00168279524088569
0.00234696183937197
0.0028670948714293
0.00317249030204369
0.0032300085977577
0.00303833491261412
0.00262231987823873
0.00202513828718992
0.00131541425960393
7.25145689042887e-08
9.3271142589088e-07
6.41838465870909e-07
3.44631559641761e-06
2.69881200405184e-05
2.00733058244325e-06
7.69747742068508e-06
8.36845964805064e-05
7.84013739689904e-05
4.00326448957223e-06
1.32351468514069e-05
0.000144908939606756
0.000251791107770397
0.000125454639930081
6.44352852885251e-06
1.97866878875277e-05
0.000204135361538587
0.000427192453010238
0.000401823316020736
0.000166021073584215
9.26107068271699e-06
1.24217343519776e-05
0.000202214794664263
0.000519637758039229
0.000703055944314201
0.000580493393532467
0.000258325808062907
2.73695628879582e-05
1.5849277498323e-05
0.000235411889672133
0.000616756858688449
0.000928528739383165
0.000973841129561578
0.000710747079998645
0.000308382293639026
3.59361142812269e-05
1.94068141985325e-05
0.000266085014391255
0.000700213372957701
0.00111227425503621
0.00131540514929643
0.00120273492445887
0.000823044412107302
0.000355088212707944
4.49143512116568e-05
2.29466455209044e-05
0.000294078925535545
0.000773181582818532
0.00126559639213606
0.00160021364178285
0.00165158948401618
0.00139649642789845
0.000922574288949343
0.000396653011640942
5.21765901404416e-05
2.63608469918319e-05
0.000319192730439947
0.000837070895102731
0.00139561326304414
0.0018376070098848
0.00203740190536588
0.00193816755623237
0.00156513322964472
0.00101150577924209
0.000428067914307252
5.22014060240584e-05
2.95786116913747e-05
0.000341436452607244
0.000892807739648179
0.00150671582323701
0.00203688438899991
0.00236307792933399
0.00241605872133613
0.00218646208388908
0.00171735634535933
0.00109107125387745
0.000441025993397689
3.20299603668502e-05
3.25507479961201e-05
0.000360960775137853
0.000941121156789755
0.00160174102009848
0.0022049251411593
0.00263683093492364
0.00282550194920749
0.00274490584716543
0.00240935271113937
0.00186332046583226
0.0011711707799431
0.000449999289190534
3.52313641202395e-05
0.000377890126492869
0.000982655513145588
0.00168272291990301
0.002346671178108
0.00286653344357547
0.00317166091068381
0.0032289608325103
0.00303716801054763
0.00262115087222231
0.00202388459904181
0.00131408720647623
0.000982558427881318
3.75658310327872e-05
0.000392275313568498
0.00101785214918679
0.00175109910426013
0.00246569279531281
0.00305861476546265
0.00346194583302515
0.00364043409553214
0.00358452585597778
0.00330702199004679
0.00284092017439207
0.00224534401490335
6.3187953227126e-08
8.45878603845797e-07
5.81168476765163e-07
3.19851087726135e-06
2.56617219063405e-05
1.85571063095271e-06
7.24171365190491e-06
8.09772029039463e-05
7.56737640326146e-05
3.75355439597084e-06
1.25642506038864e-05
0.000141095343012775
0.000246176548266288
0.000121921603981788
6.10686295785108e-06
1.890231883744e-05
0.000199504257173322
0.000419556329669355
0.000394639761034243
0.000162161599527298
8.85404888803344e-06
2.62620455422727e-05
0.000253009778156597
0.000571614312138452
0.000693277570709892
0.000511919490777599
0.000198315501212896
1.19637527075128e-05
1.53610455438563e-05
0.00023165593249941
0.000609120718635935
0.000917997822900082
0.000962560833456488
0.000701247087656287
0.000302558738539703
3.45970758753272e-05
1.89151105870877e-05
0.000262611117768484
0.000693065412501835
0.00110192236530033
0.00130332443218245
0.00119097734681813
0.000813425304039636
0.000349006608961147
4.3391876173706e-05
2.24791680706026e-05
0.00029099940605266
0.000766823430177614
0.00125608753091368
0.00158848513004522
0.00163919052178932
0.00138505773640392
0.000913295828121372
0.000390653369881996
5.06089981481444e-05
2.59440202879648e-05
0.000316607812924187
0.000831695657048439
0.00138740477848106
0.00182710315380302
0.00202566171531541
0.00192649080700382
0.00155467647237976
0.00100307321122414
0.000422565244666423
5.09160853003731e-05
2.92359038714773e-05
0.000339408236572679
0.000888576257064038
0.00150013907634304
0.00202823928866766
0.00235302703051415
0.00240550727776105
0.00217635886106831
0.0017084794265911
0.00108393024250696
0.000436477345301627
3.14466322256556e-05
3.23038370761208e-05
0.000359548509477742
0.000938156883903294
0.00159706095235252
0.0021986294236661
0.0026292798841014
0.00281723646649021
0.00273655947701215
0.00240154976054016
0.00185654613139709
0.00116567598300089
0.000446575777119871
3.51052903240823e-05
0.000377164840131564
0.000981092086036829
0.0016801856375207
0.00234314829366029
0.00286215090937594
0.0031666529701168
0.00322363980687784
0.003031897430017
0.0026162892213165
0.00201963699901514
0.00131037607982711
0.000979318700799548
3.75964019817313e-05
0.000392354710001065
0.00101789698844356
0.00175104081539329
0.00246541949871845
0.00305806141877473
0.00346109332167631
0.00363930675465472
0.00358320296044554
0.00330564560504289
0.00283959757573114
0.00224404573496436
0.00175852736261094
0.00152515707981383
3.97286062233627e-05
0.000405138207137317
0.00104890431386339
0.00181070098523481
0.00256809743596537
0.00322207363967224
0.00370768377922888
0.00398989061779027
0.00405510510996887
0.00390805699486987
0.00357244362069677
0.00309588918549231
5.39043214017487e-08
7.54525937594665e-07
5.16694580589439e-07
2.93135711254203e-06
2.41520865058105e-05
1.69142154947562e-06
6.7477299949306e-06
7.79244086339767e-05
7.25777102864626e-05
3.47994334378933e-06
1.18336640397487e-05
0.000136910183233823
0.000239881157952309
0.000117910901457853
5.7344326877844e-06
1.79389319790353e-05
0.000194431876444913
0.000411063216259146
0.00038647182408082
0.000157752887711983
8.39937871124973e-06
2.50475346697596e-05
0.000247186968361636
0.000561716857944922
0.000682150464955668
0.000503027941796014
0.000193822511817291
1.14456905303116e-05
3.30963038560018e-05
0.00029604821804009
0.000690490637359438
0.000949611253796374
0.000905771242865248
0.00060020621736214
0.000227276966346713
1.48011834059395e-05
1.83392157137541e-05
0.000258491314469396
0.000684578133036484
0.00108966119224264
0.00128909394928945
0.00117722138014055
0.000802229851218883
0.000341943751953009
4.16033620930319e-05
2.19169900264005e-05
0.000287260107549454
0.000759095794840473
0.00124454577295586
0.00157428500666926
0.00162422993185217
0.00137128175384297
0.00090210203256399
0.000383369882571759
4.86868932632033e-05
2.54222034653252e-05
0.000313353417171977
0.000824932709119392
0.00137708939024914
0.00181392203805147
0.00201095423148738
0.00191187483330783
0.0015415565353944
0.000992415514063115
0.000415524520491
4.92026295739413e-05
2.87793848242318e-05
0.000336700799376881
0.000882940977002238
0.00149140144714933
0.00201677358741857
0.00233971720179901
0.00239154752331494
0.00216297713103578
0.00169666358256254
0.00107434285733762
0.000430313758012991
3.06436739068244e-05
3.19344621916545e-05
0.000357442243536185
0.000933764598201312
0.00159016368629553
0.00218938952608402
0.00261823733034791
0.00280518628065321
0.00272441022869853
0.00239017249679415
0.00184661528614099
0.00115759618018588
0.000441513895803418
3.48434719162704e-05
0.000375712113034727
0.000978044340512918
0.0016753364737929
0.00233653171324555
0.00285404748070313
0.00315752261040583
0.00321405131436741
0.00302246585370483
0.00260759457819281
0.00201207762158375
0.00130398490271245
0.00097413832610167
3.74653332829384e-05
0.000391619503918988
0.00101631078571468
0.00174844884626313
0.00246177989952046
0.00305345846457311
0.00345571271187044
0.00363341054981727
0.0035771157723473
0.00329973383502718
0.00283419121652567
0.00223924065986471
0.00175400757041911
0.00152262367986808
3.9762603727525e-05
0.00040523110658978
0.00104897041307502
0.00181066888217781
0.00256785847104521
0.00322155120477264
0.00370683844545848
0.0039887203134645
0.00405365774402337
0.00390645488267959
0.00357086840946643
0.00309451068322599
0.00259681689778118
0.00220614542203078
0.00188733353536989
4.16911583763927e-05
0.000416551833918385
0.00107626601702555
0.00186280756326589
0.0026567668635285
0.00336226112031002
0.00391704352471504
0.00428726260028
0.00445769220422331
0.00442787558934791
0.00421309266709298
0.00384841042148584
4.49863278316465e-08
6.60966833462791e-07
4.50170399583722e-07
2.6487746503539e-06
2.24640842357497e-05
1.51755971793388e-06
6.21721645397149e-06
7.44865098082601e-05
6.90935370422087e-05
3.18564180565684e-06
1.10455066648016e-05
0.000132259961326842
0.000232815219821974
0.000113395670626621
5.32916438986664e-06
1.69009055800912e-05
0.000188843540266729
0.000401651223744512
0.000377246279355736
0.000152766655565852
7.89926857316895e-06
2.37460478855965e-05
0.000240844540181319
0.000550745931609542
0.000669598307044704
0.000492889457654243
0.000188706007033455
1.08687577357812e-05
3.14716752046836e-05
0.000288951542178044
0.000678501177637898
0.000934941061975993
0.000891756445574371
0.000589937020317406
0.000222242389606196
1.41698205428195e-05
3.96081608245259e-05
0.000334043769756968
0.000789515989646321
0.00116143568658589
0.00127262151618708
0.0010753837524932
0.000674676611761664
0.000253694457257227
1.76792374876483e-05
2.12589984249576e-05
0.000282828824487157
0.000749923424958591
0.00123086084096187
0.00155749438263492
0.00160661181176425
0.00135511239077328
0.000888986974723737
0.000374820277770899
4.63937035341857e-05
2.47950365461884e-05
0.000309400326979438
0.000816716853256297
0.00136456595381049
0.00179793846266917
0.00199314930831253
0.00189419745064505
0.001525662029727
0.000979419765185074
0.000406860684854755
4.71144800227784e-05
2.82080114007472e-05
0.000333292719373291
0.000875850891088586
0.00148042062546678
0.00200237667141555
0.00232301766157698
0.00237403606464339
0.00214615809506874
0.00168171643473047
0.00106206812874835
0.00042225898401765
2.94995671416593e-05
3.14421107471469e-05
0.000354629816076589
0.000927914091559554
0.00158099792675274
0.0021771296274735
0.00260360199533451
0.00278922507083739
0.00270830354229152
0.00237502650508816
0.00183327382063887
0.00114661359746482
0.00043458734395101
3.4450404745064e-05
0.000373541579076738
0.000973521326962663
0.00166818127225163
0.00232681032513287
0.00284218407557121
0.00314419733889864
0.00320008494184832
0.00300871778858835
0.00259485390861653
0.00200090399227766
0.00129451346779489
0.000966249737942353
3.71904566537637e-05
0.000390135518534304
0.00101320007447038
0.00174347058478795
0.00245491277024952
0.00304491204408986
0.00344586886525031
0.00362276226281286
0.00356622323208465
0.00328918042732241
0.00282450384487727
0.0022306967600909
0.00174670193487417
0.00151737787177576
3.96274854299783e-05
0.000404491120844664
0.00104737259390749
0.00180804492161003
0.00256414106109305
0.00321678841004558
0.00370117170675659
0.00398236176277475
0.00404688057094136
0.00389958865429336
0.00356427135675798
0.00308847217232835
0.00259128636580942
0.00220214512571048
0.00188669188141535
4.17286853721002e-05
0.000416656778943649
0.00107635575656146
0.00186281087005265
0.00265657653913792
0.00336179137396115
0.00391623757204323
0.00428609458042522
0.00445617786368299
0.00442610032793376
0.00421122677958137
0.00384670371240267
0.00340163655205709
0.00296380207662482
0.00256476816827942
0.00212413469625052
4.3454826876812e-05
0.000426632319067687
0.00110033181840827
0.00190838515391106
0.00273374235248802
0.00348296652631213
0.00409610074905191
0.004540776850822
0.00480142972829692
0.00487451544249647
0.0047688715885551
0.00450854024748929
3.66239330333443e-08
5.67665994260878e-07
3.83571100081907e-07
2.35565971347266e-06
2.06087712707158e-05
1.33759986280119e-06
5.65538540331548e-06
7.06455719860067e-05
6.52137688832865e-05
2.87499512651678e-06
1.02011750474628e-05
0.00012707677370181
0.00022489407922159
0.000108355980601043
4.89514186072616e-06
1.57875291003533e-05
0.000182672355624244
0.000391192919038489
0.000366878948875239
0.000147177576046387
7.35611876913053e-06
2.23697273949076e-05
0.000233951255898948
0.000538614537656568
0.000655525212407978
0.000481423966623786
0.000182937513684909
1.02358245792144e-05
2.97748392718519e-05
0.000281370844863738
0.00066525128838683
0.000918472887878641
0.000875849436732289
0.000578233873031311
0.000216519817927583
1.34683798215295e-05
3.74610528487352e-05
0.000325484340239901
0.00077537698466281
0.00114359074507138
0.00125380505248045
0.00105897511534006
0.000663277868815125
0.00024818671074818
1.69356384594735e-05
4.38419107040962e-05
0.000365226915361306
0.000874070035471895
0.00133653734883481
0.00158623844473905
0.00153798025200382
0.00121490248428107
0.000739214715341023
0.000277673830128388
2.05052312638422e-05
2.40611983441921e-05
0.000304709152585891
0.000806969531993018
0.00134971244204585
0.00177900431381414
0.00197210130016609
0.00187334026950379
0.00150692219624728
0.000964061895272062
0.000396527145997879
4.45106499905731e-05
2.75212779926722e-05
0.000329156444671518
0.000867236861432297
0.00146708758557666
0.00198490512045544
0.00230276531850254
0.00235280512335406
0.00212573469390315
0.00166345936382284
0.00104691260030853
0.000412207015714992
2.81498412815561e-05
3.08256214567108e-05
0.000351089114133676
0.000920552806253316
0.00156947629605873
0.00216172868622464
0.00258522380205959
0.00276917964603604
0.00268804308102331
0.00235587859686067
0.00181622320490027
0.00113232119206503
0.00042531099418484
3.39257595587259e-05
0.000370640693533697
0.000967492440769188
0.00165866652690595
0.00231390353982433
0.00282645011528583
0.00312653522319441
0.00318156405865669
0.00299043213988013
0.00257778158799142
0.00198573511945552
0.00128148211771338
0.000955102329681486
3.67767318952914e-05
0.000387912838720925
0.00100857337241034
0.00173611044641738
0.00244480597735179
0.003032381507634
0.00343148537371796
0.00360724421123493
0.00355035918014958
0.0032737611781709
0.00281023027042417
0.00221796650315829
0.00173560821624938
0.00150846936130873
3.93414651595805e-05
0.000402983068787563
0.00104421593706121
0.00180297147601934
0.00255708343499028
0.00320789542915795
0.00369075508976379
0.003970840056159
0.00403474303794497
0.00388736931341427
0.00355251384993442
0.00307764692504239
0.00258171172816135
0.00219451727316058
0.00188256198767364
4.1590552746486e-05
0.000415914583262408
0.00107475594306882
0.00186017310957357
0.00265281391619377
0.00335692148643541
0.00391036353294901
0.00427938342907333
0.00444885126053815
0.00441843451845464
0.00420354660470573
0.00383935221505402
0.00339483778231134
0.00295826322979848
0.00256183617412795
0.00212531409805456
4.34919055674358e-05
0.00042674721587986
0.00110044428973453
0.00190842833713503
0.0027336110577355
0.00348256749206645
0.00409536321649745
0.00453965512934178
0.00479991130185854
0.00487264749591422
0.00476678201828711
0.00450646015655825
0.00413630969697899
0.00371520175308458
0.0032832520867623
0.00282157840324659
0.0022802776239702
4.50191355977532e-05
0.000435480965997072
0.00112142562507326
0.00194821488628721
0.00280064905147678
0.00358719522065532
0.00424977865346159
0.00475750507827899
0.0050951288954661
0.00525742873245508
0.0052488160659376
0.00508505265244572
2.90368427926855e-08
4.7648528612559e-07
3.18580603956024e-07
2.0569160521217e-06
1.85970806609217e-05
1.15499301379825e-06
5.06961213138554e-06
6.63711160280218e-05
6.09338249218797e-05
2.55275701305053e-06
9.30623494733556e-06
0.000121308830925948
0.000216041474000108
0.000102778890979542
4.43761652001944e-06
1.45947113167053e-05
0.00017588724631086
0.0003795524235228
0.000355282770612267
0.000140964370883246
6.77520561361594e-06
2.09146267683741e-05
0.000226429412416521
0.00052521506429344
0.000639805851170247
0.000468545912261194
0.000176489027121207
9.55114702881264e-06
2.80390361107939e-05
0.000273302683204532
0.000650695138259555
0.000900101408246396
0.000857926744164204
0.000565011769777524
0.000210081435392927
1.27000079492874e-05
3.52752063734682e-05
0.00031647785851232
0.000759918212694658
0.00112363437839946
0.00123252466357039
0.00104031388559514
0.000650293664550527
0.000241934940604945
1.61106503130343e-05
4.10517971702377e-05
0.000354855125276181
0.000857538131828864
0.00131557481639908
0.00156301031135471
0.00151559719599582
0.0011965366921456
0.00072688289532906
0.000271760072686999
1.96561149096467e-05
4.16657645632334e-05
0.000384774084483389
0.000946524687319002
0.00148534966582021
0.00184920658124063
0.00194765397713524
0.00175695192875709
0.0013323881814999
0.000795604222476473
0.000299252251608757
2.32205874903495e-05
2.67177098441897e-05
0.000324256025294539
0.000857015041866151
0.0014512712536386
0.00196418826623387
0.00227877228941399
0.00232767571645825
0.00210155669204926
0.00164177829459629
0.00102876417546285
0.000399811103676327
2.62971656443107e-05
3.00843746090995e-05
0.000346791995498252
0.000911610741629449
0.00155548256682864
0.00214302886553334
0.00256291274686584
0.00274484075046487
0.00266340671812388
0.00233248391321971
0.00179517089104715
0.00111438272034482
0.000413653020546934
3.32682366373875e-05
0.000366986690830703
0.00095990372388464
0.00164670136642498
0.00229768190247947
0.00280668009625218
0.00310433840100042
0.00315825810070319
0.00296733392423172
0.0025560288045155
0.0019660980227235
0.0012642190715313
0.000939963107903209
3.62239632933865e-05
0.0003849380026497
0.00100239910797079
0.00172631304286922
0.00243137510057912
0.00301574916639249
0.00341240842793655
0.00358666231508043
0.00352927930685949
0.00325316151635996
0.00279095090241978
0.00220047533574235
0.00171996577953104
0.00149512064938948
3.89095157112847e-05
0.000400718010706792
0.00103950858127224
0.00179545147880453
0.00254667225691587
0.00319483037763088
0.00367550975709249
0.00395403307908021
0.00401707209460333
0.00386956330882322
0.00353528596470971
0.00306160352070526
0.00256724681846677
0.00218220713000932
0.00187365417419974
4.12953437320081e-05
0.000414389087477167
0.00107156733271958
0.0018550323484506
0.00264561605180733