/*--------------------------------*- C++ -*----------------------------------*\
  =========                 |
  \\      /  F ield         | OpenFOAM: The Open Source CFD Toolbox
   \\    /   O peration     | Website:  https://openfoam.org
    \\  /    A nd           | Version:  12
     \\/     M anipulation  |
\*---------------------------------------------------------------------------*/
/*   Windows 32 and 64 bit porting by blueCAPE: http://www.bluecape.com.pt   *\
|  Based on Windows porting (2.0.x v4) by Symscape: http://www.symscape.com   |
\*---------------------------------------------------------------------------*/
FoamFile
{
    format      ascii;
    class       volScalarField;
    location    "200";
    object      omega;
}
// * * * * * * * * * * * * * * * * * * * * * * * * * * * * * * * * * * * * * //

dimensions      [0 0 -1 0 0 0 0];

internalField   nonuniform List<scalar> 
10166
(
3.73734663854203
3.73734487653419
3.98682949425404
3.04792891992872
3.73734683985718
3.98682922048463
3.04791082376153
4.20371023785781
1.15881296940344
3.02836587028651
3.73733350554384
3.9868310714185
3.04789451541668
4.20371440953088
1.15765867755966
3.02834897772128
4.33730282406928
0.998544311063381
0.949229715721811
2.99244062338665
3.73731582805764
3.98681553151847
3.04791604242378
4.20373449479993
1.15728610279794
3.02833405453493
4.33731369687676
0.99780975681857
0.949685674833689
2.99244098282366
4.40627449819359
1.0337804765413
0.646885668210932
0.916313756913291
2.97494712016125
3.73728289906442
3.98678993735601
3.04791966218962
4.20369924479019
1.15659221741123
3.02835995272
4.33733144049942
0.99715355069956
0.950600585724767
2.99244628363054
4.40628319129144
1.0330497365673
0.646648609306579
0.917845699251022
2.97495194081776
4.43508113476163
1.08849956255272
0.605156722809111
0.57067438914922
0.923643399737465
2.97384340207409
3.73722973675161
3.98675821574082
3.04792864474771
4.20365931556736
1.15527240881142
3.02837681923328
4.33729921483224
0.996046679288895
0.951101293231726
2.99246712372956
4.40627808919517
1.03206927686208
0.646447300570283
0.919085853699487
2.97496779298961
4.43508034783237
1.08793542871179
0.60465289899458
0.571015170323731
0.925193884028635
2.97385749258504
4.43972761467074
1.13701056932778
0.614047129294757
0.49083174283162
0.558542720911862
0.947497986774295
2.97198827619854
3.73714603665576
3.98672889006615
3.04794660801047
4.20366553265275
1.15325560687824
3.02840461655663
4.33726426478276
0.994337231580208
0.950907041564564
2.9925068648141
4.4062724193371
1.03050859523561
0.64581630774229
0.919809386051816
2.97501011985772
4.43507820588433
1.08691443313491
0.604017782373542
0.570968990395215
0.926113428656893
2.97389376417328
4.43972507770049
1.13663248942618
0.613616840745683
0.490700910605546
0.559089725635366
0.948696502737012
2.97201671733868
4.43311312448366
1.17703721669869
0.633566718288161
0.473425854436545
0.455638491532321
0.568160171326572
0.975302662746879
2.96211923553839
3.73702837175999
3.98662541825878
3.04797919623742
4.20368342545717
1.1504924745127
3.02845535891562
4.33728853117834
0.991981489596874
0.949965642084123
2.99257627570269
4.40626316854833
1.02829921099192
0.644631002137765
0.919881196724788
2.97509421576225
4.43507132474127
1.08524016607255
0.602919148109337
0.570442067661381
0.926489680974429
2.973976907398
4.4397224556938
1.13566137333506
0.612907619186242
0.490258033250102
0.558986115344526
0.949229102392433
2.97208677819551
4.4331099421991
1.17680221935708
0.6332688332102
0.473213188830673
0.455724537047568
0.568569706563706
0.976215858480313
2.96216591996503
4.42457580373805
1.21032054692548
0.654439804768444
0.474940869724544
0.4208819299369
0.449027025608436
0.584913186896588
1.00319749696992
2.95324762954746
3.73686974768893
3.98648889005166
3.04802171258283
4.20358970897507
1.14693298209039
3.0285334679832
4.33730945120029
0.988943471239062
0.9481931992308
2.99269303300306
4.40627327865508
1.02542889724935
0.642845251397516
0.919255938184178
2.97524429128111
4.43507256411048
1.08287930269289
0.601290315937944
0.569393838523993
0.92625844784398
2.97414289477697
4.43971682832276
1.1339934004577
0.611703537287069
0.48937210523279
0.558374133741345
0.949228468235511
2.97224164973474
4.43310677909879
1.17588930472848
0.632577238798818
0.472679893034833
0.455326228300902
0.56831981769097
0.976493082764189
2.96228674341069
4.42457218311683
1.21018807846399
0.654249870843309
0.474758988165239
0.420817126962247
0.449078561727788
0.585150213718249
1.00383418346212
2.95331982843092
4.41827541203547
1.23892738373303
0.674432276589106
0.482982856837409
0.409932605639168
0.401669555502244
0.453467683599038
0.6034467736094
1.03387617021091
2.98372922899652
3.73665858203077
3.04806989170938
3.98636078489982
4.20349822402139
1.14251881142075
3.02863823034674
4.33726331282912
0.985180497194245
0.945502618715331
2.99286846145398
4.40627945416626
1.02187842513296
0.640411562436932
0.917841268890758
2.97549175495296
4.43507955005009
1.07982573435853
0.599104147580722
0.567794493943721
0.925380176340727
2.97444235521348
4.43971858975062
1.13161547769365
0.609966228159115
0.488016946965017
0.557256016649042
0.948643867529622
2.97255020489231
4.43310158826218
1.1742523369586
0.631365185514254
0.471717312756132
0.454485467269295
0.567564683852981
0.976240409347444
2.96255394475781
4.42456849052
1.20932013421948
0.653589094806243
0.474219791063237
0.420347870935756
0.448639005938284
0.584766377422165
1.0038784191607
2.95350885406564
4.41827119964832
1.23886833120207
0.674317733007581
0.482844762170244
0.409834021504999
0.401597467599849
0.453434287111712
0.603533698724639
1.03429178026201
2.98382688612343
4.41469217024529
1.26430616110345
0.693051394796635
0.493348426075186
0.408850840633442
0.381422352944975
0.396563010633225
0.461928821449801
0.622286854563481
1.07614259478154
3.21034682913428
3.73636235343333
3.04812625398518
3.986185320352
3.02876591225821
1.13719079908151
4.20343716457309
4.33723155881398
0.980659392898988
0.941791526150904
2.9931040402326
4.4062697201193
1.01762107152191
0.63727879049722
0.915529563674498
2.97586053908107
4.43508704871196
1.0760656302997
0.596333227657532
0.565601719181058
0.923764359765653
2.97493374223225
4.43972577360782
1.12852309855935
0.60767828199804
0.486172688824401
0.555609615969627
0.947451364139922
2.97310693313206
4.43310300547819
1.17189005035325
0.629612149361829
0.470305199666851
0.453202559744202
0.566309396585861
0.975422048867061
2.9630862971394
4.42455931245526
1.20771001406467
0.652388538876169
0.473252178714776
0.419475872647383
0.447769295473837
0.583884259645686
1.00341842673452
2.95392513060668
4.41826325714508
1.23803798405941
0.673680168131615
0.482317966574535
0.409357623245303
0.401125268115037
0.452932714780161
0.603035641360169
1.03418980533374
2.98408387084178
4.41468721951374
1.26428971400844
0.692988427685495
0.493248395675688
0.408754133510044
0.381318866253263
0.396446761684993
0.461815738425413
0.622246821445542
1.07652005972163
3.21045880066497
4.41298508368783
1.28697371267015
0.710241038059372
0.504383610602665
0.412295621238668
0.37342224224512
0.369206234212075
0.397470074799348
0.471141296303191
0.641074355192639
1.15112791280635
4.87759965474274
3.73596959923867
3.04819066488856
3.98586946022099
3.02890867126104
1.13087718277181
4.20334849746619
2.9933869959525
0.936936692064685
0.975346985907131
4.33720759393207
4.406257048253
1.01263963415062
0.633390472821761
0.912209224528885
2.97635143984174
4.43508082076865
1.07157901515215
0.592945888536979
0.562764876669737
0.921312428745926
2.97566046411067
4.4397363012057
1.12470327461076
0.604820033463249
0.483814203833965
0.553395103151261
0.945589513607525
2.97401576997516
4.43311056279028
1.16879830628799
0.627305980424412
0.468428732952833
0.451462221694575
0.564534880896588
0.974035529065617
2.96404438941682
4.42456836302916
1.20536197663862
0.650638715836392
0.471842090555515
0.418195907337576
0.446471109705263
0.582506317173722
1.00243305541799
2.95476452829866
4.41826191207949
1.23644996844296
0.672486976275733
0.48135902003266
0.408497701706419
0.400272176770971
0.452011891522542
0.602049577729079
1.03364151197641
2.98467274861935
4.41467503956831
1.26348036944542
0.692370491946684
0.492736646708658
0.408287864761903
0.380855021481075
0.395948268881525
0.461253132117928
0.621656754179839
1.07638170181197
3.21076460464053
4.41297541678713
1.28699786940818
0.710212519825028
0.50431402834184
0.412210704952705
0.373318100922032
0.369075653057586
0.397308987277738
0.470957772046617
0.640980565180902
1.15169993376247
4.87775609177905
4.4122787345199
1.30722442303435
0.725976039739285
0.515360195431535
0.417905365450046
0.371606813059142
0.355881203779386
0.364594862952338
0.400378590599968
0.47858087372193
0.656130587762438
1.25500543599225
3.73542787649022
3.04825990314831
3.9855456509152
3.02906048208857
1.1234763459629
4.20315491605601
2.99369013360271
0.930870235519696
0.969198627117272
4.33717479276652
2.97692671079507
0.907738604528307
0.628684036117737
1.00691502073715
4.40625601921441
4.43507649884831
1.06634732215941
0.588909264859832
0.559226066604895
0.917899005735192
2.97661531463781
4.43972738839098
1.1201321404644
0.601367709435642
0.480910396495765
0.550565109878279
0.942955363862319
2.97534825632207
4.4331206098495
1.1649593440637
0.624429613101344
0.466069069452034
0.449241525828434
0.562207151977459
0.972034913973408
2.96560087065976
4.42457291811416
1.20226780396944
0.648329966074912
0.469977689751554
0.416495100333738
0.444729446508787
0.580617637447213
1.00094989472606
2.95628353339328
4.41826797085682
1.23411136396091
0.670734688536868
0.479958765052597
0.407248074492934
0.399034399936077
0.450670753922505
0.600577620091553
1.03264029551144
2.98588089371035
4.41468236250721
1.26189813666863
0.691184706180802
0.491788044338485
0.407447078759855
0.380037643651914
0.395084262255737
0.46028001687692
0.620595652020517
1.07587594091806
3.21152704018689
4.41296284616072
1.2862128874085
0.709609410800782
0.503816620703365
0.411758383070692
0.372872109378291
0.368604110306157
0.396778918392269
0.470339773024938
0.640331865499601
1.15168741619222
4.878170801768
4.41226459478338
1.30728461213391
0.725976646781589
0.51531359971377
0.417834684001672
0.371511627415515
0.355757314984419
0.364435876694845
0.400176371430119
0.47835031656654
0.656114336894192
1.2557927793298
4.4120188532089
1.32526008697761
0.740283762692248
0.525903236729893
0.424504033055328
0.373119655946822
0.350007812746196
0.347176814189722
0.363262455291693
0.402567810648339
0.479944063842503
0.641558472074174
3.73469727188945
3.04834542787007
3.98511434753578
3.02922978171877
1.11506239199917
4.20297355686943
2.99398894231777
0.923482229899444
0.962189439713552
4.33711646227885
2.97751038124108
0.90201824983012
0.623102076940156
1.00042622100584
4.40625462546618
2.97770477048577
0.913333375725324
0.554916862865735
0.584188694481862
1.06034871343755
4.43507145712729
4.43972348980385
1.11478493384928
0.597295394487053
0.477426171243524
0.547059847122348
0.939414475289237
2.97707619369816
4.43311220887664
1.16034660485189
0.620960914969879
0.463202932081153
0.446509193820197
0.559279566644271
0.969343551487394
2.96786790263076
4.42458326744023
1.19840774343908
0.645445662482724
0.467642664997083
0.414355602542273
0.442521296585507
0.57818980391487
0.998970398126925
2.95875307541032
4.41827284437568
1.23101322733878
0.668414179317374
0.478107261614736
0.405597866640823
0.39739912043767
0.448894914923812
0.598613213364423
1.03123386010539
2.98812116520537
4.41468540608391
1.2595484037021
0.68943038403084
0.490396498635039
0.406226246176569
0.378861703445074
0.393850157181449
0.458894697628924
0.619068139367461
1.07505059061812
3.21320528501289
4.41297108555438
1.28464412952293
0.708428147106896
0.502877529286045
0.410935637532643
0.372088032195052
0.367799090408473
0.395894371040217
0.469320704928392
0.639228130095645
1.15145769507978
4.87934855643354
4.41225165710933
1.30652132858828
0.725388109578197
0.514828761057584
0.417396355194568
0.371084189722871
0.355314069483376
0.363949824731284
0.399615217099726
0.47768807726154
0.655462379574845
1.25619502242975
4.41200461843188
1.32534961661657
0.740310040597296
0.525876393333635
0.424447495366861
0.373036252214845
0.34989618004607
0.34703261430478
0.363077137105942
0.402332855340926
0.479714596935901
0.641597308773774
0.698222400788564
4.41193006990807
1.34126097568835
0.75321446476875
0.535818061497106
0.431446705821675
0.376454436616851
0.348365112616702
0.338195195276429
0.34282044308853
0.362601106030216
0.401321976973635
0.466739837062198
3.733766519248
3.04848279784358
3.98461399244282
3.02945369890253
1.10584357154216
4.20280704486236
2.99429093298815
0.91476365215465
0.954316853613224
4.33704826478476
2.97802310628868
0.894945128564962
0.616593293937137
0.993149022604352
4.40623995271829
2.97874375237542
0.907448198245171
0.549772774322579
0.578749085132395
1.05355736697288
4.43507732673533
2.97899908785081
0.93479098446667
0.542801292293878
0.473322224287704
0.592574522897773
1.10863046340609
4.43971393964926
4.43310796803096
1.15493057850476
0.616874374815146
0.459803709665257
0.443228781683109
0.555692293825231
0.965875906806544
2.97078083523798
4.42457434890165
1.19375292891627
0.641963650725214
0.464817065209422
0.411754328139054
0.439816758922472
0.575182131108311
0.996438656966014
2.96235510275352
4.41828350964943
1.22713496018486
0.665508530966724
0.47578979024944
0.403532354722838
0.395348568087008
0.446663257420349
0.596139122755623
1.02946381248856
2.99179596680304
4.4146902987131
1.25642222441198
0.68709937223883
0.488552974665348
0.404615872819335
0.377316523932556
0.392233810773114
0.457085888727811
0.617076699442929
1.07398939710015
3.2162789209887
4.41297473761125
1.28229615363399
0.706668464998736
0.501492348096142
0.409737699863116
0.370961231452039
0.366655855404226
0.394651549586583
0.467901274742503
0.637693397543003
1.15109804014503
4.88259044462856
4.41226033386616
1.30496613245991
0.724213027052259
0.513897558362024
0.416589059356144
0.370327720953313
0.354556897724672
0.363144640423368
0.398709528688846
0.47663345351971
0.654374829460454
1.25658812406785
4.41199144493048
1.32460553147275
0.739735110683791
0.525403297737927
0.424022092667981
0.372625841401261
0.349477861724979
0.346585177166284
0.362575316449549
0.401745076155116
0.479026881531065
0.640988969836346
0.697857836582077
4.41192014915384
1.34137200968249
0.753262761891029
0.535808853028972
0.431403762008305
0.376383281778775
0.348266650054126
0.33806743569335
0.342657733577435
0.362394117982322
0.401074467871123
0.466526810159115
0.52389997524044
0.523946332255396
4.41190066389366
1.35540324737545
0.764832891433204
0.545005557577186
0.438359727354674
0.380748778172918
0.349197546947075
0.334135186776293
0.331567414540518
0.340275716660056
0.36071721809818
0.393836111623712
3.73273201631518
3.04875140413872
3.98413712255424
3.02981077239884
1.09588010900245
4.20266965737053
2.99466089671193
0.904904325958625
0.945603268558837
4.33706088470618
2.97844809764655
0.88643393774183
0.6091274161243
0.985055170691562
4.40624917036253
2.9795208170107
0.900241656324019
0.543734390651443
0.572554826874176
1.04593761354424
4.43508097595793
2.98071852478028
0.928918232440537
0.537714029941643
0.468557699837609
0.587174133957917
1.10163218617575
4.43972357041891
2.9739648232348
0.961405741842123
0.551367227823419
0.439357536067465
0.455841571065098
0.612140191257003
1.14867218217167
4.43309856382663
4.42456979022045
1.18826939930656
0.637857350074232
0.461477451103714
0.408664353135043
0.436579182228122
0.571541836404232
0.993257204405605
2.96698399357859
4.41827373517233
1.22244382063506
0.661994891660616
0.472987415437232
0.401032288820953
0.392860426175111
0.44394828258544
0.593121326162091
1.02731982541335
2.99724441734583
4.41470100272142
1.25249852315495
0.684174261350416
0.486243318916847
0.402602652853898
0.375387776000044
0.390218857517799
0.454836759431173
0.61461756223
1.07279706381914
3.22193660063339
4.41297953420582
1.27916046362092
0.704321038723138
0.499652577471943
0.408155950302822
0.369482697199739
0.365164734453293
0.393040807251993
0.466075843187073
0.635744997532405
1.15075398027374
4.88752223142897
4.41226416274612
1.30262380024423
0.72245167728402
0.51251619323335
0.415408540049392
0.369238189595666
0.353481966313678
0.362017121404145
0.397458583556564
0.475196477450197
0.652908072149092
1.25720796496727
4.41200024935264
1.32306370224131
0.738566712070456
0.524479488851489
0.423227676004197
0.371891742927734
0.348758046983777
0.345841230066302
0.36176648286427
0.400822648787549
0.477954286888355
0.639961035747505
0.696768827969288
4.41190743643911
1.34064542262352
0.752700235399783
0.535346652347557
0.430990183343785
0.375987965174825
0.347869479294931
0.337651422699732
0.342204151273874
0.361878607310284
0.400467554638831
0.46582372027303
0.523209713872766
0.522925474606814
4.41189533937756
1.35553289723554
0.76489920655144
0.545011960451751
0.438329506028496
0.380689486754214
0.349111772413108
0.334022777791501
0.331425468252572
0.340098351141413
0.360501107065257
0.393601980436395
0.430661908872216
0.451915793746078
0.464957184859405
4.41188648266875
1.36785078026316
0.77521335835319
0.553421866398604
0.44502036238583
0.385481635528864
0.351473277461647
0.333047433335447
0.325732451780412
0.327599271802369
0.33796437334825
0.356344699971425
3.73151936383886
3.04933258369582
3.98391698334467
3.03044318159007
1.08521193156033
4.20274536909253
2.99522896100666
0.893963238928875
0.936041993135809
4.33717130965915
2.97889191053866
0.876687554606638
0.600711688845286
0.976107423121943
4.4063068027397
2.97994629214653
0.891790153320388
0.536747525283765
0.565569656507819
1.03744692740996
4.43509857771369
2.98174576740827
0.921733824934452
0.531750058964684
0.463091636085417
0.581058212520424
1.09374219362424
4.43972917349245
2.97665183852349
0.955670417835615
0.546223964718998
0.434850427656424
0.451283982779702
0.606724106919611
1.14152635796564
4.43310750882022
2.97203806795449
0.989129863048419
0.567182124028268
0.432763758479624
0.40505490982279
0.457596975907924
0.633094017458243
1.18191788710242
4.42456000326934
4.41826882368661
1.21690254835557
0.65784589062355
0.46967790319074
0.398075101319253
0.389908228849199
0.440714629722265
0.589505114349839
1.02471572221678
3.004348243788
4.41469052012171
1.24774715848702
0.680630959413923
0.483448902863256
0.400169615342387
0.373057601452399
0.387784847760647
0.452123695671088
0.611669283201526
1.071504652686
3.22967136193527
4.41299017204963
1.2752132412429
0.701368771774496
0.49734419606206
0.406178012589074
0.367640277889288
0.363312991813209
0.391049148329526
0.463835235751691
0.633402833513552
1.15073416746867
4.90074110358715
4.41226876292143
1.29948378715594
0.720094671292497
0.510675974066771
0.413846653377929
0.367807692624004
0.352081532135044
0.360560096853716
0.395857627793853
0.473381769810056
0.651107365085859
1.2582424535704
4.41200393301636
1.32072739609708
0.736805508831171
0.523101518250507
0.422060207952627
0.370830348766877
0.347733729692943
0.344798714980732
0.360650708684229
0.399571677565078
0.476525703175119
0.638619926313294
0.695271029142054
4.41191696013283
1.33911616739369
0.751538461528641
0.53442972175636
0.430206714759188
0.37527201287793
0.347178895224947
0.336953856836715
0.341468293887399
0.361067574919397
0.399535838671476
0.464745627032472
0.521975909643274
0.5213071410573
4.41188386099748
1.35482039812319
0.764348071392491
0.544559743722821
0.437926675610759
0.3803074827471
0.348732485024686
0.333632134551451
0.331009430623533
0.339639590096743
0.359975491623719
0.392977049269798
0.429922187141972
0.450961424941806
0.463424785133609
4.41188136707677
1.36799664472268
0.775295103604397
0.553441864374936
0.445001808197216
0.385433482288906
0.35139931307266
0.332948803525166
0.325608270947828
0.327446870802325
0.337782903005581
0.356145898929493
0.379336987179992
0.399681879979871
0.414939309935773
0.440688225710713
4.41189710900607
1.37874780598807
0.784434057676019
0.561057454624426
0.451296079825308
0.390327826418456
0.354554675129991
0.333770989676457
0.323218035111666
0.320608298014209
0.324806345965969
0.334996513625735
3.73119395069699
3.05053388188442
3.98428820712146
3.03160179091188
1.07396136044312
4.20336797426333
2.99619149866702
0.881915966279833
0.925600856375862
4.33759681915687
2.97958906928088
0.865773364386513
0.591334887654372
0.966248048822586
4.40650363091269
2.98021113028143
0.882111387894063
0.528808575355357
0.557756331280056
1.02802266129639
4.4351647402578
2.98180980689912
0.913174692687275
0.524871535957806
0.456883311330106
0.57418554431186
1.0849017822357
4.43974638071427
2.97777400429709
0.948369735065751
0.540203841980425
0.429664914610972
0.446095874073423
0.600585743270356
1.13343433139872
4.43311314988855
2.97617241212844
0.983703120847081
0.561998869912045
0.428321638242714
0.400892381943004
0.453144871811274
0.627635578980762
1.17464480155648
4.42456927415691
3.01230600722809
1.02126302520861
0.585183912825646
0.436914572488246
0.386460627139752
0.39463522343228
0.465836267489163
0.653033118359084
1.21045889176852
4.41825856580717
4.41468529655091
1.24214108752522
0.676440064113148
0.48014722415464
0.397296625481674
0.370304814045435
0.384906492634815
0.448912877061269
0.608180824110227
1.0701235705724
3.24161343769632
4.41297930934378
1.27041604371428
0.697788104595486
0.494548407995031
0.403788027841603
0.365418854335835
0.361084874027087
0.388659784077047
0.461163497737958
0.630665732045332
1.15106026435001
4.91328176513121
4.41227947994238
1.29552007865634
0.717123383943439
0.508362882876358
0.411891505696527
0.366025425665608
0.350345315015032
0.358764054048528
0.393899971796304
0.471193933319142
0.649041720096608
1.26047165807608
4.41200806861372
1.31758489627649
0.734441373171892
0.521260509526493
0.420511657334684
0.369434379634
0.346398405435565
0.343452338556153
0.359225296657097
0.397995790815061
0.47476233649617
0.637045169151679
0.693453406976534
4.41192496211379
1.3367858021646
0.749777971733102
0.533054765836095
0.429049380975938
0.374232008809194
0.346192387899814
0.335973504025528
0.340451212707521
0.359966989530325
0.398298079350816
0.463346017218351
0.520383619179756
0.519253279165604
4.411894828087
1.35330301502589
0.763192829955328
0.543649161838508
0.43715264753762
0.37960645669648
0.348065066799944
0.332970037179459
0.330327773376679
0.338911247304647
0.359165523512633
0.392040782836957
0.428810464335275
0.449558954072059
0.46140518562234
4.41187066223193
1.36729810429119
0.774753863342388
0.552998797433434
0.444608749261312
0.385063273772187
0.351035283789951
0.332578864984317
0.32522154123841
0.327031082748485
0.337320884915473
0.355608122462438
0.378673096255445
0.398848320791271
0.413741777575009
0.438791097986858
4.41189164147544
1.37890554034187
0.784528770332798
0.561089311750292
0.451288104998882
0.390289994737048
0.354491587082765
0.33368466230779
0.323108947301364
0.320476092409582
0.324653462453466
0.334836555139993
0.349382996710332
0.364885614179905
0.379045707848397
0.396473344835106
0.429122624084344
4.41190561409876
1.38820167765584
0.792571152889318
0.567924339416774
0.457111301492648
0.39508166694615
0.358034910789392
0.335580400593668
0.322772581859011
0.317122229858027
0.317286362313397
0.322358147018905
3.7298065620599
3.05303316238381
3.98580158802538
3.03371780665983
1.06247817727382
4.20505722147108
2.99783452020969
0.868909510334212
0.914252852122002
4.33872468280604
2.98084628553079
0.853710238271125
0.580963569462119
0.955395976057651
4.40704537269833
2.98079975367405
0.871054743121676
0.519901130413467
0.549066262643778
1.01758488730016
4.43536648254679
2.98127252806418
0.903245305953651
0.51703798174502
0.449896065212838
0.566505482605019
1.07503820619399
4.43980606462401
2.97658427904664
0.939408844735819
0.533244006679681
0.423759582603287
0.440239877984783
0.593677492354368
1.12432142569065
4.43312832237986
2.97712693352157
0.976548835507511
0.555876688947622
0.423205163693097
0.396141805492911
0.44808691420709
0.621436831526205
1.16637901161672
4.4245747424321
3.01909306848083
1.01651399717892
0.580029397382834
0.432492035800784
0.382482921596961
0.390683844718272
0.461431308524479
0.647514194531831
1.20305320708036
4.4182684496154
3.25359833078647
1.06826732268319
0.604024921048579
0.445153400478738
0.38155240268528
0.367104843871798
0.393960601599198
0.476312330644355
0.671564369141822
1.23561001827224
4.41467467777754
4.41297394249885
1.2647264204218
0.693550753014234
0.49124210189868
0.400966935917853
0.362800426964156
0.358461220674193
0.385850569215088
0.458033447078602
0.627512422943646
1.15235424556556
4.94475958325401
4.4122687395912
1.29069171932085
0.713511096878648
0.505558082778827
0.409527731190485
0.363877877496148
0.348260574301181
0.356616948159857
0.391576097234994
0.468633242129021
0.646746226035504
1.26360121792277
4.41201888755579
1.31360864987278
0.731454473659897
0.518941864559624
0.418570290500001
0.367693783084347
0.344743288716224
0.341794896076528
0.35748629418085
0.39609910291213
0.472692132426494
0.635377692846394
0.691466251523407
4.41191979058141
1.33364216725521
0.747407944541163
0.531212532391123
0.427510069063477
0.372860936057974
0.344904125705445
0.334706162605454
0.339151593671954
0.358581278125153
0.396770535976478
0.461667048152368
0.518507817817896
0.516799659407315
4.41190741383031
1.3509791396173
0.76143343710254
0.542276851945612
0.436003374774456
0.378583007095732
0.347107207390755
0.332035648464208
0.329382056284016
0.337919530142526
0.358087277666303
0.390828546782882
0.42740745773795
0.44783046273288
0.459078180824263
4.41188249753167
1.36579178124676
0.773605042743578
0.552094200883706
0.443843022101607
0.384374764949589
0.350386564769086
0.331944369956922
0.324580599332855
0.326363198866181
0.33660082242227
0.354800024051765
0.377727243677702
0.397687992693201
0.412183017014687
0.436487701274194
4.41188081903914
1.37822071805581
0.783996880111398
0.560654652973159
0.450904024223184
0.38993036669712
0.354140778568964
0.333331929649638
0.322745490142834
0.320093022149333
0.324238903430313
0.334367878312145
0.348809923347398
0.364186653886447
0.378113277045998
0.395107091937402
0.427010021598145
4.41189588093348
1.38837264723207
0.792675758357713
0.567966467723983
0.457112934268209
0.39505339522958
0.357981858128089
0.335505139238368
0.322676473758558
0.317006456352982
0.31715587282725
0.322229756330336
0.331154586556912
0.342126043894789
0.353613782207672
0.366760458929715
0.387194396790931
0.423637843638151
1.39627111493771
0.799691387070953
0.57404706253404
0.462427511323665
0.399613815124965
0.361649815782747
0.338007523794676
0.323611799653389
0.315847772564403
0.313261973047314
0.31491377116673
3.73222320489146
3.05702380190891
3.98802051525758
3.03739652445437
1.05120918673575
4.20832057970983
3.00059481333845
0.855235831230051
0.902034658109762
4.34115841868069
2.98300005580319
0.840657060025588
0.569589488088381
0.943462820794381
4.40834416575644
2.98228932108568
0.858710095002157
0.510010324267901
0.539435247531165
1.00603233149903
4.43591088554615
2.98122128376853
0.891636643373022
0.50819393145124
0.442091436368481
0.55795553299808
1.0640631503112
4.43999219447007
2.97372011087351
0.929092504486678
0.525286671283006
0.417094288844292
0.433675887227234
0.58594310687789
1.11410080454038
4.43318060999153
2.97269098582843
0.967453789133558
0.548730814912531
0.417367352277577
0.390768145566406
0.442385235831479
0.614443618833483
1.15704029290066
4.42458798589638
3.02013578781071
1.0099031183872
0.573888078428201
0.427386431110513
0.377939043572313
0.386189976015044
0.456426458529955
0.641236188245727
1.19461150871938
4.41827377245796
3.26799754122462
1.06569492451987
0.5990501273766
0.440782721475512
0.377686355722802
0.363430253939013
0.390135129836867
0.471912477372605
0.665959277032508
1.22808975237623
4.4146852410754
4.96589618098066
1.15409415037139
0.623834136984213
0.45439630509773
0.382591843260464
0.355419042238874
0.359764212542778
0.397692702317307
0.48739748299098
0.688614551133085
1.25808738654592
4.41296324740387
4.41226359148473
1.2849515655028
0.709224595844488
0.502238359016789
0.406736733660016
0.361348928130658
0.345811901658337
0.354103370085297
0.388871688578219
0.465693717547334
0.644338689771486
1.26984719059115
4.41200883858908
1.30875566913186
0.727816324569206
0.516125760631086
0.416220934261667
0.365595955924621
0.342757450288515
0.339817213868129
0.355428204000588
0.393885828485472
0.470345684624412
0.633700277186993
0.689402301868251
4.41193427130898
1.32965637552643
0.744407542823394
0.528887825584078
0.425576915377681
0.371149097111917
0.343306146727815
0.333145901081661
0.337567020232209
0.356915321008646
0.394974083867318
0.459768395918317
0.516451105308635
0.51401860728984
4.41188836110891
1.34783345836394
0.759058582513407
0.540433111074045
0.434470525706677
0.377230145872615
0.345853360583329
0.330825261360991
0.328171524102531
0.336669082925163
0.356755313960283
0.389372073881974
0.425770383367147
0.445844237777043
0.456458910445479
4.41189915727732
1.36347457463409
0.771847499604886
0.550724406300335
0.442700381663077
0.383364435502975
0.349450837618468
0.331044558897849
0.323687066147683
0.325449235764602
0.335637495705926
0.353750940191817
0.376542293289829
0.396277562634916
0.410369382845748
0.434025658819134
4.411892337025
1.37672628474224
0.782854380409878
0.559755883852607
0.450145839484984
0.389252638237213
0.353507515343679
0.33271939920731
0.32213574328626
0.319469839221917
0.323583776756358
0.333654591017069
0.348000087449767
0.363229705296001
0.376898117982065
0.393431482912958
0.424527159908092
4.41188509807234
1.38770382601899
0.792152953735726
0.567539895020195
0.456737312792892
0.394703470330764
0.357642760101
0.335167044983143
0.322331942151648
0.316648786075941
0.316776764344887
0.321812235045258
0.330655417977827
0.341539180270132
0.352875277557515
0.365749910610192
0.385711652102152
0.421332524328935
1.39645196329848