/*--------------------------------*- C++ -*----------------------------------*\
  =========                 |
  \\      /  F ield         | OpenFOAM: The Open Source CFD Toolbox
   \\    /   O peration     | Website:  https://openfoam.org
    \\  /    A nd           | Version:  12
     \\/     M anipulation  |
\*---------------------------------------------------------------------------*/
/*   Windows 32 and 64 bit porting by blueCAPE: http://www.bluecape.com.pt   *\
|  Based on Windows porting (2.0.x v4) by Symscape: http://www.symscape.com   |
\*---------------------------------------------------------------------------*/
FoamFile
{
    format      ascii;
    class       surfaceScalarField;
    location    "200";
    object      phi;
}
// * * * * * * * * * * * * * * * * * * * * * * * * * * * * * * * * * * * * * //

dimensions      [0 3 -1 0 0 0 0];

internalField   nonuniform List<scalar> 
29038
(
5.06471851642236e-06
1.86335898801907e-06
-1.92830495247872e-06
5.13947403823666e-06
1.83249310017659e-06
-1.90729855517697e-06
4.62078220601747e-06
3.31642439243015e-06
-1.488163365604e-06
4.23424472660309e-06
1.73034313523477e-06
-3.67508017125921e-06
5.22269161780547e-06
1.80863095413817e-06
-1.89189088640256e-06
4.66662855695719e-06
3.27202340201083e-06
-1.48547292366953e-06
4.26711885028351e-06
1.71830170053528e-06
-3.6585736604531e-06
4.77574143249899e-06
4.58793014637324e-06
-1.35254828523703e-06
4.1726320016313e-06
2.6702461826531e-06
-2.50276624986541e-06
4.12275036602603e-06
1.62908113805383e-06
-5.34204206937919e-06
5.31653861050782e-06
1.78246118714383e-06
-1.87634171121713e-06
4.72332951620666e-06
3.24177104825287e-06
-1.48991325336409e-06
4.31061132259805e-06
1.71847045212231e-06
-3.65394176876399e-06
4.86422094855484e-06
4.54932153283074e-06
-1.3658403648215e-06
4.26435205270018e-06
2.68368622718661e-06
-2.54269208743282e-06
4.1833666822273e-06
1.63895177231243e-06
-5.35820847195116e-06
4.92158268931953e-06
5.67742219008701e-06
-1.20146009477982e-06
3.27996997595511e-06
2.87453126059942e-06
-1.63202107603066e-06
2.8022706554996e-06
1.77533251254349e-06
-2.70227699963269e-06
4.26236741991061e-06
1.50736875323388e-06
-6.92973478080866e-06
5.42264483828915e-06
1.75374757103549e-06
-1.85989029221618e-06
4.79041666553174e-06
3.21010998361313e-06
-1.49480574907744e-06
4.36495651216294e-06
1.71624961946026e-06
-3.64700936813301e-06
4.96191176873618e-06
4.52641703495761e-06
-1.38240759350483e-06
4.37087345622905e-06
2.71454890145675e-06
-2.59260460811828e-06
4.25566382721514e-06
1.66212826513712e-06
-5.38842483326823e-06
5.03919233890125e-06
5.65217700558078e-06
-1.22052431897942e-06
3.36822071464318e-06
2.90379199442618e-06
-1.67428175455126e-06
2.87058442247504e-06
1.80157791995154e-06
-2.77369382034984e-06
4.36074213133083e-06
1.52848405260954e-06
-6.9851419585342e-06
5.03573268072067e-06
6.57396345259285e-06
-1.02756526795288e-06
2.74520021776848e-06
2.89490897083363e-06
-1.27928466986324e-06
1.76264991948645e-06
1.66487392886016e-06
-1.52402511565621e-06
2.24474662656041e-06
1.5680429474007e-06
-2.79690832048206e-06
4.27515418211948e-06
1.40359314842973e-06
-8.43778658440762e-06
5.54353019561813e-06
1.72291019521647e-06
-1.84382287690967e-06
4.86949207250658e-06
3.17473842755811e-06
-1.50012589952397e-06
4.4343915751336e-06
1.71009001316855e-06
-3.63950046821576e-06
5.06952491033334e-06
4.50228894777966e-06
-1.39984331221144e-06
4.49134133654069e-06
2.74576377997515e-06
-2.64486604231763e-06
4.34207022074029e-06
1.6838858676892e-06
-5.41735481981202e-06
5.16384314207208e-06
5.64182675049952e-06
-1.24011195779729e-06
3.47338357049785e-06
2.95111406636406e-06
-1.72419716980543e-06
2.95651873690032e-06
1.84453757868179e-06
-2.86101561779229e-06
4.46969239872839e-06
1.56225109765276e-06
-7.05967785005157e-06
5.17256140855005e-06
6.56073022431767e-06
-1.04542580439698e-06
2.81171373864685e-06
2.92755589384234e-06
-1.31086221361308e-06
1.77088817671193e-06
1.68658923252403e-06
-1.56756534339856e-06
2.28852913843816e-06
1.58947812601535e-06
-2.87852314824572e-06
4.39604193040094e-06
1.42510560425794e-06
-8.53118059469514e-06
5.07141437452682e-06
7.29737252457355e-06
-8.64217401387204e-07
2.44919539872358e-06
2.92771358422503e-06
-1.10752490827032e-06
1.51561249326842e-06
1.68825475086271e-06
-1.29334481966527e-06
1.40576090460704e-06
1.59887580377793e-06
-1.53695991130395e-06
1.95829933218209e-06
1.57839844267916e-06
-2.99397722919344e-06
4.00462314704449e-06
1.37959177840197e-06
-9.92798742175782e-06
5.68194396856796e-06
1.69049209233871e-06
-1.82892539144883e-06
4.96236411465675e-06
3.13562854812932e-06
-1.50566055006944e-06
4.52394966826235e-06
1.69989304154334e-06
-3.63334477586621e-06
5.1877400328397e-06
4.47389485117219e-06
-1.41742344218014e-06
4.62595636614496e-06
2.77300489822443e-06
-2.69774376961136e-06
4.44731021671832e-06
1.70090569840053e-06
-5.4456836917409e-06
5.29728690892874e-06
5.6304937133338e-06
-1.2616975885256e-06
3.5958855475381e-06
3.00276579358113e-06
-1.77941453849945e-06
3.06077635271757e-06
1.89085951660995e-06
-2.95614456743464e-06
4.59326044705455e-06
1.59520897827385e-06
-7.13617859364583e-06
5.31506901950611e-06
6.56173226551448e-06
-1.06244927105426e-06
2.89185867831834e-06
2.97714888784878e-06
-1.34633655768828e-06
1.79215332214897e-06
1.72267701577995e-06
-1.6236357813765e-06
2.34773115376608e-06
1.62498668884935e-06
-2.98299560752896e-06
4.52986120799043e-06
1.45712208368035e-06
-8.65067458938051e-06
5.21786259343122e-06
7.29481265294996e-06
-8.80567662990672e-07
2.5036651497307e-06
2.95876952165479e-06
-1.13115596235195e-06
1.50966790482909e-06
1.70514397303262e-06
-1.32349529194854e-06
1.39091192046354e-06
1.61435319333582e-06
-1.57761249435735e-06
1.98945282408611e-06
1.59542548296067e-06
-3.0800402571848e-06
4.13281516993567e-06
1.39852812052072e-06
-1.0057949354566e-05
5.03755106967519e-06
7.88667407073344e-06
-7.32287185684003e-07
2.25474559659219e-06
2.99641081420456e-06
-9.7409012812528e-07
1.41923857190938e-06
1.77673662729041e-06
-1.18622358270202e-06
1.25108391344132e-06
1.67787005785742e-06
-1.34699009516086e-06
1.26962878652379e-06
1.73534225651658e-06
-1.67061573684288e-06
1.70128207126087e-06
1.65195864806544e-06
-3.27914993595412e-06
3.52736552706895e-06
1.3928578205648e-06
-1.14261199348132e-05
5.83985245731101e-06
1.65665704602826e-06
-1.81460216283676e-06
5.07085603530593e-06
3.09306404338958e-06
-1.51112884273821e-06
4.63764014301411e-06
1.685537989134e-06
-3.62821843479478e-06
5.31675590873229e-06
4.44059137492732e-06
-1.43402730456792e-06
4.77461053004549e-06
2.79489763974984e-06
-2.7494022786617e-06
4.57475883123014e-06
1.71311421058168e-06
-5.47395990429929e-06
5.44052550722276e-06
5.61460749796486e-06
-1.2839998048666e-06
3.7352688916756e-06
3.05319620203613e-06
-1.83705099863932e-06
3.18349458246831e-06
1.93524851109735e-06
-3.0548548873082e-06
4.7371290897597e-06
1.62391237472763e-06
-7.21351545479459e-06
5.46496404624477e-06
6.56185007612869e-06
-1.08128749593694e-06
2.98672100189942e-06
3.03257286480831e-06
-1.38640688108654e-06
1.82695584195897e-06
1.76431528017809e-06
-1.68770024611052e-06
2.42387476840929e-06
1.66356937821453e-06
-3.10069461564494e-06
4.68133736886018e-06
1.48903904850769e-06
-8.77672580445618e-06
5.3683217730959e-06
7.30565189846996e-06
-8.94414789327386e-07
2.56905926848775e-06
3.00531364111448e-06
-1.15604978062798e-06
1.51289414438163e-06
1.73427810568738e-06
-1.3611863278509e-06
1.38596515272179e-06
1.64067151225628e-06
-1.63439163106218e-06
2.03463910940896e-06
1.62331786499696e-06
-3.19440875379366e-06
4.27686831452896e-06
1.42665438761414e-06
-1.02214139473569e-05
5.1862079054883e-06
7.89184819488849e-06
-7.45727456521007e-07
2.30222978305347e-06
3.02273753098022e-06
-9.92066007391461e-07
1.41209098373554e-06
1.78932226939435e-06
-1.2082010359855e-06
1.22747299369704e-06
1.68887920518169e-06
-1.37442804000682e-06
1.24921988000469e-06
1.74732306955531e-06
-1.70911855984543e-06
1.72237725441386e-06
1.66508762971991e-06
-3.36772096164568e-06
3.65129568121339e-06
1.412280750097e-06
-1.15941861750496e-05
4.97367833033291e-06
8.36558503551788e-06
-6.19456078294763e-07
2.11354476808349e-06
3.08083160864787e-06
-8.5440472218818e-07
1.36075785367165e-06
1.89140526618273e-06
-1.08199895562982e-06
1.19741198750191e-06
1.77902872346692e-06
-1.26414598798249e-06
1.14512444704867e-06
1.86562820439314e-06
-1.44803931425838e-06
1.15575554243828e-06
1.89606644143001e-06
-1.89034933785283e-06
1.45449596697514e-06
1.76743901678447e-06
-3.65878688817683e-06
2.95346185058997e-06
1.4555694761195e-06
-1.29734516414022e-05
6.0178092191509e-06
1.62174711196774e-06
-1.79973008800889e-06
5.19614951790807e-06
3.04635407410928e-06
-1.51504724364363e-06
4.77834939784167e-06
1.66690759836135e-06
-3.62229103698729e-06
5.45626899430601e-06
4.40135201680436e-06
-1.44785213809018e-06
4.9367626048635e-06
2.80983297739917e-06
-2.79764908426683e-06
4.72826755678384e-06
1.71943508630323e-06
-5.50121531677352e-06
5.59349744986388e-06
5.59259939845585e-06
-1.30502675012014e-06
3.89080728408423e-06
3.10012633488086e-06
-1.89485581041322e-06
3.32503665523347e-06
1.97652765279391e-06
-3.1544097928662e-06
4.90596575203933e-06
1.64777729323794e-06
-7.29061759924557e-06
5.62289193205425e-06
6.55742994262842e-06
-1.10079477650659e-06
3.09613979492663e-06
3.08823478343819e-06
-1.42850848272947e-06
1.8746097198991e-06
1.80560240688731e-06
-1.75508587505987e-06
2.51799770056726e-06
1.70027087995747e-06
-3.22537077508658e-06
4.85655455204228e-06
1.51774851136217e-06
-8.9065105759451e-06
5.52453904077018e-06
7.31559885886698e-06
-9.1000015771123e-07
2.64629442196589e-06
3.05791663254933e-06
-1.18390162819558e-06
1.52623542397066e-06
1.76894817095393e-06
-1.40440242427176e-06
1.39175499883223e-06
1.67135686140479e-06
-1.70129514687226e-06
2.0957762120064e-06
1.65355265114854e-06
-3.32637056522474e-06
4.44169323928885e-06
1.45546639317889e-06
-1.03970415469303e-05
5.33760085914254e-06
7.91007978059146e-06
-7.55850842929207e-07
2.3588773617451e-06
3.06369468259148e-06
-1.0094741825662e-06
1.41211063704198e-06
1.81262016730365e-06
-1.23442899435093e-06
1.21040032072702e-06
1.70840132549109e-06
-1.41185792492173e-06
1.23693505207246e-06
1.76727643965064e-06
-1.76608095620559e-06
1.75652486988085e-06
1.68667416632043e-06
-3.4885939409698e-06
3.79292726566413e-06
1.44122788849459e-06
-1.18042918107579e-05
5.11969066498386e-06
8.37511288762746e-06
-6.2930667811392e-07
2.15681728071162e-06
3.10194267047307e-06
-8.68234810302454e-07
1.35609037331149e-06
1.89986446110999e-06
-1.09795562694909e-06
1.17613507477092e-06
1.78572885415446e-06
-1.28378514172356e-06
1.11810948766001e-06
1.8730868831141e-06
-1.47319048136985e-06
1.13419794350229e-06
1.9050095441568e-06
-1.92749676611643e-06
1.46687175414821e-06
1.77880862578116e-06
-3.74663849112624e-06
3.06415295598594e-06
1.47249859017669e-06
-1.31773911495061e-05
4.91279654058825e-06
8.74766181615817e-06
-5.18448967502102e-07
2.00625920918552e-06
3.17095158630251e-06
-7.45287085508227e-07
1.32098810713229e-06
2.01490510881309e-06
-9.7501047767867e-07
1.16616352438485e-06
1.88942696698228e-06
-1.173592100663e-06
1.10182715912734e-06
1.9760433084839e-06
-1.34789458588452e-06
1.06082874086812e-06
2.07373421646057e-06
-1.59705914987714e-06
1.0462957575435e-06
2.08662886485281e-06
-2.18589073751963e-06
1.23086501996077e-06
1.96802102028287e-06
-4.17106879096557e-06
2.38487758054927e-06
1.65987598777477e-06
-1.47086494734856e-05
6.21449605153036e-06
-1.78294243839707e-06
1.58622834539908e-06
5.33834584734406e-06
2.99548166232344e-06
-1.51598736762398e-06
4.94771426214744e-06
1.64386377519371e-06
-3.61302761964752e-06
5.60524918087575e-06
4.35494798065254e-06
-1.45762734518819e-06
5.11109752712171e-06
2.81631503727581e-06
-2.83887099199644e-06
4.91050869132112e-06
1.71893907368218e-06
-5.52352591456539e-06
5.75493778174356e-06
5.56298556259187e-06
-1.3231174323351e-06
4.06138590653619e-06
3.14156057628395e-06
-1.95022768186486e-06
3.48522305375775e-06
2.01290876772148e-06
-3.25136104457451e-06
5.10356410434087e-06
1.66509981274838e-06
-7.36395544195581e-06
5.78825853902342e-06
6.54645773498608e-06
-1.11925544996692e-06
3.21976298153086e-06
3.14180156293951e-06
-1.4703768283247e-06
1.9351155727706e-06
1.8445907564559e-06
-1.82345378948233e-06
2.63154807359783e-06
1.7337787344298e-06
-3.35399616884703e-06
5.06079552272679e-06
1.5424440281732e-06
-9.0373327304968e-06
5.68726295298072e-06
7.32120673200431e-06
-9.26534026846784e-07
2.73524726570556e-06
3.11122208990424e-06
-1.21277524867488e-06
1.54925574949682e-06
1.8034257650278e-06
-1.4493692827896e-06
1.40819032110047e-06
1.70104073817205e-06
-1.77230983232921e-06
2.17470381634448e-06
1.68189007742235e-06
-3.46846560054794e-06
4.63452478852314e-06
1.48175557704138e-06
-1.05811131066173e-05
5.49297937700203e-06
7.92758943564291e-06
-7.67402139837188e-07
2.42506677406792e-06
3.11040193264393e-06
-1.02870879201684e-06
1.42012677142567e-06
1.8408658721458e-06
-1.2638541435902e-06
1.20120098580226e-06
1.73174931507615e-06
-1.45560897789257e-06
1.23390332420932e-06
1.79013837797481e-06
-1.83486315118438e-06
1.80581266150504e-06
1.7104310655105e-06
-3.63063610651764e-06
3.95786148079949e-06
1.47143959897962e-06
-1.2033423913298e-05
5.26744981255055e-06
8.39821975582644e-06
-6.35921534691829e-07
2.20780066456186e-06
3.13708608067007e-06
-8.80255099761491e-07
1.35733565954127e-06
1.91788403092231e-06
-1.11599269013214e-06
1.15982395521283e-06
1.79978839882691e-06
-1.30951418274681e-06
1.09642153586095e-06
1.88679515583304e-06
-1.50970134142897e-06
1.11955469174643e-06
1.92005974366747e-06
-1.98483447467191e-06
1.49107981637847e-06
1.79803600370543e-06
-3.86961632721322e-06
3.19310590199009e-06
1.49900856050731e-06
-1.34322555598839e-05
5.05364775978989e-06
8.76094296638011e-06
-5.26708135535555e-07
2.04677085979432e-06
3.18762923289008e-06
-7.55536699328473e-07
1.32002831205433e-06
2.01910069635515e-06
-9.86521166307548e-07
1.14937339804311e-06
1.89176845678705e-06
-1.18721407787476e-06
1.07730174660428e-06
1.97906355946084e-06
-1.36524693825409e-06
1.03446913981726e-06
2.07806492119506e-06
-1.61989929561688e-06
1.02509289597933e-06
2.09313039845011e-06
-2.22062640192492e-06
1.23688617357188e-06
1.97795149105009e-06
-4.25810957794861e-06
2.47963965523533e-06
1.67438635385523e-06
-1.49465253026239e-05
4.86514179777668e-06
9.04927061407309e-06
-4.32978696655139e-07
1.92808619051555e-06
3.26438140650916e-06
-6.46417484617759e-07
1.29351653148782e-06
2.13881794289167e-06
-8.69955934871845e-07
1.14728015468405e-06
2.0024789465191e-06
-1.07446066051674e-06
1.07828157270502e-06
2.07536727458024e-06
-1.25122695788583e-06
1.0278307075326e-06
2.19621140770524e-06
-1.44480089619465e-06
9.83652976622836e-07
2.29877571510351e-06
-1.7833026904441e-06
9.44206238916371e-07
2.34082060444484e-06
-2.53734975982646e-06
1.03831512863292e-06
2.30175182060526e-06
-4.8107321396142e-06
1.87889668014565e-06
2.04669564312507e-06
-1.68158144192965e-05
6.42645291950046e-06
-1.76194221320027e-06
1.54995309793181e-06
5.14437111399386e-06
-3.5961074040489e-06
1.61643128384827e-06
5.4954293967888e-06
-1.51188614735406e-06
2.94094626681269e-06
5.761333113459e-06
4.30086131169221e-06
-1.46150939187332e-06
5.29475772897959e-06
2.81307981864225e-06
-2.86895774292206e-06
5.12244643353579e-06
1.71052201954451e-06
-5.53554989072857e-06
5.92223964627576e-06
5.52420086984444e-06
-1.3366033530656e-06
4.24484241024217e-06
3.17540865669816e-06
-2.00023625438337e-06
3.66296879199581e-06
2.04280941266826e-06
-3.34054802748422e-06
5.33308266189015e-06
1.67405872708365e-06
-7.4271499749593e-06
5.95934841161255e-06
6.52717686891398e-06
-1.13532033685608e-06
3.35673314059148e-06
3.19125968984776e-06
-1.50984131644942e-06
2.00835797588161e-06
1.87968695951396e-06
-1.89028085644385e-06
2.76541366526428e-06
1.7625750460881e-06
-3.48274052749614e-06
5.29949888689361e-06
1.56100228324275e-06
-9.16369706050191e-06
5.85582559981038e-06
7.32027668368762e-06
-9.42417390973557e-07
2.83557167032208e-06
3.16290504628914e-06
-1.24072594826347e-06
1.58182528698225e-06
1.83560721795199e-06
-1.49398341105801e-06
1.43571167422581e-06
1.72778061841661e-06
-1.84499658333909e-06
2.27392837343843e-06
1.70701522022385e-06
-3.61782019887338e-06
4.8628265962309e-06
1.50503246011923e-06
-1.07706918048999e-05
5.65283569203033e-06
7.94066994695729e-06
-7.79350606474654e-07
2.50049212790875e-06
3.1575308854375e-06
-1.0482998210941e-06
1.43580437752028e-06
1.86859463559334e-06
-1.29363535447324e-06
1.19992819987283e-06
1.75391867008387e-06
-1.50098987381499e-06
1.24063946603294e-06
1.81148082287485e-06
-1.90865287642377e-06
1.87266071125969e-06
1.73239178285803e-06
-3.78596931985924e-06
4.15429879163789e-06
1.50005111364896e-06
-1.22776102132513e-05
5.41742635196679e-06
8.42083605695743e-06
-6.4324925126808e-07
2.26636804949026e-06
3.17762842992999e-06
-8.93225455434245e-07
1.36511843867441e-06
1.94008837880841e-06
-1.13572847233637e-06
1.14953297010769e-06
1.8169527232093e-06
-1.33877894786389e-06
1.081208088289e-06
1.90293668352933e-06
-1.55320681084421e-06
1.11309820316705e-06
1.93726982995033e-06
-2.05525473676898e-06
1.52932812652741e-06
1.81935089278867e-06
-4.01680043503107e-06
3.34642989933361e-06
1.52760527663774e-06
-1.37143347571428e-05
5.19498250845306e-06
8.78783531271173e-06
-5.30965025334765e-07
2.09369475417949e-06
3.2176652915847e-06
-7.63451805710651e-07
1.32398112267568e-06
2.03238384856245e-06
-9.98719107489936e-07
1.1369587600096e-06
1.90067967575559e-06
-1.20447889681287e-06
1.05693215951913e-06
1.9870781585101e-06
-1.38943849349743e-06
1.01275506938251e-06
2.08709909209168e-06
-1.65503862148043e-06
1.01004949624025e-06
2.10535583439914e-06
-2.27712181103145e-06
1.25326150000621e-06
1.99606065359215e-06
-4.38303315713387e-06
2.59229695508681e-06
1.70018344784504e-06
-1.52450701430014e-05
5.00014360519338e-06
9.06521681407161e-06
-4.39295602019269e-07
1.96651363517046e-06
3.27640663094114e-06
-6.53935040225453e-07
1.29615846469195e-06
2.13881917931773e-06
-8.77906541759362e-07
1.13549453624166e-06
2.00070547101399e-06
-1.08368008813764e-06
1.05867531678685e-06
2.07439322729029e-06
-1.26294706689636e-06
1.004404593216e-06
2.19647363132968e-06
-1.460240008059e-06
9.59770248481043e-07
2.30080214736678e-06
-1.80369954086689e-06
9.24698212912785e-07
2.34555801865387e-06
-2.5687316521296e-06
1.04099679299791e-06
2.31059695735229e-06
-4.89698548903789e-06
1.95919386524754e-06
2.05871298359248e-06
-1.70855042098475e-05
4.83595891495344e-06
9.28660589534283e-06
-3.62739628283902e-07
1.87285417279818e-06
3.3553113522227e-06
-5.57735528670698e-07
1.2748763247085e-06
2.25788851052182e-06
-7.6971005192206e-07
1.13666394295938e-06
2.11359004595419e-06
-9.72539277839031e-07
1.06616869292787e-06
2.1680013498239e-06
-1.15084764602969e-06
1.00996946317951e-06
2.28612673733567e-06
-1.3204897405035e-06
9.63020263194446e-07
2.42588044541946e-06
-1.54946728713838e-06
9.13334317184965e-07
2.56408944550841e-06
-1.98472343015984e-06
8.53841515751197e-07
2.69128377763673e-06
-2.90931712827658e-06
8.90060747284761e-07
2.80741667096554e-06
-5.57020425556397e-06
1.46737425800261e-06
2.97535668696634e-06
-1.9839231615393e-05
6.64690240467261e-06
-1.73418114246156e-06
1.51370253161364e-06
5.36346971068816e-06
-3.56534246474444e-06
1.58422270847952e-06
5.6642694722248e-06
-1.50191761112315e-06
2.88296558186296e-06
5.36165810273944e-06
-5.52812421072073e-06
1.69275929659088e-06
5.48309640668076e-06
-2.88312016551892e-06
2.79923933958823e-06
5.92076657587623e-06
-1.45745107116238e-06
4.23891059758714e-06
6.09175048850281e-06
5.47495261107101e-06
-1.34364841995133e-06
4.43773666521419e-06
3.19970021073335e-06
-2.04109459475929e-06
3.85575717154664e-06
2.06426275267301e-06
-3.41554028968881e-06
5.59577396342259e-06
1.67311071779112e-06
-7.47139950884757e-06
6.13331460821466e-06
6.49738908660635e-06
-1.1471988853047e-06
3.50536226057244e-06
3.23459697488088e-06
-1.54447952019053e-06
2.09378693861299e-06
1.90926383961695e-06
-1.95214844974402e-06
2.91980690718013e-06
1.78488208732503e-06
-3.60580683985747e-06
5.57825132616489e-06
1.57160263084044e-06
-9.27754540716424e-06
6.02709120330054e-06
7.31018369374808e-06
-9.5429948455111e-07
2.9465711650779e-06
3.21080863700593e-06
-1.26591453564906e-06
1.62377902183187e-06
1.86394497524134e-06
-1.53607405950932e-06
1.47472880065101e-06
1.75000843393529e-06
-1.91674895506414e-06
2.39571361017914e-06
1.72734798324084e-06
-3.77090215543301e-06
5.13452134338715e-06
1.52385736396729e-06
-1.09592690160295e-05
5.81542659347326e-06
7.94702852933483e-06
-7.89369954579788e-07
2.58449098374555e-06
3.20292776001474e-06
-1.06647750731446e-06
1.45893732545971e-06
1.89375394673793e-06
-1.32201988947215e-06
1.20675128340424e-06
1.77292546348488e-06
-1.54596597221779e-06
1.25808928309981e-06
1.82954004846787e-06
-1.98498512489757e-06
1.96080504101742e-06
1.75135121946958e-06
-3.9523033055949e-06
4.39210127673855e-06
1.52700495646893e-06
-1.25355051384472e-05
5.56953229502354e-06
8.43942080639421e-06
-6.50878940211123e-07
2.33204708677115e-06
3.21847711041208e-06
-9.06003740095098e-07
1.37905556734292e-06
1.96129914161807e-06
-1.15495391984971e-06
1.14547454290503e-06
1.83242836454449e-06
-1.36809934493947e-06
1.07304768447085e-06
1.91717891463541e-06
-1.5985401257581e-06
1.11581537636858e-06
1.9526585410557e-06
-2.13164820271644e-06
1.58455631671338e-06
1.8394448782006e-06
-4.18059229611914e-06
3.53379959849033e-06
1.5557435542151e-06
-1.40207187139937e-05
5.33696274242568e-06
8.81459706788515e-06
-5.35760579088695e-07
2.14685095282325e-06
3.25278685901948e-06
-7.71588209172352e-07
1.33323711877556e-06
2.04912549642109e-06
-1.01152855293964e-06
1.1296471189605e-06
1.91216766407197e-06
-1.22364267392033e-06
1.04177362967246e-06
1.99694589773794e-06
-1.41763979863055e-06
9.96820041278463e-07
2.09787134129127e-06
-1.69788616322517e-06
1.00237941554098e-06
2.11946817407486e-06
-2.34771045776185e-06
1.28235504638477e-06
2.01672617556134e-06
-4.53500427748648e-06
2.72880328900515e-06
1.72982711017194e-06
-1.55806370495593e-05
5.13433212468629e-06
9.09556413815897e-06
-4.41938367800718e-07
2.01031698242421e-06
3.30152670415022e-06
-6.58647741342449e-07
1.30314281015249e-06
2.14770791703225e-06
-8.85769874517614e-07
1.12745901980704e-06
2.00490214096367e-06
-1.09491197787419e-06
1.04253679858613e-06
2.07751155639799e-06
-1.27878125337054e-06
9.84563095948724e-07
2.20024375182256e-06
-1.48275295775214e-06
9.40057173126237e-07
2.30680296207678e-06
-1.83678276820866e-06
9.10536235794482e-07
2.35619605157411e-06
-2.62309938207702e-06
1.05222049062321e-06
2.3289850184324e-06
-5.02303373912825e-06
2.05584017207773e-06
2.08448057162967e-06
-1.74261485066733e-05
4.9640763377787e-06
9.30448597892599e-06
-3.67405297042771e-07
1.90993524343846e-06
3.36325808817429e-06
-5.63245759823739e-07
1.28064167343694e-06
2.25407068138494e-06
-7.74958858793373e-07
1.12975414120778e-06
2.10812047348029e-06
-9.78417270716678e-07
1.05184920603196e-06
2.16338537636739e-06
-1.15835859831241e-06
9.91392161811509e-07
2.28268782980564e-06
-1.33059093047109e-06
9.42574988578398e-07
2.42398467919859e-06
-1.56298688480202e-06
8.93053652590502e-07
2.56443488134176e-06
-2.00230451668588e-06
8.37439236908835e-07
2.69490630989588e-06
-2.93664164663824e-06
8.92961903634156e-07
2.81540186935291e-06
-5.65654949672281e-06
1.53760458703044e-06
2.98028296967814e-06
-2.01359766108169e-05
4.821903661219e-06
9.47134474605861e-06
-3.04055908531551e-07
1.83386191514231e-06
3.43894288844725e-06
-4.79683436993386e-07
1.26211357679828e-06
2.36876068350459e-06
-6.75974745084121e-07
1.13062784294375e-06
2.21915154020196e-06
-8.7137631662072e-07
1.06076876040569e-06
2.25455960959479e-06
-1.04806653617964e-06
1.00178021436975e-06
2.35798605470703e-06
-1.20724173662185e-06
9.51755928244001e-07
2.50317062166438e-06
-1.38004586564021e-06
9.06430096992693e-07
2.6790569754839e-06
-1.64623195427118e-06
8.51164354237582e-07
2.88686055934417e-06
-2.16356261865384e-06
7.84690852724864e-07
3.16444640614222e-06
-3.2544492997193e-06
8.18532716991999e-07
3.73757435193632e-06
-6.33564395528505e-06
1.01953663983224e-06
5.69829494247406e-06
6.86387110796823e-06
-1.69428422546842e-06
1.47727911885383e-06
5.5970036031693e-06
-3.51360165758432e-06
1.54582694600441e-06
5.83780482174245e-06
-1.48051312275614e-06
2.82061929131002e-06
5.62270950511137e-06
-5.49193701328425e-06
1.66548434351955e-06
5.66847866363756e-06
-2.87638412439059e-06
2.77322033166567e-06
6.07767601088443e-06
-1.4426844000927e-06
4.1687008991435e-06
5.88958095755385e-06
-7.48226194079713e-06
1.6602874586881e-06
4.05901042605496e-06
-3.46842831042379e-06
2.07474663950038e-06
4.63501343091131e-06
-2.0681193822393e-06
3.21255833319965e-06
6.25811517883202e-06
-1.34182056125846e-06
5.41432269751927e-06
6.30554455355711e-06
6.45559577326286e-06
-1.15291184514377e-06
3.66292055940725e-06
3.26979877106493e-06
-1.57135187616019e-06
2.19004933960578e-06
1.93147323187923e-06
-2.00460115774501e-06
3.09369803531055e-06
1.79868833932567e-06
-3.71505397775609e-06
5.8998375846494e-06
1.5721432716325e-06
-9.36516544946822e-06
6.1977891532355e-06
7.28919723000727e-06
-9.62538142217502e-07
3.06678359116258e-06
3.25346841726208e-06
-1.28631866017112e-06
1.67459310145462e-06
1.88687268904472e-06
-1.57292443759673e-06
1.52538697739715e-06
1.76603402114673e-06
-1.98398081879883e-06
2.54211778735798e-06
1.74101750027003e-06
-3.92165487355576e-06
5.45919182624187e-06
1.53567116091452e-06
-1.11379074193091e-05
5.97840264119441e-06
7.944730544221e-06
-7.97553738919789e-07
2.67691494276286e-06
3.24553144094177e-06
-1.08148783072006e-06
1.48924962429496e-06
1.91483988598763e-06
-1.34713893313613e-06
1.22181665794482e-06
1.78719345816377e-06
-1.58834244879182e-06
1.28739353548226e-06
1.84259473438492e-06
-2.06131726573149e-06
2.07461373734403e-06
1.76590598116129e-06
-4.12677600377728e-06
4.6839755335502e-06
1.55061418688396e-06
-1.28017649991728e-05
5.72237454834661e-06
8.4519029022195e-06
-6.5774371291368e-07
2.40467288022723e-06
3.25792185987061e-06
-9.17012646082379e-07
1.39883225870252e-06
1.97957011088945e-06
-1.1720835469282e-06
1.14775744281994e-06
1.84424111912899e-06
-1.39563276898176e-06
1.07257509211584e-06
1.92758492930761e-06
-1.64355332896816e-06
1.1293783671463e-06
1.9646097557596e-06
-2.21181899901128e-06
1.66172807245021e-06
1.85739500818258e-06
-4.35986942285254e-06
3.76703307729945e-06
1.58411686503472e-06
-1.43528499287878e-05
5.47926448637787e-06
8.83800169460517e-06
-5.40906827514208e-07
2.20567940733663e-06
3.2878968171287e-06
-7.79155223812692e-07
1.34744986173074e-06
2.06431951543742e-06
-1.0232486035778e-06
1.12737187926079e-06
1.92160103090061e-06
-1.24186268866868e-06
1.03221106948076e-06
2.00455869157149e-06
-1.44592860991901e-06
9.87423199308713e-07
2.10646996204893e-06
-1.74296833013555e-06
1.00334823202233e-06
2.13193558475999e-06
-2.42511597341311e-06
1.32765516552237e-06
2.03684918835938e-06
-4.70698633548638e-06
2.90014981499321e-06
1.76058777236194e-06
-1.5952616382002e-05
5.26746087507144e-06
9.12646183451424e-06
-4.4500777899104e-07
2.05909856649396e-06
3.33146392292313e-06
-6.63242253791277e-07
1.31441030912472e-06
2.15980510165863e-06
-8.9354331486289e-07
1.12374609038275e-06
2.01112874752514e-06
-1.10678475457293e-06
1.03065567404723e-06
2.08174072161723e-06
-1.29656378569807e-06
9.69294794058298e-07
2.20488103982663e-06
-1.50939089805066e-06
9.25607237298809e-07
2.31404297998986e-06
-1.87802228091596e-06
9.0313781328312e-07
2.36918144825572e-06
-2.69277157918385e-06
1.07446264142601e-06
2.35128778764582e-06
-5.17867969049326e-06
2.17431785440309e-06
2.11629121714417e-06
-1.78153513594353e-05
5.09030814059278e-06
9.33751735649363e-06
-3.68205135868091e-07
1.95136112998598e-06
3.38397608735422e-06
-5.65831889180673e-07
1.29027946078447e-06
2.2589017781166e-06
-7.79487149848452e-07
1.12603927170632e-06
2.10810504767604e-06
-9.85264191460004e-07
1.04051262434353e-06
2.16220323643006e-06
-1.16827260213127e-06
9.75839958289304e-07
2.28187312340851e-06
-1.34486494482098e-06
9.25356421498202e-07
2.42481321126188e-06
-1.5835538354688e-06
8.76461828647378e-07
2.56860353891789e-06
-2.03260777946626e-06
8.25530713087577e-07
2.70507312073129e-06
-2.98727908965644e-06
9.02736066214939e-07
2.83521388593044e-06
-5.783503541903e-06
1.62038506949743e-06
3.00889507927096e-06
-2.05177723242276e-05
4.94280593280798e-06
9.49073492497782e-06
-3.07173551105369e-07
1.86977113851886e-06
3.44347216359517e-06
-4.8354897344526e-07
1.27065265688884e-06
2.36154364835969e-06
-6.79262810779181e-07
1.12810078638204e-06
2.21039397211081e-06
-8.7471148598758e-07
1.05145817980245e-06
2.24665998207633e-06
-1.05238731814077e-06
9.8824247669247e-07
2.35121482139178e-06
-1.21335183853342e-06
9.36000375803183e-07
2.4977525822181e-06
-1.38860960130448e-06
8.89981762296889e-07
2.67549966787044e-06
-1.6576123952595e-06
8.35491697479129e-07
2.88597535769584e-06
-2.17770960778707e-06
7.73230754006256e-07
3.16730442945937e-06
-3.27708232443953e-06
8.2834344891225e-07
3.74316359481223e-06
-6.42921741617841e-06
1.07659787715652e-06
5.73105364389944e-06
4.81902538028447e-06
9.61291994318597e-06
-2.54664725215711e-07
1.80621372045037e-06
3.51336579827398e-06
-4.11283848377201e-07
1.2533243208118e-06
2.46939212390445e-06
-5.90356680813513e-07
1.12712444065616e-06
2.31705048307506e-06
-7.74077040031128e-07
1.05847509392764e-06
2.33466691245862e-06
-9.4518952098973e-07
9.99009672558713e-07
2.41871567498123e-06
-1.09823512574156e-06
9.47330430327975e-07
2.55362885974423e-06
-1.24473758407366e-06
9.02496139382257e-07
2.73408185370642e-06
-1.42125250633101e-06
8.57076994561282e-07
2.96313086497214e-06
-1.70935423388486e-06
8.01233059403495e-07
3.27130114269765e-06
-2.26001906806435e-06
7.5298808890675e-07
3.79167936529192e-06
-3.30415177792735e-06
9.43244519193615e-07
5.07708954975892e-06
7.06016355148954e-06
-1.63730061426881e-06
1.44097652454751e-06
5.83295492963405e-06
-3.43273697075128e-06
1.50243070010689e-06
6.00541967590104e-06
-1.44417097597393e-06
2.75377866469552e-06
5.89560801652583e-06
-5.41382131070385e-06