/*--------------------------------*- C++ -*----------------------------------*\
  =========                 |
  \\      /  F ield         | OpenFOAM: The Open Source CFD Toolbox
   \\    /   O peration     | Website:  https://openfoam.org
    \\  /    A nd           | Version:  12
     \\/     M anipulation  |
\*---------------------------------------------------------------------------*/
/*   Windows 32 and 64 bit porting by blueCAPE: http://www.bluecape.com.pt   *\
|  Based on Windows porting (2.0.x v4) by Symscape: http://www.symscape.com   |
\*---------------------------------------------------------------------------*/
FoamFile
{
    format      ascii;
    class       volVectorField;
    location    "200";
    object      U;
}
// * * * * * * * * * * * * * * * * * * * * * * * * * * * * * * * * * * * * * //

dimensions      [0 1 -1 0 0 0 0];

internalField   nonuniform List<vector> 
10166
(
(-0.000117597357072066 -0.000224729338383596 -0.000373748580602397)
(-0.000117120952959912 -0.000226663169901036 -0.000453627398054899)
(-0.000172828559839391 -0.000474258121926464 -0.000378381710964843)
(-0.000249804224435064 -0.000249390569405959 -0.000598767228598869)
(-0.0001148245759442 -0.000225582683458199 -0.000529855919613709)
(-0.000171495690967662 -0.000481218684738862 -0.000473214984937462)
(-0.000251859135564505 -0.000251454800156635 -0.00069911627846253)
(-0.000118026066660048 -0.000542984395106212 -0.000135796205196355)
(-0.000296765084404713 -0.000356374912382233 -0.000252877278194469)
(-0.000409455252446983 -0.000170567654770978 -0.000454297163715622)
(-0.00011224249339508 -0.000223954407009918 -0.000603362274108117)
(-0.000166700645382059 -0.00048124073136194 -0.000561423157110372)
(-0.000248784559496992 -0.000247877253821447 -0.000792725775487656)
(-0.000115274594099844 -0.000553001905159888 -0.000211656223636359)
(-0.000294519086661336 -0.000359128793844179 -0.000338746664071454)
(-0.000408064119899196 -0.000169713505146373 -0.000547930151058822)
(-4.00093643113496e-05 -0.000478978423774412 1.74266379020091e-05)
(-0.000195865728546654 -0.000322702979021607 -4.84493753663459e-05)
(-0.000374395032202674 -0.000182124363916536 -0.00013559296351557)
(-0.000507257464932843 -7.6029495689696e-05 -0.000264781422868096)
(-0.000109483651958211 -0.000221600366405864 -0.000673675052477085)
(-0.00016196067200696 -0.00048025263989113 -0.000647026565490288)
(-0.000245351502620989 -0.00024349281884453 -0.00088445767378192)
(-0.00011049269684044 -0.000554822993765883 -0.000282058070316143)
(-0.000286463482758825 -0.00035351166717059 -0.000416040764812066)
(-0.000399144417556928 -0.000163561177901777 -0.000635288339447176)
(-3.85498483766097e-05 -0.00049052854193163 -4.32538773886765e-05)
(-0.00019322392235041 -0.000324847613600631 -0.000113765086269062)
(-0.000370322380096105 -0.000182322278310434 -0.000206253418898413)
(-0.000506429930416735 -7.30555053849371e-05 -0.000343074684299473)
(1.85390192621893e-05 -0.000353489095197217 0.000123944107560134)
(-8.81509895258893e-05 -0.000275906367784965 4.46281682409684e-05)
(-0.000224034944104386 -0.000143617146531994 -6.27235445371566e-07)
(-0.00039364375897192 -2.327336809629e-05 -2.87412282070268e-05)
(-0.000522391242277901 2.15434503775872e-05 -0.000119501285007528)
(-0.000105931821560615 -0.0002183611354355 -0.000740095329869462)
(-0.000156458325995038 -0.000478417313325711 -0.000729659975278314)
(-0.000240617809459128 -0.000238448597298019 -0.000973257478972793)
(-0.000105982705120418 -0.000555389320527347 -0.000349868712895109)
(-0.000277382608985062 -0.000346804595561364 -0.000490521259140867)
(-0.000389268550964209 -0.000156604329696562 -0.000720764561589411)
(-3.58626250190942e-05 -0.000493297126566886 -9.8967910763504e-05)
(-0.000186021715948671 -0.000318027053704091 -0.000170988159747818)
(-0.000358938502384315 -0.000175685646231458 -0.000269621694843502)
(-0.000496401066003248 -6.64498316657248e-05 -0.000417389925577038)
(1.89369202935229e-05 -0.000364894412869942 7.54736442762428e-05)
(-8.66972264946316e-05 -0.000278627604212391 -8.80025568744143e-06)
(-0.000223263560019362 -0.00014573829643046 -5.93053281105641e-05)
(-0.000391266796332892 -2.29096972069697e-05 -8.88496405648379e-05)
(-0.000522415965722109 2.25577041225314e-05 -0.000187652645247082)
(5.2424734897918e-05 -0.000201267884329494 0.000200833654118521)
(-6.24800640990668e-06 -0.000210197569468232 9.96315025549497e-05)
(-7.43040887446514e-05 -7.61329773930119e-05 9.20257472381009e-05)
(-0.000194077116349367 4.5596563260757e-05 8.29178336440878e-05)
(-0.000384532412966121 0.000107135750441972 3.68346993465861e-05)
(-0.000463603716743821 0.000103940947887894 -3.31385353206766e-05)
(-0.000100868547728955 -0.000214179648273692 -0.000800640947243488)
(-0.000149800844509879 -0.000475355396119678 -0.000808585521698528)
(-0.000233197048462869 -0.000233268850416738 -0.0010573515579212)
(-0.000101062767125857 -0.000555039132055048 -0.000415722899758825)
(-0.000267162706970624 -0.000340229486428328 -0.000563217950560128)
(-0.000376842321953096 -0.000149965385692671 -0.000802101368838035)
(-3.29434712607882e-05 -0.000494858213373432 -0.000152474689477706)
(-0.000177362979616355 -0.000309100801191138 -0.000224289145963556)
(-0.000344524573202239 -0.000167538567822164 -0.000329363617247412)
(-0.000483481885966818 -5.99121023749083e-05 -0.000491299077324038)
(2.03630513789722e-05 -0.000367447076644189 3.20171794534114e-05)
(-8.23382452221645e-05 -0.000273033172344261 -5.56659776638236e-05)
(-0.000217083450646633 -0.000141550757932391 -0.000111731860146165)
(-0.00038041986901953 -1.74969643626579e-05 -0.000143742995381737)
(-0.000511280480937285 2.60190898072711e-05 -0.000252872605645756)
(5.20657171805127e-05 -0.000212344706486009 0.00016213988416372)
(-5.47497417237879e-06 -0.000213554685141487 5.53657133834607e-05)
(-7.43820216155885e-05 -7.95618597517123e-05 4.46830704549422e-05)
(-0.00019511546254101 4.33737919122387e-05 3.3200078818288e-05)
(-0.000384328893179764 0.000107556985868492 -1.58046901168179e-05)
(-0.000466172537567854 0.000102951746522301 -9.41005939569055e-05)
(6.27501588892481e-05 -4.33874709112583e-05 0.000256576826429112)
(4.65768852303395e-05 -0.000133199944908505 0.00013493419227893)
(2.6914581088313e-05 1.95236390932045e-06 0.000146544404691381)
(-2.93734909901971e-05 0.00012569733621438 0.000157231401225074)
(-0.000147286270994394 0.000196240595504823 0.000133149641690783)
(-0.000345558879043426 0.000210133512952081 7.28412833652345e-05)
(-0.000352060046795712 0.000177576103187249 1.95570438705325e-05)
(-9.38211939680878e-05 -0.000208989608128555 -0.000853089580262657)
(-0.000141569039211695 -0.000470041835762855 -0.00088213229399765)
(-0.000222269897037958 -0.000227945336762814 -0.00113480611783866)
(-9.55307157220028e-05 -0.000552939801241178 -0.000479035803021431)
(-0.000255294849215269 -0.00033355295648363 -0.000634019167686531)
(-0.000360523288293453 -0.000143845389213842 -0.00088018121571231)
(-2.97608763223906e-05 -0.000495872664738897 -0.000204062835668593)
(-0.000167915470592664 -0.000299935428214304 -0.000275414681519685)
(-0.000328236215406655 -0.000159543844704006 -0.000387275526479234)
(-0.000467322342671042 -5.36843304179273e-05 -0.000564017737265243)
(2.19698638058349e-05 -0.00036879309540533 -9.18792900527615e-06)
(-7.65525066138126e-05 -0.000264976776267769 -9.88406516067382e-05)
(-0.000207966709483493 -0.000134959088633095 -0.000160511691900961)
(-0.00036524223750686 -1.08069811961762e-05 -0.000195788812142236)
(-0.000496430182233418 2.95979947148435e-05 -0.000318233375281628)
(5.26482768093192e-05 -0.000214862575769659 0.000128267061808741)
(-2.9358214704936e-06 -0.000209303843449132 1.66956470906902e-05)
(-7.1106112884309e-05 -7.74414810837597e-05 2.19632548054385e-06)
(-0.000190148221739195 4.54453297508331e-05 -1.20125387178099e-05)
(-0.000374665344006812 0.000111157906853507 -6.47813087331692e-05)
(-0.000455588075857855 0.000104244004144359 -0.000152678568566262)
(6.22843391371365e-05 -5.42889522836369e-05 0.000225655729762187)
(4.68597394320164e-05 -0.000137682605997255 9.79906540081865e-05)
(2.65523090522391e-05 -2.52470578411838e-06 0.000107873651593844)
(-3.04953356788633e-05 0.000122301510310417 0.000117570227886058)
(-0.000150121876784607 0.00019387471592274 9.03623215955664e-05)
(-0.000348226662540959 0.000209147329311442 2.53919439286294e-05)
(-0.000357721817194214 0.000175951707224067 -3.5585513943567e-05)
(5.97510166553243e-05 0.000106065732965155 0.000297791360583664)
(7.59045563304978e-05 -4.94933227024079e-05 0.00015893880340044)
(8.71551813229967e-05 8.21442501790841e-05 0.000180408369571351)
(7.42940709649898e-05 0.000204500941615145 0.00019963667348573)
(2.27441491927451e-05 0.000285174898895596 0.000193761679071751)
(-8.43780639257779e-05 0.000317363552166803 0.000160179766024124)
(-0.000269393302111206 0.000286987302958383 9.385258740717e-05)
(-0.000189579650364262 0.000250187685676537 4.91444634184151e-05)
(-8.48279526965978e-05 -0.000202636833405469 -0.000895122536674815)
(-0.000131867066529713 -0.000462091779911869 -0.000948492244712609)
(-0.000207322106609183 -0.00022194787704239 -0.0012038384626042)
(-8.99474043188353e-05 -0.00054883265151286 -0.000538968667067539)
(-0.000241303133740686 -0.000326425390441922 -0.000702014537020876)
(-0.000339149131391949 -0.000138160835947232 -0.000953113434739672)
(-2.65055667544386e-05 -0.000495998100281074 -0.000253356809531392)
(-0.000157623395561969 -0.00029062221880535 -0.000324306538872172)
(-0.00031001267326549 -0.000151521769985313 -0.000443420848441558)
(-0.000446110774114818 -4.74115334237315e-05 -0.000635061235841032)
(2.35584533890054e-05 -0.000369751360937239 -4.8616086679468e-05)
(-7.01812641554939e-05 -0.000256600965855843 -0.000139800910341443)
(-0.000197554800396198 -0.000128155502279249 -0.000207664975034202)
(-0.000347689928570445 -4.29826595131923e-06 -0.000246563416549338)
(-0.00047756532353952 3.32872404146903e-05 -0.000383659705726119)
(5.33650102442665e-05 -0.000216319619961355 9.65653934566447e-05)
(6.44399503352697e-07 -0.000202456825330577 -1.85644913723251e-05)
(-6.57355810301635e-05 -7.28877516254427e-05 -3.71343080274143e-05)
(-0.00018157047410237 4.92662351078371e-05 -5.4450580756863e-05)
(-0.00035969936126317 0.000115524692885233 -0.000111783857061803)
(-0.000440559577561243 0.000105663941180913 -0.000212110965617108)
(6.2463414917699e-05 -5.70495014449446e-05 0.000199506961315737)
(4.81569501180798e-05 -0.000135135360454601 6.61086652421444e-05)
(2.82176323931959e-05 -2.04747244898274e-06 7.33105810292367e-05)
(-2.79454280840028e-05 0.000122512773501561 8.1367535382625e-05)
(-0.000146479770089941 0.000194363203295832 5.07375843141841e-05)
(-0.000340628662616634 0.000210269910556644 -1.95669604368837e-05)
(-0.000348640603539804 0.000176616010114533 -8.92784466170599e-05)
(5.94756555354061e-05 9.44539922671506e-05 0.000272918606074541)
(7.62547145634475e-05 -5.54798447733568e-05 0.000128044510189443)
(8.65858946653351e-05 7.65656865264097e-05 0.000148561520935292)
(7.32137785082629e-05 0.000200121125446025 0.000167527314512307)
(2.06117102026012e-05 0.000281635889410596 0.000159952399694849)
(-8.91997570028152e-05 0.000314396551211663 0.000122561102408858)
(-0.000275917303201461 0.000284606018439203 5.05578938750025e-05)
(-0.000198515906791351 0.000248233345708157 -1.03448073199595e-06)
(5.37561126354689e-05 0.000241388918590036 0.000328787489108702)
(8.97156105736042e-05 3.38174931876854e-05 0.000175927909844415)
(0.000118860946060665 0.000160938670965246 0.000202817933590496)
(0.000134610064071966 0.000278686057239233 0.000225634430999834)
(0.000123100191810181 0.00036380187041003 0.000227744782347812)
(8.23726900013257e-05 0.000417063875751026 0.000212453165812496)
(-1.94952619123024e-06 0.000423241681579454 0.000174598340744581)
(-0.000155764717102071 0.000368652016431626 0.000107682592901754)
(2.95607337070178e-05 0.000334539444674204 6.61360482264355e-05)
(-7.40718608391106e-05 -0.000195042509352838 -0.000924055181817009)
(-0.000120487321864385 -0.000451012011119515 -0.00100528793172275)
(-0.000187897719316965 -0.00021533670834438 -0.00126194661440309)
(-8.40593858738015e-05 -0.000542492287545902 -0.000594560081794712)
(-0.000225196724064849 -0.000318576541288351 -0.000766324747637052)
(-0.000311988910780935 -0.000132695851947264 -0.00101959554396339)
(-2.33059190381189e-05 -0.000494821700487469 -0.000299727726707655)
(-0.000146481315841146 -0.000281196691917902 -0.000370569336377437)
(-0.000289421124109219 -0.000143681009399892 -0.000497318214318936)
(-0.000418175170763439 -4.18153135806597e-05 -0.000702717505875837)
(2.50295903640486e-05 -0.000370207534302807 -8.60757765524912e-05)
(-6.34481979189454e-05 -0.000248196328603725 -0.000178522415561399)
(-0.000186049848084842 -0.00012148444777998 -0.000253283354945145)
(-0.000327659684431812 1.82659166945591e-06 -0.000296193588438457)
(-0.000453301732267171 3.73999472431063e-05 -0.000449060258908842)
(5.39809080809161e-05 -0.000217720305691093 6.68094384891507e-05)
(4.50417401510773e-06 -0.00019528362295821 -5.1681169039564e-05)
(-5.9655836744829e-05 -6.81955461018129e-05 -7.48532871164239e-05)
(-0.000171504138455056 5.29992285639642e-05 -9.57206722526674e-05)
(-0.000341899172183135 0.000119575167569773 -0.000158203960438675)
(-0.000421366963597718 0.000106876797211534 -0.000272716846433822)
(6.2737662486317e-05 -5.89696200485547e-05 0.000175498065817762)
(5.01580184711284e-05 -0.000130094199068159 3.74276351046192e-05)
(3.12212907168914e-05 7.08567595364542e-07 4.15907409112207e-05)
(-2.300370636442e-05 0.000124418538953441 4.75709383870116e-05)
(-0.000138850528467537 0.000195940493283819 1.30434069818622e-05)
(-0.000327076721872299 0.000211886532670495 -6.34160563596984e-05)
(-0.000334420696525015 0.000177170072023569 -0.000144576965823474)
(5.94046376581651e-05 9.09250642938814e-05 0.000252915610581594)
(7.69839181690663e-05 -5.48955232592686e-05 0.000101894670716348)
(8.72211474378243e-05 7.54962527833832e-05 0.000120435685674858)
(7.43500859298611e-05 0.000198853158776225 0.000138335973906818)
(2.23434719295833e-05 0.000280421510043373 0.000128569064694597)
(-8.72320887389677e-05 0.000313434284647684 8.71166782117176e-05)
(-0.000271555861477197 0.000284412951378929 8.81139285701315e-06)
(-0.000191567372358639 0.000248771353831038 -5.06766444209809e-05)
(5.40357712212992e-05 0.000228735229334491 0.000308837816613342)
(8.98977258062994e-05 2.6129057638807e-05 0.000150106362624059)
(0.000118137057754753 0.00015416473516712 0.00017657275937424)
(0.000133374215586391 0.000273291807786576 0.000199371592263959)
(0.00012127544546311 0.000359182043688515 0.000200527473539366)
(7.90205759160751e-05 0.000412878308258103 0.000183113879959529)
(-9.16309897465887e-06 0.000419283627739262 0.000141227130525511)
(-0.00016672210138981 0.000364514817830315 6.82855743410241e-05)
(1.55951597568932e-05 0.000332110571912785 2.0752238321905e-05)
(4.70668229133406e-05 0.000360274061564069 0.000351380372354009)
(9.29165341547165e-05 0.00011304358763922 0.000188272591304714)
(0.000132236341742442 0.000235683215807438 0.000218268356764108)
(0.000165563088950767 0.000347190577582717 0.000242542446326383)
(0.000179392935447991 0.000432023701839212 0.000248399641316151)
(0.000173585661422653 0.000497238373242991 0.000241360965598877)
(0.000150525367187652 0.000535602362242771 0.000221245918202366)
(9.90990317251147e-05 0.000530417561250506 0.00018226241899522)
(-6.49402070996869e-06 0.000478150926017513 0.000118138074571887)
(0.000300493415183625 0.000465974495693422 7.68662055261865e-05)
(-6.17780850758525e-05 -0.000185952760678902 -0.000936847612008189)
(-0.000163939478998921 -0.000207989322467612 -0.00130649587830509)
(-0.000108284921743568 -0.000436436761681017 -0.00105016623961291)
(-7.77893953530783e-05 -0.000533609584812728 -0.000644129724056502)
(-0.000206881453049678 -0.000309569155484095 -0.000825651192655357)
(-0.000278390088097858 -0.000127465259362806 -0.0010776361322175)
(-2.0189380499184e-05 -0.000492108327677823 -0.000342580166352798)
(-0.000134504648696897 -0.000271633080282121 -0.000413785451035027)
(-0.000266349026451156 -0.000135774671063184 -0.000548550910059879)
(-0.000383151144540524 -3.72700068313609e-05 -0.000766591509162042)
(2.63116116934447e-05 -0.000370153891478896 -0.000121061504719249)
(-5.6503476654762e-05 -0.000239877129935614 -0.00021470041200416)
(-0.000173424702402959 -0.000115103531646801 -0.000297096428835956)
(-0.000304809128428077 7.37729682174436e-06 -0.000344386487520856)
(-0.000422741667037226 4.0667035753396e-05 -0.000513115463411486)
(5.43501695265365e-05 -0.000219171120645371 3.91282520801413e-05)
(8.36732275770738e-06 -0.000188250688996336 -8.2681021872074e-05)
(-5.32186830692678e-05 -6.38778867259627e-05 -0.000111041065698615)
(-0.000160264110439139 5.62264809849669e-05 -0.000135960701539793)
(-0.000321302095778732 0.000123083726445709 -0.000204209461043987)
(-0.000396716425889593 0.000108512566708682 -0.000334465165870559)
(6.28921168150761e-05 -6.123631531096e-05 0.000153361558531192)
(5.22182519891862e-05 -0.000124914302117684 1.08090493010865e-05)
(3.44795984458209e-05 3.44666160854832e-06 1.14832928661164e-05)
(-1.73245413594773e-05 0.00012613258218013 1.50412056654977e-05)
(-0.000129644437716094 0.000197169933195664 -2.39582498196682e-05)
(-0.000310416382028048 0.00021292568134408 -0.000107394510454991)
(-0.000315912276981429 0.000177043967092444 -0.000201835883209714)
(5.93297074707999e-05 8.80603125053576e-05 0.000235001487487281)
(7.81156042714456e-05 -5.20208805944513e-05 7.87784829707523e-05)
(8.86603821156318e-05 7.64616911898319e-05 9.49482111598425e-05)
(7.69083327949456e-05 0.000199017645320606 0.00011128771013549)
(2.65205872424297e-05 0.000280171859198348 9.88986758677043e-05)
(-8.10576722632284e-05 0.00031313535232285 5.29056486101275e-05)
(-0.000260829787316656 0.000284689621488719 -3.26253432556403e-05)
(-0.000179263108442004 0.000249251301060553 -0.00010264022124218)
(5.39652270790807e-05 0.0002241210727315 0.000293457608142608)
(9.01375112927612e-05 2.4676633467039e-05 0.000128767682220559)
(0.000118091313477453 0.00015154755186001 0.000153804783157264)
(0.000133498196605714 0.000270650576725212 0.000175775282079942)
(0.000121741316638917 0.000356490692909867 0.000175363144338221)
(7.96350798192404e-05 0.000410288613999858 0.000155477898875028)
(-9.31250968707901e-06 0.000417032118197819 0.000109295325900529)
(-0.000166365975570749 0.000362742191087718 2.96405295511805e-05)
(1.87525040642549e-05 0.000333117721744864 -2.47720284670554e-05)
(4.67590325535613e-05 0.000346512951645052 0.000335723326170984)
(9.26309472975545e-05 0.000103609744831966 0.000166723569189722)
(0.000131336737050242 0.000227545930272926 0.000196656719241979)
(0.000164158598546798 0.000340748400789466 0.000221062826183704)
(0.000177552881592886 0.00042646323334383 0.000226296157698435)
(0.00017100571858923 0.000492000181633678 0.000217996592528215)
(0.000145784222646929 0.0005304973229415 0.000195704434682709)
(8.91283389696117e-05 0.000525015570058076 0.000152866841330592)
(-2.23910371155359e-05 0.000471428179360142 8.3182412222651e-05)
(0.000280659014842228 0.000462671444784412 3.65115755805323e-05)
(4.15374181730484e-05 0.000464726939183522 0.000368583329706773)
(8.90092237398263e-05 0.000186561814145428 0.000197138306797634)
(0.000134054486727471 0.000305008409774314 0.000229148528504178)
(0.000177353095361172 0.000409786282983369 0.000253966144771698)
(0.000207062943295548 0.000491391441749576 0.000261702300184707)
(0.00022168232930027 0.000560959713770584 0.000258764573043359)
(0.000225697565163977 0.00061741922817826 0.000246906063311116)
(0.000225410917240796 0.000653630105620425 0.000224507593935103)
(0.00021370761384346 0.000656426548726791 0.000186364926868361)
(0.000171485395754717 0.000626450897329492 0.000126856490510347)
(0.000737106936204995 0.000826967308326131 8.80478126515651e-05)
(-4.77889764378065e-05 -0.000175030255897568 -0.000930516174747703)
(-0.000136042629929579 -0.000199635613188395 -0.00133512942418397)
(-9.4096672834122e-05 -0.000418720075023374 -0.00108027802232577)
(-0.000238505945157486 -0.000122570647305421 -0.00112497913785855)
(-0.000186167518121052 -0.000299128385099085 -0.000878380983040908)
(-7.09738362888126e-05 -0.000521653765735147 -0.000686274969999206)
(-1.71473522191176e-05 -0.000487832596028429 -0.000381156379522452)
(-0.000121885422342996 -0.000261942659479128 -0.000453345888029629)
(-0.000240797109147481 -0.000127787107936314 -0.000596429399838394)
(-0.000340504759952765 -3.34789222731068e-05 -0.000824966439541313)
(2.72621706677143e-05 -0.000369679508609627 -0.000153030789939058)
(-4.94992002156908e-05 -0.000231778788628733 -0.000248024741711594)
(-0.000159754236345006 -0.000109132446280404 -0.000338771635743766)
(-0.000279098416217303 1.2180548937018e-05 -0.000390907181479048)
(-0.000384699157043981 4.27169964385159e-05 -0.000575740909422845)
(5.4516896443443e-05 -0.000220852422013178 1.373309377155e-05)
(1.20584296708526e-05 -0.000181649404962196 -0.00011133695050315)
(-4.65795776130262e-05 -6.01879522845224e-05 -0.000145508855312555)
(-0.000147878020871587 5.87039160553166e-05 -0.00017501789677434)
(-0.00029762334340547 0.000125780349007562 -0.000249604067714248)
(-0.000365738864123861 0.000109586804167355 -0.000395765137560148)
(6.29074176351186e-05 -6.41902329630191e-05 0.000132995250160473)
(5.40358887616437e-05 -0.000120166701824519 -1.38310420731655e-05)
(3.76210487591644e-05 5.55238996867213e-06 -1.71040652335356e-05)
(-1.13422723164158e-05 0.0001270897864673 -1.63247138840324e-05)
(-0.000119257890301813 0.000197642398127517 -6.04088902028941e-05)
(-0.000290763759883667 0.000213129903953625 -0.000151732074207692)
(-0.000291995089003949 0.000177541890624871 -0.000262143810657495)
(5.9081466320742e-05 8.44309479920097e-05 0.000218731872167941)
(7.91305884441856e-05 -4.92707977163525e-05 5.75773116210037e-05)
(9.00498822601587e-05 7.7167007561361e-05 7.10254000160183e-05)
(7.96440205187011e-05 0.000198771897748238 8.55263518613245e-05)
(3.1379069126369e-05 0.000279392819816306 7.01289120342745e-05)
(-7.3323569414437e-05 0.000312269050276527 1.89109833844088e-05)
(-0.000246940535619628 0.000284374927820752 -7.48343854809353e-05)
(-0.000162961111985286 0.000248890676257707 -0.000157364886314201)
(5.36886519478277e-05 0.000219859064703483 0.000280193247854206)
(9.0520642648863e-05 2.53073456823174e-05 0.000110308309819061)
(0.000118484388188832 0.000150675427189263 0.000133498256991641)
(0.000134439466312294 0.000269199084426494 0.000154192540518512)
(0.000123637695017359 0.00035457245539046 0.000151794528081275)
(8.2712813084101e-05 0.000408221770143628 0.000129030667063933)
(-5.21551234526933e-06 0.000415216601807814 7.80226863651551e-05)
(-0.000159525023940065 0.000361516785146517 -9.37405029311761e-06)
(2.73145570096819e-05 0.000334484806750045 -7.32338051142056e-05)
(4.69796878400761e-05 0.000340635565252479 0.00032454034987472)
(9.22207585185768e-05 0.000100123330113539 0.000149422487998795)
(0.000130795320225924 0.000223361453503271 0.000178368428817053)
(0.000163566931619685 0.00033677621921226 0.000202077869506276)
(0.000177101462104265 0.000422504073083552 0.000206079532950911)
(0.000170694628586773 0.000487991924932474 0.000196103600815485)
(0.000145025705309064 0.000526614177112386 0.000171343469171396)
(8.63581279055921e-05 0.000521323818436862 0.00012431203382114)
(-2.68467675475928e-05 0.000467454744752514 4.81740165972599e-05)
(0.000278747589618694 0.000464186368540522 -4.37644845717781e-06)
(4.05176368732228e-05 0.000449677389615071 0.000356017102107581)
(8.85122336594108e-05 0.000175411653005109 0.000179232643216261)
(0.000132977629030595 0.000295493269945245 0.00021142286490278)
(0.000175795538346143 0.000402250632098182 0.00023648808581321)
(0.000205116814166404 0.000484927632692944 0.000243764882221362)
(0.000219290000718919 0.000554831876274662 0.000239958938816434)
(0.000222302331091796 0.000611336676132761 0.000226872131934679)
(0.000219136117445238 0.000647361479856769 0.00020253204066834)
(0.000200856557322082 0.000649009419492259 0.000161104968882444)
(0.000150643022458733 0.000616426365677845 9.69726589207249e-05)
(0.000709729030309396 0.0008207928815543 5.46574842686575e-05)
(3.74506137094534e-05 0.000555564594822227 0.00038174761956407)
(8.22210904292558e-05 0.000253505298273913 0.000203421312625002)
(0.000128875613009602 0.000368354503517894 0.000236799592934645)
(0.000176995943575913 0.000466557102980707 0.000261813975073315)
(0.000216054095036719 0.000543328095298814 0.000270558332544441)
(0.000243266490021387 0.000612663269452166 0.000269895136867394)
(0.000261377513604451 0.000676774017744096 0.000262349007342166)
(0.000277846264280435 0.000734208051544958 0.000247921776195727)
(0.000301498581736997 0.000781910487532039 0.000224828357138445)
(0.000330419151472264 0.000814384879565733 0.00018862260671472)
(0.000377407180394957 0.000847016737616995 0.000136679712510759)
(0.00140730061187761 0.00212070907989341 0.000104101973761769)
(-3.37876721430137e-05 -0.000163397296995641 -0.000904494975604144)
(-0.000105374138554384 -0.000190720904445201 -0.00134552049287835)
(-8.01857579110236e-05 -0.000398774632871133 -0.00109305414946056)
(-0.000193864294532329 -0.000117498881471416 -0.00115899412469719)
(-0.000163097611336566 -0.000288001940857962 -0.000922665947522172)
(-6.40216732948144e-05 -0.000506641601319181 -0.000718875953773055)
(-0.000291015944450187 -3.0462411302688e-05 -0.000875905940233002)
(-0.000213035326282334 -0.000120302084989661 -0.000639949280075222)
(-0.000108951860717073 -0.000252223171668029 -0.000488434038221356)
(-1.43655637313982e-05 -0.000481955377984569 -0.000414174398512511)
(2.75959295436241e-05 -0.000368776386382257 -0.00018143819871042)
(-4.26371207047726e-05 -0.000224129663594992 -0.000278127634804177)
(-0.000145271281621439 -0.000103778522514071 -0.000377823458010333)
(-0.000250672464560805 1.60063230271236e-05 -0.000435191693344066)
(-0.000338040282070747 4.38079065351077e-05 -0.000635679470827335)
(5.42380400174659e-05 -0.000222978835814418 -9.2506235685446e-06)
(1.53607122173423e-05 -0.00017571993274484 -0.000137403325279909)
(-3.99365231468262e-05 -5.73664404508818e-05 -0.000178018649796615)
(-0.000134489394855833 6.01877755774929e-05 -0.000212661640191925)
(-0.000270738050017347 0.000127181099802594 -0.000294205999210519)
(-0.000327215605978198 0.000108662665638959 -0.000458272736749182)
(6.26083879607552e-05 -6.81832113825704e-05 0.000114521855459963)
(5.55568848104474e-05 -0.000116159302130657 -3.63286802214532e-05)
(4.042802973085e-05 6.68472191264329e-06 -4.40507225385327e-05)
(-5.26828664727021e-06 0.000126956666517227 -4.64214850461469e-05)
(-0.00010776723448895 0.00019705816963763 -9.6205857657388e-05)
(-0.000267816781748032 0.000212162994862662 -0.000196252151539124)
(-0.000261899364257854 0.000177190473714783 -0.00032354415003508)
(5.86172375107421e-05 7.97200786661657e-05 0.000203947701019815)
(7.97839807148603e-05 -4.72548204708172e-05 3.82059536903734e-05)
(9.10316978649378e-05 7.69605176103207e-05 4.85640348953801e-05)
(8.21454690483226e-05 0.000197518904279085 6.09769546656252e-05)
(3.64653546709126e-05 0.000277581107911544 4.21833486327668e-05)
(-6.44834143150046e-05 0.0003104676398354 -1.50148055056722e-05)
(-0.000230050889286255 0.000283293474590128 -0.00011816236738346)
(-0.000141591101934059 0.00024866285704953 -0.000215757933227484)
(5.31620398733322e-05 0.000214512199759399 0.000268405861320255)
(9.06263954464159e-05 2.55292006948946e-05 9.36442394406509e-05)
(0.000118621925178944 0.000149296430148835 0.000114669053573005)
(0.000135202150817909 0.000267109594714034 0.000133878316488039)
(0.000125628777082996 0.00035192359484058 0.000129228038564099)
(8.63678766620491e-05 0.000405376864972848 0.000103142735726501)
(3.19922860712499e-07 0.00041270405933758 4.6548469211332e-05)
(-0.000149715567329995 0.000359658352055796 -4.97570036040651e-05)
(3.90908639096312e-05 0.000335184683694893 -0.000125143630256204)
(4.70216387583143e-05 0.000335069143680508 0.000314827120773947)
(9.1888793854634e-05 9.85079539673877e-05 0.000134843500992485)
(0.000130442638701198 0.000220677198898263 0.000162387882959943)
(0.000163379235878105 0.000333729062884922 0.000184982488706856)
(0.000177401007711116 0.000419049388077481 0.00018736794220906)
(0.00017172084951842 0.000484276328696196 0.000175372541637071)
(0.000146647610431533 0.000522972988817718 0.000147762243260346)
(8.77903598714257e-05 0.000518050006341524 9.59688394686687e-05)
(-2.50733984010359e-05 0.000464638208964133 1.21436525188484e-05)
(0.000282183640888759 0.000466877947039528 -4.84677420507599e-05)
(3.99942303785512e-05 0.000442613001858253 0.00034791637932558)
(8.78650676131059e-05 0.000170007188710441 0.000165373881415859)
(0.000132028599855117 0.000289726006797498 0.000196857310626156)
(0.000174694293240942 0.000396954874005477 0.000221361176410782)
(0.000203999236785061 0.000479803626707127 0.0002276081350815)
(0.000218246427516188 0.000549643389222953 0.000222542997367695)
(0.000221102625653429 0.000606092718867604 0.000207910863897131)
(0.000216773297533718 0.000642155267192595 0.000181334166280844)
(0.000195106927196202 0.000643507107989827 0.000136185674136788)
(0.000140812623873546 0.000610088695988107 6.64066282142703e-05)
(0.00069893184387876 0.000821666090572108 1.96973075332788e-05)
(3.58562958833483e-05 0.000539213733672474 0.000371623655933519)
(8.14994722024055e-05 0.000240738034730927 0.000188557095546621)
(0.000127677071595988 0.000357511627348621 0.000222345453948617)
(0.000175310892043045 0.000457933513990175 0.000247705907898648)
(0.000213991877328173 0.000535967363147971 0.000256102415605177)
(0.000240863104751709 0.0006057385594541 0.000254769564444967)
(0.000258453528612172 0.000669875041924329 0.000246427336237435)
(0.000273599677170467 0.000727135505548595 0.000231014223825729)
(0.000293678448870451 0.000774193398052542 0.000206457574163207)
(0.000314800002344767 0.00080421093516249 0.000167882307032702)