/*--------------------------------*- C++ -*----------------------------------*\
  =========                 |
  \\      /  F ield         | OpenFOAM: The Open Source CFD Toolbox
   \\    /   O peration     | Website:  https://openfoam.org
    \\  /    A nd           | Version:  12
     \\/     M anipulation  |
\*---------------------------------------------------------------------------*/
/*   Windows 32 and 64 bit porting by blueCAPE: http://www.bluecape.com.pt   *\
|  Based on Windows porting (2.0.x v4) by Symscape: http://www.symscape.com   |
\*---------------------------------------------------------------------------*/
FoamFile
{
    format      ascii;
    class       volScalarField;
    location    "700";
    object      nut;
}
// * * * * * * * * * * * * * * * * * * * * * * * * * * * * * * * * * * * * * //

dimensions      [0 2 -1 0 0 0 0];

internalField   nonuniform List<scalar> 
10140
(
1.49178279637312e-06
1.51793167962764e-06
1.5920338550796e-06
7.50831111593813e-05
1.53955549348224e-06
1.62178278301357e-06
7.54947665404258e-05
1.72959489834589e-06
7.74791937809665e-05
0.000290829669974359
1.55055374745824e-06
1.64460146493539e-06
7.58041751829443e-05
1.76340080901263e-06
7.7906819057971e-05
0.000291710631982929
1.81342619678544e-06
8.05708974446589e-05
0.000294910920106206
0.000574009217034385
1.55763403054092e-06
1.65556710544519e-06
7.59888532101701e-05
1.78850994606857e-06
7.82250783763203e-05
0.000292340123790581
1.85028045158003e-06
8.10215270067984e-05
0.000295809776636188
0.000575274925734686
1.78779555533484e-06
8.24516906499669e-05
0.000299792150776831
0.00057712358672992
0.000871379313582905
1.56198833880855e-06
1.66258928055729e-06
7.60795286804876e-05
1.80008829879786e-06
7.84150922546159e-05
0.000292695459259467
1.87730566216212e-06
8.13559825467618e-05
0.00029645187343213
0.00057612427913962
1.82578558415663e-06
8.29236808267044e-05
0.000300717523618166
0.000578405676178011
0.000872859665160349
1.68166813270067e-06
8.1975558262267e-05
0.000302310757957395
0.000579994329966437
0.000872257148059924
0.00115837682448862
1.56403411919922e-06
1.66647521160476e-06
7.60813740767688e-05
1.80753740813593e-06
7.85074908545326e-05
0.000292791749423694
1.88960053595459e-06
8.15555978613231e-05
0.000296815566982829
0.000576526146170422
1.85354981054965e-06
8.3274940203138e-05
0.000301381011938666
0.000579266108101625
0.000873736038272995
1.71926865159874e-06
8.24627908750297e-05
0.000303264508436298
0.000581298232945481
0.000873751712718073
0.00115986810233812
1.54629766474108e-06
7.95420362288184e-05
0.000300426497937646
0.000579743682401315
0.000871203724848597
0.00115678839496481
0.00142476044883435
1.56386509419323e-06
1.66817551916182e-06
7.59974231137154e-05
1.81111930116103e-06
7.85070311941679e-05
0.00029263140999163
1.89759543326953e-06
8.16532901245081e-05
0.000296916042442061
0.000576475903297119
1.86605785556566e-06
8.34859401949075e-05
0.000301760075667796
0.000579675579486847
0.000873965982726715
1.74675560588247e-06
8.28273977527441e-05
0.000303952928305842
0.000582177862449343
0.000874636256524035
0.00116055229431253
1.58292200262585e-06
8.00393156925101e-05
0.000301404941428032
0.000581072578240189
0.000872713541165674
0.00115829381561595
0.00142607023850266
1.40419347836864e-06
7.60932980386825e-05
0.000294449378930846
0.000574321784500811
0.000865989613211729
0.00115142487317123
0.00142124330294654
0.00166737296532064
1.56096219097775e-06
1.66725810938984e-06
7.58264043071768e-05
1.81228331232088e-06
7.84185092225742e-05
0.000292213186605151
1.90131529703979e-06
8.16528249041174e-05
0.000296755613425758
0.000575966871749788
1.87433409557052e-06
8.35917119245254e-05
0.000301870455940254
0.000579629873213947
0.000873529199540282
1.75924180420759e-06
8.30486522747005e-05
0.000304352391793098
0.000582602949458887
0.000874872146308962
0.00116037278422917
1.60972020004417e-06
8.04143118621134e-05
0.000302117595310053
0.000581977151911693
0.000873613473641539
0.00115898552002177
0.0014263629200504
1.43965976472356e-06
7.65993311279582e-05
0.000295448928375583
0.000575675187081352
0.000867517551577415
0.00115294174100043
0.00142256960625752
0.00166834237181408
1.256226576589e-06
7.21405167987525e-05
0.000285710738470319
0.000563663033471516
0.000855039945815908
0.00114060211154582
0.00141220891163449
0.00166261814959159
0.0018863996398593
1.55495349018803e-06
1.66296447681099e-06
7.55639532773201e-05
1.81075041563627e-06
7.8240175809985e-05
0.000291530048677714
1.90232312719591e-06
8.15603037941223e-05
0.000296333738237957
0.00057498789747799
1.87841833078401e-06
8.35960578716479e-05
0.000301714168867502
0.000579122378601774
0.000872406352740988
1.76761980639713e-06
8.31637065048278e-05
0.000304479083933768
0.000582569090776389
0.000874439802501197
0.00115929563775703
1.62211306044437e-06
8.06453494191127e-05
0.00030253938614172
0.000582425607347866
0.000873864269572049
0.00115881284901071
0.0014255650270673
1.4656615916248e-06
7.69841051500575e-05
0.000296184928766248
0.000576607429709295
0.000868439889157387
0.0011536477645179
0.00142287166882154
0.00166808113273495
1.29048929806983e-06
7.26575470645551e-05
0.000286731214532036
0.00056503957286404
0.000856587164216199
0.00114213221588033
0.00141354637356194
0.00166360719256443
0.00188690728515691
1.10042579524382e-06
6.77417413845531e-05
0.000275070251276692
0.00054870782448649
0.000838107057286172
0.00112321393955563
0.00139623818497018
0.00165083139277309
0.00188084424480413
0.00208326884890087
1.54564170164312e-06
1.65502735394963e-06
7.52052922663277e-05
1.80556753830155e-06
7.79666385489094e-05
0.000290570554846745
1.90044774447614e-06
8.1374863731076e-05
0.000295643240972876
0.000573521516785021
1.87978309701809e-06
8.35051106077027e-05
0.00030129116117055
0.000578142060279387
0.000870572735449286
1.7720040526816e-06
8.31771581599698e-05
0.000304335064531243
0.000582069607334963
0.000873320013523645
0.00115728730964951
1.63065508680559e-06
8.07710722128327e-05
0.00030268732661941
0.000582413157237904
0.000873445951110632
0.00115774288126669
0.00142362788441513
1.47798147746739e-06
7.7225704991255e-05
0.000296630781206948
0.000577085095812517
0.000868715774563195
0.00115349225954289
0.00142208354919257
0.00166649635813777
1.31563098143281e-06
7.3053323475246e-05
0.000287491662178311
0.000566001226214402
0.000857536806957489
0.00114286025099838
0.00141386487985888
0.00166335789730804
0.00188596579125009
1.13322039363647e-06
6.82747201574602e-05
0.000276116552990627
0.000550107583626821
0.00083967274749363
0.00112475856085336
0.00139758742532129
0.00165183317078179
0.00188137458874618
0.00208323066598859
9.38311447845875e-07
6.28179986272818e-05
0.000262720815440988
0.000530137503067097
0.000815611953312787
0.00109897869977753
0.00137246409502735
0.00163052421810537
0.00186696831677539
0.00207709058219317
0.00225967791117102
1.53268895758892e-06
1.64319130017522e-06
7.47447416646949e-05
1.79616635054306e-06
7.7593072098253e-05
0.000289320285490949
1.89481668531036e-06
8.10902765663085e-05
0.000294672108819789
0.000571544408640836
1.87819939374964e-06
8.33184313128939e-05
0.000300594496626589
0.000576671188085559
0.000867996294095092
1.77397050614954e-06
8.30949050485829e-05
0.000303920310315883
0.000581093478741981
0.000871488070070188
0.00115430663222819
1.63540598087841e-06
8.07966982238824e-05
0.000302564059999537
0.000581933046055278
0.000872339214595394
0.00115574218050417
0.00142050162758283
1.4866402300818e-06
7.73639093817346e-05
0.000296804448831184
0.000577103206206337
0.000868324416646582
0.00115244197925313
0.0014201582463711
0.001663523629302
1.32778238477357e-06
7.33069187851379e-05
0.00028796424606782
0.000566512771962409
0.000857846587001013
0.00114273421553369
0.00141309902325462
0.00166178639492327
0.00188346231711764
1.15739620286137e-06
6.86838357171951e-05
0.000276904950424838
0.000551100930628509
0.000840652575135906
0.00112551449094363
0.00139793077752004
0.001651603951049
0.00188044758730473
0.00208151140831295
9.69209881863875e-07
6.33722724764066e-05
0.000263802499859581
0.000531563144210387
0.000817194233639822
0.00110053639495876
0.00137382602957191
0.00163153889659283
0.00186751368949329
0.00207707804754859
0.00225905449818046
7.73967445643162e-07
5.73043996733399e-05
0.000248544712161724
0.000508101615079657
0.00078783070390719
0.00106793487087618
0.00134061838030991
0.00160083594112504
0.00184298418137823
0.00206146901550568
0.00225292398334301
0.00241725689655851
1.51576549718895e-06
1.62773136629722e-06
7.41726788874376e-05
1.78239780344789e-06
7.71140559445581e-05
0.000287761338693316
1.88480317685598e-06
8.07007325108938e-05
0.000293405432456405
0.00056902814887696
1.87282240266591e-06
8.30301517083843e-05
0.000299611722354823
0.000574686116437512
0.000864637503795106
1.77305334557632e-06
8.29158299251214e-05
0.000303227827031192
0.000579622778857882
0.000868911719834736
0.00115030321129671
1.63787772004467e-06
8.0728684977873e-05
0.000302169469540853
0.000580974102418056
0.000870519261538425
0.00115276980065812
0.00141612644620525
1.49172748132086e-06
7.74043673369604e-05
0.000296709364666613
0.000576655177582966
0.000867246324858914
0.00115046344706897
0.00141704636790467
0.00165909501669206
1.33646886944918e-06
7.34590862428975e-05
0.000288167923356763
0.000566569307841539
0.00085749504500313
0.00114172004207245
0.00141120184838216
0.00165883040339758
0.00187931649560137
1.16929515675101e-06
6.89506917506955e-05
0.000277407706992941
0.000551650536693259
0.000841002857649081
0.00112542884669725
0.0013972019365592
0.00165006095440751
0.00187796070829868
0.00207798438778531
9.92265515572613e-07
6.37976330912134e-05
0.000264624618524958
0.000532591607797253
0.000818205726824527
0.00110132324823507
0.00137420108209704
0.00163133975459227
0.00186661097753371
0.00207537593088328
0.00225647586780325
8.02475715314672e-07
5.7888157980195e-05
0.000249673920814055
0.000509558265035602
0.000789427039573952
0.00106950136526712
0.00134199098384792
0.00160186483535238
0.00184354545737351
0.00206147432957835
0.00225232892997325
0.00241611613110386
6.12486375092533e-07
5.11614303372756e-05
0.000232334911321516
0.000482401474428887
0.000754667715492847
0.00102996832466746
0.00130054911573744
0.00156151923718864
0.00180788720674088
0.0020342292160887
0.00223571397943507
0.002409938858248
1.49391036311295e-06
1.60766038547559e-06
7.34796204919414e-05
1.7637449914277e-06
7.65206986384983e-05
0.000285871228624411
1.8701252558969e-06
8.02008236845957e-05
0.000291824896081151
0.000565938352387204
1.86296721905346e-06
8.26335591710078e-05
0.00029832682578773
0.000572157792386721
0.000860449529955938
1.76837449058818e-06
8.26343082605812e-05
0.000302244947296281
0.000577633177636862
0.000865551126884594
0.00114521790663709
1.63770145738918e-06
8.05650262598307e-05
0.000301495943185544
0.000579518012704699
0.000867953544981614
0.00114877551688709
0.00141043109338148
1.49476313129287e-06
7.73537433151116e-05
0.000296345748907151
0.000575729733050382
0.000865456549763822
0.00114751578433421
0.00141268833109394
0.00165312925697764
1.34186922681139e-06
7.35161415076365e-05
0.000288107013675789
0.000566164755610139
0.00085646263292578
0.00113978415095036
0.00140812422196725
0.0016544226766906
0.00187344031130093
1.17790451223778e-06
6.91177660424301e-05
0.000277645163100922
0.000551751806169721
0.000840701766057454
0.00112446695084913
0.0013953534375069
0.00164714235233001
0.00187383614240538
0.00207255573887551
1.0038013918855e-06
6.40791063698097e-05
0.000265161415518633
0.000533183289629705
0.000818601037683684
0.00110128590961507
0.00137352273522285
0.00162984356472355
0.00186415925138494
0.00207186896862893
0.00225183621927818
8.24034409400786e-07
5.8334084577212e-05
0.000250537221329002
0.000510626485181549
0.000790470630826823
0.00107031932235844
0.00134240138824053
0.0016017048397981
0.00184267998173725
0.00205980142595668
0.00224977072626751
0.00241256554830612
6.3818698741122e-07
5.17882883868617e-05
0.000233527633450002
0.000483894880437331
0.000756274498851965
0.0010315364998744
0.00130192670002047
0.00156256093027355
0.00180846761415388
0.00203425524239479
0.00223513980186282
0.00240883027963531
0.00255619679036826
4.59811799998026e-07
4.43999268553935e-05
0.000213833749631423
0.000452622312232195
0.000715703388908369
0.000984670914558545
0.0012518782987703
0.00151238107657287
0.00176144148499507
0.00199415371757441
0.00220548976233774
0.00239123056115915
1.46586395137737e-06
7.26521953255908e-05
1.58154018480155e-06
1.74100618662819e-06
7.58006265645301e-05
0.000283621780059694
1.85003940081135e-06
7.95808351548937e-05
0.000289906843877074
0.000562234541003551
1.84866722945544e-06
8.21227537927041e-05
0.000296720528306142
0.000569051310156138
0.000855377410187269
1.75943540181601e-06
8.22435712872433e-05
0.000300954746239194
0.000575094618425095
0.000861359009565252
0.00113898177611301
1.6339769490798e-06
8.02996314238365e-05
0.000300530631808377
0.000577539824161486
0.000864601623730385
0.00114369975396894
0.00140333241730141
1.49536374601344e-06
7.72100470340839e-05
0.000295705372787174
0.000574308065872207
0.000862922182331988
0.00114354871782666
0.0014070131054376
0.00164553051824955
1.34543828596474e-06
7.34850905131532e-05
0.000287782244202364
0.000565288077110625
0.000854724362717477
0.00113688572701804
0.00140380686360248
0.00164848248389566
0.00186572809767936
1.18352419858172e-06
6.91925289303743e-05
0.000277622970556251
0.000551399545817872
0.0008397300067825
0.00112259527243063
0.0013923363914895
0.00164278151995403
0.00186798681881236
0.00206511551071653
1.01218304787214e-06
6.42616964704833e-05
0.000265435816043696
0.000533334220145942
0.000818358172347003
0.00110038950312417
0.00137174335024359
0.00162698846096015
0.00186008156017919
0.00206646622022276
0.00224503431003477
8.34960455279534e-07
5.86314952362496e-05
0.000251112270586626
0.000511264151886121
0.000790913750676574
0.00107033498772263
0.00134178365249748
0.00160027323516738
0.0018402868588566
0.00205633708959312
0.0022451553309677
0.00240672525377095
6.57740079402069e-07
5.22620686335291e-05
0.00023444111520528
0.000485007823844351
0.00075734934037517
0.00103238294571799
0.00130237249913655
0.00156244604629337
0.00180765258314443
0.00203262890082833
0.00223261709629029
0.0024053033621824
0.00255136303178948
4.82044726017909e-07
4.50783296657041e-05
0.00021511161332793
0.000454157235944361
0.000717314210001193
0.000986230203120217
0.00125325125379716
0.00151343020880323
0.00176204201131922
0.00199420730955
0.0022049425917632
0.00239015033275699
0.00254834692926248
0.00267993600736201
3.20657525117939e-07
3.70251631559905e-05
0.000192712314953733
0.000418138092982162
0.000670222468967378
0.000931337213466637
0.00119393033118504
0.00145291599242287
0.001703490996664
0.00194100323861014
0.00216080816091573
0.00235823295922174
1.4297013224222e-06
7.16718312199514e-05
1.54862454664362e-06
0.000280982134324315
7.4939284175862e-05
1.71139190111122e-06
1.82438475541364e-06
7.882821580199e-05
0.000287622403952406
0.000557869692100387
1.82924732020959e-06
8.14869759906637e-05
0.000294767518854191
0.000565325478918309
0.000849359612837354
1.74614605968435e-06
8.1737597593069e-05
0.000299336822950278
0.00057197114513676
0.000856280091838902
0.00113151575460205
1.62626984554606e-06
7.99262729320459e-05
0.000299256187997703
0.000575008477822633
0.000860415429308218
0.00113747327484013
0.00139473509934879
1.49262452536846e-06
7.69667699580474e-05
0.000294774989713252
0.000572364738187957
0.000859602201610052
0.00113850229735396
0.0013999374872228
0.00163618728268895
1.34677133005318e-06
7.3363856317903e-05
0.000287185282126074
0.00056392015480356
0.000852247078312126
0.00113297448287188
0.00139817900499173
0.00164091420419288
0.00185605453917212
1.18751615912764e-06
6.91823988623156e-05
0.00027734257224949
0.000550583344016413
0.000838062876292768
0.00111977325987669
0.00138809200855716
0.00163689841808689
0.00186030777886757
0.00205552851879034
1.01785996959383e-06
6.43548503490062e-05
0.000265455708420145
0.000533040677226087
0.000817458484772754
0.00109860088091831
0.00136881454675934
0.00162270859159197
0.00185429186459818
0.00205905896605737
0.00223593354746796
8.42937691326609e-07
5.88298923263011e-05
0.000251426268573021
0.00051146854578859
0.000790734316236588
0.00106951358320611
0.00134009055928612
0.00159750863304652
0.00183628963556484
0.0020509916032679
0.00223838480228302
0.00239847413012126
6.67548941214602e-07
5.25767968808778e-05
0.000235058206379727
0.000485694700998023
0.000757841245913035
0.00103245324372018
0.0013018216282696
0.00156109351283517
0.00180534250442304
0.00202923750263747
0.00222805349329583
0.00239949259892204
0.00254423373382398
4.98874061474394e-07
4.55784096869094e-05
0.000216086842354121
0.000455318291494266
0.000718416898756005
0.000987099252658943
0.00125372872158939
0.00151336243486104
0.00176128794108489
0.00199264694383963
0.00220247850256497
0.0023866649034099
0.00254355863583231
0.00267417544364088
3.38112310364411e-07
3.77361430963363e-05
0.000194087947493053
0.000419715680223328
0.000671825539909366
0.000932872189694244
0.00119528453954584
0.00145396286677379
0.00170410863575391
0.00194108968630592
0.00216030021407175
0.00235719055731298
0.00252825584248317
0.00267157074998418
0.00278920564069357
1.98101043736644e-07
2.89999142513927e-05
0.000168442560917101
0.000378023912564981
0.00061716371815831
0.000868938877420608
0.00112574519594404
0.00138227390035619
0.00163349891132039
0.00187468776592078
0.00210141616790729
0.00230929519915898
1.37973177458735e-06
7.05148900410383e-05
1.50681230154947e-06
0.000277911578056219
7.39146188384868e-05
1.67267146204515e-06
0.000552792967716012
0.000284938498877742
7.79255705341101e-05
1.79250558286792e-06
1.80275587532617e-06
8.07120999087899e-05
0.000292438565457974
0.000560932722046754
0.000842328540239508
1.72797155090908e-06
8.11047374410696e-05
0.000297364263310375
0.000568220455665754
0.000850252216879866
0.00112273445382398
1.61441601822086e-06
7.94384305539777e-05
0.000297651335318314
0.000571886859792629
0.000855339020067414
0.00113001723639531
0.00138453388367559
1.4861848074354e-06
7.66178018373423e-05
0.000293537034948818
0.000569867979580951
0.000855447756795638
0.00113230689942735
0.00139136631715947
0.00162497395709775
1.34499240738308e-06
7.31458359686102e-05
0.000286302550254305
0.000562035169564001
0.000848989403363925
0.00112799029525078
0.00139115756734518
0.00163160671377886
0.00184427442817022
1.18946592136695e-06
6.90852579687003e-05
0.000276795823236418
0.000549284156912198
0.000835667272540128
0.00111595086410561
0.00138255006774132
0.00162939809464903
0.001850674073511
0.00204363349856838
1.02210526245768e-06
6.43664930672533e-05
0.000265223678179861
0.00053229333476895
0.000815877976686125
0.00109588012243866
0.00136467839837414
0.00161692503899618
0.00184668638304683
0.00204951285040036
0.00222436115819027
8.4849041015898e-07
5.8941514627213e-05
0.000251490812136763
0.000511238319323577
0.000789914779624902
0.00106782273017814
0.00133727469110731
0.00159334644063358
0.00183060371824935
0.00204365774599951
0.00222932397233127
0.00238763115981403
6.74646481152493e-07
5.27908561507653e-05
0.000235413169645649
0.000485954956468869
0.000757728062912813
0.00103171282011669
0.00130022778592161
0.0015584432633643
0.00180146220049179
0.00202399238297782
0.00222135243572782
0.0023912794616511
0.00253447556674628
5.07099210026851e-07
4.59044641840614e-05
0.000216747987908848
0.000456054893062196
0.000718955786751118
0.000987222467789799
0.0012532470856774
0.00151209917525517
0.00175908244503361
0.00198936202177134
0.00219800552613821
0.0023809166318442
0.00253646811568161
0.00266581460481817
3.51585066696744e-07
3.82650145960809e-05
0.000195129496221051
0.00042092338090366
0.000672947544516073
0.000933753471707119
0.00119578567699032
0.00145393995449829
0.00170342186619553
0.00193961265677181
0.00215792230153422
0.00235377775956404
0.00252352360257262
0.002665864022611
0.00278248425173547
2.10096601090974e-07
2.96926094493605e-05
0.000169905635850561
0.00037963138602583
0.000618738376720701
0.000870427253593709
0.00112706109293913
0.00138330404208813
0.00163412618029522
0.00187480838421563
0.00210095888200845
0.00230830737739124
0.00249273534751707
0.00265017647981052
0.00278037033428081
0.00288532714092405
9.92097727269574e-08
2.03059810191391e-05
0.000140098668560656
0.000330866880736292
0.000554995951250667
0.000796052381855876
0.0010460533183107
0.00129932358941736
0.00155053118576099
0.00179469390296202
0.00202729639764843
0.00224414891270375
1.3168122982345e-06
6.9150514012959e-05
1.44959666007658e-06
0.000274362323599725
7.27017818190865e-05
1.62380312696776e-06
0.000546945123589725
0.00028181208897906
7.68455242170991e-05
1.74983153298376e-06
0.000834211865888846
0.000555820407232312
0.000289697110719595
7.97789898616416e-05
1.77042332034336e-06
1.70390085744059e-06
8.03282840955015e-05
0.000295005787239041
0.000563793615979953
0.000843207263749855
0.00111254750048463
1.59789939321494e-06
7.88243051232792e-05
0.000295687751982587
0.000568131299902104
0.000849309278697413
0.00112124586676205
0.00137261622070568
1.4758735233256e-06
7.61561950990948e-05
0.000291969455069568
0.000566779728085488
0.000850402146753333
0.00112488348746848
0.00138119442955943
0.00161175487589764
1.33981614443187e-06
7.28249455405365e-05
0.00028511607666912
0.000559600901209247
0.000844901999263627
0.00112186332166676
0.00138264762049705
0.0016204350047245
0.00183022751893245
1.18860773687931e-06
6.88945822708542e-05
0.000275968974529888
0.000547476003602097
0.000832501769798928
0.00111106817848016
0.00137562802467908
0.00162017024531554
0.00183894153614897
0.00202924636232126
1.0245377477892e-06
6.42946677737746e-05
0.000264731966145547
0.000531073594419426
0.000813584001936015
0.00109217782174023
0.0013592656964181
0.00160954415842467
0.00183714140521042
0.00203766758414629
0.0022101128782852
8.52805484693755e-07
5.89753115528761e-05
0.000251310142672751
0.000510565878204352
0.000788432329486713
0.00106522357649191
0.00133327948561839
0.00158770947381215
0.00182312726331184
0.00203420292344968
0.00221780138959576
0.002373974837959
6.79754919533085e-07
5.29206150181595e-05
0.000235523569969475
0.000485790958933831
0.000756993884240986
0.00103013042677924
0.00129754499179818
0.00155443263617628
0.00179592931104906
0.00201678853835016
0.00221238090411794
0.00238048480224107
0.00252182288014219
5.12894735308421e-07
4.61269894488402e-05
0.00021714259243639
0.000456370291366957
0.000718908695846349
0.000986565440646267
0.0012517612664229
0.00150958242499931
0.00175535276443841
0.00198426604283606
0.0021914285180575
0.00237278748337367
0.00252675618494423
0.00265453059302305
3.57909666736119e-07
3.85947444970045e-05
0.000195829055789275
0.000421703789960524
0.000673526448256768
0.000933923578992928
0.00119537144072295
0.00145277176691354
0.00170133781527729
0.0019364654666172
0.00215358481562506
0.00234814097066132
0.00251650988781326
0.00265754962288738
0.00277288212548381
2.19408251162117e-07
3.02206535680462e-05
0.000171005503958224
0.000380870661819032
0.000619862104021368
0.000871303960417968
0.00112757277518637
0.00138331912754664
0.00163350849669943
0.00187342766844054
0.00209869350479335
0.00230500588872979
0.00248809640636851
0.00264453875577062
0.00277370936433735
0.00287760688683713
1.0599546693066e-07
2.09248019610388e-05
0.00014163278956548
0.00033246761613601
0.000556507344394628
0.000797462772473873
0.00104730484729852
0.00130031730526308
0.00155115586082216
0.00179484546550046
0.00202689709732517
0.0022432327537793
0.00243995982656676
0.00261231505594784
0.00275779216457081
0.00287606929900847
0.00296945230332289
3.48099656725125e-08
1.14284015102269e-05
0.000106385939193579
0.000274589015017451
0.000481556972670094
0.000710762404888557
0.00095322376028186
0.00120266434195014
0.00145337708296983
0.00170007164164139
0.00193798804569845
0.00216284902311927
6.75780939937951e-05
1.37899657903808e-06
0.000270290710847066
7.1276844469684e-05
1.55955229930859e-06
0.000540260127095228
0.000278195218737751
7.55663663074349e-05
1.69550268687489e-06
0.000824932535023808
0.000549927848543805
0.000286494408275749
7.86588746982234e-05
1.72701251561258e-06
0.00110086043755358
0.000835072169216344
0.000558635539717784
0.000292221866653694
7.93895267070258e-05
1.67233645462676e-06
1.57580411589011e-06
7.80668227727628e-05
0.000293331975379961
0.000563691083204586
0.000842257019772011
0.00111106807602408
0.00135886574840492
1.46116296018144e-06
7.55698969875548e-05
0.000290043128631668
0.000563055086454158
0.000844401275110021
0.00111614583579894
0.00136930932357746
0.00159638692953026
1.33108056687162e-06
7.23938998162956e-05
0.000283603167731645
0.000556578600161616
0.000839927631523875
0.00111451437368571
0.00137254423055054
0.00160726347056451
0.001813741798926
1.18469013061752e-06
6.86043186761767e-05
0.000274843759791053
0.000545126343341234
0.000828516916851547
0.00110505555991587
0.00136723157806636
0.0016090907383182
0.00182495041446536
0.00201216488742776
1.02448622367807e-06
6.41331113777901e-05
0.000263966937050825
0.000529355604465597
0.000810535437711488
0.00108743476263117
0.00135249506173532
0.00160045718159932
0.00182551436706284
0.00202334014859874
0.00219295753282293
8.55531109439979e-07
5.89296360278626e-05
0.000250877296354967
0.000509433421948353
0.000786255183471798
0.00106166781712716
0.0013280373232218
0.00158050622963471
0.00181373889546873
0.00202246891486009
0.00220361410777653
0.0023572484044092
6.83893447946564e-07
5.29764443982416e-05
0.000235396144156617
0.00048519758945188
0.000755617626960506
0.00102766871995088
0.00129371857101973
0.00154898690011711
0.00178864491063045
0.00200749639818652
0.00220097003610248
0.00236688888056321
0.00250599228327534
5.17156146820593e-07
4.62689219422343e-05
0.000217297210786332
0.000456272523748162
0.000718262047963682
0.000985098381696308
0.00124922713063192
0.00150575211050031
0.00175001974807962
0.00197725736775507
0.00218261773952808
0.0023621008619214
0.00251416169733194
0.00264001467017983
3.62104863675935e-07
3.88161858523384e-05
0.000196254698223298
0.000422067281099255
0.000673540382434802
0.000933348171557044
0.00119399813242103
0.00145040290499702
0.00169778715655644
0.00193156527318786
0.00214719559385145
0.00234016374687464
0.00250689919967527
0.00264632079714293
0.00276004473496146
2.23634935749384e-07
3.05272827733575e-05
0.000171725264265202
0.000381676131687015
0.000620465120813512
0.000871508887496702
0.00112721921833488
0.00138224721450812
0.00163155785905695
0.00187044432230997
0.00209453490009431
0.00229953920798455
0.00248121943306925
0.00263631626586528
0.00276416141513282
0.00286673918892044
1.11254688447613e-07
2.14031594125839e-05
0.000142752812916324
0.000333701392808687
0.000557600776650507
0.00079830929672227
0.00104780786213895
0.00130035850792152
0.0015506044013151
0.00179356925136426
0.00202476601830677
0.00224008066305241
0.00243546617230093
0.00260679190571575
0.00275121249807693
0.00286841643799062
0.00296071374008919
3.75661097563718e-08
1.18871500249894e-05
0.000107858510181215
0.000276123711529256
0.000482955566275573
0.000712053079271133
0.000954377635852158
0.00120359627900989
0.00145398228775229
0.00170024606122191
0.001937648672042
0.00216201774053381
0.00236965090142218
0.00255601289848477
0.00271781691546158
0.00285243020255236
0.00295982031457845
0.00304260582587116
6.81716085716372e-09
3.9479959164855e-06
6.61175381431765e-05
0.000206721115681683
0.000394127380518273
0.000610631688630209
0.000845240861697667
0.00109062044416934
0.00134061167433038
0.00158960850023731
0.0018325710787287
0.00206500131210776
0.000265707148608128
6.96556779399413e-05
1.4808716375781e-06
0.000532679106564908
0.000274049269207793
7.40663423068142e-05
1.62556959455672e-06
0.00081441132501813
0.000543188647324181
0.000282784780960657
7.73287126016803e-05
1.67144745657549e-06
0.00108757906474176
0.000825769253522625
0.000552682386986335
0.000288962132753675
7.82584376102212e-05
1.63087213923632e-06
0.00134316648312203
0.0010993895633695
0.000834107826815712
0.000558508603400121
0.000290543016742601
7.71443440004787e-05
1.54662737090954e-06
1.4412449293294e-06
7.48416703520152e-05
0.0002877234637798
0.000558641757180823
0.000837374786260288
0.00110600228963485
0.00135559467088531
0.00157872588415299
1.31823780557041e-06
7.18403342232e-05
0.000281734140851156
0.000552922563745199
0.000834001512341107
0.00110585697073033
0.00136073514881954
0.00159194956911943
0.00179463988319922
1.17750391120083e-06
6.82068435221676e-05
0.000273396928150857
0.00054219597186068
0.000823655293891135
0.00109783405516209
0.0013572564553901
0.00159602479349008
0.00180852946387556
0.00199217497077207
1.02172715575685e-06
6.38757723325053e-05
0.000262910070874363
0.000527106694101145
0.000806683050316391
0.00108158201440319
0.00134427346491138
0.00158954161330767
0.00181164708220824
0.00200632939319348
0.00217264300047123
8.56097085263158e-07
5.8798431840648e-05
0.000250178919549165
0.000507815545554038
0.00078334289762494
0.00105709740211401
0.00132146867053003
0.0015716304059725
0.00180229876754621
0.00200827504967348
0.0021865324044433
0.00233716393694502
6.86710977951109e-07
5.29567082534862e-05
0.000235024998863199
0.000484158279960346
0.000753568765779204
0.0010242809507528
0.00128868308366604
0.00154201756667996
0.00177949124365253
0.00199596137718177
0.00218691984317117
0.00235023673702341
0.0024866643898379
5.20784895846079e-07
4.63427626973361e-05
0.000217222432157962
0.000455759888926275
0.000716997053374268
0.000982785878648951
0.00124559237452595
0.00150053666808308
0.00174298844341204
0.00196821097775653
0.00217140873146299
0.00234864053925164
0.00249840390144475
0.00262192389352715
3.65138556117841e-07
3.89610110632099e-05
0.000196445165052357
0.00042203012748684
0.000672979041660114
0.000931999247799137
0.00119162379735035
0.00144677643670228
0.00169269486115431
0.00192481514543188
0.00213862975550126
0.00232967376061818
0.00249443452787088
0.00263187426730192
0.00274361231764688
2.26200103400104e-07