/*--------------------------------*- C++ -*----------------------------------*\
  =========                 |
  \\      /  F ield         | OpenFOAM: The Open Source CFD Toolbox
   \\    /   O peration     | Website:  https://openfoam.org
    \\  /    A nd           | Version:  12
     \\/     M anipulation  |
\*---------------------------------------------------------------------------*/
/*   Windows 32 and 64 bit porting by blueCAPE: http://www.bluecape.com.pt   *\
|  Based on Windows porting (2.0.x v4) by Symscape: http://www.symscape.com   |
\*---------------------------------------------------------------------------*/
FoamFile
{
    format      ascii;
    class       volScalarField;
    location    "700";
    object      omega;
}
// * * * * * * * * * * * * * * * * * * * * * * * * * * * * * * * * * * * * * //

dimensions      [0 0 -1 0 0 0 0];

internalField   nonuniform List<scalar> 
10140
(
2.46684012185195
2.46684012027653
2.38167819932494
0.503114828177257
2.46684013438042
2.38167826054187
0.502971322758626
2.28699445272215
0.489579765930329
0.239932879656414
2.46684014660432
2.38167830681746
0.502769110395499
2.28699458698845
0.489454802271813
0.239815700131037
2.21610803716599
0.473537852762145
0.236492748932522
0.163021919866289
2.46684016062775
2.38167829536488
0.502494243131964
2.28699467467533
0.489273856079431
0.239618416277116
2.21610824383735
0.473417903728986
0.236380136243665
0.162914079295681
2.18721770423383
0.460930516997051
0.231704259295913
0.161889513466824
0.129745298463696
2.46684022608401
2.38167823682361
0.502091988771291
2.28699463699289
0.489013073071859
0.239333746477537
2.21610839766264
0.473243729474761
0.236187358274782
0.162732480105485
2.18721800819257
0.460809599957198
0.231594022823344
0.161783708613141
0.129648125182121
2.18619174524809
0.453997033169239
0.22723354328723
0.160040898619356
0.129326193551087
0.112200899016737
2.46684040399754
2.381678197238
0.501560348833988
2.28699449577394
0.488627209285111
0.238948950921049
2.21610835816873
0.47299230019795
0.235907474935279
0.162474620688516
2.1872183459305
0.460639230153642
0.231405350563291
0.161603467929234
0.129486245502848
2.1861921725092
0.453872790484021
0.22712404345349
0.159936455196735
0.129230522753615
0.112114971517375
2.19192529557702
0.450703348748154
0.223872718425643
0.157972609044391
0.128497248836467
0.112038252710766
0.101864667620342
2.46684060853353
2.38167823429883
0.500891144315031
2.28699436047023
0.488117364628977
0.238460514715276
2.21610814985818
0.472617517945718
0.235528485333081
0.16213708892106
2.18721838472963
0.460393427410071
0.231131115512143
0.16134722289561
0.129258280321014
2.18619289849398
0.453703974935554
0.226938556028164
0.159758167847357
0.129069353040215
0.111971336284281
2.19192786218321
0.450576106679992
0.223763184005006
0.157869135276835
0.128402648894345
0.111953631094602
0.101789629091068
2.19484646753061
0.448045110791478
0.22130074010461
0.156026553288913
0.127403695331301
0.111617734857317
0.101791452364829
0.0953548192712693
2.46684039437156
2.38167833213517
0.500080789810736
2.2869943267126
0.487472428479997
0.237865062646098
2.21610794614919
0.472125122495527
0.235047360538011
0.161718102679194
2.187218095095
0.460027340028382
0.230759459168493
0.161011778540623
0.128963209591556
2.18619313583986
0.453464606826148
0.226669589432622
0.15950471534974
0.128842109263769
0.111769102327794
2.19193113251976
0.450409464823244
0.223580356506327
0.157693042251026
0.128242635025695
0.111810494406989
0.101661881433557
2.19485124577986
0.447916620920855
0.221190924743514
0.15592400569289
0.127310060556835
0.111534046886796
0.101717604636105
0.0952898922978163
2.19511969829569
0.444523688501529
0.21882746063717
0.1542135670149
0.126193457097519
0.110975921182794
0.101540342922828
0.0953102584488172
0.0910891971220244
2.46683762068715
2.38167814435724
0.499129607429383
2.28699443330622
0.486689698965209
0.237161362639392
2.21610788714548
0.471503245955554
0.234460362188364
0.161216385670014
2.18721779875631
0.459548084250409
0.230287874135739
0.160595423766895
0.128600528001757
2.18619267951884
0.453108085899359
0.226305207400172
0.159172965639486
0.128547949037115
0.111508111550655
2.19192961654408
0.450177779852873
0.22331664324822
0.157443014610669
0.128016911220925
0.111608650217588
0.101480921413278
2.19485497839257
0.447754376861803
0.221010740797602
0.155750272671085
0.127151627451064
0.111391737608513
0.101590257318755
0.0951758534705295
2.19512467647932
0.444390566105164
0.218716880933575
0.154111997437825
0.126101035676746
0.110893134356939
0.101467350705793
0.0952464556234966
0.0910336004606887
2.19479800717415
0.440005100161249
0.216030175627098
0.152377186930576
0.124932866602853
0.11018401983192
0.101121604116463
0.0951324995946599
0.0910555631979831
0.0882406951657492
2.46683890081514
2.38167730318641
0.498036448776553
2.28699428172024
0.485770211369389
0.236349222492358
2.21610800963992
0.470747026327551
0.233766849229566
0.160631062526135
2.18721773004287
0.458943608225369
0.229712649050877
0.160096826303239
0.128170024111637
2.18619217794586
0.452641073556638
0.225843100064861
0.158761268361229
0.128186404136637
0.111188620029632
2.19192874745157
0.449832569677657
0.222959622887457
0.15711585992883
0.127724713103974
0.111348103807875
0.101247145776091
2.19485549888589
0.447532098387378
0.220752700061166
0.15550411046476
0.126928149950638
0.111190850222619
0.101409552728054
0.0950125856204274
2.19512654388323
0.444234290786447
0.218539605721003
0.153940813975289
0.125944659101495
0.110752069199984
0.101340679704175
0.0951327756759808
0.0909314558317299
2.19480337290798
0.439858906200091
0.215916183419421
0.152276467378972
0.124842058743877
0.11010248730701
0.101049460466106
0.0950695154982392
0.0910010481424073
0.0881939701473688
2.19479312669761
0.43470906784752
0.212800068969284
0.150396006949758
0.123620820041736
0.109310356537218
0.100582136651092
0.0948347492656897
0.0909165098316467
0.0882148517886117
0.0863380139060585
2.46684121378116
2.38167791954801
0.496802485694458
2.28699339051997
0.484712932157332
0.23542770194094
2.21610792389026
0.469855332612154
0.232966003810183
0.159962972106882
2.18721784342113
0.458208417910774
0.22903252936377
0.159515338903679
0.12767171429125
2.18619213716208
0.452051631042231
0.225279566929208
0.158268295140453
0.127757240920973
0.11081111030488
2.19192596129878
0.449379345172093
0.222506787768428
0.156709933100208
0.127365597433851
0.111029152684418
0.100961394631277
2.19485195183521
0.447199873407514
0.220403713855298
0.15518218994639
0.126638857011233
0.110931466476936
0.101176027101075
0.0948009924397038
2.19513074634149
0.444023245657757
0.218288060834842
0.153699007890722
0.12572412357922
0.110552786440954
0.101160675753101
0.0949697058064941
0.0907830880987068
2.1948053915215
0.439708693597371
0.215741455657774
0.152107998970185
0.12468825162581
0.109963222441847
0.100923841559114
0.0949564415237452
0.0908992392142424
0.0881021841134899
2.19479899199238
0.434537226806626
0.212676734809114
0.150295392086304
0.123532039739379
0.109230643559933
0.10051121457464
0.0947725810468842
0.0908627922176982
0.0881691742202065
0.0863006604143148
2.19511855608449
0.428747037700129
0.209160182078703
0.148234731516141
0.122248114461352
0.108401019499908
0.0999852146703368
0.0944609755014342
0.0906960723167637
0.0881034760291426
0.0863201673147782
0.0850911053828252
2.46683863087691
2.38169226993365
0.495433892269871
2.28699370251188
0.483517428805925
0.234397736243245
2.21610716667906
0.468829798320407
0.232057321326223
0.159212386432286
2.18721785969832
0.457340717084644
0.228247088925975
0.158851615163105
0.127106829822866
2.18619225169542
0.451334923915993
0.224613282420871
0.157693319622358
0.127260625273181
0.11037643252842
2.19192803365224
0.448805486827018
0.221954413715252
0.156223877315981
0.126939326847042
0.110652259208461
0.100624709357395
2.19484672207836
0.446762869042927
0.219960800201912
0.15478275082096
0.126283295899228
0.110613908942891
0.10089055016388
0.0945424576106162
2.19512458989159
0.443706236234335
0.217948339516683
0.153383051074438
0.125438613950923
0.110295367786417
0.100927935201193
0.0947582763750688
0.0905900052100678
2.19480305404842
0.439510938011331
0.215497208913012
0.151871162279894
0.124471368991854
0.109766272757103
0.100745085760559
0.094793947953316
0.0907510380736123
0.087966439188214
2.19480760589549
0.434392640271699
0.212502769703067
0.150129531663861
0.123381333022969
0.109093835125907
0.100387178894629
0.0946604372393802
0.0907615459700702
0.0880777005259988
0.0862176072388069
2.19512461210797
0.428526341851047
0.209018567088676
0.148132492749279
0.122161706253671
0.108323804425396
0.0999161156740045
0.0943999700301672
0.0906431359638721
0.0880585697458753
0.0862838161429591
0.0850673610041926
2.19484813698115
0.42213447081411
0.205160626428516
0.145921718318975
0.120832919333239
0.107492960274119
0.0993893643321754
0.0940712338700395
0.0904427519687616
0.0879413967045623
0.0862327892931044
0.0850814445887232
2.46683596259598
2.38167786656821
0.493930374841624
2.287007540379
0.482189175371982
0.233261046296285
2.21610500687094
0.467668998352665
0.23104139005367
0.1583808968417
2.18721621066109
0.456341123245364
0.227355921913712
0.158105939347511
0.126476621792752
2.18619222472061
0.450488470886026
0.223843647815954
0.157037135916509
0.126697635333786
0.10988616201963
2.19192833220119
0.448107202548912
0.221301369009679
0.155656982405955
0.12644608082432
0.110218359244224
0.100238654818929
2.19485126335814
0.446207702333629
0.219419983537005
0.154304369213608
0.125861207603467
0.11023863420593
0.100554157674896
0.0942386509440906
2.19511905654044
0.443287975998667
0.217516904141525
0.152990951059122
0.125087621050981
0.109980131225997
0.100643345435236
0.0944998932091725
0.0903542089095696
2.19479872196384
0.43921169452389
0.215168359458434
0.151562162267437
0.124190538678612
0.109511687119713
0.100513777533333
0.0945831105570837
0.0905580688984409
0.0877891112765766
2.19480538680966
0.434209810241331
0.212266251432844
0.149898259448659
0.123168873974944
0.108900004322346
0.10021032281053
0.0944989669983922
0.090613841631122
0.087942090134944
0.0860923581253532
2.19513112172946
0.428386184666721
0.208841808881597
0.147968543579195
0.122014611245325
0.108190191088957
0.0997943240077824
0.0942892144096076
0.090542716372126
0.0879676108731849
0.0862010485684645
0.0849894237526765
2.19485185442383
0.421795305208216
0.204986143150245
0.145815222579549
0.120749121412424
0.107419028426161
0.0993228418983783
0.0940119619260165
0.0903908923762398
0.0878972161884889
0.0861971518163767
0.0850586870327936
0.0843131421080906
2.19192791436318
0.414729715504721
0.200872342902743
0.143534547728081
0.119434825348179
0.106638043771285
0.098850924289739
0.09372619638786
0.0902160313378367
0.0877834203566529
0.0861194771735872
0.085015907988351
2.46684226923058
0.492307337199076
2.38166213273328
2.2869940498939
0.480736107103407
0.232020884760997
2.21611184979431
0.466379148604183
0.229920028582018
0.157470226668764
2.18721583701112
0.455208927438205
0.226359539341436
0.157279831483971
0.125782932507175
2.18619105028048
0.449511994404721
0.222970223092003
0.156300016285514
0.126069510298436
0.109342123601995
2.19192993062515
0.44728131228659
0.220546713924579
0.155010010492279
0.125886964291477
0.109728892871497
0.0998052035269791
2.19485400328955
0.445530233004753
0.218780271661755
0.153746341208226
0.125372782054587
0.109806595541371
0.100168448610216
0.0938917126208842
2.19512419033057
0.442754564123626
0.216989352119584
0.15252112219618
0.124670831186801
0.109607513138168
0.100307938353689
0.0941962411149803
0.0900780604828979
2.19479328938157
0.438814994381176
0.214750506700809
0.151178652733476
0.123845139462977
0.109199745153086
0.10023079399491
0.09432534475559
0.0903223535502383
0.0875729786183399
2.19480318386555
0.433931404312783
0.211949918183387
0.149597402890738
0.122893729771578
0.108649160750533
0.0999811859021788
0.0942892199393851
0.0904213360217735
0.0877648258319444
0.0859286300560738
2.19512681827939
0.428220440651655
0.208612790464647
0.147743216128848
0.121807404129168
0.108000337802864
0.0996201007352302
0.0941292935211814
0.0903958532951981
0.0878324195855687
0.0860758937001085
0.0848721045553738
2.19485570431745
0.421644458851178
0.204800591350219
0.145651792430312
0.120606083328043
0.107289450048926
0.0992040716198205
0.093903182202602
0.0902916590634612
0.0878069654870812
0.0861148353835697
0.084980967987968
0.0842279940324445
2.19193055418302
0.414219883739545
0.200638757026795
0.143420114190117
0.119353893141849
0.106568344214284
0.0987878949398194
0.0936693906574096
0.0901657515108961
0.087740191014042
0.0860844632269942
0.084993892898136
0.0843115032798365
0.0838681507789071
2.18619294169925
0.406410473701934
0.196410984524424
0.141218442365425
0.118169538726787
0.105924595616461
0.0984423714513825
0.0934906721535771
0.0900767266391012
0.0876902015476158
0.0860410228047892
0.0849449536354268
2.4668438288431
0.490583079984167
2.3816914763307
0.230682088054427
0.479171558972307
2.28696637178866
2.21610824321158
0.464970853181031
0.22869753502447
0.156483264173027
2.18722221389308
0.453951498842539
0.225259685702272
0.156375193148832
0.125028010008564
2.18619348918741
0.448404837200094
0.22199355986183
0.155483356928485
0.125378150878934
0.108746553529887
2.1919261487796
0.446327565983323
0.219689918810264
0.154283233844572
0.125263159108234
0.109185749373352
0.0993266329259642
2.1948531043604
0.444726201950522
0.218040506648678
0.153109345793716
0.124819102906187
0.109319209542485
0.099735316333433
0.0935040670579038
2.19512936670949
0.442100139271991
0.216364669554493
0.151972794151081
0.124188399664572
0.109178463110706
0.0999233165166403
0.093849417574553
0.0897642075207776
2.19479882191684
0.438306342029579
0.214238735267356
0.150718767460935
0.123434751484844
0.108830836260716
0.0998971447128248
0.0940223299179913
0.0900462471227089
0.0873210478178872
2.19479800618548
0.433559814369335
0.211548028564757
0.149224078423094
0.122555106345898
0.108341512932881
0.0997006039378271
0.0940325909678553
0.0901860506207664
0.0875487041768218
0.0857300253317482
2.19512477951573
0.427968374613195
0.208310593910889
0.14745172026767
0.121539092002076
0.107754221513722
0.0993939323729817
0.0939211964131116
0.0902041623633031
0.0876554970627324
0.0859121692341534
0.0847202473256878
2.19485330122245
0.421496068913005
0.204578341749251
0.1454325207009
0.120404988193408
0.107104547522257
0.0990333079652423
0.0937454181523578
0.0901460139691345
0.0876724278668455
0.0859900076672208
0.0848636912183778
0.0841157005997463
2.19192988002277
0.414029387545796
0.20043326277854
0.143255247075986
0.119215364685996
0.106443789559517
0.0986730740841801
0.0935633056355786
0.0900681795952012
0.0876508929926391
0.086002704772824
0.0849164766528859
0.0842271631156742
0.0837931883233756
2.18619500588245
0.405678752820742
0.196090836215591
0.141090991935212
0.118092003949375
0.105860373736467
0.0983839847262086
0.0934372439105702
0.0900286905787617
0.0876483353544331
0.0860067768530385
0.0849235145736927
0.0842660164880385
0.0838734829805484
0.083660354817299
2.18721907869173
0.397707141258163
0.192078922689155
0.139250677693339
0.117244905204902
0.105502253594153
0.0982740821061815
0.0934499202949023
0.0900939879871842
0.0877228884425978
0.0860600187488438
0.0849344780501597
2.46684253706441
0.488777134261241
2.38168167136367
0.229254012967152
0.477522838774312
2.28700507263454
0.155424077243195
0.227379157155918
0.463455849135992
2.21609060902104
2.18721879214926
0.452580108727571
0.224061213025897
0.155394949901583
0.124214930101311
2.18619594672053
0.447174834796003
0.220915624391584
0.15458917519235
0.124625806076517
0.108102191628871
2.19192946378825
0.445245017079746
0.21873147921102
0.153477959035577
0.124576566631594
0.108591134823843
0.0988056601955686
2.19484674775684
0.44379645882894
0.217200056655111
0.152393600228577
0.124201301233404
0.108778334727503
0.0992570624789769
0.0930785443756192
2.19512418391961
0.441321507091144
0.215641357154095
0.151346562019277
0.12364136145221
0.108694358550661
0.0994913277662189
0.0934618466046584
0.0894156782891716
2.19480428773884
0.437678844705471
0.213631836782757
0.150181601449381
0.12295943725381
0.108405860204212
0.0995144106896197
0.0936761392594
0.0897323778407842
0.0870365975003526
2.19480374182143
0.43307958311968
0.211054908759475
0.148776010046955
0.122152409940045
0.107977368013976
0.0993695344657689
0.0937307290455779
0.0899103284943216
0.0872967119593245
0.0855001879245954
2.1951198105926
0.427626163404833
0.207927199271606
0.147090361408146
0.121208632233432
0.10745195033175
0.0991165877266016
0.0936662648238054
0.0899696310244428
0.0874396288874425
0.0857134842321696
0.0845378008216952
2.19485167696793
0.421274057430131
0.204292286371123
0.145151621688582
0.120144775770899
0.106864278888916
0.0988109859430446
0.0935395863256515
0.0899554945286464
0.0874960458363842
0.0858264848361226
0.0847117610355379
0.0839747013474673
2.19192784839133
0.413893026200371
0.200216503278879
0.14304220285733
0.119021341897844
0.106264973058665
0.0985067398597247
0.0934084121759194
0.0899241958574655
0.0875172203528377
0.08587831627872
0.0847993919425482
0.0841149505715732
0.0836899510943917
2.18619346582451
0.405392077494014
0.195852743487207
0.140922529733144
0.117958724361307
0.105742093059551
0.0982742576472951
0.0933347385776995
0.0899333879280422
0.0875603284260256
0.085925689160247
0.0848464261089366
0.0841821308790981
0.0837993573921295
0.0835947283232223
2.18721905677796
0.396677049439645
0.19164908889252
0.139106085343779
0.117171984373685
0.105445304348341
0.0982218397292089
0.0934010224912743
0.0900490371332585
0.0876829509013713
0.0860268477357554
0.0849136187250616
0.0842324451230306
0.0838452280022932
0.0836719364394716
0.0836228484533257
2.2161092742595
0.39120255126226
0.188762636794714
0.138212708896597
0.117046434623669
0.105627493653372
0.0985226339307911
0.093730372813723
0.0903614073590778
0.0879534560321149
0.0862383447690795
0.0850491255299368
2.46683911286069
0.486903638907333
2.3816796034234
0.227750292345566
0.475804879515508
2.28699776642828
0.154299132305367
0.225974756832044
0.461870436185384
2.21610696348779
0.123347717298913
0.154343303934328
0.22276969677839
0.451112004030305
2.18721371618764
2.18619328609255
0.44583656937044
0.219741498266485
0.153620480421626
0.123815556349578
0.107412367882582
2.19193396671431
0.44404083862246
0.217673533500529
0.152596257679664
0.123829425495066
0.107947787551009
0.098245470455244
2.19485240952263
0.442739889556349
0.216259306799299
0.151600320586847
0.123521235650677
0.10818615200224
0.0987363878207482
0.0926183858139619
2.19511928563004
0.440419237628906
0.214818768214503
0.150642540920734
0.123030769419844
0.108156997404562
0.0990142486113445
0.0930363380116253
0.0890359272718146
2.19479898289547
0.436929590579691
0.21292791768545
0.149567603718379
0.12242016043995
0.107926135175156
0.0990843782315008
0.093289161035643
0.0893837522980904
0.0867233635433476
2.1948092905844
0.4324835439602
0.21046914499827
0.148252088567157
0.121685563599618
0.107557529293709
0.0989894935820865
0.0933856606073543
0.0895967615954054
0.08701211426593
0.0852431432458446
2.19512548417959
0.427177929461474
0.207455954714743
0.146656260934182
0.120815181226749
0.107093709452214
0.0987889397864863
0.0933660770858766
0.0896945585971504
0.0871877775022772
0.0854834713558356
0.084328997240338
2.19484905933732
0.420968115395927
0.203930355149663
0.144804131952663
0.119824057659472
0.106568621932716
0.0985377869177796
0.0932869490264902
0.0897220163396204
0.0872805521736775
0.0856278562098785
0.0845291315687575
0.0838079055044325
2.1919284360264
0.413700797889115
0.19994916331712
0.142773493404653
0.118770680815118
0.106031856547887
0.0982892822232526
0.0932055493380807
0.0897352434030251
0.0873415166286294
0.0857150290864648
0.0846474965275242
0.083973804647736
0.0835608145462152
2.18619093755697
0.40526960159182
0.195641814136104
0.140716737651003
0.11777314134453
0.105570761903245
0.0981135322624996
0.0931835828231446
0.0897916171488434
0.0874277750922756
0.0858017683450636
0.0847295069369504
0.0840700305710848
0.0836961502916267
0.0835013833782713
2.18721821276561
0.396272555264901
0.191365995249297
0.138933560332197
0.117045549020703
0.105335050372915
0.0981186752428976
0.0933032098644944
0.0899567775899355
0.0875966996368121
0.0859466131652766
0.0848368470705811
0.084148731886811
0.0837715240141305
0.0836070784716185
0.0835648254712253
2.21610890975852
0.389841644511833
0.188183303999901
0.138049681285631
0.116980987524033
0.105580571323878
0.0984785922148652
0.0936875011755957
0.0903206148428281
0.0879161818697895
0.0862066965126105
0.0850290044285317
0.0842808596574204
0.083843654719119
0.0836587473231203
0.0836398366933178
0.083702754487758
2.28699538146645
0.394912866597351
0.188992579661608
0.139438788226074
0.118340335240022
0.106760703802316
0.0994810873363132
0.0945289749176014
0.091016973947539
0.0884812971159725
0.086650146120801
0.0853516683826942
0.484965224875861
2.38167615227496
0.226183946725026
0.474008634328652
2.28699604307766
0.1531176797958
0.224497552912482
0.460218710989364
2.21611090142735
0.122431766858133
0.153226877296622
0.221396930135205
0.449576365478982
2.18721700268632
0.106681199105099
0.122951437129765
0.15258160136849
0.218477644640826
0.444406012409417
2.18618954965512
2.19192944467223
0.442730669860548
0.216521466835059
0.151641173154146
0.123024804186012
0.107259049191266
0.0976497483054452
2.19485809397211
0.44156352128314
0.215220292623799
0.150731550602633
0.12278109960189
0.107545360867828
0.0981764599599089
0.0921272646385922
2.19512523435617
0.439391659422763
0.213897195392573
0.149861835501371
0.122358397811311
0.107568504555137
0.0984947337329415
0.0925761196827209
0.0886288297899966
2.19479380894899
0.436058857565523
0.212126255234697
0.148876762202646
0.121817862923247
0.107393366143884
0.0986092617868157
0.0928641553479312
0.0890038056285881
0.0863855577469087
2.19480393953053
0.431768257117368
0.209788136058397
0.14765251476429
0.12115541364039
0.107083229952961
0.0985621873643913
0.0929997075060589
0.0892483081277654
0.0866986194120141
0.0849634682518824
2.19513090795769
0.426618662126673
0.206894726909381
0.1461480448827
0.120358479000317
0.106680167504223
0.0984123997769028
0.0930225833399714
0.0893814724821911
0.0869031646948814
0.085226130623009
0.0840986948881076
2.19485431366289
0.420559381769241
0.203484553059613
0.144386315501632
0.119441643265352
0.106217596272026
0.0982144685428988
0.0929889761197346
0.0894477911860076
0.087028852336868
0.0853977187630985
0.0843200165724976
0.0836200317754614
2.19192840437474
0.413435976594105
0.199612917106516
0.142442156420874
0.118461495671228
0.105744254490459
0.0980212774869355
0.0929558798389768
0.0895031355740039
0.0871264156931474
0.0855163648643927
0.0844646964436288
0.0838067075901126
0.0834101602890029
2.18619035161078
0.405123032525701
0.19539836834199
0.140462973783822
0.117533938068468
0.105346371333316
0.0979021623519863
0.0929845363586798
0.0896047185323554
0.0872529002647545
0.0856386183798491
0.0845774986222991
0.0839287408308394
0.0835667699735551
0.0833848312750159
2.18721384409991
0.396195159462158
0.191167747077519
0.138738556127214
0.116870819348421
0.105173094436137
0.0979650430392225
0.0931568740335333
0.0898179253236365
0.0874656237990467
0.0858232034420883
0.0847199289874299
0.0840365233172492
0.0836682902127822
0.0835136782985965
0.0834811341784571
2.21610749982241
0.389314247040423
0.187858481178544
0.137876448118956
0.116864910746785
0.105481028206465
0.0983839683041813
0.0935958133852039
0.0902323903315648
0.087832308409654
0.0861276121750334
0.0849525692132214
0.0841970888184399
0.0837699159676921
0.083594173599582
0.0835825058038742
0.0836512387624815
2.28699558541227
0.393272197773726
0.188303037791334
0.13925486931885
0.118287234333473
0.106728145400284
0.0994481969534611
0.0944941373666935
0.0909817292439556
0.0884476373479404
0.0866206312384976
0.0853325948243554
0.0844778410410784
0.0839422555337259
0.0836847984142785
0.0836395689662094
0.0837243481608707
0.0838589939745414
2.38167955402928
0.446316921099719
0.202651035849725
0.146393054441326
0.122786701878964
0.109787970722766
0.101662333818313
0.0961658616340357
0.0922727193463543
0.0894527662224405
0.08739905832053
0.0859180129227972
0.224550911838132
0.47209267657022
2.28699263701049
0.151889396591827
0.222956864314594
0.458473489693502
2.21611216634959
0.121474021349899
0.152054893548925
0.2199544586078
0.447980002198203
2.18722095953295
0.105913704953441
0.122038855692143
0.151479511001966
0.217135466277524
0.442911885674638
2.18619082549136
0.0970227672791016
0.106528998922693
0.122166749082686
0.150617188695664
0.215281919316827
0.441333397337983
2.19192394282371
2.19485348474157
0.440282908630178
0.214088566187508
0.149790305945403
0.121983899560925
0.106859268781496
0.0975809430382993
0.0916092697274456
2.19513150130458
0.438246267217752
0.21287847786431
0.149006362576041
0.121626341082663
0.106931495459802
0.097935899063462
0.0920848340027365
0.0881986370991524
2.19479968561379
0.43506455451275
0.21122694321224
0.148110058608234
0.121154194322889
0.106809577474005
0.0980916291664027
0.0924042949881249
0.0885963832957885
0.0860278230414833
2.19479860741361
0.430933554913802
0.209011140517834
0.146977126791723
0.120562766584779
0.106556051628676
0.098089725967287
0.0925755402282897
0.0888683407073045
0.0863604073728324
0.0846663039731715
2.19512558481951
0.425942409783894
0.206240431342459
0.145565529437864
0.119839194100468
0.106212441641894
0.0979885668676013
0.0926380025175102
0.089033243817589
0.086589434132027
0.0849460041087229
0.0838524973826392
2.19485531460617
0.420041263562856
0.202951643672165
0.1438964487331
0.118997051405454
0.105811714263953
0.097842308597541
0.0926475106398717
0.0891352469005773
0.0867440836794541
0.0851400138139597
0.0840892416842526
0.0834169532152074
2.19193125464139
0.413073124825754
0.199197237036884
0.142043273595126
0.118092135071766
0.105401977897387
0.0977033414644312
0.0926607380847325
0.0892299561195518
0.0868747225106785
0.0852858411479738
0.0842551522999882
0.0836183638640169
0.0832439858648089
2.18619245123398
0.404920094494926
0.195095007440183
0.14015122140734
0.117238510261895
0.105068532017126
0.0976406040680239
0.0927386464543986
0.0893743796055966
0.0870382016242534
0.0854396373397699
0.0843942019632594
0.0837612154564316
0.0834156774066838
0.0832511680078045
2.18721386158079
0.396144013050113
0.190963245470932
0.138505212672001
0.116646049998903
0.1049594732852
0.0977612725901435
0.0929626938088638
0.089633709270928
0.0872918167295924
0.0856600735946607
0.0845674500201628
0.0838947358516246
0.0835385526699222
0.0833967659194174
0.0833775851259394
2.21610229245698
0.389321709672148
0.18770076864329
0.13770106805507
0.11670555626738
0.105331261914032
0.098239385634461
0.0934556751135735
0.0900973649346181
0.0877032148201125
0.0860048524810099
0.0848354709565149
0.0840843690344852
0.0836662527030989
0.0835005629900214
0.0834986607918001
0.083576887826812
2.28700593835545
0.392626516597818
0.187952469883254
0.139090623961927
0.118188070927707
0.106643632782684
0.0993649218855764
0.0944104710840939
0.0908988245261073
0.088366960140647
0.0865431353856192
0.0852566060192882
0.0843938231414137
0.0838680313817377
0.0836199052428896
0.0835823614780978
0.0836734457789219
0.0838133538476095
2.38168145625283
0.444970215282333
0.201986824431286
0.146184187691181
0.122749529523244
0.109775958684213
0.101644975680148
0.0961418597595402
0.0922448862822393
0.0894239710911231
0.0873724844627878
0.0859004572777009
0.0848871555645943
0.0842091242145523
0.0838264334638681
0.0836892210738027
0.0837350216145773
0.0838844649302685
0.0840595192967296
3.68516517047986
0.799823386275459
0.284551014226211
0.170717905137503
0.134439004211659
0.11657068820314
0.106030984914913
0.0991909541398329
0.094468480423657
0.0910909519309629
0.0886376225550509
0.0868550246532953
0.150617106033976
0.221340372425529
0.456602590655584
2.21610428102563
0.120482098682655
0.150836215494335
0.218445743000958
0.446288799801419
2.18722160490384
0.105115923888746
0.121084757959462
0.150323253339374
0.215725738911571
0.44136019818445
2.18619347792412
0.0963695022530482
0.105762633686434
0.121260711864569
0.149531297457117
0.213966084012327
0.439872505115669
2.19192630107263
0.0910689522153544
0.0969540807130148
0.106131904466747
0.121133655136407
0.148781064420613
0.212870890675865
0.438916819471627
2.19484951396594
2.19512709796093
0.436998535877437
0.211768115564908
0.148079037937129
0.12083748587504
0.106249187869673
0.0973413479515066
0.0915665398772941
0.087749955300096
2.19480800854518
0.433954508337459
0.210231666409724
0.147269201764468
0.120431093654499
0.106177253101021
0.0975344974500855
0.0919131528442591
0.0881657055287072
0.0856551670387886
2.19480421378859
0.429977727592661
0.208138021130513
0.146226743474034
0.119909111313207
0.1059778763447
0.0975745472596717
0.0921162273330126
0.0884606311557723
0.0860020861053971
0.0843572835641458
2.19512025608535
0.425148979653249
0.205492195503613
0.144908393293067
0.119257974237954
0.10569196469967
0.0975194128499969
0.0922148719075724
0.0886531335135823
0.0862506855350267
0.084648192221131
0.0835967283177496
2.19485207565669
0.41940999581095
0.202328224895553
0.143333887682559
0.118490700977496
0.105351934058944
0.0974227723580181
0.0922646332905422
0.0887871223210079
0.0864297754864803
0.0848592019953937
0.0838423666041109
0.0832055883917641
2.19193118340958
0.412606944855455
0.198697346121463
0.141574704627778
0.117661861668114
0.105005359010708
0.0973366004471573
0.0923218327506538
0.0889179991455838
0.086589440702623
0.0850272882583144
0.0840236147132611
0.0834146069549009
0.0830696398945865
2.18619365611158
0.404628809309407
0.194717061201161
0.139774896684093
0.116884596671694
0.104736795875531
0.0973293082931776
0.0924470926958306
0.0891025276906437