/*--------------------------------*- C++ -*----------------------------------*\
  =========                 |
  \\      /  F ield         | OpenFOAM: The Open Source CFD Toolbox
   \\    /   O peration     | Website:  https://openfoam.org
    \\  /    A nd           | Version:  12
     \\/     M anipulation  |
\*---------------------------------------------------------------------------*/
/*   Windows 32 and 64 bit porting by blueCAPE: http://www.bluecape.com.pt   *\
|  Based on Windows porting (2.0.x v4) by Symscape: http://www.symscape.com   |
\*---------------------------------------------------------------------------*/
FoamFile
{
    format      ascii;
    class       volVectorField;
    location    "700";
    object      U;
}
// * * * * * * * * * * * * * * * * * * * * * * * * * * * * * * * * * * * * * //

dimensions      [0 1 -1 0 0 0 0];

internalField   nonuniform List<vector> 
10140
(
(6.5825102190594e-06 -0.000424463101150448 7.25257476407009e-06)
(9.24082904615344e-06 -0.000417711494705068 1.61424667129104e-05)
(2.57832174886297e-05 -0.00051146033857603 -8.2034710911594e-07)
(7.07977875408294e-06 -0.000432935288086372 3.97445968351723e-05)
(1.1509462252742e-05 -0.000415125495002373 2.54352939175889e-05)
(3.18135778591555e-05 -0.000511471985651538 9.25441974169662e-06)
(8.30759458153504e-06 -0.000416838348746331 5.23592499260618e-05)
(4.80052494948845e-05 -0.000562810640745182 -4.48617554059884e-06)
(2.47743261425851e-05 -0.000520729882967505 3.2368670517216e-05)
(4.63967361324103e-06 -0.000330249402130931 7.50275538309852e-05)
(1.19202828790546e-05 -0.000406987779446574 2.71804201206454e-05)
(3.69186657205296e-05 -0.000518723911351749 1.81607173535532e-05)
(9.33857830934025e-06 -0.000404677615225968 6.51190604035391e-05)
(5.52852650738302e-05 -0.000566116224520461 5.9216022332803e-06)
(2.804109182832e-05 -0.00051211167158271 4.43274665827198e-05)
(5.13568405642155e-06 -0.000310412040435822 8.82348603454851e-05)
(7.22323674834319e-05 -0.000579096586524992 -5.13923370586469e-06)
(4.36137399239445e-05 -0.000565463667511048 2.79675292542006e-05)
(1.59757769603945e-05 -0.000377255850480164 6.84988902239108e-05)
(3.31086099666626e-06 -0.000278958022522826 0.00010668755218758)
(1.24236906811657e-05 -0.000382027327510913 2.83009194431805e-05)
(3.90323192980202e-05 -0.000516716215571629 1.8937636163626e-05)
(9.91866287168089e-06 -0.000387171274868991 7.24392247069132e-05)
(6.14602963826016e-05 -0.000577375541466756 1.46075597665866e-05)
(3.10462652398587e-05 -0.000506224672021144 5.65102922907474e-05)
(5.59754996278057e-06 -0.000290447813118532 0.000101048963440037)
(8.04596951946806e-05 -0.000583152338770626 5.27302117857968e-06)
(4.84955448617978e-05 -0.00056040909580641 3.99240591414322e-05)
(1.75601668605288e-05 -0.000361488102826278 8.12107468734818e-05)
(3.60921868972656e-06 -0.000258395710725118 0.000121667275466514)
(9.78744525121556e-05 -0.000587136732936024 -4.85709104446187e-06)
(6.45527416121711e-05 -0.000582836017686303 2.58566810068388e-05)
(2.82715723967597e-05 -0.000403985442817501 6.46833000853672e-05)
(1.10415070061318e-05 -0.000301406896407187 0.000101015325043578)
(2.56833206052284e-06 -0.000242437444430949 0.000136702301725735)
(1.3315152702135e-05 -0.00035248012838119 2.91534356200961e-05)
(4.13540771829005e-05 -0.000496909266903507 1.99868350231075e-05)
(1.04968056631754e-05 -0.000361601040394929 7.98333776315672e-05)
(6.55934612386385e-05 -0.000578691822653488 1.49142010726294e-05)
(3.32276172230112e-05 -0.000493286707912109 6.33985992274211e-05)
(5.96569658422378e-06 -0.000266406887806032 0.000112820742408377)
(8.79351031433514e-05 -0.000595405933183902 1.36323116015332e-05)
(5.28310179251808e-05 -0.000557706009027263 5.21260636152372e-05)
(1.91422528833149e-05 -0.000344738204483069 9.37558476323277e-05)
(3.90416864446691e-06 -0.000236026962283092 0.000136959951777689)
(0.000107446742375348 -0.000591482126255221 5.5755483871636e-06)
(7.0825886478952e-05 -0.000578779461502275 3.80006128473992e-05)
(3.09783414106425e-05 -0.000390445166421645 7.72481823187593e-05)
(1.19812792575935e-05 -0.000282780077614387 0.000115510275473435)
(2.77028721623637e-06 -0.000221938246383081 0.000153930054967526)
(0.000124025011782659 -0.000592223397246884 -5.29595099521801e-06)
(8.68647743679784e-05 -0.000593274943940045 2.43132647421253e-05)
(4.2050624792687e-05 -0.000417530632500228 6.29445583616406e-05)
(1.95631319616186e-05 -0.0003161856798132 9.76678204403162e-05)
(8.27468299148221e-06 -0.000255438195727409 0.000131269959085229)
(1.97337161558947e-06 -0.000209224064642662 0.000164338760970606)
(1.43972420020428e-05 -0.000318871615021757 3.04159864869582e-05)
(4.42378548580667e-05 -0.000473282888453355 2.08213588623489e-05)
(1.11519672898787e-05 -0.00033094326989308 8.74655878697083e-05)
(7.0018224810859e-05 -0.000561446815041031 1.62549028438466e-05)
(3.54051090162461e-05 -0.00047149159373368 7.00720859764356e-05)
(6.3174827997036e-06 -0.000237725759333845 0.000124862225739453)
(9.44841496664762e-05 -0.000597416595081881 1.39076171859783e-05)
(5.63754838064439e-05 -0.000547198800441056 5.88307558329979e-05)
(2.051483908214e-05 -0.000323202780557298 0.000105036940958766)
(4.1445961262193e-06 -0.000210298677812187 0.000152344347985041)
(0.00011647815088558 -0.000604089983144125 1.37952582379482e-05)
(7.65622190533961e-05 -0.000577026548693503 5.04439332350206e-05)
(3.34675540854976e-05 -0.00037555105636068 8.97670955337535e-05)
(1.29910164690208e-05 -0.000261862817799592 0.000130438447783071)
(2.98000806711141e-06 -0.00019915762538216 0.000171955430828971)
(0.00013538553605749 -0.000596708783345448 5.08471289366901e-06)
(9.4653606057841e-05 -0.000589368080377038 3.67731188863001e-05)
(4.5862948870678e-05 -0.000404736254114023 7.56160368316768e-05)
(2.12309463067778e-05 -0.000298703780601298 0.000111970430478431)
(8.91629200535848e-06 -0.000235971379852567 0.000147964463524699)
(2.12391851537426e-06 -0.000189018422355453 0.000183966512637056)
(0.000149481437018024 -0.000596385504461707 -6.23887860059461e-06)
(0.000109705110022854 -0.000601136738388943 2.2522741676517e-05)
(5.68894082219666e-05 -0.000427074346611176 6.16057146357314e-05)
(2.91075481556518e-05 -0.000325105268670979 9.6196456741082e-05)
(1.45119838177125e-05 -0.000264986421615723 0.000128039053023787)
(6.29275333291571e-06 -0.000218587783263403 0.000158806168761206)
(1.47117541463296e-06 -0.00017799900243388 0.000189679392912098)
(1.54137947021641e-05 -0.000280482623101355 3.31472694062264e-05)
(4.73838118872185e-05 -0.000446461343369258 2.25545827552141e-05)
(1.18620867482748e-05 -0.000295553182700983 9.58361842359251e-05)
(7.51563228545456e-05 -0.000540411051757538 1.64608649742722e-05)
(3.77873445173122e-05 -0.000444667017609386 7.65814573124805e-05)
(6.66749561278595e-06 -0.000204938922673572 0.000137373254748852)
(0.000101522332686343 -0.000580411465295982 1.57954062201134e-05)
(6.00521429165631e-05 -0.000527374963515323 6.52792971898137e-05)
(2.18513841704557e-05 -0.000296750531590467 0.000116385023599274)
(4.37361143973363e-06 -0.00018114499674521 0.000168308035752265)
(0.000125603425343923 -0.000606224448931835 1.39468057081923e-05)
(8.17559619737508e-05 -0.00056704891085213 5.71735621764619e-05)
(3.56831272178845e-05 -0.000355404756626812 0.000100870719832996)
(1.38939831312187e-05 -0.00023725868205794 0.000145305200316749)
(3.16125778675191e-06 -0.000173460929835707 0.000190706273223005)
(0.000146215883080978 -0.000609411544701234 1.31666183677009e-05)
(0.000101954682494564 -0.000587830294636556 4.95297190503191e-05)
(4.93448867102643e-05 -0.000390504385044427 8.82970469741424e-05)
(2.28397551527864e-05 -0.000278684086251243 0.000126797346869601)
(9.62784908457003e-06 -0.000213896985430038 0.000165531666594155)
(2.28465082334542e-06 -0.000166492403140302 0.000204703479323397)
(0.000163052599034496 -0.000600964571790943 4.08696968289161e-06)
(0.000119169513541267 -0.000596999511755951 3.53030621465633e-05)
(6.18321292968435e-05 -0.000414375064331932 7.44954435037308e-05)
(3.15621093483902e-05 -0.000307965557949142 0.000110550079926468)
(1.56614695455969e-05 -0.000246136906288505 0.000144486333856048)
(6.77440454537592e-06 -0.000199019471876794 0.000177847253135124)
(1.59181752722189e-06 -0.000158208222286941 0.000211641702974296)
(0.000173203294587926 -0.000600350217538868 -7.87143578261585e-06)
(0.00013216684259443 -0.000607622458227869 2.01132163616026e-05)
(7.19748668076036e-05 -0.000435079309047523 5.99509820698122e-05)
(3.93470024006015e-05 -0.000332359184465138 9.49745400897685e-05)
(2.15402218554271e-05 -0.000271664870289821 0.000126634772796412)
(1.09540687841949e-05 -0.000226019701197521 0.00015545268899206)
(4.71639395170779e-06 -0.000185723043784576 0.000183978477353329)
(1.05966603070994e-06 -0.000148942983744996 0.000212870947777988)
(1.64818893238499e-05 -0.00023664274991629 3.65681377718821e-05)
(5.07632425266114e-05 -0.000415657489360785 2.47809173966235e-05)
(1.25938953654942e-05 -0.000255430095643266 0.000104996730493928)
(8.08500717740093e-05 -0.000516684280184962 1.76942034773567e-05)
(4.03360976330406e-05 -0.000413333876130879 8.38303311660248e-05)
(7.02087723280315e-06 -0.000168010461998092 0.000150599142840561)
(0.000109275276756897 -0.000559582312260395 1.57165804779797e-05)
(6.40306366457955e-05 -0.000502501986358445 7.12217597350943e-05)
(2.3205662118584e-05 -0.000266170226842163 0.000127996303969071)
(4.59493577971001e-06 -0.000148530726921414 0.000185012265670728)
(0.000135498675222921 -0.000589041451387953 1.62341698549753e-05)
(8.71983873136988e-05 -0.000547469969441535 6.35850959682902e-05)
(3.79045990324173e-05 -0.000330123644451262 0.000111923171865482)
(1.47631972944914e-05 -0.000209110993171654 0.000160601119197457)
(3.33323570565351e-06 -0.000144868429577459 0.000210333515694831)
(0.00015804947722686 -0.000611366471310389 1.33935181905486e-05)
(0.000109018092728922 -0.00057770803026054 5.62832607229347e-05)
(5.25541798058856e-05 -0.000370726333886553 9.94568688290232e-05)
(2.43163626499455e-05 -0.00025471704101627 0.000141483162922631)
(1.02864081991387e-05 -0.000188710392093423 0.00018375632324184)
(2.43071650379391e-06 -0.000141344020324112 0.000226519316582525)
(0.000175995395929704 -0.000613575244634091 1.20451018169365e-05)
(0.000128164497079183 -0.000595291869935626 4.83355426935189e-05)
(6.640275773205e-05 -0.000400244696566913 8.74181329930051e-05)
(3.38423029323841e-05 -0.000288209957713578 0.000125481118325603)
(1.6805494158694e-05 -0.000224491183449793 0.000161887183446705)
(7.31408092694809e-06 -0.00017686969543119 0.0001980673557328)
(1.72170902003156e-06 -0.000136202306329235 0.000234923943388568)
(0.000189232727071331 -0.000604869043424129 2.57947634800974e-06)
(0.000143444900404054 -0.000602992728197221 3.32062234578969e-05)
(7.80764641327469e-05 -0.000422131583424534 7.30695250726031e-05)
(4.25964073208394e-05 -0.000315136483780514 0.000109490052827313)
(2.32576237047434e-05 -0.000252921950199722 0.000143098308190631)
(1.18117158812534e-05 -0.000206817560251554 0.000174203931239059)
(5.10292453374559e-06 -0.000166362601358802 0.000205323034244626)
(1.16354089812194e-06 -0.000129674079970282 0.000237005824595925)
(0.000194388207557626 -0.000604096437687133 -1.04308206877569e-05)
(0.000153337277127232 -0.000613551911705173 1.69122689061777e-05)
(8.66232288817981e-05 -0.000442394459283907 5.76283339417549e-05)
(4.9607930309488e-05 -0.000339084708172187 9.33288143913415e-05)
(2.90037080653496e-05 -0.000277897036827734 0.000125419248392104)
(1.6228530245375e-05 -0.000231869439761856 0.000153990702962006)
(8.19567833082832e-06 -0.000192208723714554 0.000180471371126826)
(3.43944783860285e-06 -0.000155688481460345 0.000207076026504106)
(7.42103518304159e-07 -0.000122241641983112 0.000234147210823611)
(1.76238876258696e-05 -0.000187483877130528 4.0210775277806e-05)
(5.45979998432581e-05 -0.00038036703230934 2.69107614130693e-05)
(1.33454472096835e-05 -0.000210393100971047 0.000114781471556692)
(8.69477578213041e-05 -0.000489534828580006 1.93568330671872e-05)
(4.29882071762885e-05 -0.000377474847350437 9.18287072651035e-05)
(7.36879287721561e-06 -0.000126831411372082 0.000164628639915455)
(0.000117783704089854 -0.000536217723294926 1.65858114301134e-05)
(6.82821619078635e-05 -0.000473200101635804 7.77330053873366e-05)
(2.45852480386664e-05 -0.00023148496851653 0.000140227106421425)
(4.80580140142712e-06 -0.000112262570932879 0.000202587550937057)
(0.000146302440536313 -0.000568012992018403 1.64727349565801e-05)
(9.30167943667505e-05 -0.000522795233615513 6.93777687719735e-05)
(4.01924728555258e-05 -0.000300669315935512 0.00012310054634214)
(1.56167562938313e-05 -0.000177479302447533 0.000176509264485602)
(3.49579796343831e-06 -0.000113217279943769 0.000230936439298826)
(0.000171023440421302 -0.000593778863181814 1.57710375023724e-05)
(0.000116495911390492 -0.000557687577327122 6.26640850084007e-05)
(5.58114084219996e-05 -0.000345649591103705 0.00011047890972764)
(2.57700216763656e-05 -0.000227089236432808 0.000156503797149126)
(1.09220679962457e-05 -0.000160570472845492 0.000202753824496664)
(2.57197780311741e-06 -0.000113600479677662 0.000249463725049801)
(0.000190595934345023 -0.0006150719036893 1.24080882761059e-05)
(0.000137232469271141 -0.000584632798391963 5.51185983468621e-05)
(7.07516669686722e-05 -0.000380338532301078 9.87077718405865e-05)
(3.59643065965459e-05 -0.000264316604181435 0.000140222347746464)
(1.78894700990662e-05 -0.000199556333505364 0.000179924725584513)
(7.82933704832778e-06 -0.000151949307332186 0.000219349550431484)
(1.8450714322203e-06 -0.000111803784111327 0.000259524360096846)
(0.000204554205613721 -0.000617234870638136 1.04171617104873e-05)
(0.000154230455833325 -0.000600823474469705 4.64500368062911e-05)
(8.37888712393795e-05 -0.000407764611535265 8.62265108017607e-05)
(4.56200412335482e-05 -0.000295268253672749 0.000124610259336297)
(2.48874553859826e-05 -0.000231297917127029 0.000160562454248718)
(1.26821869530665e-05 -0.000184873101760786 0.000194214203021796)
(5.53570369167232e-06 -0.000144562250351765 0.000228062898207045)
(1.27374285073087e-06 -0.000108344861145221 0.000262638451092542)
(0.000212923069100931 -0.000608372127462606 5.18887549551868e-07)
(0.000166496577674544 -0.00060820757051669 3.02747220343009e-05)
(9.39008945190064e-05 -0.000428965520519271 7.09422268775931e-05)
(5.3642433061366e-05 -0.00032152060077041 0.000108037873954892)
(3.12974246881811e-05 -0.000258969053931817 0.000142018859493689)
(1.75111818534288e-05 -0.000212659833741962 0.000172732231850899)
(8.87606512888695e-06 -0.000173079087639906 0.00020150493617579)
(3.76810447899907e-06 -0.00013671870376311 0.000230589510759255)
(8.36310305031675e-07 -0.000103613972270158 0.000260277812649003)
(0.000212168277803354 -0.000607586351020536 -1.42578250149129e-05)
(0.000172555084750447 -0.000619649407314928 1.27135019013196e-05)
(0.000100318550661909 -0.000449581088599525 5.44077583925317e-05)
(5.93542569715347e-05 -0.000345714542236856 9.0953303327688e-05)
(3.63818402342746e-05 -0.000284210451607593 0.000123734151585312)
(2.17684658252475e-05 -0.000237793013448532 0.000152742476290544)
(1.21059816143946e-05 -0.000197748645525842 0.000178938784845153)
(5.98434335369954e-06 -0.000161615651299571 0.00020349714163197)
(2.42973779352117e-06 -0.000128227581213512 0.000228373998952272)
(4.96172943268031e-07 -9.79785569802535e-05 0.000253743043840072)
(1.88336225849119e-05 -0.000132745645510827 4.4090388811757e-05)
(5.89104830765633e-05 -0.000340671422887229 2.91892199815872e-05)
(1.41182807602164e-05 -0.000160129670473531 0.000125159172528014)
(9.35023878785532e-05 -0.000458333588487228 2.08425489991561e-05)
(4.57747529174219e-05 -0.000336879575393461 0.000100293183497105)
(7.70425488965789e-06 -8.1216227700438e-05 0.000179433584391422)
(0.000127042006373094 -0.000509720810809821 1.79594894213829e-05)
(7.2730983736966e-05 -0.000439536505764286 8.50612961927097e-05)
(2.59777490220133e-05 -0.000192617754816178 0.000153170023882763)
(5.00195790733056e-06 -7.21402415798579e-05 0.000221088599005626)
(0.000158015693573308 -0.000544515066138022 1.74225345587732e-05)
(9.92498626801823e-05 -0.000493685188164115 7.55588115351016e-05)
(4.25375353091448e-05 -0.000267116857913064 0.000134812838235083)
(1.64512836479563e-05 -0.000142184243012447 0.000193192966667143)
(3.64760276974947e-06 -7.82791412895259e-05 0.000252592037627022)
(0.000185128866852769 -0.000572336717229179 1.62210536351009e-05)
(0.000124462484079409 -0.00053250634875847 6.84326955320434e-05)
(5.91924846682754e-05 -0.000316358617585825 0.000121536964013969)
(2.72176177838856e-05 -0.000195934863770911 0.000172045227459761)
(1.15385901483216e-05 -0.000129353394596715 0.000222622147617002)
(2.70744771668267e-06 -8.30831237064696e-05 0.000273604642826433)
(0.000206721153276946 -0.000596831858582329 1.49767366197959e-05)
(0.000146919282561502 -0.000563786011697376 6.1468444824351e-05)
(7.52061837330516e-05 -0.000354964540104252 0.000109788308110527)
(3.80786987042285e-05 -0.000236656273912104 0.000155239863040504)
(1.89549400994235e-05 -0.000171591622419389 0.000198670000039212)
(8.33284749529029e-06 -0.000124393492632952 0.000241680594771785)
(1.96898653256984e-06 -8.50283234328743e-05 0.000285473379538985)
(0.000221909838164591 -0.000617972423089026 1.1013229012608e-05)
(0.000165333087420727 -0.000589314948107969 5.3233765281356e-05)
(8.93603360308963e-05 -0.000387414853190865 9.7649543123678e-05)
(4.84818738149155e-05 -0.00027110575670216 0.000139491350365978)
(2.64360825566504e-05 -0.000206250135683451 0.000178654632716971)
(1.35311500899295e-05 -0.000160016643030477 0.000215300220578422)
(5.96257699611206e-06 -0.000120242374316133 0.000252127425205036)
(1.38594121611159e-06 -8.48263090529097e-05 0.000289780799193199)
(0.000230698336483347 -0.000620349828282727 8.23300661527063e-06)
(0.000179123889019734 -0.000605333298565771 4.36521096874497e-05)
(0.000100772569329742 -0.000414116215630632 8.42837548186077e-05)
(5.74250367485237e-05 -0.000301279136118704 0.000123357848923982)
(3.34592360019891e-05 -0.000237102301417856 0.00015964494772947)
(1.8753652922221e-05 -0.000190620173699965 0.000192784031932098)
(9.57796551800638e-06 -0.000151367070208479 0.000224012941238686)
(4.13675286085299e-06 -0.000115491780302127 0.000255674593517219)
(9.42947150886413e-07 -8.31010698868037e-05 0.000288072395237167)
(0.000233117312527441 -0.000611458375177627 -2.91282588240304e-06)
(0.000187610251409716 -0.000613396928909543 2.63436412976372e-05)
(0.000108771134038303 -0.000435488604827378 6.78858937532584e-05)
(6.41491539736856e-05 -0.000327629614654584 0.000105839577064048)
(3.92293049955369e-05 -0.000264897367413624 0.000140507925920258)
(2.3481613225888e-05 -0.0002183533089795 0.00017160811742707)
(1.31152918953931e-05 -0.000178555803171072 0.000199954810572986)
(6.55563956858393e-06 -0.000142790913859391 0.000226699110173491)
(2.72723602481774e-06 -0.000109798425669409 0.000253896079796967)
(5.90574223928426e-07 -8.01164978867192e-05 0.000281697036868915)
(0.000225535453625463 -0.000611392331805179 -1.88644375276413e-05)
(0.000189372807693804 -0.000626652906995278 7.24835808058129e-06)
(0.00011269342722608 -0.000457125608362659 5.01262460988092e-05)
(6.8254276759345e-05 -0.000352513745161588 8.7656135742561e-05)
(4.32674341890634e-05 -0.000290748326495284 0.000121273878744135)
(2.71722219204975e-05 -0.000244051674711703 0.000151012001180391)
(1.61737547226451e-05 -0.000203571385234693 0.000177667233403453)
(8.80503878645496e-06 -0.000166970157206141 0.000201944761843509)
(4.21466027924011e-06 -0.000133705339009025 0.000224810536191543)
(1.64286836250075e-06 -0.000103289273856979 0.000248088051172032)
(3.17963041170814e-07 -7.61800656362548e-05 0.000271870304285109)
(2.02086100183686e-05 -7.21448571199375e-05 4.79210366212588e-05)
(6.34707551224955e-05 -0.000296483335066482 3.19924384446981e-05)
(1.49150260245983e-05 -0.000104317980280505 0.000136094959484761)
(0.000100720387959521 -0.000423146486431167 2.25126255076863e-05)
(4.87136166678882e-05 -0.000291252043331815 0.000109194548593794)
(8.01869737941997e-06 -3.0924241981894e-05 0.000194951278149632)
(0.000136984608709394 -0.000479425732077802 1.91828103673089e-05)
(7.74297831764935e-05 -0.000401307190202265 9.28570737133927e-05)
(2.73769752243053e-05 -0.000149399213172446 0.000166771381312583)
(5.17601125735677e-06 -2.79488926201664e-05 0.00024049648081825)
(0.000170700843587615 -0.000517984287084841 1.89766802101418e-05)
(0.000105836346778286 -0.00046022938551967 8.24820576097522e-05)
(4.49181696318933e-05 -0.000229421546450362 0.0001471890228532)
(1.72593910460865e-05 -0.000103041474533625 0.000210708837873771)
(3.78361860507028e-06 -3.98280378783149e-05 0.000275334103988907)
(0.00020036982522779 -0.000548497145557798 1.7491794178002e-05)
(0.000132938616685905 -0.000502858459429955 7.45693529680186e-05)
(6.26802544528156e-05 -0.000282954574636927 0.000133064172176051)
(2.86456017169574e-05 -0.000161095531313954 0.000188288850218203)
(1.21299108649702e-05 -9.48319760096593e-05 0.000243445219661546)
(2.83511980963308e-06 -4.95671047615364e-05 0.00029899723936112)
(0.000224181715425835 -0.000574687054084432 1.53657437274261e-05)
(0.00015721933683136 -0.000537666457629352 6.71621579576573e-05)
(7.98418554225885e-05 -0.000325316512532542 0.000120854599403049)
(4.02120542225879e-05 -0.000205425988721906 0.000170718195097705)
(2.00025308840054e-05 -0.000140515135067927 0.000218214469560098)
(8.82366914348836e-06 -9.40470000461435e-05 0.000265113081164462)
(2.09258333137888e-06 -5.57089262369099e-05 0.00031283035326585)
(0.000241178250134083 -0.000598795844142374 1.34907925347561e-05)
(0.00017726263147837 -0.000567332717742031 5.95363755582116e-05)
(9.51084118871351e-05 -0.000361422966323913 0.000108797941823855)
(5.13525540164738e-05 -0.000243066589138512 0.000154598516648219)
(2.79725195122304e-05 -0.000178097802894877 0.000197416509910675)
(1.43754159821136e-05 -0.00013246483053302 0.000237389649954627)
(6.39223712823085e-06 -9.35094238850814e-05 0.000277476518019733)
(1.50461123080044e-06 -5.91212133084316e-05 0.000318473735930543)
(0.000250706553655358 -0.000620113459525563 8.73475583679039e-06)
(0.000192236618611101 -0.000592721593071504 5.04164420360855e-05)
(0.000107571979768792 -0.000393082476660977 9.58137552325438e-05)
(6.10615054460034e-05 -0.000276604629796319 0.0001383866610289)
(3.55267092300934e-05 -0.000211690252030772 0.000177885041123727)
(1.99626600774749e-05 -0.000165556918772143 0.000213928697488874)
(1.02849397636462e-05 -0.000127011258188324 0.000247879026226496)
(4.51727427887599e-06 -9.19602193570003e-05 0.000282291348596641)
(1.05635722883667e-06 -6.05891840408884e-05 0.000317556684879287)
(0.000253322534355605 -0.000623049981292985 4.63255921002011e-06)
(0.000202076413316659 -0.000609649832608838 3.9821360809568e-05)
(0.000116788222317188 -0.000419968215015527 8.13661054030163e-05)
(6.8673880385341e-05 -0.000306820693582337 0.000121330216667823)
(4.19255040678478e-05 -0.000242584495004718 0.000158318154252473)
(2.51237418825977e-05 -0.000196012383472368 0.000191809614751592)
(1.41183705396971e-05 -0.000156694560651003 0.000222497965041808)
(7.16387797821658e-06 -0.000121582747221296 0.000251549151522266)
(3.07613757085857e-06 -8.93157445906043e-05 0.00028115292432294)
(7.03662097632512e-07 -6.05682322135109e-05 0.000311483285516378)
(0.000248762432875676 -0.00061465874467874 -7.51603649185818e-06)
(0.000206305258200842 -0.000619325596269857 2.11410265038407e-05)
(0.000122301069902639 -0.00044221568812211 6.37535278267528e-05)
(7.37761507948481e-05 -0.000333760450898674 0.000102685118717648)
(4.66295261172262e-05 -0.00027090030619221 0.00013820895924908)
(2.9287909564992e-05 -0.000224217509696352 0.000170045227918657)
(1.75132056628925e-05 -0.000184130594307274 0.000198809129151669)
(9.64558324468696e-06 -0.000148051686247404 0.000225137195377919)
(4.73117342871616e-06 -0.000115358723589634 0.000250032367682327)
(1.93798357577366e-06 -8.55481329574077e-05 0.000275453611316984)
(4.18759722376654e-07 -5.92287423171567e-05 0.000301470502168011)
(0.000233745163646956 -0.000616838470130497 -2.39207313372098e-05)
(0.000203314209997971 -0.000635392137466973 2.21530750897044e-07)
(0.000123479028571295 -0.000465492900916696 4.4571668024927e-05)
(7.60739738565083e-05 -0.000359671369912059 8.32869861944277e-05)
(4.94012690708054e-05 -0.000297589985954817 0.000117856643214872)
(3.21272375240236e-05 -0.000250658108238073 0.000148480427912071)
(2.00837459962537e-05 -0.000209806607837961 0.000175918399657243)
(1.17107210666524e-05 -0.000172692037799047 0.00020068596216145)
(6.18182465294898e-06 -0.000138869398669617 0.000223291887126121)
(2.846022985167e-06 -0.000108343355282509 0.000244606142080034)
(1.06865001427523e-06 -8.08513479760388e-05 0.000266415900549612)
(2.06915063428403e-07 -5.68469546664881e-05 0.000288692138115105)
(2.16459784013904e-05 -4.85572687571891e-06 5.15566733724278e-05)
(6.84401464903617e-05 -0.00024751017739729 3.47038051568229e-05)
(1.58612117001258e-05 -4.27377802504321e-05 0.000147333707933049)
(0.000108626871780355 -0.000384005574339384 2.48149635096315e-05)
(5.17825774484501e-05 -0.000240091672031253 0.000118531135500375)
(8.31121972713238e-06 2.42704418455847e-05 0.000211073088853504)
(0.00014768189271518 -0.000445287184240284 2.0545264724374e-05)
(8.23910342892051e-05 -0.000358194807337668 0.000100976600116291)
(2.87677593257211e-05 -0.000101566628896098 0.000180979878958767)
(5.31750456586025e-06 2.05523096703498e-05 0.000260737757989925)
(0.000184373802802141 -0.000487830842628527 2.03131678635901e-05)
(0.000112781632396589 -0.00042224826305769 8.99471239744801e-05)
(4.73259923549953e-05 -0.000187433578130712 0.000160164172802642)
(1.802463669406e-05 -5.98476790613779e-05 0.000229025489159589)
(3.89561223785267e-06 2.36527022454204e-06 0.00029913969270342)
(0.000216828686813817 -0.000521630042988892 1.89902531994866e-05)
(0.000141937468899957 -0.000468818823243894 8.13206136540962e-05)
(6.62434859379326e-05 -0.000245401531467806 0.000145203326463192)
(3.0034512080499e-05 -0.000122403258383021 0.000205303957132114)
(1.26852620614472e-05 -5.67864144217747e-05 0.000265254304596599)
(2.9498249756547e-06 -1.2826698339449e-05 0.000325661697549879)
(0.000243085506152609 -0.000550145769743282 1.63567326257194e-05)
(0.000168140944623137 -0.0005070250055071 7.3297325392567e-05)
(8.46460817923178e-05 -0.000291529174146455 0.00013234374799783)
(4.23377528434549e-05 -0.000170482773939204 0.000186838631160116)
(2.10171252477442e-05 -0.000106107542554285 0.000238644590635016)
(9.29612401523697e-06 -6.06826596434888e-05 0.000289697889913605)
(2.21355368929363e-06 -2.36346847031939e-05 0.000341645148988552)
(0.000262023222938258 -0.000575642036911015 1.35190548507581e-05)
(0.000189944122101954 -0.000539950022971186 6.51482499760335e-05)
(0.000101096484772017 -0.00033106621949205 0.000119879981239059)
(5.42620792757256e-05 -0.000211404131699937 0.000170123630543486)
(2.95014731991038e-05 -0.000146786634230364 0.000216930864196712)
(1.52101479029161e-05 -0.000102088984165337 0.000260518229486954)
(6.82273963090889e-06 -6.42130164749554e-05 0.000304145327985362)
(1.62941980540047e-06 -3.10766043369354e-05 0.000348783000958169)
(0.000273010029892372 -0.000599651619798635 1.09446511166201e-05)
(0.000206376476932072 -0.000569331796624038 5.66283201023985e-05)
(0.000114628087764576 -0.000366228370894203 0.000107012953403079)
(6.47279482942986e-05 -0.000247938158499172 0.000153596225946289)
(3.75899057669374e-05 -0.000183090691095223 0.000196761021006866)
(2.11757271877331e-05 -0.000137736258462319 0.000236050572199663)
(1.10087449333051e-05 -0.000100188659284124 0.000272994593370904)
(4.91886886797164e-06 -6.62072325327764e-05 0.000310403590485947)
(1.18372895990105e-06 -3.60775345243953e-05 0.000348785466336807)
(0.000275837124569551 -0.00062164937663163 4.81142861367125e-06)
(0.000217134985781731 -0.00059572122068695 4.64945740219065e-05)
(0.000124781817590787 -0.000398054502341428 9.29685523465937e-05)
(7.30684473523281e-05 -0.000281442969644279 0.000136482909896215)
(4.45246523210985e-05 -0.000216614581050683 0.000176717820009934)
(2.67225598202278e-05 -0.00017054346610783 0.000213109480078815)
(1.51252164139814e-05 -0.000132087836858931 0.00024643226407198)
(7.80091373619922e-06 -9.79572835253917e-05 0.000277975334912835)
(3.45233946692316e-06 -6.67308020887434e-05 0.000310133132381141)
(8.30822181399242e-07 -3.92132713581413e-05 0.000343143619911434)
(0.000271280031625969 -0.000625927284751209 -6.63180759713445e-08)
(0.000222561490960727 -0.000614598609024038 3.47109073096283e-05)
(0.000131427810077221 -0.000425881664103369 7.73370635132429e-05)
(7.90067689529847e-05 -0.000312228820093782 0.00011830603567111)
(4.98256828781614e-05 -0.000247981317446393 0.000156182067315712)
(3.13203168976451e-05 -0.000201406843519046 0.000190427381523994)
(1.88318547659028e-05 -0.000161945811296114 0.000221505450558744)
(1.05144466317783e-05 -0.000126667982591774 0.000250028632651965)
(5.30888928139122e-06 -9.48478595800959e-05 0.000277063194241823)
(2.3022640105097e-06 -6.59770045452587e-05 0.000304718318649191)
(5.49662000818282e-07 -4.08115581961746e-05 0.000333090810107394)
(0.000258939459676182 -0.000619000144207301 -1.25176748620959e-05)
(0.000222124237808836 -0.000626896251522685 1.43438471146018e-05)
(0.000134204945556575 -0.000449627087882754 5.83208449890631e-05)
(8.22760473083091e-05 -0.000340118557519384 9.84192662753243e-05)
(5.32269384009657e-05 -0.00027707838743148 0.000134915783249662)
(3.46007329331408e-05 -0.000230297553072292 0.00016767126842238)
(2.17246845412891e-05 -0.000189976590098294 0.000197233699334811)
(1.28177867515171e-05 -0.000153521322826692 0.000224015949919815)
(6.93758991641911e-06 -0.00012040903376177 0.000248520127853394)
(3.35815930360551e-06 -9.06356514617446e-05 0.000271688528384451)
(1.38159653967744e-06 -6.39757653453034e-05 0.000295429233225901)
(3.18756456851933e-07 -4.09823995102818e-05 0.000319771647192988)