/*--------------------------------*- C++ -*----------------------------------*\
  =========                 |
  \\      /  F ield         | OpenFOAM: The Open Source CFD Toolbox
   \\    /   O peration     | Website:  https://openfoam.org
    \\  /    A nd           | Version:  12
     \\/     M anipulation  |
\*---------------------------------------------------------------------------*/
/*   Windows 32 and 64 bit porting by blueCAPE: http://www.bluecape.com.pt   *\
|  Based on Windows porting (2.0.x v4) by Symscape: http://www.symscape.com   |
\*---------------------------------------------------------------------------*/
FoamFile
{
    format      ascii;
    class       volScalarField;
    location    "400";
    object      k;
}
// * * * * * * * * * * * * * * * * * * * * * * * * * * * * * * * * * * * * * //

dimensions      [0 2 -2 0 0 0 0];

internalField   nonuniform List<scalar> 
10052
(
4.58302881568168e-05
4.42513575336341e-05
0.000184194136268451
4.7027936754411e-05
4.25450267082563e-05
0.000179129987620516
4.54431975961115e-05
0.000184575050237703
4.84181801129078e-05
4.05857552472421e-05
0.000173500385097189
4.37488081799782e-05
0.000275972906284113
0.000179505662462255
4.67856035601306e-05
0.000184689727194487
4.87729448059462e-05
3.83368478138048e-05
0.000167236850976503
4.17790207155009e-05
0.000267764142496871
0.000173873753130649
4.50351217013076e-05
0.000350923111207427
0.000275746834990541
0.000179604248316967
4.70908717257285e-05
0.000183235361322383
3.57585526921663e-05
0.000160257139017928
3.95071336638566e-05
0.000258824518380317
0.00016760395591106
4.30052979434573e-05
0.000340806145973575
0.000267550693223413
0.000173964590160519
4.53291583845089e-05
0.000414458208777177
0.000350383162028602
0.000274342568883075
0.000178160446284658
4.58147173127806e-05
3.28163458875664e-05
0.000152453550774357
3.69083184242069e-05
0.000249059329045852
0.000160615767956538
4.06885578790391e-05
0.000329888935108445
0.000258619663209946
0.000167691325248188
4.33226666729562e-05
0.000402775297479769
0.000340282748200915
0.000266177488596475
0.000172546060521896
4.40553868879336e-05
0.000470794655053362
0.000413596184444287
0.00034800140102717
0.000271007916306951
0.000174360068427634
4.33363421868838e-05
2.97304846128706e-05
0.000143812409626232
3.394330533134e-05
0.000238367027755218
0.000152807326370234
3.80594342620586e-05
0.0003181028297507
0.000248867248308942
0.000160704558051944
4.10542231339744e-05
0.000390249201699818
0.000329377642676104
0.000257282424097767
0.000166325203806973
4.22009083158476e-05
0.000457755549831321
0.000401936511543345
0.00033794987422051
0.000262911606549344
0.000168815068807455
4.16652192720819e-05
0.000521943788378648
0.000469567152774206
0.000410413949429449
0.000343202263639914
0.000265183248066072
0.00016835307808694
4.02061506762582e-05
2.62105270852178e-05
0.000133510105080845
3.07351529590449e-05
0.000226622188854814
0.000144225383039072
3.50225883807671e-05
0.000305373320881036
0.000238196999184535
0.00015289698889853
3.84387868739599e-05
0.000376835092291455
0.000317604583687237
0.000247575232870429
0.000159399805167714
4.00701278902916e-05
0.000443842748288117
0.000389427424827
0.000327098320745092
0.000254105721456427
0.00016272126645467
3.99338705768255e-05
0.000507688097126201
0.000456559518580173
0.000398817496115446
0.000333246487191143
0.00025721228657764
0.00016294505364735
3.86218712603745e-05
0.000569050241700985
0.000520405872554848
0.00046563522923393
0.000404385407798366
0.000335663631672481
0.000256932714724582
0.000160737251708591
3.67426934542438e-05
2.2149064530577e-05
0.000120993292469773
2.70249247871913e-05
0.000213487914213302
0.000134017269639705
3.16112165749055e-05
0.000291604867818152
0.000226473178970888
0.000144295402081889
3.52686807867193e-05
0.000362487357978248
0.000304888927526534
0.00023695771869092
0.000151642408329946
3.75128881023871e-05
0.000429030985914083
0.000376029384832621
0.000315385613709141
0.000244499931821289
0.000155932159117275
3.78908237443975e-05
0.000492533259331327
0.000442669936394989
0.00038637424089251
0.000322504434219518
0.00024855506719908
0.000157020164302589
3.69629607597089e-05
0.000553675293981865
0.000506188578967688
0.000452704281709564
0.00039290459274951
0.000325859409362122
0.000249138368346153
0.000155498539433191
3.52222911900323e-05
0.000612856263879979
0.000567302698468355
0.00051583820929981
0.000458525175938157
0.000395345308138993
0.000325505299781135
0.000246633913613278
0.000151924728823825
3.29999240797501e-05
1.77572862126038e-05
0.000105840820985142
2.27190708291209e-05
0.000198693921573933
0.000121420282227802
2.76130785892768e-05
0.000276684665079378
0.000213382011093113
0.000134014746965963
3.16203098393402e-05
0.000347142838188146
0.000291140048117802
0.000225297708415686
0.000143015461468965
3.42805292574817e-05
0.000413297797356426
0.000361698094450955
0.000302738132531306
0.000233993856460742
0.000148301613590353
3.5370991912395e-05
0.000476469748347674
0.000427879316452493
0.000373046521959211
0.000310913005303578
0.000239118876463709
0.000150413169576044
3.49520808462294e-05
0.0005373769626323
0.0004910622777443
0.000438892429272571
0.000380587081473952
0.000315286943803605
0.0002406838502366
0.00014976546612889
3.36081335129084e-05
0.000596431406612387
0.000551970826547294
0.000501708801971099
0.000445726790057168
0.000384037986021699
0.000315906823365847
0.000239059848847701
0.000146878826841571
3.15564425610724e-05
0.000653843770966787
0.000610977323580526
0.000562252917761174
0.000507822992434832
0.000448175001699419
0.000383502736968044
0.000313034182463755
0.000234590855310233
0.000142047022874914
2.90502585290654e-05
1.34970601629876e-05
8.83876825401179e-05
1.80977388309312e-05
0.000181916839080228
0.000106107958902964
2.30626342106595e-05
0.00026047696925477
0.000198633642403464
0.000121136520797319
2.74272433564348e-05
0.000330776436045988
0.000276247711261911
0.000212273496901603
0.000132593133578961
3.05353953458121e-05
0.000396606843943567
0.000346370206294104
0.000289063512962766
0.000222456717668643
0.000139725541297094
3.2178085024672e-05
0.000459495767742231
0.000412166375670244
0.000358789724389487
0.000298402680578479
0.000228801507200151
0.00014297914954247
3.24467038676222e-05
0.000520158764138691
0.000475024134096291
0.000424181288849909
0.000367394422844941
0.000303885276095627
0.000231476417720276
0.000143374639197331
3.16346712144004e-05
0.000579058003951222
0.000535704330927695
0.000486669932723924
0.000432055253342464
0.000371908970381999
0.000305562702186385
0.000230854016635153
0.00014136112854214
3.00302748667247e-05
0.000636419084563221
0.00059459853414899
0.000547017130983889
0.0004938399303325
0.000435568830449001
0.000372425309813973
0.000303691647181177
0.000227277680274383
0.000137228188811971
2.77188001600292e-05
0.000692298275739163
0.000651874908401287
0.000605568902114923
0.000553514912467353
0.000496362990912956
0.000434859410119977
0.000369157762798373
0.000298486984540064
0.000220952502922246
0.000131138600311069
2.4943995216462e-05
9.92351497900912e-06
7.01564610551686e-05
1.37571449424559e-05
0.000162931021405883
8.87722576029222e-05
1.83961775475363e-05
0.000242808064061988
0.000181936055684978
0.000105857279967951
2.28986245005314e-05
0.000313309004451571
0.000260078170243331
0.000197594996053813
0.000119711452750317
2.64192227192589e-05
0.000378967174438572
0.000330024391723258
0.000274258419122298
0.000209560667025495
0.0001295540227982
2.84989417541916e-05
0.00044160623352733
0.000395493290504041
0.000343538361214558
0.000284876286410847
0.000217472832221637
0.00013457884669513
2.93528639210559e-05
0.000502036826353314
0.000458073330754443
0.000408548598783979
0.000353282447296482
0.000291585553164469
0.000221417563468878
0.000136198248411931
2.92084353988384e-05
0.000560750505056497
0.000518513869158997
0.000470718791847473
0.000417490357006102
0.000358919883164348
0.000294414042872522
0.000221927160708149
0.000135231640035421
2.81691880573071e-05
0.000618018172463388
0.000577258756267654
0.000530844978379691
0.000478953195877817
0.000422101529442806
0.000360545139759623
0.000293629927215864
0.000219364973799159
0.000131981097295012
2.63315348943783e-05
0.000673910902437741
0.000634498508053804
0.000589292170464771
0.00053843611268194
0.000482587545630652
0.000422503411218271
0.00035836399089356
0.00028944900350212
0.000213942149800017
0.000126586426957742
2.37672438673463e-05
0.000728364830778592
0.000690256740270951
0.000646182839346101
0.000596249400235879
0.00054112841955305
0.000481774836536086
0.000418886260013457
0.000352517828102343
0.000281999382510946
0.000205787673838884
0.000119209599956117
2.07637167144308e-05
7.21948843855943e-06
5.36180928429904e-05
1.02010806763415e-05
0.000141834663060532
7.14158138988097e-05
1.41746151580981e-05
0.000223476574265986
0.000163157497538263
8.93630436445958e-05
1.84169236603069e-05
0.000294631285217967
0.00024246881382696
0.000181067669532097
0.000105050633353733
2.20791693956491e-05
0.000360335085121435
0.000312582417901567
0.000258194494246428
0.000195075583165601
0.000117177709210699
2.45709184529327e-05
0.000422798252912399
0.000377871977436713
0.000327276005663583
0.000270241843919537
0.000204845786923338
0.000124888809199621
2.58951534425376e-05
0.000483031969970528
0.000440202477597748
0.000391955201223171
0.00033818589116821
0.000278296160417248
0.000210388102728775
0.000128100788336716
2.63027145562337e-05
0.000541540783963316
0.000500416557667506
0.000453853536671802
0.000402009236209464
0.000345027604374007
0.00028239645348197
0.000212190443070493
0.000128390975733815
2.59233001443059e-05
0.000598664391715056
0.000558980015063123
0.000513746699701235
0.000463157179383989
0.000407751396993205
0.000347824837137596
0.000282793587096157
0.00021077053599812
0.000126173506534734
2.46547304257122e-05
0.000654515850106398
0.000616132401587981
0.000572051639564512
0.000522425071312824
0.000467917762708685
0.00040930170413801
0.000346790371862698
0.000279722607370113
0.000206370491212096
0.000121654352265531
2.25686741660819e-05
0.000709043940497506
0.000671919721566325
0.000628913398435552
0.000580138162875479
0.000526269794102047
0.000468266544171578
0.000406836612442559
0.000342060996835102
0.000273314977413717
0.000199122891700803
0.000114965386683608
1.97788784044108e-05
0.000762100041459455
0.000726257072339368
0.000684321022079603
0.000636374545562296
0.000583078227917468
0.000525441548729921
0.000464381484325527
0.000400452949074538
0.000333706886487951
0.000263656798655979
0.000189134639492304
0.000106270171369055
1.65923068929115e-05
5.48485860725825e-06
4.03891453526574e-05
7.53763426329329e-06
0.000119312707516365
5.61337704467245e-05
1.06880937215572e-05
0.000202288374133724
0.000142546956869133
7.32414615963149e-05
1.42858399852801e-05
0.000274584538896209
0.000223245042881489
0.000162709386023074
8.9537831045356e-05
1.77284777815151e-05
0.00034063053558296
0.000293939480027622
0.000240732149413448
0.000178926116485121
0.000103233174956548
2.04390568626861e-05
0.000403084955856272
0.00035925805953436
0.000309927126429981
0.000254387697418739
0.000190750642144849
0.000113200757375087
2.23000600173141e-05
0.000463153821185152
0.000421412124216096
0.000374412549809364
0.000322089942990491
0.000263933898767929
0.000198160327685796
0.000118935642461339
2.31699953415692e-05
0.000521472551390947
0.000481432011925049
0.000436065656301597
0.000385572176505853
0.000330171501223558
0.000269428841703621
0.000201542534188933
0.000120750873885534
2.33112729825948e-05
0.000578402823045082
0.000539795014479092
0.000495737672773769
0.000446448077478242
0.000392495651104713
0.000334224401463765
0.000271125429669465
0.000201419148601495
0.000119734395790484
2.26707567509201e-05
0.000634142820196329
0.000596807907276662
0.000553868575688148
0.000505488191815482
0.000452345041779885
0.000395231951758421
0.000334401307248275
0.000269256808546878
0.000198162433291385
0.000116222502258758
2.1134631684765e-05
0.000688678993530337
0.000652560605088783
0.000610650614979033
0.000563065896718938
0.000510485979745926
0.000453876176361656
0.000393960436566421
0.000330851567974412
0.000263977723367039
0.000191940943112248
0.000110396582071738
1.8808515677882e-05
0.000741870511228065
0.000706988671162535
0.000666095635715293
0.000619278137513983
0.000567197935661976
0.000510864576913926
0.000451198695554949
0.000388766243028386
0.000323641146709281
0.000255375502316105
0.000182860101851538
0.000102374122807436
1.58221822858438e-05
0.000793512006617612
0.000759929328641705
0.000720099655097054
0.00067408196397309
0.00062251959402252
0.000566431188174842
0.000506799221157798
0.000444383070320525
0.000379677648730753
0.000312815415422736
0.000243521819805553
0.000171015943159859
9.23044459789754e-05
1.25364195019095e-05
4.29735062345924e-06
3.07481846669156e-05
5.69469393326799e-06
9.67247505705786e-05
4.34800723139893e-05
7.97205444874843e-06
0.000179135612705896
0.00012082408906439
5.84667392239341e-05
1.07712170242916e-05
0.000252947834613522
0.000202259384890069
0.000142847564233483
7.39692577276482e-05
1.37011112625192e-05
0.000319711316820872
0.000273947801473792
0.000221740668833587
0.000161207144199706
8.83491460949242e-05
1.63854046364558e-05
0.000382405316093674
0.000339573689973293
0.000291395273848018
0.000237209126036007
0.000175170529122633
0.000100174231161116
1.85795090406917e-05
0.000442434450048733
0.000401711931496019
0.000355877566888137
0.00030492768759377
0.000248413660941344
0.000184609190716045
0.000108207338181652
1.9996641693422e-05
0.000500591785787506
0.000461566980447154
0.000417347958870534
0.00036818500326515
0.000314331902401482
0.000255435224773791
0.000189812130379636
0.000112151105203836
2.05256544158564e-05
0.000557296647532922
0.000519745947365024
0.00047683431878376
0.00042881721745995
0.000376301299135233
0.000319693623098464
0.000258562819738544
0.000191235188983587
0.000112612837706898
2.04235288367583e-05
0.000612846764444797
0.000576570803405999
0.000534773248341929
0.000487637120580901
0.000435862998193912
0.000380272090728206
0.000321160759255068
0.000258001945926292
0.000189259604944872
0.000110240569950735
1.94593682167549e-05
0.000667303362497018
0.000632217545756055
0.000591424799433887
0.0005450491286659
0.000493779028292197
0.000438592756637385
0.000380235298103818
0.000318856174188075
0.000253941366792967
0.000184174804272294
0.000105388802641456
1.76429798026255e-05
0.000720555303804787
0.000686661094112022
0.000646843957304461
0.000601190167662839
0.000550361801268937
0.000495371922914561
0.000437149589077166
0.000376276522436032
0.000312854788181536
0.000246481797278679
0.000176116992770086
9.82156289606348e-05
1.50973357395692e-05
0.000772397507419142
0.000739754618911376
0.00070094777267194
0.000656037034864702
0.000605664157276725
0.000550845532483017
0.000492564483518043
0.000431585162940103
0.000368411981683636
0.000303195744599113
0.000235693472829125
0.000165174677649278
8.8796734731972e-05
1.19813313150132e-05
0.000822586227389401
0.000791281501288376
0.000753565293305017
0.000709468388061605
0.00065961495817055
0.000605018657076351
0.000546678057139895
0.000485412928587025
0.000421897754764758
0.000356652167748258
0.000289918809914094
0.000221639474463086
0.00015143329714549
7.72181213592569e-05
8.68311459962357e-06
3.31177309315261e-06
2.33973909773958e-05
4.35585658834901e-06
7.59378770747111e-05
3.3395278740143e-05
6.1193726850837e-06
0.000154196038266117
9.91453793602284e-05
4.56336897380795e-05
8.1993328101241e-06
0.000229448458289195
0.000179467852614835
0.000122101038940471
5.96779829258322e-05
1.0444960092125e-05
0.000297343900500273
0.000252408512650147
0.000201135916854263
0.000142194275355807
7.38495477855503e-05
1.27575649047635e-05
0.000360629226064796
0.000318684281605345
0.000271550351041424
0.000218625410697462
0.000158221862233436
8.6780447619493e-05
1.49905347309947e-05
0.00042086198179235
0.000381042787598503
0.000336276317065458
0.000286617616313484
0.000231664280139164
0.000169763558946043
9.64710044527838e-05
1.67917685219339e-05
0.000478931032755419
0.000440854416977959
0.000397713043222609
0.000349811411388012
0.000297458668697829
0.000240361525423981
0.000176936108471372
0.000102403219691298
1.77938220895349e-05
0.000535421844561023
0.000498876095190735
0.000457039457187538
0.000410242776647492
0.000359147910477438
0.000304193658492478
0.000245019238208297
0.000180083118855362
0.000104673061449602
1.7981859371314e-05
0.000590705382102194
0.000555482337606577
0.000514803335714102
0.000468884102422606
0.000418461929446658
0.000364395999138319
0.00030702985754408
0.000245908354641899
0.000179608757341748
0.000103690712527265
1.75923259536012e-05
0.000644977540484949
0.000610946082371316
0.000571278733126262
0.000526113014544246
0.000476156084115972
0.000422407817981317
0.00036563991929217
0.00030604254667354
0.000243164138596835
0.000175776119410888
9.99004974179187e-05
1.62818216972227e-05
0.00069818840509659
0.000665316550806116
0.000626603030330428
0.000582135477311103
0.000532580786466379
0.000478961741247369
0.000422221393188742
0.000362961670948083
0.000301316888165985
0.000236933850101816
0.000168842296981521
9.36713579485165e-05
1.41971429740913e-05
0.000750150562526106
0.000718478535812081
0.00068073227860001
0.000636967028877721
0.000587820949291504
0.000534311239304459
0.000477426814345082
0.000417940997073129
0.000356371673023383
0.000292892356529656
0.000227297638803478
0.000158918383581752
8.50995849433185e-05
1.14813636427484e-05
0.000800611622203559
0.00077022433360585
0.000733512386086264
0.000690504777683271
0.000641821064718203
0.000588470225622379
0.000531449919005894
0.000471582415891829
0.000409546175934485
0.000345866968927616
0.000280800571362494
0.00021431362690886
0.00014606821088154
7.41516157429754e-05
8.32651707152516e-06
0.000849300461611138
0.000820299720218803
0.000784724422533478
0.000742571448421188
0.000694443254885154
0.000641342324177287
0.000584265320459979
0.000524044808048298
0.000461404929576057
0.000397018174850992
0.000331456997297659
0.000265075327725632
0.000198031806378418
0.000130347590840514
6.11129970094349e-05
5.21550706418668e-06
2.19056764858811e-06
1.71485505446128e-05
3.27372867890457e-06
5.80981127214576e-05
2.54835987098859e-05
4.97472071509483e-06
0.000128236271527067
7.9059883750979e-05
3.59966476742675e-05
6.47708170340312e-06
0.000203862182493823
0.000155105308571194
0.00010144810074702
4.83679564468401e-05
8.03884295760454e-06
0.000273194741709954
0.000229084268332344
0.000178937961169067
0.000122544034486076
6.14492893124603e-05
9.8135525389678e-06
0.000337510021013414
0.000296373170573395
0.000250225324885784
0.000198603250302723
0.000140271791085152
7.40982829444958e-05
1.18246106362906e-05
0.000398339353410189
0.000359281326482987
0.000315485319324321
0.000267056515212787
0.000213645650024959
0.000153821329369582
8.44899608570141e-05
1.3742292235021e-05
0.000456539496585083
0.000419280591666494
0.000377102030714314
0.000330385754584368
0.000279488165785843
0.000224164965453919
0.000162965598016197
9.1907144772971e-05
1.5096290019712e-05
0.000512860520279791
0.000477213931304597
0.000436376066238007
0.000390744939158295
0.000341026043044823
0.000287705744847632
0.000230487496160537
0.00016795189404552
9.58966656884434e-05
1.56459919183099e-05
0.000567816592337877
0.00053361506716486
0.000493995666381709
0.000449228316072521
0.000400113792381956
0.000347563552151098
0.000291955254270813
0.000232906242835839
0.00016911826804248
9.65469981083082e-05
1.56007060192155e-05
0.00062178725551253
0.00058882169803866
0.000550268086524321
0.000506288573331594
0.000457625167701702
0.00040531138757748
0.000350151646251203
0.000292379127421914
0.000231609012472276
0.000166711678672544
9.39290254619623e-05
1.47748945198916e-05
0.000674831486461297
0.000643016210421388
0.000605425054441705
0.00056215063559691
0.000513873732969112
0.000461636906464786
0.000406404119766787
0.000348801543079684
0.000288998956545568
0.000226695945816323
0.00016099413685085
8.86997888559065e-05
1.31294159155824e-05
0.000726803017207503
0.000696144395316932
0.000659494292760795
0.000616903021731652
0.000569008237023931
0.000516834034906104
0.000461381072594185
0.000403436505016344
0.000343535242802058
0.000281876697912004
0.000218295463162429
0.000152182438518232
8.10572002338921e-05
1.08202540042168e-05
0.00077745334185963
0.000748018599442472
0.000712353718636261
0.000670478677421515
0.000623005039492563
0.00057093944782189
0.000515283350731471
0.000456865983336516
0.000396373412538872
0.0003343407466414
0.000271040512374341
0.000206469807388706
0.000140348102347602
7.10113575518638e-05
8.02663746905702e-06
0.000826493700568389
0.000798385097228921
0.000763794754115793
0.000722715252434858
0.000675741292914413
0.00062386791275895
0.00056808908787475
0.000509238711226168
0.000448043138562235
0.000385176188598989
0.000321212417843786
0.000256513965941151
0.000191258483913375
0.000125507357610333
5.8514279303075e-05
5.01579370214327e-06
0.000873632658039692
0.000846962314260126
0.000813563505733623
0.000773394453922109
0.000727032494006668
0.000675465112802113
0.000619678307985228
0.000560499178314814
0.000498659110500554
0.000434868569604134
0.000369825238982086
0.000304153429740124
0.000238313395979326
0.000172678861637887
0.000107739826169386
4.43153033345308e-05
2.48730494743244e-06
9.84189977171675e-07
1.06152767484027e-05
2.28785777600607e-06
4.2630336473413e-05
1.88440535713284e-05
3.9298254894754e-06
0.000102541820975646
6.16802801183584e-05
2.91202149559518e-05
5.16076008087295e-06
0.000176339088550572
0.000129970279439375
8.25276199601487e-05
3.98606023075062e-05
6.30384949223869e-06
0.000246980544876171
0.000203797699363997
0.000155415812149142
0.000103423815929727
5.12573088777501e-05
7.61522188692446e-06
0.000312683094179188
0.000272337738431527
0.000227232486560571
0.000177230306746077
0.00012206925546928
6.26485061199008e-05
9.26184940661261e-06
0.000374648977680633
0.000336199316186936
0.000293312599626737
0.000246120901479642
0.000194377204223618
0.00013715361508933
7.29103110120751e-05
1.10489323732434e-05
0.000433409551848759
0.000396753065375575
0.000355400031779277
0.000309803993892375
0.000260346040684877
0.000206841996588834
0.000148084810085814
8.11845943292796e-05
1.25439944451159e-05
0.000489691136713594
0.000454805852447373
0.000414832445971256
0.000370268214283489
0.000321877520790661
0.00027018077878224
0.000214941859482817
0.000154898223157186
8.65669823312378e-05
1.33878835434207e-05
0.000544296878408664
0.000511046294691942
0.000472371041399246
0.000428674941711652
0.000380835603233412
0.000329783538626459
0.000275941447500607
0.000218995005237261
0.000157768452425093
8.86832526666409e-05
1.35627254890411e-05
0.000597841609173801
0.000565938334972471
0.000528456982596126
0.000485604351639526
0.000438184700477643
0.000387279187404248
0.000333734051500523
0.000277825129290011
0.000219235920211991
0.000156945593709911
8.74858225763138e-05
1.31833250504721e-05
0.000650571619867301
0.000619843496355298
0.00058337926421977
0.000541282732741952
0.000494264227812638
0.00044340154659043
0.000389688057103762
0.000333777160579262
0.000275875948994394
0.000215740768022177
0.000152551329160058
8.33048507853692e-05
1.19402145904911e-05
0.000702413774722531
0.00067281471171409
0.000637291610276648
0.000595890280100519
0.000549254758898861
0.000498426526218843
0.000444426497415215
0.000388060642413267
0.000329883784580814
0.000270123497537965
0.000208655526641692
0.00014492666474783
7.6619955424273e-05
1.0007078594464e-05
0.000753138833501695
0.000724706000566536
0.000690131706616915
0.000649425005996461
0.000603190654560888
0.000552438226194668
0.000498179450559023
0.000441255780117935
0.000382364545819875
0.00032205284914326
0.000260611992437354
0.000198070031871729
0.000134198695732477
6.75262035288426e-05
7.57248524497658e-06
0.000802448693348695
0.000775270394215767
0.000741712451652768
0.000701754796637234
0.000655979556093835
0.000605375628953025
0.000550938705787921
0.000493508601287457
0.000433817586711415
0.000372543662554812
0.000310265987655327
0.000247357923281168
0.000184022049594698
0.00012038385721992
5.59324567702488e-05
4.86270466392389e-06
0.000850026227274352
0.000824218274820145
0.000791782427299668
0.000752670607051538
0.000707449380832347
0.000657095732679389
0.000602590872297607
0.000544762136613607
0.000484342438804981
0.000422042252229256
0.000358557195110112
0.000294509843555853
0.000230364841328739
0.000166511804986918
0.000103477834073336
4.22393891434811e-05
2.39512264072416e-06
0.000895564775310075
0.000871247536558528
0.000840061496899831
0.000801923184861934
0.000757381387778069
0.000707405281724682
0.000652965211895898
0.000594873536318841
0.000533852427247256
0.000470614237852026
0.000405881857037897
0.000340375407854537
0.000274762559700212
0.0002096037553648
0.000145525256131065
8.36751319670034e-05
2.77199249089544e-05
8.59560015875713e-07
3.65698758235734e-06
1.04302412808246e-06
2.71917803224491e-05
1.22837328244755e-05
2.49792698418688e-06
7.83017920459605e-05
4.64704891024783e-05
2.26050139733628e-05
3.84666475711467e-06
0.000147657758162355
0.000105391890200998
6.6322389942726e-05
3.22930910646811e-05
4.92927333424277e-06
0.000219152169348164
0.000176755336788539
0.000131369399208337
8.58349355626391e-05
4.2184353206033e-05
5.9843830100463e-06
0.000286088968671654
0.00024633614046721
0.000202455344702935
0.000154832833433431
0.00010430233444961
5.22677543131799e-05
7.27547530081136e-06
0.000349531991196939
0.000311475870988952
0.000269501451157518
0.000223689887822361
0.000174000613066197
0.000120201617198579
6.20384038745811e-05
8.79979539350634e-06
0.000409455897717228
0.000373072022260753
0.000332404731108982
0.000287913228512724
0.000239953496995959
0.000188445988710446
0.000132567881253739
7.0665522297499e-05
1.02525056628982e-05
0.000466008089257356
0.000431643176705169
0.000392318867237564
0.000348713518516469
0.000301620976320914
0.00025156969130616
0.000198396615630051
0.000141074994929559
7.70277290721834e-05
1.12552609820679e-05
0.000520282257026273
0.000487847972029971
0.000449960621375613
0.000407221052106397
0.000360582837366949
0.0003110104806647
0.000258954968655243
0.000204171191844943
0.000145648926035292
8.04167614190414e-05
1.16210308860092e-05
0.000573271604904765
0.000542406714950313
0.000505911011887478
0.000464072534381256
0.000417816923367895
0.000368303305952945
0.000316383291101717
0.000262365915188848
0.000206004083582715
0.000146409447523895
8.05776303552891e-05
1.15654789857616e-05
0.000625518662399273
0.000595903373428317
0.000560549937158396
0.000519584090916072
0.000473772777628146
0.000424252601424142
0.000372056419715007
0.000317865241714219
0.000261922320868879
0.000204045202007015
0.000143502907511642
7.75096743917158e-05
1.06839195949832e-05
0.000677065573128537
0.000648574366820016
0.0006142012628842
0.000573988203160139
0.00052859759206455
0.0004791052647982
0.000426564120770173
0.000371803958608278
0.000315401173597084
0.000257612728001589
0.000198357198144578
0.000137136051375289
7.17963279144017e-05
9.08713510611621e-06
0.000727721138782122
0.000700346541403096
0.000666905721679989
0.000627394368585455
0.000582414273177244
0.000532987374806143
0.000480145288462807
0.000424748094664254
0.000367507862469103
0.000308985586058458
0.000249492254143132
0.000189084869617507
0.000127575234459052
6.36447426599655e-05
6.97607251481141e-06
0.000777186844202445
0.000750993451274998
0.000718518637124825
0.000679726330492174
0.000635185268817228
0.000585882033608329
0.000532820304228537
0.00047685160482189
0.000418718279823001
0.000359105221393982
0.000298597900535258
0.000237581581721775
0.000176282193753585
0.000114875888641798
5.30317321376065e-05
4.57722161426431e-06
0.000825124995940255
0.000800219416383397
0.00076879774972632
0.000730796440124804
0.000686765125107929
0.000637670366849194
0.000584492373918067
0.000528063281451284
0.000469121419145937
0.000408380182741796
0.000346535297680384
0.000284209542945951
0.000221874695014444
0.000159943929689892
9.90093894983909e-05
4.02386139441501e-05
2.33132826461866e-06
0.00087119652137778
0.00084770657587926
0.00081745729204542
0.000780357638176416
0.00073694296144137
0.00068816878474434
0.000634998207458375
0.000578242476870942
0.000518624742914041
0.000456857048952577
0.000393659255926179
0.000329746083242741
0.000265780629501763
0.000202326298848146
0.000140023792897086
8.00621850975068e-05
2.62505831132478e-05
8.2503766870892e-07
0.000915084042871541
0.000893137423247784
0.000864197086219886
0.000828136725350235
0.000785473804344072
0.00073715610758492
0.000684134820313909
0.000627202333846253
0.000567062905136513
0.000504416913558096
0.000439982750513718
0.000374490823204784
0.000308671959852498
0.000243225332661587
0.000178829308380409
0.000116510906531428
5.85588446577964e-05
1.31043727125183e-05
1.98865332888428e-07
1.00549249058969e-05
4.27230112996882e-06
9.42945319921663e-07
5.34691275331118e-05
3.10739729138815e-05
1.43190749176954e-05
2.28078114546673e-06
0.00011974378473515
8.1908329919266e-05
5.15272929036852e-05
2.42364508218643e-05
3.58904851969835e-06
0.000191918983513939
0.000148941360872627
0.00010798030405661
6.96435000849294e-05
3.34252768033935e-05
4.63498039675061e-06
0.000259978992891533
0.000218802887878365
0.000176137636904866
0.000132032107019191
8.72154840189976e-05
4.2647586215074e-05
5.71030780726069e-06
0.000323812624212979
0.000285101295727173
0.000243861521771256
0.000199715814263053
0.000152772152776489
0.000103303654837866
5.19027323694288e-05
6.96147290874874e-06
0.000384794677069542
0.000348021032647278
0.000307849939432765
0.000264521329354896
0.000218247820999974
0.000169092192204273
0.000116707577661635
6.05607610762141e-05
8.26019410637712e-06
0.000441980258499396
0.000407646369826239
0.00036865746416676
0.000325917598912954
0.000280145347581773
0.000231829136948354
0.000180908063941871
0.000126683589720791
6.75446311015547e-05
9.29881049414222e-06
0.000495939980721788
0.000464103273983002
0.000426752914872176