/*--------------------------------*- C++ -*----------------------------------*\
  =========                 |
  \\      /  F ield         | OpenFOAM: The Open Source CFD Toolbox
   \\    /   O peration     | Website:  https://openfoam.org
    \\  /    A nd           | Version:  12
     \\/     M anipulation  |
\*---------------------------------------------------------------------------*/
/*   Windows 32 and 64 bit porting by blueCAPE: http://www.bluecape.com.pt   *\
|  Based on Windows porting (2.0.x v4) by Symscape: http://www.symscape.com   |
\*---------------------------------------------------------------------------*/
FoamFile
{
    format      ascii;
    class       volScalarField;
    location    "400";
    object      nut;
}
// * * * * * * * * * * * * * * * * * * * * * * * * * * * * * * * * * * * * * //

dimensions      [0 2 -1 0 0 0 0];

internalField   nonuniform List<scalar> 
10052
(
1.85785491977721e-05
1.79384736422074e-05
0.000267632722168791
1.97457159135884e-05
1.72467692049032e-05
0.000261848285339816
1.90803422368931e-05
0.000274344439510151
2.11711038046641e-05
1.64525335201789e-05
0.000255284412662219
1.83689155678986e-05
0.000718787563226525
0.00026846799748302
2.04572678123735e-05
0.00028276308117244
2.20083878309244e-05
1.55409475936189e-05
0.000247760784987393
1.75418551458136e-05
0.000703540567276145
0.000261799238442492
1.9691869571397e-05
0.00124754350924891
0.000726882934292967
0.000276730003165741
2.12493808519991e-05
0.000287733755374767
1.44959052054416e-05
0.000239113331017052
1.65879364470705e-05
0.00068623793041533
0.000254132308471721
1.88043964478456e-05
0.00122245288288898
0.000711539750891793
0.000269896590050943
2.04544487554601e-05
0.00177569403781952
0.00125326472276636
0.000736485584681556
0.000281560720411651
2.09465999315497e-05
1.33033149005172e-05
0.00022911811398128
1.54966255882598e-05
0.000666434057187445
0.000245313452777512
1.77911776542222e-05
0.00119408425724252
0.000694095836498958
0.000262035710411794
1.95490757953424e-05
0.00174045257719891
0.001228112248456
0.000721013828003137
0.000274612116090781
2.01422352470973e-05
0.00227096226944871
0.0017773909839927
0.00125819329775956
0.000741205465036597
0.000279988916163893
1.9822768788739e-05
1.20519802271889e-05
0.000217658794437056
1.42511698501509e-05
0.000643474033007311
0.000235124124965711
1.6641218522376e-05
0.00116172407314101
0.000674136824063131
0.00025299415460012
1.85251958269454e-05
0.00170072824668821
0.00119966266649958
0.000703415326611722
0.000266657476122789
1.92942940222851e-05
0.00222582525306543
0.0017421647376568
0.00123300951800138
0.000725665309511505
0.000273048757427655
1.90583515054746e-05
0.00272148263353112
0.0022684904089744
0.00177514129874607
0.00125701230417857
0.000736728562618675
0.000273035528657662
1.83428287988406e-05
1.06239835685743e-05
0.000200146509857186
1.29026717941082e-05
0.000615696795623001
0.000223703655214827
1.53123824566012e-05
0.00112431540388873
0.000651000529707834
0.000242533041410598
1.73445487694894e-05
0.00165561181608967
0.00116721101735315
0.000683288324521129
0.00025750073967333
1.83199403963329e-05
0.00217509040603947
0.00170245099097566
0.00120454016303094
0.000708058431791323
0.000265189954563538
1.82663655552545e-05
0.00266695437387762
0.00222345617323054
0.00174002540974412
0.00123191820941063
0.000721296743981039
0.00026622303857598
1.76200470480545e-05
0.00312548657679955
0.00271588889199645
0.0022588418728075
0.00176489250234628
0.00124573481173154
0.000723441828652997
0.000263107115678781
1.6740407113493e-05
8.97283543542396e-06
0.000176004687749313
1.13416822322462e-05
0.000579244388851022
0.000206616304627993
1.38185667610864e-05
0.00107979470519603
0.000622844176227052
0.000230752785432786
1.59129482772427e-05
0.00160384618087316
0.00112965737565973
0.000659925872737536
0.000246861502681143
1.71503258993171e-05
0.0021177282613758
0.00165735185602435
0.00117209007067135
0.000687915150065887
0.000256121628692397
1.7331708002508e-05
0.00260580923483428
0.00217282565285476
0.00170045783801463
0.0012036092028532
0.000703883222960227
0.000258558512961309
1.68631900722069e-05
0.00306214361314655
0.00266153377001881
0.00221406538568637
0.0017300601463257
0.00122091979806387
0.000708275485307219
0.00025647984558276
1.60477096925231e-05
0.00348570936674059
0.00311799050005302
0.00270018022045798
0.0022389166783408
0.00174365482490278
0.00122397379760653
0.000703901049844066
0.000251569560311555
1.50332851066025e-05
7.18775161296419e-06
0.000145042945130969
9.52801465412883e-06
0.00053202581718642
0.000181630116382024
1.20662223994075e-05
0.0010258904379408
0.0005862920209165
0.000212907003319256
1.4264258640023e-05
0.00154340013085435
0.00108494282255338
0.000631467777430575
0.000234619002898983
1.56714082553218e-05
0.00205237256374089
0.00160560830276845
0.00113455866433253
0.000664513315942872
0.000245532523298018
1.61787094103061e-05
0.00253691703610401
0.00211559081717614
0.00165556771014488
0.00117138003523082
0.000683989621868034
0.000249702393433421
1.59456752374141e-05
0.00299123422905834
0.00260056696665025
0.00216374906842786
0.00169086964611666
0.00119299722331765
0.000691225927122729
0.000249033471475224
1.53122407115411e-05
0.00341413041490997
0.00305486831285873
0.00264620777216209
0.00219461957173367
0.00170932190136284
0.00119962279597361
0.000689104241731806
0.000245137866989825
1.43757300197658e-05
0.00380624107363299
0.00347705777775923
0.00309790419912359
0.00267169972039572
0.00220657815023961
0.00171076804760004
0.0011933045683098
0.000679856679192594
0.000238603429908859
1.32359326921056e-05
5.44877925021991e-06
0.000110486686024975
7.58083790416126e-06
0.000472030333481436
0.000148992126898564
1.00702710744737e-05
0.000960346074979518
0.000538578956732773
0.000185497666334273
1.23678450460472e-05
0.00147265327733962
0.00103093591034599
0.000594321344215658
0.000215145864221682
1.39568285218901e-05
0.0019770451318585
0.00154516802184688
0.00108983736337159
0.000636001728132847
0.000233092082602568
1.47172594167049e-05
0.00245881511391435
0.00205039615322934
0.00160410731894417
0.00113419005380709
0.0006609175752327
0.000239338977498875
1.48023436636359e-05
0.00291151565464337
0.00253188469563473
0.00210691181130824
0.00164647801230317
0.00116129571119053
0.000671795586484383
0.000240430324192698
1.44130128584366e-05
0.00333408815261087
0.00298418632885522
0.00258569288882864
0.00214490153684093
0.00167077546560027
0.00117230362895163
0.00067251852964409
0.000237921563741162
1.36804294394431e-05
0.00372699372728348
0.00340573219188917
0.00303526033390438
0.00261838159939792
0.00216301141685312
0.00167714113491079
0.001169556464377
0.000665487030827508
0.000232391785591326
1.26293204377665e-05
0.00409113690231319
0.00379673323453351
0.00345377127404697
0.00306244968141376
0.00262872000172341
0.00216114366167478
0.00166681060484418
0.00115492092219347
0.000651727312214559
0.000224020249067394
1.13650525028224e-05
4.00613771179307e-06
7.83667238222185e-05
5.75166513900952e-06
0.000399669636038205
0.000113715702180486
8.02264502818783e-06
0.000881004775117346
0.000477973743444009
0.00015189409497583
1.03179614368786e-05
0.00138949226527581
0.000965268501815791
0.000545381181767806
0.000186549753483128
1.20707116648411e-05
0.00189007046954194
0.00147451545569149
0.00103581617638816
0.000598265900386622
0.000214231284176242
1.30322717875834e-05
0.00236952531592295
0.00197525000249471
0.00154401795759923
0.00108991038954
0.00063298435538173
0.000227024069332902
1.33900375317618e-05
0.00282137730417691
0.00245404129944377
0.00204222061863996
0.00159569044834541
0.00112483264650873
0.000649347583087113
0.000230379692807987
1.33073124629446e-05
0.00324421180078803
0.00290473227868404
0.00251755935511933
0.00208881913184611
0.00162722235864851
0.00114138771303201
0.000653674421852722
0.000229607196273621
1.283252164779e-05
0.00363843941150115
0.00332595032475008
0.00296513496818807
0.00255866036791012
0.00211420066462913
0.0016394835451628
0.00114299511815023
0.000649428000745627
0.000225448324349977
1.19972125232887e-05
0.0040047845934831
0.00371776571345081
0.0033829994562062
0.00300060925243615
0.00257635272914777
0.00211854311056424
0.00163405829536208
0.00113187410515471
0.00063783136388918
0.000218070576887245
1.08289246038364e-05
0.00434403238587235
0.00408085253476813
0.00377085581661834
0.00341258011811235
0.00300990354466693
0.00257059252890881
0.00210251200266443
0.00161213230243579
0.0011090336974965
0.000619249319284995
0.000207617092932288
9.45901857688924e-06
2.8922821418001e-06
5.3898965901375e-05
4.25872598214324e-06
0.000319880476802063
8.31338059674693e-05
6.1716028939051e-06
0.000786619873854106
0.000406034948977825
0.000118729525091773
8.28826280049562e-06
0.00129183316312799
0.000885942193507487
0.000484459427428313
0.000154609261684383
1.00800937327916e-05
0.00178918928590906
0.00139153199357086
0.000970130783029387
0.000549020832687473
0.000186971370163817
1.12316180390017e-05
0.0022666288674228
0.00188855933427383
0.00147384992098119
0.00103637031872287
0.000596112165458831
0.000209735248876441
1.18107059412381e-05
0.00271864001564186
0.00236505808961596
0.00196771907963644
0.00153652767865645
0.00108168986087006
0.000622521447469144
0.000218410576950718
1.19827128699286e-05
0.00314270318878104
0.00281492057094622
0.00244039719302901
0.00202510307702351
0.00157755591985181
0.0011060010296377
0.000632020112772579
0.000219966137585096
1.1809160625259e-05
0.00353907937965164
0.00323637586883431
0.00288634546406552
0.00249150145175009
0.0020592608247631
0.00159706754558808
0.00111304951595698
0.000631248145435831
0.000217484501890483
1.12331562018945e-05
0.00390834673857117
0.0036294983516501
0.00330385709785069
0.00293144377080045
0.00251778634519492
0.00207092005579847
0.00159748394784306
0.00110618095169638
0.000622351835394774
0.000211454423998106
1.0282796059334e-05
0.00425114032166036
0.00399480520972244
0.00369250812752201
0.00334274298429907
0.00294921958045626
0.00251945414644127
0.00206107944464963
0.00158038811607972
0.00108676395644968
0.000605874466381561
0.000201978281174627
9.01039272606699e-06
0.00456814525062745
0.00433299161986124
0.00405266876897409
0.00372471702842919
0.00335151682305567
0.00293965088839858
0.00249688967546545
0.0020303019891747
0.00154639922523405
0.0010551468381176
0.000581887511100688
0.000189165167994148
7.55965009272313e-06
2.21444977496491e-06
3.72598478432934e-05
3.13922130627928e-06
0.000241987926447119
6.05507041147151e-05
4.64663161784597e-06
0.000677943851418601
0.000329067450705387
9.05063260249498e-05
6.41892746460779e-06
0.00117794248691584
0.000792159633279383
0.000414872096097758
0.000123629339129795
8.08349155819311e-06
0.00167186537905476
0.00129421284740938
0.0008913424003937
0.0004897534168404
0.000156414006890124
9.33555735523313e-06
0.00214752399124784
0.00178808186543816
0.00139156008417926
0.000971540382293018
0.000548598952277478
0.000184240130189858
1.01669739293687e-05
0.00260023744998948
0.00226260605129503
0.00188186771157164
0.00146752818867106
0.00102960646346576
0.000587521693910247
0.000202277592464636
1.05537732401671e-05
0.0030270722419692
0.00271260173902175
0.00235229269958575
0.001951901639366
0.00151999901814895
0.00106455983503596
0.000606505936400082
0.0002086289536276
1.0618620369186e-05
0.00342692853555165
0.00313524093209892
0.00279734876661788
0.00241556550830297
0.00199702517111384
0.00154891284600644
0.00107898044108236
0.000610490089501655
0.000208334863758113
1.03290142111151e-05
0.00380021488293319
0.0035304698769472
0.00321504029122791
0.00285381451607493
0.00245204791909573
0.00201746368385207
0.00155643422656586
0.00107733367842048
0.000604903829148672
0.000203909689197136
9.62935599965457e-06
0.00414746015333634
0.00389867885323409
0.00360495290630601
0.00326470747024092
0.0028814395536422
0.00246237273512664
0.00201487884790442
0.0015450486126793
0.00106202427989049
0.000591035241327294
0.000195754756502161
8.56831149879481e-06
0.0044692766362419
0.00424042916793241
0.00396730402242255
0.00364742606768144
0.00328303124269995
0.00288045682898608
0.0024472248698092
0.00199020821819864
0.00151577066106511
0.00103371641033121
0.000569084383306232
0.000183886433146731
7.20878244898676e-06
0.00476634306457894
0.00455637423025565
0.00430266747630735
0.0040020906402196
0.00365599873218417
0.0032699790386064
0.00285119456547167
0.0024067642869799
0.00194358217737078
0.00146864752982079
0.0009922636627512
0.000538807625669449
0.000168210029371367
5.71935681493712e-06
1.70932736766811e-06
2.67976249334836e-05
2.37213850184609e-06
0.000174286382887041
4.39540927923377e-05
3.46327466142819e-06
0.000558921911553473
0.00025519254582336
6.7416666194613e-05
4.83347759699661e-06
0.00104688441396888
0.000685346575811604
0.000342189431082929
9.50810660259413e-05
6.23677995785943e-06
0.00153540539822671
0.0011809886158304
0.00079949692767287
0.000423516412982121
0.000125476912884191
7.47396696945964e-06
0.00200845172117774
0.00167134492318138
0.00129538550544556
0.000894719225673902
0.000492049783773113
0.00015570824574009
8.46384293678526e-06
0.0024623709428817
0.00214411290018555
0.00178253346124012
0.00138686885281327
0.000966973685920906
0.000542742677793406
0.000179579662456754
9.10471714992938e-06
0.00289371327580562
0.00259475323293352
0.00225094112969918
0.00186767742887681
0.00145299974029193
0.00101473684909383
0.000573695189513423
0.000193494706010068
9.34818541503781e-06
0.00329918785388034
0.00302009827512828
0.00269606551123991
0.00232907218859297
0.00192587214138283
0.00149354966947769
0.00103959466889663
0.000586332320395489
0.000197754094364573
9.30459464615154e-06
0.00367826072153598
0.0034187293492566
0.00311483083538439
0.00276625213198347
0.00237789534383242
0.00195713229956146
0.00151006690808809
0.0010447140092896
0.000585129256707557
0.000195324895203628
8.86589577440787e-06
0.00403130746658978
0.00379090509743281
0.00350676373496535
0.00317721690938568
0.00280548981433471
0.0023984524239873
0.00196318031582598
0.00150553703798649
0.00103437026210132
0.000574390206439816
0.000188699425372162
8.03729611533547e-06
0.00435900070513478
0.00413708460388596
0.003871958021302
0.00356111430679798
0.00320660056556179
0.00281445559782057
0.00239191261109625
0.00194562460853986
0.00148178638016555
0.00101000250257165
0.000554954766531442
0.00017815205671441
6.87852425913576e-06
0.00466205126859764
0.00445785931821032
0.00421084861185039
0.00391789981322075
0.00358024799913313
0.00320324259347084
0.00279378838584521
0.00235878858306316
0.00190497324831526
0.00143922271925946
0.000971724747419531
0.000526622278008728
0.000163388774921283
5.46611666122632e-06
0.00494118484619565
0.00475388743242233
0.0045240595207965
0.00424803685958969
0.00392643562784642
0.00356408508991488
0.00316752866894994
0.00274347320386988
0.00229881533907283
0.00184086535793859
0.00137732012517279
0.000918825015451261
0.000488547456121556
0.000143768441959949
3.97179734421245e-06
1.34314724678448e-06
1.91249973587582e-05
1.80189668176535e-06
0.000121802655261225
3.17047420473472e-05
2.65383863506529e-06
0.000436792171822821
0.000189521982631924
4.89286596174962e-05
3.67786760398289e-06
0.000899155693087954
0.000569606534087521
0.000271251139249295
7.16512101868279e-05
4.74819670472268e-06
0.00137712407000534
0.00105118857610868
0.000696428095364057
0.000353674742726626
9.86060873394612e-05
5.80868231110441e-06
0.0018446276533933
0.00153577971356985
0.00118412948310977
0.000806356232533717
0.000428873662496012
0.000128572452821599
6.81921946389449e-06
0.002299512244206
0.00200593278801181
0.00166742413897914
0.00129315463845472
0.000893465174880513
0.000490019436175922
0.000154623265989791
7.63917372216323e-06
0.00273724361437712
0.00245770554178015
0.00213396626818449
0.00177052790540953
0.00137506007571414
0.000955275981959593
0.000532560474711235
0.000173607487037315
8.10078529016748e-06
0.0031517061595935
0.00288741890407304
0.00257960102557314
0.00222972157382396
0.0018440654299572
0.00142920962532523
0.000992475542960124
0.000556059101718183
0.000184277053183122
8.19086994982076e-06
0.00353947459129882
0.00329152906096544
0.0030008694479643
0.0026668046817822
0.00229370973319216
0.00188855045124772
0.00145720669128168
0.00100738244377661
0.00056245865553185
0.000185606230014332
8.01476802762627e-06
0.00390047815368381
0.00366939114258764
0.00339604532490528
0.00307863593654306
0.00272000497619754
0.00232656773922003
0.00190506697577665
0.00146113589751443
0.00100329611192202
0.000555660267892251
0.000180728029452152
7.41706547523829e-06
0.00423559174495108
0.00402131390101605
0.00376509846603263
0.0034644058155334
0.00312103813055329
0.00274065463726585
0.00233014122551144
0.00189590339099987
0.00144394288450424
0.000983613983575756
0.000539176150625085
0.000171659803058842
6.46833772298518e-06
0.00454581482973822
0.00434794169843938
0.00410834952106741
0.00382392705008524
0.00349575288200391
0.00312888249303354
0.00272991052007279
0.00230549086914427
0.00186217004241173
0.00140669197601026
0.000949103945431855
0.000513311908121806
0.000158270852360221
5.23802279777447e-06
0.00483200404161172
0.0046499721430441
0.0044263469229153
0.00415750483368854
0.00384396822216219
0.00349034031230966
0.00310290045288002
0.00268812368226395
0.00225272246104198
0.00180386946701448
0.00134917538909755
0.000899224560710558
0.000477087533426054
0.000139579932350546
3.80868543533514e-06
0.00509493797969233
0.00492810452858366
0.00471974673050053
0.00446572995360292
0.00416608688636165
0.00382505732349018
0.00344864114222889
0.00304305577257213
0.00261479884693932
0.00217113027325704
0.0017200810800913
0.00127017855628796
0.00083243972976413
0.000428711642297996
0.000115779266749355
2.38453814556904e-06
8.77521132383075e-07
1.31510205153364e-05
1.34773253151276e-06
8.24398947097366e-05
2.2711816901787e-05
2.14128165911611e-06
0.000321859962861874
0.00013590982065957
3.68503529289977e-05
2.90083869343558e-06
0.000737522296031878
0.000451130079470753
0.00020643675147643
5.60993504939953e-05
3.65327145228208e-06
0.0011946591293744
0.000905527150878584
0.00058544684409172
0.000285668539143385
7.9352144405337e-05
4.46147929236717e-06
0.00164982114135254
0.00137891277534912
0.00105747946993258
0.000707960980295159
0.000363670452823143
0.000105763922648493
5.36863574542026e-06
0.00210335824839781
0.00184350162820345
0.00153424358607305
0.0011855544233629
0.000809668152656154
0.000432617498645133
0.000130722868225988
6.24271835077479e-06
0.00254984306127037
0.002296119562586
0.00199796330892806
0.0016584477078856
0.00128510704900654
0.00088615368885383
0.000484858682771875
0.000152025993107963
6.8669740731226e-06
0.00297810672803249
0.00273196695053853
0.00244446101330869
0.00211546387752563
0.00175016206572129
0.00135483176568425
0.000936868478474181
0.000518852800370171
0.000167143141517586
7.12403959415257e-06
0.00337937513369993
0.00314481489866245
0.00286979591218129
0.0025528021586437
0.00219734516597983
0.00180989564937851
0.00139605998437426
0.000963472590049362
0.000535220360866355
0.000174474667480516
7.10625337712224e-06
0.00375189684806981
0.00353118201916037
0.00327015353428445
0.00296675534767282
0.00262320837058698
0.00224528317060803
0.0018393589420222
0.0014108919329233
0.000968121567288848
0.000534527526717326
0.000171799524953194
6.73018271777219e-06
0.00409683854524178
0.00389094786114232
0.00364469053424525
0.00335549722327927
0.00302482453645344
0.0026578107717445
0.00226090638591427
0.00184024725995248
0.00140163658664826
0.000954138801558037
0.000521518844771921
0.000164328794793969
5.98174294792735e-06
0.00441589580184605
0.00422493563125386
0.0039935612452412
0.00371869183685972
0.00340121232232607
0.00304579921568912
0.00265865712080875
0.00224614506268987
0.00181460348948969
0.00137061470789981
0.000924038646679925
0.00049848135712979
0.00015241562599998
4.93636891337086e-06
0.00471041656381709
0.00453411482214614
0.00431733577710876
0.00405650153227406
0.0037520156551319
0.0034082041044001
0.00303102422941729
0.00262667468350774
0.00220165640589998
0.00176298839457781
0.00131818617298804
0.000877784068290117
0.000464763150834749
0.000135418193014771
3.67151313521922e-06
0.00498137582010063
0.00481932123612719
0.00461668898328675
0.00436941155991753
0.00407745447335463
0.00374484765279588
0.00337732680358916
0.00298086445726354
0.0025617555407277
0.00212710064845218
0.00168482030870888
0.00124339306489876
0.000813860960215033
0.000418147468096484
0.000112162267009996
2.29323067761564e-06
0.00522958884675859
0.00508129950398304
0.00489231619323056
0.00465806995999584
0.00437809203167076
0.00405613799479821
0.00369773063879707
0.00330859660928729
0.00289474302902628
0.00246299235698541
0.00202127870392928
0.00157850234282026
0.00114413785166378
0.000729693507647309
0.00035743256749348
8.45178936713642e-05
1.12237456965127e-06
3.36392596162649e-07
7.25866828235414e-06
9.31835906000079e-07
5.27975924748603e-05
1.58463418386081e-05
1.66401924380194e-06
0.000221905868123488
9.50139250418054e-05
2.9463204305881e-05
2.29075499996313e-06
0.000568573898676345
0.00033873204103012
0.000154568406223487
4.61129698139367e-05
2.86111990557948e-06
0.00098678527560312
0.000746674526141051
0.000471825923901844
0.000226738996338755
6.56929131751608e-05
3.46071578044339e-06
0.00141600163224469
0.00119868764745353
0.000916240338226778
0.000602869309833996
0.000302873511752202
8.74924124769901e-05
4.19800798232956e-06
0.00186131912670377
0.00165104732262781
0.00138088445887149
0.00106395953828728
0.000717505142139857
0.000374526399110825
0.000109707957569142
5.00908753919876e-06
0.00231876692541655
0.00210214546259277
0.00183879682728998
0.00152950247085086
0.00118258802744126
0.000808356454681301
0.000433327895159326
0.000131115112702879
5.69752637372658e-06
0.00276822613520209
0.00254626349351689
0.00228578213093517
0.00198326994865306
0.00164242583653904
0.00126957558841569
0.000872867653217836
0.000476255986292786
0.00014874495731729
6.09075993725952e-06
0.00319106168118982
0.00297241023470413
0.0027167130404463
0.00242098099920332
0.00208696970712445
0.00172004263393992
0.00132580325579428
0.000912064448010541
0.000502029485483226
0.000160123251266735
6.17548639601579e-06
0.00358105524451587
0.00337190123525439
0.00312524192633037
0.00283849499753238
0.00251274216300978
0.0021527228453836
0.00176446696099366
0.00135341247831262
0.000927709087932108
0.000510340986430823
0.000161875135719622
6.00420631631196e-06
0.00393973412521601
0.00374296311099067
0.00350788915966393
0.00323191781982888
0.00291595152608015
0.00256433866496
0.00218295447796396
0.00177766373023602
0.00135411826446135
0.000921102955769269
0.000501784301126998
0.000156146964774627
5.4395998107467e-06
0.00427012610381639
0.00408666168352739
0.00386437011583033
0.00360025517449251
0.00329495083605174
0.0029526083118078
0.00257891166782229
0.00217986436099593
0.00176158666133131
0.00133048395169805
0.000896179227206296
0.000481907703626578
0.000145723943147881
4.56527988397056e-06
0.00457469135829344
0.00440461624012849
0.00419537254615841
0.00394346784162
0.00364917460442592
0.00331646867871448
0.00295089576016651
0.0025583129128024
0.00214497437345615
0.001717723722771
0.00128395507903938
0.000854106182363425
0.000450974887700224
0.000130334928477052
3.46374708547632e-06
0.00485501158731258
0.00469813142492838
0.00450179384854417
0.00426200968587939
0.00397866354705307
0.0036555341737905
0.00329803615887737
0.0029118449463104
0.00250301551441983
0.00207846628739443
0.00164599655696963
0.0012140464727944
0.000793731098825967
0.000407083585512759
0.000108704898100667
2.2232384353613e-06
0.00511212199321142
0.00496815379369548
0.00478444116970243
0.00455650656618568
0.00428383998987428
0.00397000618380812
0.00362026981444109
0.00324010505839443
0.00283529944291267
0.002412495907874
0.00197949433821623
0.00154511582361846
0.00111883232454377
0.000712282829611594
0.000347727404705464
8.15629516873832e-05
1.08077960038944e-06
0.00534685549408748
0.0052154594215725
0.00504404640165094
0.00482764441585102
0.00456533150628242
0.00426044151999555
0.00391807101006053
0.00354346649496718
0.00314211349861601
0.00272029670265188
0.00228544628423517
0.00184629575904525
0.00141270325679789
0.00099523141447061
0.000607005644400409
0.000273209475245483
5.19496374569793e-05
3.75846719789613e-07
1.24011870948841e-06
3.55223344757754e-07
2.66539456468717e-05
9.35002704870284e-06
1.03616545334995e-06
0.000139377999851608
6.35822745746224e-05
2.24396981214987e-05
1.67103199662507e-06
0.000402689566978181
0.000240226816682709
0.000116293123660106
3.7061113450215e-05
2.217275956762e-06
0.000756716104543288
0.000580748483610907
0.000364444668963633
0.000179112013940431
5.36744500089708e-05
2.7165394584856e-06
0.00113472349384938
0.000994243431897002
0.000762896996940402
0.000496876252037698
0.000249101612263464
7.20106722695379e-05
3.29593109846685e-06
0.00155455877255659
0.0014214828511858
0.00120570209477211
0.000929301425719101
0.000620538816115636
0.000318857118177718
9.17236372372994e-05
3.98226538474953e-06
0.00202271327346165
0.00186423676384365
0.00165146078513157
0.00138197645745535
0.00106762919039442
0.000723712059107947
0.000380760734718999
0.000112186860328453
4.64715311870598e-06
0.00250538287375067
0.00231835771248719
0.00209655573664646
0.00182959465790267
0.00151925829164932
0.00117311565251866
0.000801406340186176
0.000430414616292608
0.000130771112561419
5.11290033370423e-06
0.00296359833488862
0.00276460192212446
0.00253477568719003
0.0022672086422096
0.00196003179443063
0.00161752768530312
0.00124577862947059
0.000853400673280041
0.000464478155803331
0.000144708412558154
5.28694927292154e-06
0.00338115963909005
0.00318486535796742
0.0029555631621512
0.00268948936398462
0.00238557388614395
0.00204702555002817
0.00167916126236222
0.00128755808544631
0.000880591951492248
0.000481419806075041
0.000150811899357023
5.26528436204392e-06
0.00375999991874566
0.00357294977144819
0.00335054180891004
0.00309015769546294
0.00279169484743149
0.00245818373877888
0.00209470522844159
0.00170689353355276
0.00130038782027311
0.000883835580707286
0.000479723170442032
0.000147127349367414
4.86645405874111e-06
0.00410565413479048
0.00393015723017073
0.00371785692453652
0.00346595579003074
0.00317472653694054
0.00284751997540703
0.00248927480375176
0.0021055593323968
0.00170228793013822
0.0012857116651397
0.000865179070749959
0.000463457414411815
0.000138209641598443
4.14532318386719e-06
0.00442272963385086
0.00425933548138443
0.00405832633697133
0.00381638200988392
0.00353363957349476
0.00321360654389433
0.00286126927308067
0.00248204486863259
0.00208190006253641
0.00166748619427297
0.00124604725449545
0.000827861030964353
0.000435459642229095
0.000124269078470458
3.19086069769033e-06
0.00471413113747959
0.00456284100609976
0.00437339003833439
0.00414191543770856
0.00386823023627755
0.00355581031348707
0.00320966356495501
0.00283509059389306
0.00243785497139932
0.00202466254593934
0.00160316845527071
0.00118174717772059
0.000771521563437812
0.000394447397845733
0.00010433043608143
2.09269503572545e-06
0.00498151568563999
0.00484220339746301
0.00466426321252838
0.00444332354171201
0.00417882803568385
0.00387412048772071
0.00353415683826749
0.0031641043886493
0.00276948578719191
0.00235673271956955
0.00193349250035026
0.00150850606466024
0.00109127800025317
0.000693652443319154
0.000337721750025316
7.87861039765681e-05
1.05199975383549e-06
0.00522592635001636
0.00509842566273901
0.00493185460319033
0.00472135540200172
0.00446598951169806
0.00416892016260224
0.00383499657782714
0.00346921173998983
0.00307681930995567
0.00266390527183306
0.0022377447352488
0.00180696835442765
0.00138139345377942
0.000971635785841166
0.000590942029321676
0.000264565737683844
4.98015889064655e-05
3.60752270573233e-07
0.00544820442117138
0.00533229974249836
0.00517692068595046
0.00497672483012432
0.00473037269712586
0.00444081542385193
0.00411276082308216
0.00375099558297871
0.00336047210603947
0.00294689823316438
0.00251709161356652
0.0020791875976253
0.00164277497648418
0.00121874286942884
0.000819366510652189
0.000461712669330888
0.000176932966855449
2.24471341931944e-05
8.34979010524529e-08
3.42845771295875e-06
1.44167417423272e-06
3.24035723974281e-07
6.59722132302102e-05
3.41015868257223e-05
1.24590631044164e-05
9.59809600982787e-07
0.000252017307073435
0.000156035908725275
8.32549400720534e-05
2.63946916693916e-05
1.57781424725949e-06
0.000520994127959738
0.00041761341413921
0.00026983348341086
0.000137768843814754
4.11743209987703e-05
2.08619856534743e-06
0.000809797273857462
0.00076900148379281
0.000603088501253081
0.000395693926984146
0.000200233018015079
5.76867847881945e-05
2.58406199091285e-06
0.00116119281622011
0.00114828517821811
0.00100820264486568
0.000783907323706846
0.000522189654384643
0.000266192579047944
7.58778607752813e-05
3.14832442323734e-06
0.001624988462885
0.00156596835112005
0.00143021684664424
0.00121458657851479
0.000941123556343512
0.000634341085292762
0.000329053275309237
9.53070573594324e-05
3.73715797305739e-06
0.00216115122649746
0.00202880669836903
0.0018669947130412
0.00165033035631569
0.00137925162737013
0.00106556321441029
0.000723791881917277
0.000383285079449495
0.000114029681223225
4.21540751401851e-06
0.00267922706215338
0.00250576505297405
0.00231356090152188
0.0020855989702887
0.00181358271770907
0.00150099126137278
0.00115569343177251
0.000788205785988721
0.000424109270322872
0.000129303455825474
4.46485523434189e-06
0.00314181376161759
0.00295961818158441
0.00275232885193615
0.00251377454685116
0.00223838374599138
0.00192622616520332
0.00158231920535999
0.00121297346928802
0.000827230832032562
0.000448744953812349
0.000138249397165847
4.5398285318957e-06
0.00355142000961896
0.00337431305851303
0.00316643076378057
0.00292513108530264
0.00264832110614446
0.00233668853712709
0.00199423604447099
0.00162644595132369
0.00123917381832869
0.000841387108106908
0.000454923609361315
0.000137280081307282
4.28358014242019e-06
0.00391857403405153
0.00375122499078829
0.00354982279802958
0.0033120028756592
0.00303744768942772