/*--------------------------------*- C++ -*----------------------------------*\
  =========                 |
  \\      /  F ield         | OpenFOAM: The Open Source CFD Toolbox
   \\    /   O peration     | Website:  https://openfoam.org
    \\  /    A nd           | Version:  12
     \\/     M anipulation  |
\*---------------------------------------------------------------------------*/
/*   Windows 32 and 64 bit porting by blueCAPE: http://www.bluecape.com.pt   *\
|  Based on Windows porting (2.0.x v4) by Symscape: http://www.symscape.com   |
\*---------------------------------------------------------------------------*/
FoamFile
{
    format      ascii;
    class       volScalarField;
    location    "400";
    object      omega;
}
// * * * * * * * * * * * * * * * * * * * * * * * * * * * * * * * * * * * * * //

dimensions      [0 0 -1 0 0 0 0];

internalField   nonuniform List<scalar> 
10052
(
2.46683891561957
2.46684073663409
0.688234737426027
2.38167797816071
2.46684038052535
0.684098379288786
2.38167623158479
0.672785825611289
2.28699365699776
2.46683923770549
0.679635639668911
2.38167615384075
0.383942238851926
0.668629647277076
2.28699179133943
0.653160682889346
2.21610711246257
2.46682820226135
0.674993223746092
2.38167630323133
0.380595170984321
0.66414919372977
2.28699065561161
0.281291280509088
0.379355219363841
0.649023402819813
2.21610559167413
0.636822610832443
2.46680370665937
0.670214154670029
2.38167862469919
0.377164401599995
0.659514553340275
2.28698102928926
0.278788778482946
0.376016509110115
0.644560163311744
2.21610266433647
0.233406318853283
0.279576338233788
0.372502292766119
0.632760301309718
2.18721498775439
2.46677960590789
0.66539283221759
2.38170033947058
0.373719389577655
0.654736893301198
2.28700756463881
0.276269394816621
0.372599358201646
0.639956000594947
2.21609794378504
0.231419863290959
0.277077888139886
0.3691711285672
0.628326466356116
2.18721439539747
0.207310645970199
0.23269848230871
0.276588185334359
0.365631298055216
0.622739181309492
2.18619016590168
2.46685474523095
0.660724093405838
2.38179080652671
0.370437679732307
0.649900670092949
2.28705813885463
0.273819607517153
0.369164299331668
0.635210557753603
2.21612896929597
0.229460057748639
0.274558550394149
0.365761754633738
0.623741011222895
2.18722220502627
0.205656553316976
0.23071096714077
0.274085373459487
0.362304223590801
0.61825979505577
2.1861921929666
0.191786558527999
0.206995432255982
0.231200721722467
0.273030154517214
0.359947016474409
0.616597696697652
2.1919274893303
2.46710915129315
0.667061869707899
2.38207663106486
0.368074335396701
0.644716255979677
2.28720700256992
0.271608233619166
0.36589371024235
0.63041715062519
2.21618834740613
0.227610777254228
0.272105539585687
0.362329084203126
0.619026591418462
2.187241171282
0.204057149558345
0.22874516029611
0.271554515809608
0.35887676785878
0.613602678587448
2.18619683571033
0.190362498173543
0.205337763827753
0.229202110430153
0.270510237323769
0.356597043760399
0.612062181090482
2.19192781693729
0.182067728565861
0.191615302852945
0.206138922267806
0.229127500547919
0.269450310380198
0.355153247363337
0.610919439764716
2.19485065119047
2.46845767873268
0.687443579014816
2.38279685797888
0.368562766118068
0.648628722118513
2.28759010405652
0.270055841554818
0.363611297359758
0.625324638275795
2.21635112313898
0.226011298527957
0.269895044369958
0.359067174784284
0.614281314352259
2.18729884916536
0.202590197117811
0.226885669126795
0.26907967365383
0.35542164145952
0.608820738464651
2.1862140614713
0.18901355200802
0.203730076462135
0.227217771740593
0.267947796888733
0.353119749258641
0.607290638023146
2.19193169272459
0.180812974154706
0.190186795549887
0.204467440138053
0.227104585689671
0.266896654373914
0.351753482245806
0.606279760812691
2.19484847775149
0.175819668078939
0.181944973359832
0.191038437135251
0.204797784738447
0.226733698948148
0.265941395492009
0.350381511247802
0.603907438704726
2.19512394302007
2.47049246673687
0.729720572686738
2.38444961031581
0.37346669119313
0.668503024974218
2.28846093460308
0.269701963140184
0.363951756941108
0.62945203716482
2.21675101646147
0.224920829827833
0.268345982908677
0.356784172475776
0.609564697240407
2.18745684490993
0.201375619932817
0.225271689133209
0.266833388213917
0.352128167858804
0.603999875854942
2.18626782985935
0.187814477796009
0.202250507507695
0.225328459641536
0.265424538537839
0.349594304970088
0.602369755082663
2.19194736665774
0.179650579487207
0.188828930014761
0.202838876132463
0.225083632170006
0.264281372698263
0.348198527851034
0.60138689486883
2.19485404821107
0.174694968888034
0.180685636832169
0.189595392791541
0.203099797248714
0.224672711275451
0.263338463078687
0.346913912831117
0.59916825027962
2.19511930995394
0.171782017564827
0.175716759004869
0.181494611072943
0.190074875764712
0.203108601275124
0.224169920350127
0.262325470610691
0.345059278653901
0.595326827150695
2.19480252769735
2.4770796435629
0.799984918727113
2.38730059390889
0.385392264387989
0.712171583235424
2.29017014935368
0.271232398445868
0.368810626409268
0.653035281743261
2.21762507973858
0.224612569119829
0.267958180998079
0.357169566544419
0.616294131698205
2.18784627882473
0.200605862533214
0.224163457563729
0.265235458682111
0.349773762913701
0.59944353208827
2.18641828030483
0.186876908776898
0.201017922815106
0.223669401761501
0.263097599539728
0.346187657545032
0.597391829097882
2.19199774069103
0.178655664553659
0.187616811664168
0.201328449806602
0.223139586498948
0.261677773513941
0.3445637666833
0.596325108651519
2.19486872905156
0.1736780725182
0.179514370717327
0.188216448607086
0.201433607054432
0.222596619377806
0.260651502426589
0.343267889967768
0.594150132166786
2.19512662227854
0.170759365626057
0.174587577838634
0.180220828135766
0.188605026267391
0.201371489329766
0.222059612075392
0.259663946488421
0.341520825720333
0.590503612091069
2.19479743954705
0.169219044062722
0.171693629268473
0.175335554692174
0.180742532955456
0.188823073810652
0.201217261874661
0.221475530408498
0.258447984450023
0.339025998728598
0.585387262343491
2.19479806276895
2.47707784727339
0.895232793121791
2.39185429088193
0.407664247454384
0.780650832740982
2.29303147314891
0.275603573237894
0.380640271940566
0.696915044556509
2.21929735254552
0.22548452573745
0.26943608928924
0.362306222985776
0.641713272278026
2.1887046474825
0.20050425661135
0.223818875854706
0.264775184414115
0.35028014615252
0.604739047783605
2.1867976833743
0.186369071712289
0.200224422227333
0.222496350851205
0.261375879287728
0.343567467936055
0.592795500012762
2.19214201987332
0.177940336306695
0.186660807565981
0.200051157575746
0.221397858001095
0.259225720438944
0.34098465788726
0.591190337793563
2.19491617711479
0.172846453773545
0.178506595242541
0.186974257782757
0.199869079443523
0.220572118651595
0.257943939216266
0.3395071816932
0.588969519379814
2.19514050554189
0.169858035978235
0.173562049911564
0.179028942720972
0.18718904700471
0.199650646461626
0.219913850811977
0.256895171775588
0.337781822692123
0.585416182069865
2.19480440504526
0.168276442017476
0.170666619942779
0.174192215545202
0.179442262348819
0.187314236971847
0.199431113349279
0.219309183711926
0.255725439944185
0.33542118169841
0.580483753308886
2.19479262593869
0.167670211931978
0.169145229921956
0.171362383175284
0.174720996899464
0.179782644700307
0.187417815588453
0.199231328754661
0.218665569550166
0.254274854900734
0.3323179653657
0.57418008446441
2.19512379066067
2.49612177671787
0.994788897083878
2.39533623884571
0.443398935997888
0.859046606464223
2.29674776581892
0.284097289801547
0.401831167363807
0.75266066781217
2.22204870955655
0.228072241545928
0.273684689140964
0.37375197855736
0.679458864296123
2.19037342121366
0.201395731552436
0.224631858516912
0.266144007347313
0.355315448069065
0.626714716312088
2.18765616562195
0.186531751619809
0.200084779217174
0.222055177399409
0.260757992618466
0.343636313420423
0.595459322496596
2.19251529683102
0.17767411911521
0.186127554130913
0.199192661838492
0.220097493761988
0.257279069060885
0.337961211752794
0.586513666715056
2.19505506321879
0.172316872269877
0.177772887388895
0.185975274012048
0.198512974855748
0.218710221319075
0.255331094560082
0.335733687555678
0.583685185107848
2.19518566703697
0.169158226615981
0.172717891159057
0.177992103196685
0.185894806145369
0.198008621389723
0.217789684662033
0.254070985200524
0.333894899370513
0.580149414960473
2.19481773266486
0.167466167637337
0.169756903542294
0.173146604899061
0.178214256236671
0.18584490443428
0.197642445439642
0.217085356213399
0.252872377653174
0.331597786774726
0.575321858797431
2.19479935572539
0.166789117001101
0.168198369204843
0.170321466254323
0.173551531063082
0.17844374748815
0.185860316145465
0.197390068344367
0.21644113452562
0.2514943339735
0.328653710875153
0.569196777074317
2.19511834896948
0.166829205212943
0.167611003217824
0.168856884460566
0.170851783022742
0.173974429698926
0.17874284011193
0.185983981947044
0.197238120836063
0.215796077133603
0.249876878867729
0.325036430382465
0.561785092339743
2.19485117557003
2.47684940487989
1.08398578336995
2.40111592267038
0.493052315742032
0.927053966876709
2.30018099143221
0.298385144596318
0.433184614775998
0.809241351550658
2.22558052946514
0.233105216889785
0.281818251653772
0.392191684023827
0.724244193777927
2.19317081658187
0.203742801214979
0.227118345035748
0.270078198128035
0.365339189748684
0.659999555085023
2.18937724711517
0.187697533298362
0.200918127116246
0.222719183996123
0.261839550939032
0.347705079189375
0.614419655796128
2.19338223666506
0.178119817937022
0.186250772190278
0.198957954114997
0.219477857718129
0.25634444628436
0.337281720385405
0.587982292117365
2.19542288945392
0.172269608951161
0.177479799190377
0.185378994875251
0.197536683575455
0.217218233223362
0.253089429862362
0.332301008272383
0.578782914767778
2.19532031206628
0.168781699718747
0.172170186014291
0.177216970114577
0.184821349677198
0.1965401622283
0.215779991963715
0.251279281205034
0.329930251228016
0.574720877872373
2.1948616090124
0.166870253322851
0.169044894327982
0.172274225364874
0.177127206049368
0.184476428155083
0.195905361232466
0.214850908275194
0.249928888273173
0.327593286308461
0.569970474264201
2.19481257994025
0.166048368897853
0.167379932960485
0.169392119911149
0.172470551144782
0.17716352199742
0.184324724639348
0.195525620300278
0.214136671985146
0.248560911803502
0.324753804326801
0.563953510220423
2.19512510493199
0.165993419429925
0.166725735335712
0.167896292280761
0.169784973299716
0.17276653608557
0.177355401328389
0.184371571702002
0.195339482308169
0.213515906477476
0.247045998074347
0.321323352415979
0.556724718923373
2.19484807563692
0.166482352584855
0.166783782507493
0.167361214656323
0.168432458075488
0.170273470978644
0.173221657230024
0.177749785053325
0.184639215699081
0.19534941879554
0.212995568419951
0.245420475370782
0.31739703562543
0.548745198630159
2.19192820234058
2.51405945095335
1.14742201009373
2.40065827894794
0.554975948024972
0.989215555407139
2.30188339883528
0.320502039735756
0.473462454299205
0.867244592830459
2.22846114585998
0.241619639416126
0.295119859102744
0.417451713167798
0.777959911676494
2.19682454008233
0.208225995030444
0.231964811346778
0.277350245083514
0.380639661789238
0.704106787967168
2.19233035192828
0.190398062378833
0.20317391417142
0.224948691044516
0.265121302001018
0.356001638247655
0.64334570520002
2.19516231332012
0.179678228955607
0.187355773784699
0.199647061121955
0.219867716385168
0.25689805685329
0.340141282912557
0.602558979682406
2.19629466397834
0.172992877343088
0.177884730844068
0.185410428271089
0.197135221303483
0.216333075419771
0.251725582846329
0.330858849523601
0.57960813252431
2.19568328018378
0.168919343855324
0.172095706833562
0.176863031256413
0.184115039267635
0.195392669663437
0.214049542262805
0.248715030457946
0.326154950582626
0.569458943789498
2.19499393723784
0.166613193256426
0.168650613869558
0.171686128911696
0.176280793403764
0.183297805483498
0.194300656533753
0.212679820698603
0.246959400976858
0.323449225577627
0.564395899640998
2.19485641517758
0.165530257373673
0.166772190151684
0.168652593711087
0.171549234506399
0.176004569957525
0.182864897485958
0.193683328545315
0.211788993656718
0.245503352230066
0.320644053828573
0.558500919828469
2.19513870702884
0.165302864703829
0.165977049023131
0.167058618338778
0.168820800420587
0.171634037360221
0.176009855439952
0.182761521908952
0.193396259887162
0.211133529346237
0.244040778761529
0.317353779787939
0.551302245800516
2.19485098413625
0.165677609043429
0.16594391300988
0.166462354096344
0.16744609769013
0.169168213325829
0.171964974993091
0.176307012375609
0.182968989268059
0.193394832189615
0.210666313518953
0.242551682927724
0.313649240730641
0.543469003759604
2.19192747933873
0.16647550192799
0.16644935592957
0.166568386167551
0.167010883264825
0.167993320326593
0.169754268434372
0.172588195490942
0.176933723246253
0.183528336353854
0.1937415825716
0.210494862171365
0.241220548783418
0.309966401928847
0.537100634232153
2.18619276038247
2.46568133246824
1.2233931612378
2.41737311158234
0.623450095663765
1.05332125680982
2.30585710985896
0.35301923480594
0.523133928757919
0.932657671287639
2.22937138934658
0.255182122576797
0.315073374118386
0.450140188455589
0.832895672944309
2.19977409144321
0.215916566253264
0.24011725240063
0.288810744703111
0.402048148136257
0.748934977323621
2.1962924156439
0.195502450264907
0.207506505516067
0.229324879512565
0.271127575972845
0.368924175274827
0.674953660096266
2.19827720905077
0.183022283465888
0.18995790381201
0.20167413269628
0.221642182450803
0.259287420094628
0.346442500874795
0.62391001661518
2.19811319033322
0.174968362421188
0.179376418160592
0.186372694429219
0.197574638795145
0.21632412572472
0.251614747950554
0.332236650809112
0.589854858444483
2.19655520448524
0.169883173572907
0.172775794494873
0.177174474911674
0.183988342519343
0.194758767581133
0.212840477073653
0.246876852478914
0.323856076267645
0.568020052640986
2.19535403216938
0.166890697154414
0.168761182817462
0.171551393568064
0.175822438600661
0.182438921277229
0.192950100378611
0.210697534797917
0.244106253946619
0.319327928506876
0.558659655547439
2.19498878731884
0.165358582992139
0.16649794438117
0.168218818793944
0.170891597898713
0.175057063602001
0.181558357773382
0.191930217646604
0.209455223976192
0.242365275522701
0.316337390970292
0.552767037413902
2.19518376257824
0.164838456380704
0.165447554501531
0.166424075222313
0.168033281407442
0.170642191536431
0.174761801335609
0.181199915509872
0.191445235380197
0.208676459020357
0.240880928960042
0.313148674669264
0.545680213301931
2.19486730317773
0.16502004384752
0.165245669248501
0.165694830760929
0.166574053462532
0.168152889844588
0.170767435496252
0.174887349176687
0.181280699336822
0.191374399172397
0.20821356880159
0.239486559820436
0.309594188381934
0.537683241571442
2.19192700872294
0.165689352763147
0.165640633946169
0.165715069076229
0.166086343926305
0.16696835863986
0.168599670223266
0.171275207528046
0.17543181476481
0.181800547123347
0.191736140143249
0.208127552304611
0.238331598438005
0.306166480252789
0.53124840006906
2.186191853566
0.166694955855464
0.166453393076579
0.166264095796144
0.16628221055375
0.166689575572349
0.167668683091027
0.16941899616797
0.172210056999827
0.17645905348174
0.18286243793902
0.192698472841796
0.208691389421896
0.237893266380414
0.304044905666242
0.527840594652715
2.18721896895554
2.49631327127041
1.30397108913446
2.42906407789236
0.704732980628078
1.1220413945782
2.32324444283911
0.398422563610682
0.581708395812027
0.976833186472459
2.23283070446501
0.276414941745722
0.343815044993579
0.491424613211873
0.862183893769275
2.20045049008963
0.228680077013278
0.252984428031866
0.305643395254229
0.428972804823172
0.774387255353459
2.19961853364581
0.204573703508684
0.214932500352213
0.236624286334124
0.280528526049448
0.385711266879764
0.700600744459545
2.20253546655268
0.189382552265462
0.194890702013167
0.205629224842854
0.225258756536258
0.263868165400954
0.355559656859276
0.646328848223799
2.20133144935418
0.179046116021599
0.182603989138213
0.188743221173884
0.199213851008656
0.217482400397619
0.252963981613458
0.336109476444856
0.604548885977033
2.19839042043264
0.172210255412376
0.174677783422866
0.178516271628874
0.184708868494286
0.194853979368063
0.212355328635454
0.246019053321035
0.323698540174972
0.573739758734603
2.19622472777273
0.168024137561845
0.169680914254068
0.172136166298401
0.175974591118019
0.182089640979795
0.19203513322464
0.209128015657346
0.241736241633928
0.315978763903395
0.553358258264569
2.19534896819753
0.165726106204762
0.166749177709811
0.168269801633251
0.170653968393025
0.174452465474293
0.180516824284449
0.19036613151006
0.207229994444803
0.239235464117259
0.311886049529319
0.54673623508303
2.19531848383194
0.164720058896407
0.165259528878038
0.1661115117328
0.167531247439845
0.169885468322609
0.173690659761222
0.179752740891324
0.189540585480177
0.206186795706192
0.237592209274107
0.308702434178114
0.539770214752174
2.1949147647897
0.164587900127459
0.164770414528264
0.165139396208499
0.165892482839503
0.167295711969781
0.169687493595722
0.173539140862901
0.179612845010646
0.189316974640376
0.205657137842862
0.236240620396955
0.305292136489285
0.531816863934297
2.1919459817739
0.165049806386894
0.16497566311927
0.164998451687098
0.165284956035909
0.166045426447098
0.167519148012523
0.170003045746201
0.173933219140181
0.180034183116255
0.189644326457104
0.205616261138555
0.235217082249966
0.301977689271463
0.52438565285034
2.18619331415732
0.165916752804187
0.165663390778761
0.165442107293965
0.165403336930911
0.165726263120839
0.166593669649865
0.168206727069181
0.170835916401799
0.174896914025982
0.181080377592508
0.190650846374199
0.206301589724596
0.235001423170417
0.300150944789108
0.52169308683695
2.18721725254364
0.167055706220803
0.166682226386424
0.166294138318235
0.166033241356212
0.166061491797654
0.166529125406572
0.167583409533264
0.169406925202511
0.172263688175558
0.176561071483142
0.182965980031928
0.192684813629546
0.208290806595356
0.236645742120745
0.30142699901388
0.524330427670672
2.21610950095319
2.92571830771153
1.46242758802031
2.45521530268858
0.807429552658326
1.18917373885099
2.36164666010506
0.462096031271162
0.649170951428642
0.988358722073527
2.25286426569232
0.310142778205425
0.383696443490026
0.533922953445116
0.864411953260472
2.20328042873894
0.250288032242087
0.272940474368746
0.329392270064148
0.456135987191232
0.78025629250266
2.20047596221519
0.220821139650463
0.227196583705585
0.248005329038819
0.293977988023439
0.403037078954437
0.716045018605206
2.20624864116457
0.201281431166563
0.203627910344715
0.212409226378319
0.231325433555338
0.270907053911719
0.366205467531663
0.664585437807682
2.20577745682814
0.186913806255409
0.188737207979044
0.193278575699451
0.202552136918112
0.220149396614629
0.255879686975943
0.341738465813207
0.619185635093435
2.20165623154655
0.176897086002638
0.178616963093319
0.181483808258462
0.186695822490003
0.195976898091745
0.21281188867171
0.24624793769185
0.325241524758411
0.581982635865636
2.19806455702216
0.17056921262823
0.171929933737027
0.173875942864265
0.177066627888743
0.182482573624966
0.191729863038952
0.208131520491171
0.240109134518891
0.314261327247013
0.55384369206263
2.19621979862044
0.166945653823507
0.167839534875871
0.16909314384395
0.171078107258136
0.174385063031211
0.179902019544572
0.189141570161552
0.205277499462981
0.236319685841038
0.307530842873395
0.540452504872923
2.19568155322316
0.165130843653474
0.165602352461134
0.166304930876339
0.167480351579797
0.169503581726911
0.172910681669789
0.178514055623929
0.187761698065892
0.203731059712228
0.234220036610347
0.304017739928153
0.533502850379488
2.19505386534162
0.16449485510387
0.164636753374053
0.16491474449251
0.165513345921242
0.166695889021828
0.168808888136493
0.172331027448684
0.178020545386581
0.1872651467124
0.203026498134921
0.232827899048882
0.30073531437076
0.525788376083943
2.19199673378197
0.164631616543121
0.164533289861683
0.164498313087559
0.164683733221385
0.165295092712008
0.166574232930432
0.168823127297086
0.172479206085302
0.178260659218869
0.18748815358021
0.202975942610342
0.231903287860114
0.297574653029646
0.518097522420723
2.18621194276234
0.16528254957119
0.165016753278158
0.164759310756229
0.164653496439072
0.164874347462657
0.165605244041611
0.167050535302638
0.169483131961674
0.17331797754037
0.179239694583564
0.188497349123588
0.203746667713484
0.231844323432572
0.295722700457905
0.514534834653467
2.18721689342045
0.166276592851879
0.165900314089726
0.165491099005177
0.165185893209764
0.16514374544907
0.165515040092227
0.16644916074871
0.168131010197414
0.170825850516664
0.174940090406693
0.181135751786598
0.190606968781246
0.205897556117425
0.233772032772033
0.297583200728701
0.517874700089048
2.21610644747653
0.167493730904152
0.167050966393262
0.16654515640952
0.166110656830671
0.165898442804389
0.166040368915901
0.166654767159468
0.167878978724293
0.169902337226965
0.173001069108839
0.177594135481389
0.184355841249698
0.194494178715921
0.210608057902084
0.239742838429143
0.30626731335661
0.53359226870274
2.28699618918283
2.94890122564635
2.93624882338112
1.02017842621513
1.31376441592002
2.41074142755003
0.561794487862693
0.730871762820295
1.00736711567905
2.30196954031021
0.366678876908562
0.438718256589146
0.570303624628473
0.87134702814747
2.22312126698079
0.289609495598659
0.304357810268451
0.36046459283356
0.479224892145907
0.785929864190181
2.20294352484113
0.252122186790316
0.247762401605413
0.265377037155582
0.311612464468687
0.418714007917755
0.725833444764135
2.20741122415928
0.224843214272373
0.219120385961125
0.223522420941349
0.240707569827807
0.280402464031794
0.376976427202053
0.676362230534761
2.20974609758707
0.202429035834866
0.200120515535569
0.201279215408375
0.208334394525694
0.224753593433795
0.260388073321213
0.348165840554893
0.629891255451925
2.20619062918956
0.186002743987676
0.186184890442162
0.187125417359567
0.190596051978098
0.198531729580671
0.214445771621958
0.247560576553413
0.327765344366586
0.589027099054511
2.20134566439194
0.175557615518038
0.176462284904687
0.177514966570642
0.179613399722014
0.183967851129524
0.192275213271801
0.207865958308571
0.239244235723663
0.313575405464198
0.555715870262375
2.19805984247462
0.169548813453554
0.170307581007593
0.171172458219181
0.172550425592205
0.175143149325488
0.179921206136326
0.188417454709879
0.203770158530676
0.233938185823321
0.304120116531045
0.534292258759598
2.19655353643084
0.166361349977887
0.166781906141038
0.167301281144362
0.16814161027411
0.169707938553543
0.172587831711429
0.177617554328543
0.186224410290317
0.201418620495745
0.230863303606457
0.299136911355385
0.526820300406245
2.19542185460332
0.164910523609678
0.165025043232645
0.165203039103171
0.165607479706211
0.16650177138531
0.16825352198968
0.171360799590013
0.176582038267735
0.185280743646861
0.200365863502995
0.229267217447409
0.295897847592602
0.519474090838035
2.19214152987675
0.164541176836192
0.164426245470446
0.16433023525104
0.164395065001509
0.164819943025836
0.165853338772535
0.16780849428612
0.171128290238466
0.176525218036337
0.185300236439545
0.200226960288242
0.228401703359859
0.292966837996746
0.51215268869235
2.18626670849686
0.164863221140252
0.164589002832017
0.164293289833914
0.164109176228914
0.164205652202459
0.164767516249699
0.166005032442086
0.168196249477549
0.171756845561103
0.177365468687216
0.186254850233339
0.201042647869939
0.228486411926184
0.291232466658901
0.508305477571425
2.18723776571563
0.165637337712056
0.165259356267987
0.164827265249804
0.164470679045629
0.16434395463118
0.164597453504694
0.165383824393203
0.166891864676028
0.169389357878452
0.173282349479319
0.179227639940474
0.188404640593847
0.203316382226134
0.230582233552807
0.29316853146405
0.510732374279067
2.21609202484968
0.166706620611875
0.166268301619965
0.16575048492237
0.165282545314332
0.165012246336685
0.165071231374886
0.165579862868654
0.16667834661272
0.168558725966106
0.17149898451089
0.175917855922209
0.182485809690445
0.192400382942746
0.20823265445394
0.236950133768308
0.302617360049777
0.527103325208161
2.28699231025751
0.167960665960987
0.167495727243068
0.166932649473501
0.166401951809248
0.166049031363072
0.165995664585743
0.16634442160466
0.167209563426941
0.168745011784917
0.171168759029881
0.174798067794718
0.180114013585162
0.187896677433636
0.199570671355455
0.218253133433617
0.252345049790977
0.330966273264597
0.583788228810578
2.38168062169014
2.93278370268114
2.963430438256
2.91000420680932
0.81047951728603
0.91121779970787
1.14928986214218
2.3762849872843
0.475141116797419
0.524932565769063
0.618909735075067
0.918232011399847
2.27469648339922
0.368370722843867
0.356648890648368
0.400173850523194
0.505509795658682
0.811799101784624
2.22173501302294
0.321042069767814
0.284528563975198
0.292059352050141
0.333672310883056
0.435569941878566
0.739295600745662
2.20981842825042
0.278862062949242
0.248284399324556
0.241877486647285
0.254769675219592
0.292560665447343
0.388078642940907
0.684029990291148
2.21116758405427
0.236798405563063
0.222240144507619
0.215247037646832
0.21778713352683
0.231901347627424
0.266563519413587
0.3546768454195
0.635427876529864
2.21028764797422
0.204511490487274
0.200929132457
0.197460368576107
0.197486277620533
0.203114023592589
0.217564883822171
0.249944864624147
0.330520535531267
0.592342540792772
2.20591021466339
0.185105617858005
0.185214201719417
0.184457177933572
0.184496139809863
0.187075146368309
0.193994540049885
0.208503033954955
0.239097116871973
0.31328932410886
0.556274063087041
2.20134120919978
0.174494168524338
0.17514243345296
0.175373935871987
0.17571260045955
0.177151259451324
0.18085542092713
0.188381495146743
0.202808632734586
0.232048835226509
0.301330315302964
0.529710572623395
2.19838882195165
0.168890588469221
0.169314740626323
0.169602237909799
0.169942774439135
0.170827165368237
0.172965687275684
0.177249358050931
0.185086288012218
0.199410685383934
0.227705056320636
0.294204336989234
0.519675243139674
2.19629364699193
0.1660963845893
0.166220169611709
0.166295152421734
0.166445207819254
0.166941582877282
0.168202042254014
0.170768768498105
0.175408281091723
0.183453618085595
0.197745303343147
0.225596279086337
0.290757757083209
0.512763183114742
2.19251506362577
0.164933257692619
0.164821993919753
0.164668577348289
0.164589107724696
0.164773700749079
0.165486334341022
0.167064198019724
0.169963586759314
0.174892360063512
0.183127792150761
0.197397356887944
0.224714753388615
0.288102662455294
0.506218560995332
2.18641809142958
0.164757675533181
0.164485909219754
0.164154411338372
0.163880549769517
0.163823905082211
0.164172514508712
0.165147892710467
0.167038307775301
0.17026280289712
0.175494193155296
0.183947984990818
0.198205476399402
0.224948038756022
0.286720111738108
0.503047054451042
2.1872970841072
0.165204836434997
0.16483115790729
0.164377232675964
0.163962418814402
0.163733990711706
0.163842141399686
0.164444783771763
0.165737320791216
0.167992229195962
0.171616320171238
0.177261451025143
0.186092439290254
0.200574922120658
0.227225654395124
0.288866443282473
0.505139012254168
2.21612432856736
0.166054134826032
0.165622638683735
0.165093025660734
0.164587251498478
0.16424791287066
0.164205861762926
0.164584221235901
0.165527464121506
0.167231799559885
0.169978062175515
0.174185249792818
0.180519489011938
0.190164212667753
0.205647015263784
0.233824177767354
0.298511601562967
0.520386420277212
2.28697740177517
0.167160210092437
0.166705233068213
0.166137544003817
0.165582583637115
0.165182237836947
0.165057626186057
0.165312997127848
0.166065500346804
0.167472409751992
0.169754953205896
0.173232777632922
0.178387454817853
0.185996192947429
0.197474488292706
0.215918897328516
0.249720562080383
0.328069645560481
0.579885542494124
2.38167743220718
0.168420038497675
0.167968286844842
0.16739312395246
0.166823443689757
0.166402354870699
0.166246593074068
0.166450636299184
0.167117795776805
0.1683868691442
0.170453113018033
0.17359737986171
0.178238755930852
0.185038697603925
0.195137973383978
0.210772734363191
0.237072650158422
0.289589281850331
0.430230546408304
0.912631522739327
3.68516474725932
3.02036233907292
2.99996955259655
2.96251132142292
2.95949579870825
0.763399657861813
0.753222110091576
0.797849073029117
1.10612159277796
2.35262318028456
0.534613856015321
0.45548440587129
0.46644968419463
0.558973510483955
0.870365761919261
2.27190043232195
0.491506089975274
0.356196134707329
0.335431026789175
0.364873413166112
0.462068730072253
0.766141185172681
2.22780179852484
0.429531959795676
0.309124799976337
0.27382950395136
0.276226826267274
0.309125264846002
0.402167005895345
0.693799363776675
2.21366577464608
0.333241884538499
0.270716148802931
0.240712690036056
0.233218961456233
0.24273541668513
0.275052303015435
0.361726382474645
0.637909998170577
2.21187384474402
0.247855764774848
0.232579241908644
0.216943650065453
0.209346992084315
0.210702688678431
0.222690721209542
0.253573979676612
0.333176910869994
0.59182577807216
2.21005666715646
0.204211303675559
0.202743534533468
0.19768742680832
0.193330159844923
0.192662787843826
0.197372673197717
0.210301111378785
0.23966941230274
0.312878596632743
0.553827376158483
2.20590590636088
0.183656343929587
0.184340149130007
0.183394363059116
0.181717837692112
0.181116781481001
0.183135580125709
0.189302823042557
0.202536582862753
0.230606480449308
0.298667919042332
0.525018624409896
2.20165472354205
0.173545799788439
0.17412372003026
0.174108185962262
0.173623565603553
0.173390551160136
0.174394680085419
0.177639134121154
0.184498809894858
0.197803493090124
0.224895855402603
0.289427189866583
0.512041867683433
2.19811216874976
0.168468673553059
0.168689372383071
0.168675019141371
0.168471595954259
0.168377890449729
0.16892785639747
0.170758302859017
0.174656341477677
0.181910611810175