/*--------------------------------*- C++ -*----------------------------------*\
  =========                 |
  \\      /  F ield         | OpenFOAM: The Open Source CFD Toolbox
   \\    /   O peration     | Website:  https://openfoam.org
    \\  /    A nd           | Version:  12
     \\/     M anipulation  |
\*---------------------------------------------------------------------------*/
/*   Windows 32 and 64 bit porting by blueCAPE: http://www.bluecape.com.pt   *\
|  Based on Windows porting (2.0.x v4) by Symscape: http://www.symscape.com   |
\*---------------------------------------------------------------------------*/
FoamFile
{
    format      ascii;
    class       volScalarField;
    location    "400";
    object      p;
}
// * * * * * * * * * * * * * * * * * * * * * * * * * * * * * * * * * * * * * //

dimensions      [0 2 -2 0 0 0 0];

internalField   nonuniform List<scalar> 
10052
(
83333.3314283078
83333.3313625765
83333.3314280154
83333.3314300525
83333.3312933684
83333.331362429
83333.3313645205
83333.3314296987
83333.3314336033
83333.331220951
83333.3312934956
83333.3312954708
83333.3313623206
83333.3313643906
83333.3313686152
83333.3314331276
83333.3314391602
83333.3311449607
83333.3312212642
83333.3312233658
83333.3312933561
83333.3312956965
83333.3313001561
83333.3313640362
83333.3313643809
83333.3313684117
83333.331375105
83333.331438676
83333.3310653438
83333.3311454756
83333.3311477641
83333.331220825
83333.331223777
83333.3312287396
83333.3312946367
83333.3312956766
83333.3313002952
83333.3313075185
83333.3313684946
83333.3313662253
83333.3313684253
83333.331374933
83333.3313843142
83333.3309822902
83333.331066117
83333.3310685742
83333.3311445458
83333.331148365
83333.3311538629
83333.3312211988
83333.331223387
83333.3312290324
83333.3312371207
83333.3312981219
83333.3312970917
83333.3313003028
83333.331307733
83333.3313181207
83333.3313766881
83333.3313709107
83333.3313704186
83333.3313749863
83333.3313841986
83333.3313959189
83333.3308966463
83333.3309833419
83333.3309859569
83333.3310644535
83333.3310694331
83333.3310754395
83333.3311434949
83333.3311474045
83333.3311543645
83333.3311633926
83333.3312230645
83333.3312239162
83333.3312286102
83333.331237523
83333.3312487236
83333.3313049946
83333.3313008428
83333.331301892
83333.3313077984
83333.3313183372
83333.3313314157
83333.3313891059
83333.3313792468
83333.3313753787
83333.3313772158
83333.3313843579
83333.3313959759
83333.3314100124
83333.3308101929
83333.3308978639
83333.3309008583
83333.3309805078
83333.3309871418
83333.3309937997
83333.3310612977
83333.3310676266
83333.3310762803
83333.3310864405
83333.3311428384
83333.3311464725
83333.3311533273
83333.3311640969
83333.3311766158
83333.3312277556
83333.3312260653
83333.3312293569
83333.3312372001
83333.3312495038
83333.3312638657
83333.3313160572
83333.331307902
83333.3313059698
83333.3313097533
83333.3313185429
83333.3313318586
83333.3313475628
83333.3314060122
83333.3313917057
83333.3313839907
83333.3313825041
83333.3313868501
83333.3313963509
83333.3314101872
83333.3314262247
83333.3307247023
83333.3308110349
83333.3308153292
83333.330893075
83333.3309022855
83333.3309104149
83333.3309743786
83333.3309840319
83333.3309950504
83333.3310070838
83333.3310570797
83333.3310644933
83333.3310743501
83333.3310875395
83333.3311018694
83333.331144415
83333.3311461005
83333.3311526359
83333.3311631625
83333.331177885
83333.3311941394
83333.3312366417
83333.3312309913
83333.3312318627
83333.3312383279
83333.3312494679
83333.3312650348
83333.331282487
83333.3313318417
83333.3313190509
83333.3313133932
83333.3313142125
83333.3313208456
83333.3313323542
83333.3313481676
83333.3313661615
83333.3314276025
83333.3314085989
83333.3313966489
83333.3313915195
83333.3313925946
83333.331399262
83333.3314108213
83333.3314264275
83333.3314439764
83333.3306404891
83333.3307239391
83333.3307313693
83333.3308028567
83333.3308162609
83333.3308276225
83333.3308825891
83333.3308970294
83333.3309116545
83333.330927071
83333.3309650633
83333.3309777912
83333.3309917115
83333.3310083024
83333.3310255235
83333.3310539524
83333.3310605274
83333.3310715345
83333.3310856608
83333.3311035604
83333.331122341
83333.3311498642
83333.3311480075
83333.3311527438
83333.3311629022
83333.3311772856
83333.3311958483
83333.3312158246
83333.3312505033
83333.3312400213
83333.3312373051
83333.331241322
83333.3312510846
83333.3312653529
83333.3312838195
83333.3313039733
83333.3313528
83333.3313348635
83333.3313248174
83333.3313221345
83333.3313258931
83333.3313351324
83333.3313489471
83333.3313667728
83333.3313864775
83333.3314540493
83333.3314301674
83333.3314136772
83333.3314045215
83333.3314021011
83333.3314055706
83333.3314141842
83333.3314273209
83333.3314441946
83333.3314626598
83333.3305564495
83333.3306364625
83333.3306489143
83333.3307105241
83333.3307299784
83333.3307462045
83333.3307859493
83333.3308072986
83333.3308274457
83333.3308475318
83333.3308660655
83333.3308862729
83333.3309058775
83333.3309273871
83333.3309485983
83333.3309552218
83333.3309687182
83333.3309858742
83333.3310048229
83333.3310270367
83333.3310493328
83333.3310543469
83333.3310579556
83333.3310681721
83333.3310833813
83333.3311019895
83333.3311243836
83333.331147648
83333.3311606399
83333.3311537195
83333.3311552357
83333.3311636915
83333.3311776571
83333.3311956292
83333.3312175448
83333.3312407345
83333.3312701567
83333.3312539809
83333.331246699
83333.3312474374
83333.3312548457
83333.3312675642
83333.3312844355
83333.3313051875
83333.3313272995
83333.331379318
83333.3313558291
83333.3313408331
83333.3313340235
83333.3313344331
83333.3313408654
83333.3313522506
83333.3313678068
83333.3313870274
83333.3314077192
83333.3314854583
83333.3314565958
83333.3314353317
83333.3314218435
83333.3314156225
83333.3314157195
83333.3314211395
83333.331431185
83333.331445358
83333.3314628962
83333.3314816985
83333.3304708904
83333.3305473875
83333.3305655237
83333.330616195
83333.3306429398
83333.3306642334
83333.3306842842
83333.330715416
83333.3307425573
83333.3307671533
83333.3307591255
83333.3307899517
83333.3308175052
83333.3308455868
83333.3308711736
83333.3308466914
83333.3308699671
83333.3308955857
83333.3309211257
83333.3309490381
83333.3309756265
83333.3309482565
83333.3309596404
83333.3309775627
83333.3309995946
83333.3310237951
83333.3310510843
83333.3310784556
83333.3310604628
83333.3310587904
83333.3310663248
83333.3310808951
83333.3311004805
83333.3311232168
83333.3311494028
83333.3311763885
83333.3311780405
83333.3311646838
83333.3311614631
83333.3311670231
83333.3311793636
83333.3311967233
83333.3312176294
83333.3312420807
83333.3312674628
83333.3312962886
83333.3312736876
83333.3312609523
83333.3312574594
83333.331261759
83333.3312721766
83333.3312872692
83333.3313060565
83333.3313282921
83333.3313514585
83333.3314116568
83333.3313823451
83333.33136194
83333.3313504357
83333.3313469871
83333.3313502096
83333.3313587635
83333.3313716795
83333.3313883357
83333.3314082214
83333.3314291902
83333.3315218162
83333.3314879805
83333.3314618007
83333.3314437207
83333.3314333985
83333.3314298951
83333.331432046
83333.3314388797
83333.3314497912
83333.3314644048
83333.3314820124
83333.3315005613
83333.3303837507
83333.3304556897
83333.3304782645
83333.3305193957
83333.3305534755
83333.330578489
83333.3305770474
83333.3306213845
83333.3306559112
83333.3306844418
83333.3306429241
83333.3306887639
83333.3307268667
83333.3307622787
83333.3307924582
83333.3307263564
83333.3307634449
83333.3308006654
83333.3308350033
83333.3308699256
83333.3309015025
83333.330829199
83333.3308515936
83333.3308802301
83333.3309114991
83333.3309430371
83333.3309763837
83333.3310084775
83333.3309475274
83333.3309534275
83333.3309694559
83333.3309924339
83333.3310194582
83333.3310483136
83333.3310796762
83333.3311111604
83333.3310742841
83333.3310652489
83333.3310679357
83333.3310801898
83333.3310991913
83333.3311225816
83333.3311485861
83333.3311774649
83333.3312067841
83333.3312031407
83333.3311822078
83333.3311728889
83333.3311741298
83333.3311837787
83333.3311995054
83333.3312194603
83333.3312424469
83333.3312684038
83333.3312948343
83333.331329374
83333.3312998437
83333.3312808829
83333.3312722561
83333.3312726422
83333.3312801192
83333.3312928433
83333.3313095479
83333.3313294665
83333.3313523048
83333.3313756503
83333.3314498951
83333.3314146643
83333.3313885324
83333.3313718507
83333.3313639837
83333.3313635756
83333.3313690394
83333.3313790729
83333.331392848
83333.3314099023
83333.3314297358
83333.3314502776
83333.3315629546
83333.3315242929
83333.3314931733
83333.3314703222
83333.3314556323
83333.3314482651
83333.3314469969
83333.3314506484
83333.3314583235
83333.3314695045
83333.3314839579
83333.3315010403
83333.3315187294
83333.3302978167
83333.3303630664
83333.3303887041
83333.3304198641
83333.3304611207
83333.3304898215
83333.3304633146
83333.3305246116
83333.3305666454
83333.330600197
83333.330515856
83333.3305822472
83333.3306337672
83333.330677031
83333.3307136069
83333.3305915147
83333.3306480224
83333.3307009556
83333.33074644
83333.3307893248
83333.3308269755
83333.3306940221
83333.3307318894
83333.3307753741
83333.3308190478
83333.3308599681
83333.3309005598
83333.330937842
83333.3308186343
83333.3308352865
83333.3308632188
83333.3308976837
83333.330934539
83333.3309711427
83333.3310085907
83333.3310450332
83333.3309559584
83333.3309532611
83333.3309643335
83333.3309858608
83333.3310138482
83333.3310450693
83333.3310774236
83333.3311115226
83333.331145325
83333.3310974609
83333.3310792909
83333.3310750652
83333.3310829908
83333.3310999102
83333.3311226723
83333.3311488402
83333.3311770197
83333.3312073258
83333.3312375639
83333.3312367079
83333.3312073751
83333.3311907716
83333.3311863143
83333.3311920364
83333.3312052385
83333.3312234525
83333.3312450553
83333.3312691411
83333.3312955571
83333.3313219643
83333.331369614
83333.3313329188
83333.3313071701
83333.3312926192
83333.3312882255
83333.3312920577
83333.3313019568
83333.3313161954
83333.3313336994
83333.3313539107
83333.3313765094
83333.3313991882
83333.331493886
83333.3314528501
83333.3314208529
83333.3313986343
83333.3313858708
83333.331381339
83333.3313833716
83333.3313903967
83333.3314012269
83333.3314151592
83333.3314318962
83333.3314509911
83333.3314704146
83333.3316085435
83333.331565354
83333.3315294093
83333.3315017191
83333.3314824561
83333.3314709674
83333.3314660687
83333.3314664722
83333.3314710486
83333.331478974
83333.3314898299
83333.3315035217
83333.3315194838
83333.3315357932
83333.3302171047
83333.3302732039
83333.3303023973
83333.3303182762
83333.3303689859
83333.3304048557
83333.3303420135
83333.3304251069
83333.3304762552
83333.3305173984
83333.3303755104
83333.3304693188
83333.3305377096
83333.3305906446
83333.3306353152
83333.330438477
83333.3305219303
83333.3305959232
83333.3306552901
83333.330707605
83333.3307515029
83333.3305384612
83333.3305979533
83333.3306619012
83333.3307220104
83333.3307745766
83333.3308234617
83333.3308667266
83333.3306695767
83333.3307013151
83333.330745812
83333.3307959322
83333.3308456711
83333.3308919097
83333.3309363737
83333.3309781388
83333.3308192225
83333.3308256067
83333.3308484909
83333.3308828271
83333.3309228616
83333.330964157
83333.3310042927
83333.3310443696
83333.3310830725
83333.3309759906
83333.330962086
83333.3309652014
83333.3309824142
83333.331009283
83333.3310413248
83333.3310753747
83333.3311098665
83333.3311452064
83333.331179661
83333.3311311496
83333.3311026027
83333.3310896531
83333.33109116
83333.3311042749
83333.3311251453
83333.331150495
83333.3311782513
83333.33120739
83333.3312379239
83333.3312678285
83333.3312791038
83333.3312409484
83333.3312161537
83333.3312048056
83333.3312052989
83333.331214904
83333.3312306901
83333.3312503882
83333.3312726463
83333.331296816
83333.3313227269
83333.3313481555
83333.3314168829
83333.3313730994
83333.3313402699
83333.3313191857
83333.3313092294
83333.3313086373
83333.3313151297
83333.331326612
83333.3313415371
83333.331359009
83333.3313786689
83333.3314002446
83333.3314215048
83333.3315432568
83333.3314967455
83333.3314589518
83333.3314310045
83333.331412959
83333.3314038383
83333.3314020263
83333.3314058079
83333.3314137007
83333.3314246294
83333.3314380238
83333.3314537548
83333.331471453
83333.3314890644
83333.3316581037
83333.3316108298
83333.3315703211
83333.3315378573
83333.3315139117
83333.3314980829
83333.3314893194
83333.3314863227
83333.3314878188
83333.3314927333
83333.3315003224
83333.3315102751
83333.3315226221
83333.3315369023
83333.3315513123
83333.3301526644
83333.3301897376
83333.3302260929
83333.3302160146
83333.3302803249
83333.3303254801
83333.3302127272
83333.3303238389
83333.3303870723
83333.3304359022
83333.3302191008
83333.3303488996
83333.3304392155
83333.3305034619
83333.3305545538
83333.330262252
83333.330382857
83333.33048454
83333.3305617637
83333.3306244074
83333.3306745007
83333.3303566874
83333.330446339
83333.3305382685
83333.3306199123
83333.3306870782
83333.330744899
83333.330794776
83333.3304947193
83333.3305474604
83333.3306148895
83333.3306862149
83333.3307526758
83333.3308107044
83333.3308631206
83333.3309107937
83333.3306590445
83333.3306782235
83333.3307175676
83333.3307695037
83333.3308256448
83333.3308798469
83333.3309294146
83333.330976244
83333.3310202079
83333.3308344816
83333.3308268368
83333.3308403274
83333.3308705004
83333.3309108452
83333.3309550833
83333.3309990512
83333.3310410826
83333.3310821615
83333.3311212462
83333.3310093304
83333.3309823481
83333.3309748294
83333.3309848326
83333.3310080329
83333.3310391551
83333.3310737346
83333.3311091483
83333.3311443121
83333.3311795381
83333.3312133103
83333.3311759195
83333.3311363232
83333.3311133003
83333.3311066618
83333.3311139859
83333.331131413
83333.3311549538
83333.3311816329
83333.3312097723
83333.3312386684
83333.3312683492
83333.331296908
83333.3313302142
83333.3312832759
83333.3312497879
83333.3312305965
83333.3312246724
83333.3312295028
83333.3312419693
83333.3312592851
83333.3312794558
83333.3313013797
83333.3313246613
83333.3313491973
83333.3313728478
83333.3314707403
83333.3314202507
83333.3313803534
83333.3313523757
83333.3313362212
83333.3313304569
83333.3313328646
83333.3313411493
83333.3313533695
83333.331368151
83333.3313847799
83333.3314031003
83333.3314229349
83333.3314420154
83333.3315974274
83333.3315459743
83333.3315026638
83333.3314689933
83333.3314454254
83333.3314313199
83333.3314252357
83333.3314254426
83333.331430271
83333.3314383341
83333.3314486772
83333.3314608725
83333.3314749447
83333.331490574
83333.331505913
83333.3317110318
83333.3316602426
83333.3316155728
83333.3315785423
83333.3315499267
83333.3315296159
83333.331516768
83333.3315101687
83333.331508492
83333.3315104925
83333.3315151646
83333.3315218541
83333.3315303571
83333.331540792
83333.3315528097
83333.331564785
83333.330110359
83333.3301158049
83333.3301638915
83333.3301164674
83333.3301963612
83333.3302492939
83333.3300774324
83333.3302219003
83333.3302986717
83333.3303542317
83333.3300446269
83333.3302207721
83333.3303389405
83333.3304144643
83333.3304723267
83333.3300564549
83333.3302282859
83333.3303659576
83333.3304660282
83333.3305387031
83333.3305970045
83333.3301404594
83333.3302725409
83333.3304024681
83333.3305121318
83333.3305976221
83333.3306647271
83333.3307223285
83333.330286417
83333.3303683516
83333.3304674401
83333.3305672753
83333.3306553341
83333.3307277596
83333.3307888212
83333.3308431038
83333.3304687614
83333.330505786
83333.3305679282
83333.3306438995
83333.330721445
83333.3307920846
83333.3308530171
83333.3309074298
83333.330957141
83333.3306673722
83333.3306686872
83333.3306967525
83333.3307447808
83333.3308033303
83333.3308635492
83333.3309199546
83333.3309709372
83333.3310184164
83333.3310624959
83333.3308668779
83333.3308424727
83333.3308427957
83333.3308646354
83333.3309016588
83333.330946433
83333.3309928994
83333.3310377617
83333.3310800335
83333.3311205913
83333.3311586177
83333.3310568051
83333.3310157556
83333.3309956127
83333.3309957664
83333.3310125633
83333.3310405352
83333.3310742506
83333.3311097988
83333.3311451349
83333.3311795885
83333.3312135339
83333.3312455552
83333.3312316404
83333.3311810108
83333.3311471354
83333.3311309123
83333.3311307114
83333.3311429605
83333.3311633794
83333.3311882566
83333.3312150364
83333.3312423944
83333.331269946
83333.3312978261
83333.3313242055
83333.3313894894
83333.3313342376
83333.3312920056
83333.3312643822
83333.3312510634
83333.3312499851
83333.3312580993
83333.3312723279
83333.3312901356
83333.3313097916
83333.3313304443
83333.3313519533
83333.3313743438
83333.3313954714
83333.3315304605
83333.3314739302
83333.3314272789
83333.3313923368
83333.3313695648
83333.3313579888
83333.3313556229
83333.331360145
83333.331369359
83333.331381483
83333.3313953235
83333.3314103583
83333.3314266174
83333.3314439852
83333.331460357
83333.3316556488
83333.3315999596
83333.331551612
83333.3315124276
83333.3314832768
83333.3314639101
83333.3314531646
83333.3314494188
83333.3314509345
83333.3314561062
83333.3314636595
83333.3314727712
83333.3314831559
83333.3314949287
83333.3315078882
83333.3315203934
83333.3317666313
83333.3317129942
83333.3316646914
83333.33162344
83333.3315903004
83333.3315654721
83333.3315483765
83333.3315379627
83333.3315329453
83333.3315319934
83333.3315339119
83333.3315377817
83333.3315430398
83333.3315495581
83333.3315575343
83333.331566657
83333.3315757294
83333.3300951489
83333.330060161
83333.3301238656
83333.3300248497
83333.3301218303
83333.3301872092
83333.329945095
83333.3301227786
83333.3302129631
83333.3302816413
83333.3298540726
83333.3300872301
83333.3302367472
83333.3303262864
83333.3303955086
83333.3298147559
83333.3300564747
83333.330240197
83333.3303677247
83333.3304527145
83333.330521524
83333.3298774239
83333.3300708402
83333.3302523404
83333.3303980915
83333.3305058153
83333.3305839825
83333.3306503699
83333.3300333529
83333.3301566219
83333.3302997094
83333.3304376261
83333.3305533373
83333.3306432309
83333.3307139057
83333.3307755263
83333.3302394732
83333.3303013018
83333.3303949851
83333.3305036086
83333.3306093829
83333.3307008689
83333.330775443
83333.3308381454
83333.3308941233
83333.3304673069
83333.3304813851
83333.3305297201
83333.3306022115
83333.3306851976
83333.3307662345
83333.3308381851
83333.3308998169
83333.3309543879
83333.3310038368
83333.3306981106
83333.3306776225
83333.3306890629
83333.3307273458
83333.3307831687
83333.3308460522
83333.3309077754
83333.3309642455
83333.3310148218
83333.3310613015
83333.3311040058
83333.3309175738
83333.3308749872
83333.3308592208
83333.3308689913
83333.3308988249
83333.3309409667
83333.3309879763
83333.3310347332
83333.3310788187
83333.3311197713
83333.3311585133
83333.3311943405
83333.3311182077
83333.3310631247
83333.3310292121
83333.331017436
83333.3310252701
83333.3310476152
83333.3310785748
83333.3311132002
83333.3311482395
83333.3311821564
83333.3312146852
83333.3312463227
83333.3312757261
83333.3312975876
83333.3312365375
83333.3311916933
83333.331164988
83333.3311558159
83333.33116122
83333.3311769985
83333.3311990116
83333.3312239551
83333.3312496712
83333.3312751795
83333.3313004134
83333.3313256723
83333.3313491125
83333.3314559902
83333.3313932847
83333.3313426825
83333.3313064619
83333.3312850874
83333.3312771277
83333.3312798454
83333.3312901119
83333.3313050352
83333.3313223379
83333.3313405555
83333.3313590966
83333.3313780474
83333.3313975429
83333.3314155531
83333.3315950909
83333.3315334182
83333.3314806058
83333.3314389193
83333.3314093738
83333.3313915261
83333.3313837655
83333.3313839106
83333.3313896679
83333.3313989643
83333.3314101955
83333.3314223598
83333.3314351262
83333.3314486378
83333.3314628848
83333.3314760013
83333.3317170477
83333.3316579597
83333.3316052273
83333.3315609343
83333.3315263321
83333.3315015856
83333.3314858812
83333.3314778126
83333.3314756913
83333.3314777999
83333.3314826247
83333.3314890231
83333.3314963041
83333.3315042777
83333.3315131576
83333.3315227599
83333.3315320122
83333.3318241464
83333.3317683949
83333.3317170885
83333.3316720875
83333.3316347037
83333.331605445
83333.3315840275
83333.3315696232
83333.331561066
83333.331557026
83333.3315561955
83333.3315574559
83333.3315599843
83333.3315632894
83333.3315672991
83333.3315722433
83333.3315779264
83333.3315837111
83333.3300293011
83333.3301128094
83333.3299570854
83333.3300676613
83333.3301534096
83333.3298255041
83333.3300316632
83333.3301392935
83333.3302285355
83333.3296626113
83333.3299567575
83333.3301360174
83333.3302458122
83333.3303314767
83333.3295378654
83333.3298697323
83333.3301092737
83333.330268031
83333.3303710953
83333.3304526811
83333.3295518938
83333.3298353223
83333.3300865093
83333.3302778211
83333.3304122746
83333.3305053087
83333.3305814376
83333.3297158059
83333.3299014535
83333.3301070391
83333.3302956972
83333.3304462758
83333.3305574408
83333.3306397348
83333.3307094249
83333.329957299
83333.3300547054
83333.3301927261
83333.3303458539
83333.3304885325
83333.3306061319
83333.3306970845
83333.3307690914
83333.3308318922
83333.3302243863
83333.3302568254
83333.3303333278
83333.3304391855
83333.3305547133
83333.3306626445
83333.3307539279
83333.3308280958
83333.3308904706
83333.3309457824
83333.3304955456
83333.3304809267
83333.330508147
83333.3305690425
83333.330650217
83333.3307369541
83333.3308181535
83333.3308888639
83333.3309491403
83333.331002096
83333.3310498272
83333.3307528434
83333.330708549
83333.3306992237
83333.330722471
83333.3307701305
83333.3308312169
83333.3308955182
83333.330956369
83333.3310110116
83333.3310594812
83333.3311035875
83333.3311435854
83333.3309861596
83333.3309255355
83333.3308920341
83333.3308867273
83333.3309057324
83333.3309417415
83333.3309866074
83333.3310337372
83333.3310790394
83333.3311208224
83333.3311591095
83333.3311949537
83333.3312276744
83333.3311925369
83333.3311242662
83333.3310764175
83333.331051403
83333.3310481725
83333.3310624803
83333.3310885021
83333.3311206563
83333.3311546491
83333.3311878307
83333.3312191397
83333.3312486833
83333.3312771462
83333.3313031417
83333.3313725061
83333.3313021837
83333.3312468493
83333.3312093846
83333.3311902522
83333.3311873815
83333.3311969878
83333.3312148406
83333.3312371284
83333.331260955
83333.3312845511
83333.3313072823
83333.3313293599
83333.331351212
83333.3313711119
83333.3315284772
83333.3314594879
83333.331401277
83333.3313567059
83333.3313269969
83333.3313114473
83333.3313078316
83333.331313203
83333.3313245255
83333.3313391238
83333.3313549944
83333.3313709473
83333.3313866431
83333.3314023151
83333.3314182143
83333.3314325952
83333.3316635156
83333.3315977722
83333.3315396269
83333.33149169
83333.3314554888
83333.3314311404
83333.3314175051
83333.3314126875
83333.3314144546
83333.3314205801
83333.3314291459
83333.3314387464
83333.33144857
83333.3314584175
83333.3314685612
83333.3314789669
83333.3314885011
83333.3317806738
83333.3317191102
83333.3316627817
83333.3316139585
83333.3315742253
83333.3315441565
83333.3315233296
83333.3315106323
83333.33150453
83333.3315033033
83333.3315052919
83333.3315091033
83333.3315137361
83333.3315186016
83333.3315235875
83333.3315289354
83333.3315346663
83333.3315405212
83333.3318827967
83333.3318256963
83333.3317720876
83333.3317239127
83333.3316826893
83333.3316492141
83333.3316235099
83333.3316050115
83333.3315927328
83333.3315854201
83333.3315817316
83333.3315804144
83333.3315804432
83333.331581082
83333.3315819077
83333.3315828203
83333.3315841355
83333.3315863479
83333.3315887031
83333.3299004906
83333.3300452524
83333.3301465481
83333.3297462534
83333.3299623393
83333.3300923461
83333.3301992363
83333.3294972297
83333.3298392888
83333.3300448701
83333.3301812043
83333.330283443
83333.3292559399
83333.3296825513
83333.3299809289
83333.3301732638
83333.3302989586
83333.3303945892
83333.3291676517
83333.3295667456
83333.3299073544
83333.3301537156
83333.3303200371
83333.3304319283
83333.3305190494
83333.3293087558
83333.3295896295
83333.3298849817
83333.3301409329
83333.330334639
83333.3304717807
83333.3305685257
83333.3306471887
83333.3295947073
83333.329749338
83333.329952766
83333.330167431
83333.3303580594
83333.3305079648
83333.3306186306
83333.3307017016
83333.3307719776
83333.3299222357
83333.3299828356
83333.3300995353
83333.3302513116
83333.3304101165
83333.3305523829
83333.330667425
83333.3307563586
83333.3308275095
83333.330889203
83333.3302490854
83333.3302434633
83333.3302932526
83333.3303851135
83333.3305002065
83333.3306180486
83333.3307238822
83333.3308119343
83333.3308834484
83333.3309436091
83333.3309967189
83333.330555569
83333.3305094584
83333.3305095816
83333.3305516315
83333.3306234488
83333.3307096446
83333.3307962737
83333.3308747495
83333.3309420784
83333.3309991633
83333.3310491587
83333.3310937351
83333.3308307157
83333.3307630471
83333.33073059
83333.3307345478
83333.3307689534
83333.330823338
83333.3308864441
83333.3309495155
83333.3310074803
83333.331058631
83333.3311035395
83333.3311440598
83333.3311803939
83333.3310712086
83333.3309937608
83333.3309423554
83333.3309200882
83333.3309252471
83333.3309517058
83333.3309913449
83333.3310366363
83333.3310820325
83333.3311243442
83333.3311625281
83333.3311970252
83333.3312290579
83333.3312578387
83333.3312780732
83333.3311981894
83333.3311370601
83333.3310984064
83333.3310826757
83333.3310868835
83333.331105766
83333.3311335796
83333.3311653032
83333.3311972802
83333.3312274228
83333.3312551162
83333.3312807897
83333.3313052543
83333.331327235
83333.3314547512
83333.3313767119
83333.3313118994
83333.3312639777
83333.3312344516
83333.3312222597
83333.3312243251
83333.3312366506
83333.3312552079
83333.3312765497
83333.3312981943
83333.3313187563
83333.3313379247
83333.3313560946
83333.3313738141
83333.3313896894
83333.3316054993
83333.3315316227
83333.3314668798
83333.3314145859
83333.3313766518
83333.3313531388
83333.331342463
83333.3313420623
83333.331348971
83333.3313602976
83333.3313736189
83333.3313872234
83333.3314001863
83333.3314123467
83333.3314241061
83333.3314357012
83333.3314461937
83333.331734522
83333.3316658884
83333.3316034194
83333.3315499626
83333.3315074877
83333.3314766606
83333.3314568674
83333.3314466054
83333.3314438426
83333.3314463434
83333.3314519933
83333.3314590624
83333.3314663506
83333.3314731975
83333.331479522
83333.3314856222
83333.3314916706
83333.3314976514
83333.3318455498
83333.3317824709
83333.3317234287
83333.3316707949
83333.3316264229
83333.3315912677
83333.3315653121
83333.3315477901
83333.3315374027
83333.3315325265
83333.3315314529
83333.3315326165
83333.3315347637
83333.3315370167
83333.3315388784
83333.3315402154
83333.3315414381
83333.3315434562
83333.3315459307
83333.3319418122
83333.3318841258
83333.3318289549
83333.3317782601
83333.3317337087
83333.3316963524
83333.3316665147
83333.3316439146
83333.33162779
83333.3316170236
83333.3316103079
83333.3316063239
83333.331603895
83333.3316020877
83333.3316002323
83333.3315979014
83333.331595063
83333.3315925996
83333.3315918939
83333.3315911089
83333.3296834059
83333.329911456
83333.330078261
83333.3301922065
83333.3293890703
83333.3297577049
83333.3299827632
83333.3301424968
83333.3302558044
83333.3290311668
83333.3295179331
83333.3298657952
83333.3300914248
83333.3302415201
83333.3303510396
83333.3287978537
83333.3292933939
83333.3297278078
83333.330034255
83333.3302349021
83333.3303675674
83333.3304674129
83333.3288481929
83333.329224476
83333.3296352101
83333.3299764802
83333.3302216737
83333.3303891885
83333.3305030205
83333.3305919121
83333.329124634
83333.3293662046
83333.3296654765
83333.3299661134
83333.3302183458
83333.330407488
83333.3305416823
83333.3306379908
83333.3307165802
83333.3295259097
83333.3296378764
83333.3298158593
83333.3300330861
83333.3302496803
83333.3304354222
83333.3305791999
83333.3306856045
83333.3307669218
83333.3308355486
83333.3299420666
83333.3299513552
83333.3300349304
83333.3301697932
83333.3303303237
83333.3304884934
83333.3306250405
83333.3307339773
83333.3308184716
83333.3308867063
83333.3309456355
83333.3303162735
83333.3302685934
83333.3302829381
83333.3303512085
83333.3304554692
83333.3305745858
83333.3306897143
83333.3307900106
83333.3308724854
83333.3309394132
83333.3309958789
83333.3310453921
83333.3306456257
83333.3305690549
83333.3305387526
83333.3305559117
83333.3306113708
83333.3306902394
83333.3307770681
83333.3308603026
83333.330933771
83333.3309959592
83333.3310483883
83333.3310940919
83333.3311343366
83333.3309296785
83333.3308404027
83333.3307847335
83333.3307667082
83333.3307835948
83333.3308265142
83333.3308841301
83333.3309463168
83333.3310059752
83333.3310593707
83333.3311056395
83333.3311457776
83333.3311817624
83333.3312135498
83333.3311703283
83333.3310782542
83333.331009887
83333.3309701319
83333.3309593908
83333.3309733562
83333.3310046556
83333.3310454672
83333.3310891957
83333.3311312746
83333.3311693169
83333.331202841
83333.3312326226
83333.3312599701
83333.331284189
83333.3313725986
83333.3312832049
83333.3312101797
83333.3311582933
83333.3311294368
83333.3311220366
83333.3311318186
83333.3311533341
83333.3311812296
83333.3312110783
83333.3312398421
83333.3312659578
83333.3312892045
83333.3313102391
83333.3313299523
83333.3313474606
83333.3315424068
83333.3314584987
83333.331385639
83333.3313280886
83333.3312882825
83333.331266208
83333.331259671
83333.3312651962
83333.3312788327
83333.3312968231
83333.3313161173
83333.3313346541
83333.331351406
83333.3313662926
83333.3313799113
83333.3313928104
83333.3314044605
83333.3316854885
83333.3316082549
83333.3315382952
83333.3314792251
83333.3314335429
83333.3314020487
83333.3313838716
83333.3313769799
83333.3313786724
83333.3313860334
83333.33139637
83333.3314075435
83333.3314181345
83333.3314274328
83333.3314354443
83333.3314426187
83333.3314494664
83333.3314560907
83333.3318068718
83333.3317365676
83333.3316709039
83333.3316128463
83333.3315647146
83333.3315276804
83333.3315016702
83333.3314856445
83333.3314778826
83333.3314762707
83333.3314786243
83333.3314829849