/*--------------------------------*- C++ -*----------------------------------*\
  =========                 |
  \\      /  F ield         | OpenFOAM: The Open Source CFD Toolbox
   \\    /   O peration     | Website:  https://openfoam.org
    \\  /    A nd           | Version:  12
     \\/     M anipulation  |
\*---------------------------------------------------------------------------*/
/*   Windows 32 and 64 bit porting by blueCAPE: http://www.bluecape.com.pt   *\
|  Based on Windows porting (2.0.x v4) by Symscape: http://www.symscape.com   |
\*---------------------------------------------------------------------------*/
FoamFile
{
    format      ascii;
    class       surfaceScalarField;
    location    "400";
    object      phi;
}
// * * * * * * * * * * * * * * * * * * * * * * * * * * * * * * * * * * * * * //

dimensions      [0 3 -1 0 0 0 0];

internalField   nonuniform List<scalar> 
28563
(
2.36339215738691e-05
-3.50042775590516e-07
-1.11323084046733e-06
2.52903900617256e-05
-3.71559190838971e-07
-1.28490543663263e-06
7.36315520466505e-06
-3.58485581663466e-07
2.52032514863679e-05
-3.6326099393444e-07
-2.17050746845221e-06
2.71427467067963e-05
-3.82510682985038e-07
-1.46984374076687e-06
7.86178908502835e-06
-4.49478482926528e-07
-4.20713464936075e-07
2.68420726009493e-05
-4.01221914431654e-07
-2.52249310886895e-06
9.30465221491872e-06
-7.89053728558543e-07
2.66048316971841e-05
-3.78988716481145e-07
-3.18448681659418e-06
2.92094109077034e-05
-3.58139194427521e-07
-1.70852419392206e-06
8.38984594191287e-06
-4.30921670814768e-07
-4.79644525484865e-07
2.87302285420304e-05
-4.20632068009973e-07
-2.93736864425636e-06
5.22159151230483e-06
-4.87826861566275e-07
-2.63282387842645e-07
9.90076524190735e-06
-4.92541903201177e-07
-9.25504228178892e-07
2.82258085278571e-05
-4.32622583719255e-07
-3.71084021903204e-06
1.04369982226489e-05
-1.21820032306054e-06
2.87880796207436e-05
-4.13882904333011e-07
3.15056016592821e-05
-2.97405433698179e-07
-1.9987872103174e-06
8.94759421920089e-06
-3.69961422588295e-07
-5.45925896019442e-07
3.08390029706091e-05
-3.93834850388151e-07
-3.42346306348427e-06
5.53499831821642e-06
-4.44191247616558e-07
-3.00137428563639e-07
1.05349643558577e-05
-4.69234459646283e-07
-1.06523788592294e-06
3.00601692100186e-05
-4.51119180714259e-07
-4.320602744166e-06
4.67249097455639e-06
-5.42758373960561e-07
-2.17009948129917e-07
6.41487657542477e-06
-5.47634746547564e-07
-5.73427206854976e-07
1.10666224803231e-05
-5.54358072939026e-07
-1.43338873815509e-06
3.05327671024868e-05
-4.79100360353704e-07
-4.97642595130875e-06
1.16150087900518e-05
3.40262047740647e-05
-1.8310440896895e-07
-2.33750050772167e-06
9.53838476033162e-06
-2.62189466544887e-07
-6.2600696995928e-07
3.3155481980571e-05
-3.29766866182085e-07
-3.98550740078629e-06
5.8675585478648e-06
-3.63635087575644e-07
-3.38886033458285e-07
1.12098856630198e-05
-3.88513850755424e-07
-1.22616812535532e-06
3.20657832581775e-05
-4.17891272459003e-07
-5.01119373269756e-06
4.9619549221411e-06
-4.84777325988078e-07
-2.48877179343724e-07
6.79965658133939e-06
-4.95975239407835e-07
-6.58174329367304e-07
1.17394438120068e-05
-5.30866531867099e-07
-1.65830635820178e-06
3.25102949920157e-05
-5.13181502914979e-07
-5.78493783440218e-06
4.44663074202916e-06
-6.13919903408463e-07
-1.923478064514e-07
5.60653743437825e-06
-6.21636868045902e-07
-4.6965126529202e-07
7.32876604069968e-06
-6.31700235841236e-07
-8.99179369554183e-07
1.22812764250895e-05
-6.2239239150884e-07
-1.95635871879423e-06
3.22550884150246e-05
-5.22728980270853e-07
-6.19558855646562e-06
3.67486765168607e-05
8.65283064552922e-09
-2.73112932562454e-06
1.01643778407815e-05
-8.98726652490093e-08
-7.19224771338982e-07
3.56843185236963e-05
-2.15999770285691e-07
-4.65033978375545e-06
6.22383985876135e-06
-2.33392806455422e-07
-3.85077041727454e-07
1.19229652214469e-05
-2.53709664770882e-07
-1.41514303164418e-06
3.42729803786614e-05
-3.57120244251647e-07
-5.83558408597656e-06
5.27604179220903e-06
-3.91533109091092e-07
-2.86188648022378e-07
7.21454892826202e-06
-3.88890443651309e-07
-7.53402448729035e-07
1.24505347548825e-05
-4.38974054706314e-07
-1.91617152240603e-06
3.46589459631826e-05
-4.88771154471511e-07
-6.67106364967234e-06
4.73522977963176e-06
-5.49984989673023e-07
-2.23391331996115e-07
5.95287743185226e-06
-5.48679726478025e-07
-5.42512621528061e-07
7.75420552375391e-06
-5.78376053613034e-07
-1.03610314258648e-06
1.29785351562867e-05
-6.00611202339898e-07
-2.26813227629409e-06
3.41956038210504e-05
-5.68640935998824e-07
-7.1568137874105e-06
4.29018206453192e-06
-6.97110621437457e-07
-1.76134995078356e-07
5.22287032852654e-06
-7.12550406161921e-07
-4.13420902936731e-07
6.42087747821561e-06
-7.2578830347608e-07
-7.42177497152753e-07
8.13154768326186e-06
-7.23505207482124e-07
-1.23428191090095e-06
1.29948720284148e-05
-6.76890060548531e-07
-2.47232568545972e-06
3.26380945292902e-05
-5.75782783013197e-07
-7.31493303134456e-06
3.96938039882373e-05
3.28185378078243e-07
-3.27331517519796e-06
1.08293027621802e-05
1.72872529436039e-07
-8.29148057897537e-07
3.85182237698243e-05
-3.53221370186922e-08
-5.52971596891139e-06
6.60883254056776e-06
-3.62051975223874e-08
-4.38660082751917e-07
1.2669308616758e-05
-4.28864324081102e-08
-1.63869109406825e-06
3.67922567144055e-05
-2.59580376783192e-07
-6.91003451305342e-06
5.62109400606088e-06
-2.49220415239696e-07
-3.29224946422217e-07
7.66780981730232e-06
-2.25425520528361e-07
-8.66623475705259e-07
1.31906040284019e-05
-2.88599301990077e-07
-2.22373151994724e-06
3.71252595300992e-05
-4.50037844102993e-07
-7.85186016658271e-06
5.0560078386471e-06
-4.5396858963683e-07
-2.58342498315371e-07
6.33596187280172e-06
-4.3137076485939e-07
-6.26793559298162e-07
8.21363353752019e-06
-4.52202831960797e-07
-1.19960180322856e-06
1.37105705652017e-05
-5.09354058731742e-07
-2.6276278250795e-06
3.65176743405117e-05
-6.12220987519084e-07
-8.38091030705161e-06
4.58044663998473e-06
-6.3471691712401e-07
-2.0553257596265e-07
5.56486391619279e-06
-6.33092250040908e-07
-4.80972551550349e-07
6.8055840058028e-06
-6.43034976397284e-07
-8.62560847272955e-07
8.58497092223874e-06
-6.59313483775776e-07
-1.43082601159024e-06
1.36937366656147e-05
-6.66509764709352e-07
-2.86912779349356e-06
3.45912732527036e-05
-6.47177955075888e-07
-8.46280048461224e-06
4.15135949266662e-06
-7.87577288483422e-07
-1.64544215782861e-07
4.97426804416938e-06
-8.14633486711967e-07
-3.78161193803324e-07
5.94637015536301e-06
-8.34181761935061e-07
-6.54858907285907e-07
7.07081551840336e-06
-8.33932426026104e-07
-1.02362846032764e-06
8.48483520958973e-06
-7.98691052228352e-07
-1.55728459904256e-06
1.32085694767697e-05
-7.28158619923206e-07
-2.97333011757141e-06
3.18912470633109e-05
-6.04823486621622e-07
-8.22081732110868e-06
4.30183655928317e-05
9.00779475491849e-07
-4.22534379096431e-06
1.15604406274069e-05
5.6848389144496e-07
-9.71438689267809e-07
4.19237520311005e-05
2.88948868703249e-07
-6.96780191437529e-06
7.03131594349431e-06
2.51077182593396e-07
-5.00688490729735e-07
1.34461615572218e-05
2.76566056171049e-07
-1.91789340549138e-06
3.98612336375343e-05
-8.16832195041897e-08
-8.51701405807613e-06
6.00660461950047e-06
-4.22041977881948e-08
-3.79511932120558e-07
8.16628668147498e-06
2.05250900506821e-08
-1.00055089298374e-06
1.39452638247191e-05
-5.38149781053796e-08
-2.59911410934304e-06
4.00673604326025e-05
-3.63333944524334e-07
-9.48879267193317e-06
5.41619911550779e-06
-3.09837442805159e-07
-2.99574182286007e-07
6.76054936413308e-06
-2.535631234411e-07
-7.25674951860307e-07
8.71764507430018e-06
-2.66612900717038e-07
-1.39261993399815e-06
1.44526604956956e-05
-3.52179878903015e-07
-3.06367936409476e-06
3.93274497217933e-05
-6.19324031725144e-07
-1.00423125160284e-05
4.90711523386744e-06
-5.41663518813025e-07
-2.38973831345739e-07
5.94912150993952e-06
-5.161414085868e-07
-5.57829659437675e-07
7.23388903993257e-06
-5.0818952981429e-07
-9.99110571294127e-07
9.07623492845e-06
-5.37690483918351e-07
-1.66252686488178e-06
1.43965793538902e-05
-5.97679181498186e-07
-3.34500896208369e-06
3.6943878119302e-05
-7.28508883158353e-07
-1.00049985023387e-05
4.44051751291295e-06
-7.31594638717303e-07
-1.92280407010742e-07
5.31569340089729e-06
-7.38659090584183e-07
-4.41390915810016e-07
6.32860309032847e-06
-7.44088544770555e-07
-7.62152446774693e-07
7.48374304984756e-06
-7.45785633734692e-07
-1.1890147555383e-06
8.94037859504718e-06
-7.42011931512683e-07
-1.81086282918945e-06
1.38690957621256e-05
-7.25474553930733e-07
-3.45135260491251e-06
3.36154617047039e-05
-6.92910506939047e-07
-9.49410007699486e-06
4.02565613149837e-06
-8.81777350071691e-07
-1.55788708845672e-07
4.79037949298888e-06
-9.22909095955169e-07
-3.54577241110602e-07
5.64000380480914e-06
-9.51852886041371e-07
-6.00529267754563e-07
6.51016862771731e-06
-9.55045223927948e-07
-9.08292048110722e-07
7.30683874396369e-06
-9.17941295837484e-07
-1.29748587116709e-06
8.47217619309363e-06
-8.54969381077589e-07
-1.86162083457621e-06
1.31166691878664e-05
-7.62742580700151e-07
-3.4264417549883e-06
3.0413754382005e-05
-6.22932853899963e-07
-8.7942599038686e-06
4.68650599905522e-05
1.91712437234901e-06
-5.76381568289703e-06
1.24578694702411e-05
1.17385427598697e-06
-1.17050041291155e-06
4.59974818302313e-05
9.61028416295579e-07
-9.26008854947313e-06
7.50891951281134e-06
6.64643563559021e-07
-5.73762669319167e-07
1.42893318647342e-05
7.60936625935963e-07
-2.28659756933804e-06
4.35370973686452e-05
3.22865835398772e-07
-1.0966529147525e-05
6.44458322837488e-06
2.52085015234884e-07
-4.38986502438082e-07
8.72463428086425e-06
3.78559155513476e-07
-1.16102948121581e-06
1.47117728468235e-05
3.08193192386997e-07
-3.07428373213848e-06
4.3500167633239e-05
-1.23154168015152e-07
-1.1826666313351e-05
5.8292474653096e-06
-1.06192388875643e-07
-3.49060488963476e-07
7.2394576060845e-06
4.84838305983076e-09
-8.42743421060319e-07
9.27309628749991e-06
1.34470723880503e-08
-1.62326364638336e-06
1.51856856756017e-05
-9.9895342723954e-08
-3.59557572716383e-06
4.26659022850967e-05
-5.44177660851562e-07
-1.22830628048449e-05
5.28297282750829e-06
-4.06649505534818e-07
-2.79045543851241e-07
6.38353000531848e-06
-3.36238476604702e-07
-6.51306964403054e-07
7.70901539954562e-06
-3.06272199785743e-07
-1.16114227208891e-06
9.61182486119103e-06
-3.38800408582294e-07
-1.94158860691364e-06
1.50869123720726e-05
-4.51617928596941e-07
-3.92171231561642e-06
3.97009277942419e-05
-7.51969269165281e-07
-1.20473811788664e-05
4.77143375726014e-06
-6.48289681892817e-07
-2.24289987680329e-07
5.70201437692475e-06
-6.25627805672671e-07
-5.15808576677293e-07
6.75649098872481e-06
-6.07308540166689e-07
-8.86598371178093e-07
7.93819158515873e-06
-6.09068107583768e-07
-1.38218177855297e-06
9.42390951852865e-06
-6.29595465101323e-07
-2.114142428583e-06
1.45088324779212e-05
-6.75699494255378e-07
-4.03754542372111e-06
3.55813934952594e-05
-7.77254260541334e-07
-1.11936683074679e-05
4.31185190157231e-06
-8.35751100564185e-07
-1.82039344349209e-07
5.12967126099063e-06
-8.56198716618892e-07
-4.14032467831195e-07
6.02016700250061e-06
-8.6582059738807e-07
-6.9982251165014e-07
6.91856908186193e-06
-8.60071502268055e-07
-1.05626782267202e-06
7.71699161564979e-06
-8.35025220205068e-07
-1.5061545225234e-06
8.90530225333691e-06
-8.07771877484771e-07
-2.16169054716732e-06
1.37154235603592e-05
-7.70276596440938e-07
-3.97273909475096e-06
3.17000038138315e-05
-7.04104287835716e-07
-1.00762431123025e-05
3.9139269865589e-06
-9.77280156902251e-07
-1.48728105602174e-07
4.64118870087879e-06
-1.03433394112999e-06
-3.37132879403864e-07
5.43377746877897e-06
-1.07520873530213e-06
-5.65276949877945e-07
6.1591320222015e-06
-1.08322445217956e-06
-8.36198946256044e-07
6.70482395346861e-06
-1.04243194957482e-06
-1.15603558489159e-06
7.23604662830901e-06
-9.74362460522073e-07
-1.54813784529583e-06
8.29082488039675e-06
-8.9511199463114e-07
-2.12706670187651e-06
1.28958963706141e-05
-7.90259073624522e-07
-3.80958596694256e-06
2.85594047242751e-05
-6.1492185631765e-07
-8.99064061052034e-06
5.08106890025506e-05
3.57598362900468e-06
-7.52161581856047e-06
1.36996489236345e-05
2.10134676924435e-06
-1.42599799202405e-06
4.98104003131114e-05
2.25834534986604e-06
-1.18350676570153e-05
8.08202299933089e-06
1.26047994523882e-06
-6.59729242889188e-07
1.53387639576599e-05
1.51221746145634e-06
-2.77111305510673e-06
4.68600476192072e-05
1.26200509122066e-06
-1.38450542079698e-05
6.95327615047147e-06
6.66161673912122e-07
-5.10210938044664e-07
9.37349053963194e-06
8.94984829267994e-07
-1.35666626058023e-06
1.55580027792206e-05
8.68109956420381e-07
-3.67807146894514e-06
4.67526126872857e-05
4.99681949253806e-07
-1.47186573150789e-05
6.31072688327811e-06
1.79227660065325e-07
-4.08621744302149e-07
7.78844933001503e-06
3.73052652063882e-07
-9.82471715168753e-07
9.90025970509303e-06
4.22611117951951e-07
-1.90261130089292e-06
1.59326354390139e-05
3.03211089254056e-07
-4.24760045688249e-06
4.62423090279499e-05
-2.3485279017928e-07
-1.51682182999652e-05
5.72101820101176e-06
-2.16830329718878e-07
-3.27407659210385e-07
6.88525498415096e-06
-8.37375865772723e-08
-7.62198899526273e-07
8.24553399488472e-06
-1.14672225313809e-08
-1.35434873829386e-06
1.02009347779025e-05
-3.77881924295842e-08
-2.27448013074216e-06
1.57548444885886e-05
-2.03817099066463e-07
-4.60387134834168e-06
4.27060471571327e-05
-6.65973094671024e-07
-1.46222058099347e-05
5.15627667341873e-06
-5.2865198933354e-07
-2.62840513754788e-07
6.15061279416084e-06
-4.60777567972599e-07
-6.03105403442248e-07
7.242918361301e-06
-4.07478209787813e-07
-1.03652860704156e-06
8.44021359540219e-06
-3.88977512195946e-07
-1.61298688678309e-06
9.94709166128695e-06
-4.39056403531045e-07
-2.47733301563927e-06
1.51181584003431e-05
-5.43526489128261e-07
-4.739487578185e-06
3.7618489347397e-05
-7.74928299704262e-07
-1.33095553654923e-05
4.64281537975682e-06
-7.66594543607025e-07
-2.1265873658177e-07
5.52060522843e-06
-7.56865881334745e-07
-4.8398621092834e-07
6.45183897548197e-06
-7.37675975139542e-07
-8.17113267455354e-07
7.37092027834959e-06
-7.16211135584812e-07
-1.23180566439319e-06
8.15951588459222e-06
-7.00406652314718e-07
-1.75389479003891e-06
9.35328734502705e-06
-7.10414200987254e-07
-2.52741027305271e-06
1.42749541887323e-05
-7.29709891754268e-07
-4.64462156996817e-06
3.2990928139143e-05
-7.65112703407324e-07
-1.17194788525407e-05
4.19545640474346e-06
-9.43603964961866e-07
-1.7367642670703e-07
4.97747060381845e-06
-9.80943009755148e-07
-3.93577135097645e-07
5.81273587390881e-06
-9.99957402314041e-07
-6.58854069507604e-07
6.5645032912062e-06
-9.92597001277815e-07
-9.72667915991999e-07
7.10774983573392e-06
-9.52079330541992e-07
-1.34213941774246e-06
7.61863505050401e-06
-9.02271070052789e-07
-1.79424395521215e-06
8.68388215382507e-06
-8.58960872091327e-07
-2.46606244429323e-06
1.34239689913996e-05
-8.03091424400281e-07
-4.40182739597138e-06
2.93323724889532e-05
-6.8503977752652e-07
-1.01641726887531e-05
3.81226740934017e-06
-1.07229177610124e-06
-1.4250673282572e-07
4.51165013810779e-06
-1.14689955261943e-06
-3.22636410466329e-07
5.27815162704834e-06
-1.20203999106907e-06
-5.39271406126911e-07
5.93967121808878e-06
-1.2170240502925e-06
-7.89829343027061e-07
6.34423986807786e-06
-1.17305711911996e-06
-1.067919669299e-06
6.63165140456317e-06
-1.09756436287672e-06
-1.38326355044053e-06
7.03392561831892e-06
-1.01552597556747e-06
-1.76509308386959e-06
8.05825184043866e-06
-9.30670531306304e-07
-2.34659606026961e-06
1.26560318066919e-05
-8.13829588669964e-07
-4.10232706700019e-06
2.65623222420385e-05
-6.13596615212612e-07
-8.81177192152482e-06
5.32743860608555e-05
5.97866728072177e-06
-8.44235070028236e-06
1.54892823328129e-05
3.4827365422413e-06
-1.69637732824582e-06
5.12936574036277e-05
4.27561034082056e-06
-1.32804586330435e-05
8.81962610761342e-06
2.12051013711993e-06
-7.56765473451918e-07
1.68225589047995e-05
2.66038225861478e-06
-3.31182194846184e-06
4.82204264607057e-05
2.78799527252483e-06
-1.59834359042507e-05
7.56286947804503e-06
1.24899441506995e-06
-5.98107496254175e-07
1.0180786927517e-05
1.64198923340788e-06
-1.59679702958397e-06
1.66933117251825e-05
1.74886114178271e-06
-4.39327591220291e-06
4.8815358652528e-05
1.64337770305141e-06
-1.755117597039e-05
6.88298141574158e-06
5.75686284673002e-07
-4.81779130558473e-07
8.43123834067902e-06
8.9291731995506e-07
-1.15093181161733e-06
1.06432917357326e-05
1.01382684868841e-06
-2.24541343456257e-06
1.68199560575826e-05
9.48327463916257e-07
-5.01403296163673e-06
4.93851436619606e-05
4.60210360060766e-07
-1.83216853587725e-05
6.24037377310358e-06
4.64005431926392e-08
-3.86528385628571e-07
7.47378087458059e-06
2.72093109724164e-07
-8.9618823033449e-07
8.86191763745823e-06
4.08885807088608e-07
-1.58512916213492e-06
1.08716325393813e-05
4.05534306190762e-07
-2.67563061064222e-06
1.64533296339723e-05
2.19576865517008e-07
-5.40051877176171e-06
4.53962210541303e-05
-3.28333172475286e-07
-1.75300741853109e-05
5.61097529554808e-06
-3.61352856776297e-07
-3.10176261050292e-07
6.67659784891262e-06
-2.28045214565128e-07
-7.09084730262051e-07
7.80424499668689e-06
-1.2022942542412e-07
-1.21476307043965e-06
9.00659898811198e-06
-7.39297264742814e-08
-1.8845907345879e-06
1.05196078106265e-05
-1.44826893316796e-07
-2.90598389309297e-06
1.57054223473928e-05
-3.08131213121491e-07
-5.54897965390871e-06
3.93282495231999e-05
-6.38788993220806e-07
-1.5693182481253e-05
5.03128329652954e-06
-6.67235683513174e-07
-2.49884305601128e-07
5.97838437698656e-06
-6.13537395993465e-07
-5.67860431150059e-07
6.9523046267192e-06
-5.5427725989079e-07
-9.56772192076825e-07
7.88644831479443e-06
-5.02972323085425e-07
-1.43806131191939e-06
8.64728123461684e-06
-4.93215176866269e-07
-2.04659291375463e-06
9.83387176842226e-06
-5.38295865480822e-07
-2.96314928409612e-06
1.48013483031486e-05
-6.05986116613614e-07
-5.43482888737289e-06
3.40016746446906e-05
-7.23762123296653e-07
-1.35965420856716e-05
4.52336784654183e-06
-8.91491503391261e-07
-2.03014514492112e-07
5.36906223354734e-06
-9.0055558015083e-07
-4.60561137656155e-07
6.24971459146375e-06
-8.88226345770379e-07
-7.70415029473771e-07
7.0235761463716e-06
-8.57347192050182e-07
-1.13504989283184e-06
7.55255263291055e-06
-8.13903252232832e-07
-1.56311148989441e-06
8.02552743706505e-06
-7.83304155812398e-07
-2.08789687545011e-06
9.08387428491697e-06
-7.77240361665428e-07
-2.87987463065725e-06
1.39062854318854e-05
-7.69442238640187e-07
-5.12260687137906e-06
2.99389169394764e-05
-7.32418956958298e-07
-1.15935995806624e-05
4.08738237315408e-06
-1.05245010677516e-06
-1.6626895880505e-07
4.84303137465164e-06
-1.10948562500956e-06
-3.76515370476608e-07
5.6550978031096e-06
-1.14205066693225e-06
-6.28430314056693e-07
6.34489695179932e-06
-1.13801022020731e-06
-9.18666772506715e-07
6.74579326520632e-06
-1.08659477566672e-06
-1.23970585899823e-06
7.00791771817775e-06
-1.01790046225195e-06
-1.60277588835186e-06
7.37824569992612e-06
-9.56207386153647e-07
-2.04131664598591e-06
8.40775128039657e-06
-9.05585732880753e-07
-2.71306742134527e-06
1.31186219990732e-05
-8.32273993392971e-07
-4.71718109071954e-06
2.68748408308013e-05
-6.75035369555467e-07
-9.80165398120694e-06
3.71354852767532e-06
-1.16523565955657e-06
-1.3649353118646e-07
4.39199602083387e-06
-1.25887077732004e-06
-3.09341043564385e-07
5.14431751133738e-06
-1.33051058738749e-06
-5.17133563094972e-07
5.78214039959035e-06
-1.35512532874025e-06
-7.55290374614421e-07
6.13096893803079e-06
-1.30968192745844e-06
-1.01144578508394e-06
6.28347826901514e-06
-1.22635259463676e-06
-1.28162059713898e-06
6.44588825122802e-06
-1.13743429167118e-06
-1.58171386283352e-06
6.79726352618374e-06
-1.05361023896295e-06
-1.94438206265506e-06
7.82328087643945e-06
-9.66773333002786e-07
-2.5165348655476e-06
1.24610435337806e-05
-8.39955987983358e-07
-4.31399411348284e-06
2.45716790598418e-05
-6.14548189337913e-07
-8.2975638477139e-06
5.24270361646405e-05
8.789102047054e-06
-7.94173355098639e-06
1.79194687463895e-05
5.45443007874113e-06
-1.90594024860335e-06
4.95025630958777e-05
6.59747329218321e-06
-1.32486981609711e-05
9.80979586718997e-06
3.35652934029172e-06
-8.63961756208033e-07
1.89409600752175e-05
4.3293835642111e-06
-3.86854303373399e-06
4.7707472286248e-05
4.60284689232653e-06
-1.73703259116826e-05
8.31540449327059e-06
2.07156368271592e-06
-7.0358701422645e-07
1.12499386178767e-05
2.71925509163047e-06
-1.88478784215848e-06
1.83033580090357e-05
3.04787035666333e-06
-5.18173420806003e-06
4.99732471845292e-05
3.06191827691559e-06
-2.02032330698867e-05
7.57613837658752e-06
1.12547466266457e-06
-5.69636894110812e-07
9.20618714655167e-06
1.62572213873993e-06
-1.35678875311094e-06
1.15901056919063e-05
1.86726426259061e-06
-2.66201363112793e-06
1.80433914147986e-05
1.92613985828127e-06
-5.89946628316232e-06
5.17812403576309e-05
1.5167546067835e-06
-2.14640206620998e-05
6.86678380274931e-06
4.09303999810174e-07
-4.60027458552058e-07
8.17571664023602e-06
7.69713054227923e-07
-1.06050918995244e-06
9.5865211803972e-06
1.00135717669188e-06
-1.86306570691112e-06
1.16826957153317e-05
1.04875812933943e-06
-3.15690508364642e-06
1.73178076359404e-05
8.81537244683728e-07
-6.29983980321161e-06
4.70131323537887e-05
3.4189478191771e-07
-2.02805081644329e-05
6.15708052117433e-06
-1.31001710468172e-07
-3.68702953752693e-07
7.30443941227875e-06
9.73097088338776e-08
-8.39586282319125e-07
8.46259102690272e-06
2.83864894276634e-07
-1.42951345573204e-06
9.65740524092084e-06
3.76405408751402e-07
-2.20680540260885e-06
1.11796061456483e-05
2.95184274380147e-07
-3.41123426155417e-06
1.63336221729847e-05
9.76916691048176e-08
-6.45474728866388e-06
4.0071613494266e-05
-2.91437680288863e-07
-1.79820208581017e-05
5.49458822025029e-06
-5.28727577335644e-07
-2.95930212260125e-07
6.52311399213853e-06
-4.11362791442256e-07
-6.71588623483656e-07
7.53840826028068e-06
-2.89162684995689e-07
-1.12625552386335e-06
8.47914225854683e-06
-1.97418153674003e-07
-1.68396861457943e-06
9.1941093769695e-06
-1.87116717820959e-07
-2.38912847978306e-06
1.03594710543724e-05
-2.67633430431256e-07
-3.47208059704071e-06
1.53197310429978e-05
-3.78559595981505e-07
-6.32759698879153e-06
3.43442713543783e-05
-5.5281522747639e-07
-1.54829687490817e-05
4.91086908564472e-06
-8.15802836719739e-07
-2.38934224319404e-07
5.83196600811684e-06
-7.84326025636074e-07
-5.41999594271696e-07
6.7601738208113e-06
-7.27450786204658e-07
-9.05146407026235e-07
7.553165547493e-06
-6.60897789454407e-07
-1.32843645694619e-06
8.05404916923461e-06
-6.08743284573913e-07
-1.82402986933492e-06
8.47036275406421e-06
-5.96483880315165e-07
-2.43324073412719e-06
9.51055444712545e-06
-6.25964056282623e-07
-3.36985001094347e-06
1.43612992737339e-05
-6.54688552538524e-07
-5.95892023407773e-06
3.01227822190377e-05
-6.71569948425938e-07
-1.31088412024694e-05
4.40939001117873e-06
-1.01912329456085e-06
-1.94376053539103e-07
5.23172604928444e-06
-1.05133574928724e-06
-4.40929488772261e-07
6.09396135213385e-06
-1.05215287034295e-06
-7.35498529407866e-07
6.81049573419482e-06
-1.02035471033288e-06
-1.07300696607368e-06
7.19801544456779e-06
-9.56790730225471e-07
-1.44438478674483e-06
7.41966636736682e-06
-8.94710134368393e-07
-1.86345359249157e-06
7.73952112853354e-06
-8.55549495495633e-07
-2.37086232016378e-06
8.75791246024926e-06
-8.39950748024705e-07
-3.15952819608232e-06
1.35316242743748e-05
-8.08711709081404e-07
-5.4593136986382e-06
2.69449650087512e-05
-7.17564256196768e-07
-1.09461591281741e-05
3.98014070657658e-06
-1.15993996257307e-06
-1.59102178829316e-07
4.71608922584365e-06
-1.23901430602177e-06
-3.60833527312449e-07
5.5170459814172e-06
-1.28878529232261e-06
-6.02509616620954e-07
6.18673584851034e-06
-1.29263648715498e-06
-8.78399830029505e-07
6.53413096305347e-06
-1.23448592660912e-06
-1.17393704205474e-06
6.660358833583e-06
-1.14988857181548e-06
-1.48459840364298e-06
6.78632185736875e-06
-1.07090256465076e-06
-1.82851459153418e-06
7.10072413100062e-06
-1.00786386125604e-06
-2.24249963780824e-06
8.1303331659224e-06
-9.53635275580814e-07
-2.89875995301577e-06
1.28660966954038e-05
-8.67310560893317e-07
-4.92996245010894e-06
2.45012153945833e-05
-6.79374473343419e-07
-9.05182597656728e-06
3.61104298655482e-06
-1.25452204151934e-06
-1.30284088241583e-07
4.27374299565282e-06
-1.36841230494863e-06
-2.96185404764547e-07
5.01744166380679e-06
-1.45866456520733e-06
-4.96289232743486e-07
5.64670617766764e-06
-1.4957127906471e-06
-7.25244992489003e-07
5.98188146065786e-06
-1.45126439361051e-06
-9.68980431004244e-07
6.08541870919282e-06
-1.3610759218992e-06
-1.21673625042515e-06
6.11717682171462e-06
-1.26350231205021e-06
-1.47005797823648e-06
6.2305924059005e-06
-1.1746683149901e-06
-1.74848595127806e-06
6.55849837472372e-06
-1.09297214540795e-06
-2.08536406959723e-06
7.60741028121806e-06
-1.0055915773154e-06
-2.6375693772842e-06
1.23581023620605e-05
-8.70373269757014e-07
-4.45210277732497e-06
2.25936702900441e-05
-6.24559886582673e-07
-7.48714472931762e-06
4.84963685975724e-05
1.15349538469324e-05
-7.60428137166799e-06
2.06973853621747e-05
8.12384626904262e-06
-2.1126470936377e-06
4.66424352154092e-05
8.59040530915455e-06
-1.36719814331234e-05
1.11341663387636e-05
5.11927346002143e-06
-9.89212196618409e-07
2.16215780477633e-05
6.58026606056693e-06
-4.56933227748707e-06
4.77518162829464e-05
6.36911251922833e-06
-1.96621298692182e-05
9.26390311932959e-06
3.23681935943214e-06
-8.28786730572266e-07
1.2692873712417e-05
4.26221149427536e-06
-2.23971936349089e-06
2.03719609699269e-05
4.82217637582754e-06
-6.15646278573821e-06
5.16094421409051e-05
4.62998618624544e-06
-2.36364884710401e-05
8.42872938319472e-06
1.89329243848833e-06
-6.74318746743878e-07
1.01702913913032e-05
2.66218737332443e-06
-1.61062095901413e-06
1.28388402599696e-05
3.08158160885601e-06
-3.16722973169511e-06
1.9628803092883e-05
3.27030608742749e-06
-6.97552447481458e-06
5.30880017825944e-05
2.86419853219731e-06
-2.43741767177214e-05
7.63547071686993e-06
9.10786756191579e-07
-5.5399889070674e-07
9.02985157827715e-06
1.46667321432397e-06
-1.2647213890675e-06
1.04654492962869e-05
1.83267533053056e-06
-2.20112507872331e-06
1.27143820022095e-05
1.96660289090268e-06
-3.73416362508097e-06
1.84589560739726e-05
1.82865140428911e-06
-7.35251733036094e-06
4.66407920340921e-05
1.33242475857683e-06
-2.24241101008926e-05
6.82438223868078e-06
1.84540053863146e-07
-4.4253763198731e-07
8.06702239128257e-06
5.4974736892594e-07
-1.00264438983615e-06
9.24794385143277e-06
8.47435517733996e-07
-1.6919398888792e-06
1.04247665353193e-05
1.00963761070441e-06
-2.59130481169248e-06
1.19799554947255e-05
9.29582269018422e-07
-4.00530153013428e-06
1.71196852066193e-05
7.18094957532692e-07
-7.46210968215279e-06
3.922832517425e-05
3.03464105699126e-07
-1.97406904897977e-05
6.05636528203399e-06
-3.39148363421198e-07
-3.53630481611778e-07
7.18206210553367e-06
-1.30383167595139e-07
-7.99958255958013e-07
8.23728914659996e-06
7.82602325530709e-08
-1.33286192505654e-06
9.17205340477954e-06
2.32693357613014e-07
-1.97871305005186e-06
9.82223137524821e-06
2.51221875916348e-07
-2.79096418298129e-06
1.09642072747482e-05
1.39492771486313e-07
-4.05777139089263e-06
1.58915739805921e-05
-7.84670860124789e-09
-7.31018446250387e-06
3.36468257936076e-05
-2.19223413609477e-07
-1.70653497207715e-05
5.37606104984549e-06
-7.10228973830146e-07
-2.83690694524492e-07
6.38797978720933e-06
-6.20573767781413e-07
-6.42733347191988e-07
7.3679279771499e-06
-4.99758926793176e-07
-1.06874700322391e-06
8.17244737279309e-06
-3.82453346920489e-07
-1.56050241395828e-06
8.62782188582654e-06
-3.13071986192707e-07
-2.13178635143308e-06
8.96616847716127e-06
-3.18472305152373e-07
-2.83409402445609e-06
9.97792737423427e-06
-3.84087267375904e-07
-3.93392532382014e-06
1.48217839557301e-05
-4.46836647812064e-07
-6.89405593538591e-06
2.96501293328588e-05
-5.00092353046846e-07
-1.45102163961059e-05
4.79165043156173e-06
-9.69091210642013e-07
-2.289721571713e-07
5.69440861478714e-06
-9.66097828544665e-07
-5.19845485369767e-07
6.61234986874862e-06
-9.22361457677502e-07
-8.65477396440709e-07
7.35337252570591e-06
-8.50454260436519e-07
-1.25846769544205e-06
7.71605396362953e-06
-7.67582032525115e-07
-1.68763578818272e-06
7.87962229568758e-06
-7.10178403924472e-07
-2.17029090834746e-06
8.13092731516482e-06
-6.93978364475872e-07
-2.75663193185348e-06
9.12815429601616e-06
-7.11048736324439e-07
-3.68373145594532e-06
1.39249050255213e-05
-7.10380110921341e-07
-6.31338475340641e-06
2.66045436051371e-05
-6.58722105370027e-07
-1.21096964380465e-05
4.29312353618063e-06
-1.14615743817251e-06
-1.85948676801413e-07
5.09808540017246e-06
-1.20497165295309e-06
-4.22736643536193e-07
5.95407645025972e-06
-1.22442123162364e-06
-7.05691972676885e-07
6.65641275665649e-06
-1.19866334753502e-06
-1.02686641435538e-06
6.99475865653899e-06
-1.12179657600816e-06
-1.36862910486093e-06
7.08143562384145e-06
-1.03404263011076e-06
-1.72612910944844e-06
7.15478914925937e-06
-9.66341401780695e-07
-2.12112908723946e-06
7.41424948747216e-06
-9.26701362310779e-07
-2.59763465983752e-06
8.42989580812818e-06
-9.05721283607514e-07
-3.36207964645518e-06
1.32187604810324e-05
-8.58617215311452e-07
-5.67092600610301e-06
2.41897291630556e-05
-7.27689341938735e-07
-9.90697507668639e-06
3.86660196350033e-06
-1.26380241290501e-06
-1.51696516556615e-07
4.58768060465836e-06
-1.36677981810774e-06
-3.45274504093065e-07
5.38290721783287e-06
-1.43701246251482e-06
-5.78071959389858e-07
6.04802150380735e-06
-1.45308395256199e-06
-8.43377796208339e-07
6.38595276459425e-06
-1.39242623259734e-06
-1.12453139682301e-06
6.46560158072256e-06
-1.29493132290959e-06
-1.40907661547556e-06
6.46020477320012e-06
-1.19965609704209e-06
-1.69887375155659e-06
6.53251973746929e-06
-1.12234945465704e-06
-2.01595563890658e-06
6.82132112954174e-06
-1.06165593513206e-06
-2.3972995879868e-06
7.86975222717583e-06
-1.00561614017223e-06
-3.02279502197289e-06
1.27111969488916e-05
-9.10098746385168e-07
-5.05232876733272e-06
2.2231611036228e-05
-7.04867746559633e-07
-7.984904396754e-06
3.50025405736582e-06
-1.33851651416898e-06
-1.23682225549357e-07
4.15009168149596e-06
-1.47352050211948e-06
-2.82520771104636e-07
4.88806794687029e-06
-1.58429339895125e-06
-4.75326065466404e-07