/*--------------------------------*- C++ -*----------------------------------*\
  =========                 |
  \\      /  F ield         | OpenFOAM: The Open Source CFD Toolbox
   \\    /   O peration     | Website:  https://openfoam.org
    \\  /    A nd           | Version:  12
     \\/     M anipulation  |
\*---------------------------------------------------------------------------*/
/*   Windows 32 and 64 bit porting by blueCAPE: http://www.bluecape.com.pt   *\
|  Based on Windows porting (2.0.x v4) by Symscape: http://www.symscape.com   |
\*---------------------------------------------------------------------------*/
FoamFile
{
    format      ascii;
    class       volVectorField;
    location    "400";
    object      U;
}
// * * * * * * * * * * * * * * * * * * * * * * * * * * * * * * * * * * * * * //

dimensions      [0 1 -1 0 0 0 0];

internalField   nonuniform List<vector> 
10052
(
(-2.62511243534213e-05 0.00211865107196673 0.000225695743792739)
(-2.60485169234671e-05 0.00230455351098816 0.000263935348922898)
(-1.84217977779685e-05 0.00160364509136207 0.000254765335742372)
(-3.5354548631534e-05 0.00119760284869697 0.000231350336426693)
(-2.53047459093571e-05 0.00252861048217065 0.000310010869279728)
(-2.03037348578788e-05 0.00169601677580824 0.000275596565500761)
(-3.65791366174428e-05 0.00126537736489078 0.000273243732547194)
(-3.59551358076346e-05 0.00116235750082742 0.000255857213270934)
(-2.76812612899508e-05 0.000832347699414156 0.000231738716471742)
(-3.1780833587368e-05 0.00272760264488438 0.000344877138013447)
(-2.2058635736745e-05 0.00178201811666029 0.000297639993567897)
(-4.01860728575113e-05 0.0014152674950223 0.000325148061091505)
(-2.48416055348815e-05 0.00190385692957133 0.000276890440737773)
(-4.03755215047849e-05 0.00120665523698979 0.000284404387626041)
(-3.42505258128556e-05 0.000850848850519474 0.000276576274257161)
(-5.25198384023396e-05 0.000933870056653759 0.000254887596756442)
(-1.95269545556656e-06 0.000738914479299997 0.000233119846018501)
(-4.25300574771287e-05 0.00294237225240603 0.000374365282472001)
(-2.54374978186111e-05 0.00185463934693136 0.000305310192634642)
(-5.35226117985048e-05 0.00151848731978495 0.000371052942750705)
(-2.8050668676814e-05 0.00199711171349493 0.000275531100612488)
(-4.29529523568099e-05 0.0012427683365908 0.000315861954078418)
(-4.19509195700117e-05 0.00095695568440074 0.000330367517102992)
(-2.50967402592647e-05 0.00198988802787158 0.000297628241112155)
(-6.49037785131177e-05 0.00163631347000063 0.000280237232904648)
(-6.0865665675971e-05 0.00094113273737736 0.000286204166361069)
(-2.36782780876809e-05 0.000717062674704681 0.00027897745254088)
(-5.91765206901779e-05 0.000829007543696874 0.000255206575737335)
(-5.67366549706376e-05 0.00315734185064579 0.00039732269261545)
(-2.99690434601268e-05 0.00191684294759725 0.000299781240449229)
(-7.17188343657416e-05 0.00162265807835929 0.000412880607962115)
(-3.21864057325489e-05 0.00209017789418259 0.000261159447901084)
(-4.87633009194336e-05 0.0012669876697165 0.000331172196480361)
(-5.11199648577428e-05 0.000998397370251664 0.000379418941629315)
(-2.87621962756071e-05 0.00209667939850514 0.000283657319421698)
(-7.26661926977786e-05 0.00169860486541511 0.000284201497068659)
(-6.48875374028331e-05 0.000947418208698009 0.000321241082873921)
(-3.15274654848882e-05 0.000837055571152918 0.000337946090843565)
(-2.46067602058702e-05 0.00201725433481508 0.00032673319749517)
(-7.21048334661832e-05 0.00183310074338601 0.000298931320999144)
(-0.000106967727952874 0.00146392418077475 0.00028055674646026)
(-7.74992161476249e-05 0.000831671962690188 0.000286433258800163)
(-7.79995930912775e-06 0.000715730079639956 0.000277164260230451)
(-7.40310267541851e-05 0.00334927325656598 0.000416857866179651)
(-3.52382930404108e-05 0.00196201668926309 0.000276751844789457)
(-9.27037468599944e-05 0.00170878878783861 0.000453135638457958)
(-3.68064642597104e-05 0.00218358673941263 0.000229614135242861)
(-5.69814619487413e-05 0.00127684008571062 0.000336680836713512)
(-6.35554594631494e-05 0.00103229870725732 0.000431128155978298)
(-3.31770149822382e-05 0.00220887126829935 0.000256443071353991)
(-8.21203684157901e-05 0.00176251481614166 0.000276613625903953)
(-7.14579597983817e-05 0.000942182453705962 0.000340558051198382)
(-1.76620592085762e-05 0.000863333352282016 0.000392426081090211)
(-2.83432796737703e-05 0.00213113109522045 0.000305210944795689)
(-8.20785773831048e-05 0.00191962471388689 0.000289780221899738)
(-0.000119913750865406 0.00150436378180251 0.000287283647930427)
(-7.99956267281939e-05 0.000813107946736297 0.000326259083367757)
(-2.80634387737856e-06 0.000731507128139706 0.000337311221299906)
(-2.40603614142129e-05 0.00202427623810264 0.000362898073965918)
(-7.28860536136505e-05 0.00190672062983986 0.000326539200468943)
(-0.000123063382172745 0.00171862451609667 0.000298388295899773)
(-0.000147128552229331 0.00135906982810893 0.000280978862947931)
(-7.88147317857902e-05 0.00073810539845229 0.000282987279665051)
(2.96330461860713e-05 0.000627186533946585 0.000277697947777098)
(-9.90989585389907e-05 0.00349884362446462 0.000431277710693221)
(-4.10606407126692e-05 0.00198054781159094 0.000228048441572361)
(-0.000125232086332677 0.00174834175115118 0.000498369023834263)
(-4.19203129896478e-05 0.0022758026995782 0.000174196329486448)
(-6.57494876130901e-05 0.00126216140452144 0.000328028793513941)
(-9.07192829039861e-05 0.00103552397297857 0.000487846228948834)
(-3.82377373834665e-05 0.00232806202546876 0.000210994470961103)
(-9.33770255664026e-05 0.00182670141369269 0.000254221676112042)
(-8.05401248360466e-05 0.000919530799718355 0.000352005744549937)
(-2.89164500284474e-05 0.000881949596770963 0.000451866982910804)
(-3.25895978831375e-05 0.00225440252352132 0.000270559335941699)
(-9.36119999018952e-05 0.0020126475780374 0.000269454089537796)
(-0.000135400195408057 0.00154717687393501 0.000283367690281506)
(-8.37314320743184e-05 0.000790387114536084 0.000349999265582331)
(8.00591960051016e-06 0.00079077073538814 0.000412036642701619)
(-2.77181191162242e-05 0.002141896533716 0.000338103053381304)
(-8.33469385759835e-05 0.00200537646219396 0.000309639012327985)
(-0.000140314781261278 0.00178959761570586 0.000291848132696318)
(-0.000165191763783077 0.0013862605665952 0.000290642238790361)
(-8.38549238776281e-05 0.000716477341154341 0.000323391549852691)
(3.13467633622214e-05 0.000638400059270663 0.000340659418527265)
(-2.35479289757311e-05 0.00202092512648924 0.000403366189116797)
(-7.18258710633778e-05 0.00193503772979681 0.000360390819193269)
(-0.000125818885131087 0.00182190108575034 0.000325157372479709)
(-0.000175082756289826 0.00163794281547198 0.000299098491401963)
(-0.00017967195183799 0.00126768974435502 0.000279560702527495)
(-7.22841872615766e-05 0.00064993846114226 0.000281839080263472)
(5.98215727886996e-05 0.000489967911789884 0.000269236465432196)
(-0.000146150563995457 0.0036555640553986 0.000393846596856007)
(-4.71092008310342e-05 0.00197172371352163 0.000137596275537601)
(-0.00019893247531231 0.00175392279618443 0.000531240563067957)
(-4.73248062606712e-05 0.00236707490442788 8.70702724611433e-05)
(-7.5010845842505e-05 0.00121128914438171 0.000296725508087507)
(-0.000161175211321483 0.00100201753312388 0.000536822384886224)
(-4.33800177173211e-05 0.00245614988618797 0.000141597089085163)
(-0.000105262366955068 0.00188743533277121 0.000210521600689479)
(-9.20716305379271e-05 0.000867275578194311 0.000350317198135813)
(-7.66448057636088e-05 0.000874993839602266 0.000508654425941023)
(-3.73570507994044e-05 0.00238913050444119 0.000218230822934756)
(-0.000106468583612369 0.00211251997440487 0.00023337841207684)
(-0.000153580653351462 0.00158986760325377 0.000265795848866672)
(-9.20454006661269e-05 0.000746118330506072 0.000365626422428309)
(-2.42768882397161e-05 0.000813492509755852 0.000479751732662732)
(-3.19241052145091e-05 0.00227154211217534 0.000300709028254321)
(-9.51800944251848e-05 0.00211354512867303 0.00028168240682033)
(-0.000159868758742839 0.00186731121086019 0.000275381246230917)
(-0.000186006788597082 0.00141459523573439 0.000289565348740515)
(-8.78541913438507e-05 0.000680287322476225 0.000362411880900259)
(-2.24655344070485e-06 0.000707968831142378 0.000419800094153965)
(-2.7074430365597e-05 0.00214013480211019 0.000378152772104739)
(-8.21259504768408e-05 0.00203931851418861 0.000339775115444257)
(-0.000143877418898608 0.00190851729425819 0.000310798528324261)
(-0.000199720450658656 0.00169822358109306 0.000294696403573647)
(-0.000203045157922213 0.00128753468109562 0.00029163825640215)
(-7.94736859844249e-05 0.000625172738106251 0.00032405731637959)
(5.37911831268977e-05 0.000495314235142059 0.000332408638474675)
(-2.29976315390316e-05 0.00200987048615352 0.000446210200937564)
(-7.01592381292874e-05 0.00194310929698122 0.00039783338788433)
(-0.000124567146479172 0.00186573566644161 0.000357527083068238)
(-0.000181588658415044 0.00175851323779766 0.000325754084641938)
(-0.000222942431025426 0.00156268646050693 0.000298986778786732)
(-0.000204413125537669 0.00118009555839625 0.000277858787359428)
(-6.49797557501436e-05 0.000562197091007727 0.000275639630175193)
(0.000105285342393594 0.000314403423287193 0.000249677541661141)
(-0.000223102387610506 0.00392788837122769 0.000260505669313306)
(-5.07695116898129e-05 0.00195871777041301 -2.03917755862423e-05)
(-0.000335289472741831 0.00184957669464869 0.00049015978895405)
(-5.27477589327709e-05 0.00246248807911155 -4.38948279670201e-05)
(-8.3156996919146e-05 0.00112656069341689 0.000225398279298703)
(-0.000322959071323086 0.00100915385687867 0.00055063298048036)
(-4.89012484240491e-05 0.00259648573044533 4.15358721823101e-05)
(-0.000116963213078906 0.00194470777806808 0.000138551938659124)
(-0.000105957059225064 0.000773291769279188 0.000324368548832761)
(-0.000191067981379634 0.000866523214094847 0.000537627635017208)
(-4.25553784634468e-05 0.00253837917203256 0.000143439441646273)
(-0.000120033965961183 0.00221921138918071 0.000176726031665355)
(-0.000173410325635214 0.00162729698301649 0.000228063004603707)
(-0.000103430409152559 0.000667262635799291 0.000365310198921068)
(-0.00010065641764579 0.000834153518593502 0.000529466351585879)
(-3.66532950941735e-05 0.00241570471661588 0.00024697074058145)
(-0.000108283354407253 0.0022324497593453 0.000239061926190716)
(-0.000181885637026448 0.00195147710975863 0.000244699537116024)
(-0.000210419881455485 0.00144189745137449 0.000274874404234481)
(-9.738701568619e-05 0.000617101386423093 0.000382345568287866)
(-7.3577070553707e-05 0.000725734560592287 0.00048132687207756)
(-3.11310149358011e-05 0.0022731022265442 0.00034127113620041)
(-9.38467719178917e-05 0.00215499536779927 0.00030861996651088)
(-0.000164249759810205 0.00200439688320363 0.000286713034337875)
(-0.000227394602480607 0.00176421701826514 0.000281101643678766)
(-0.000229392166417377 0.00130511409681648 0.000295170112129813)
(-9.12328444859683e-05 0.000580756116930949 0.000367860467614887)
(-9.52452066995302e-06 0.000542701655231768 0.00040209557465371)
(-2.63853467596931e-05 0.00212918748018572 0.000422506634266275)
(-8.00780128054196e-05 0.00204963735710311 0.000376072747001873)
(-0.000142284944098143 0.00195950165282283 0.000339206016600709)
(-0.000207649447778482 0.00183607056172798 0.000313267256418715)
(-0.000254478689618518 0.0016149155610316 0.000296630455128811)
(-0.00023225212355194 0.00119494555874145 0.000291230764273679)
(-7.37125003544704e-05 0.000535897425199716 0.000317391202993244)
(9.80666509204945e-05 0.00029894454717607 0.000303521443096401)
(-2.2367338969591e-05 0.00199198569831352 0.000490177522140494)
(-6.82490520790863e-05 0.00193929384552669 0.000437279683128259)
(-0.00012182486627504 0.00188300539931377 0.00039304607581675)
(-0.000180703501032618 0.00181257391662371 0.000357440082111971)
(-0.000235258360794358 0.00169662191691331 0.000325968588904386)
(-0.00026427529887995 0.00148851814657244 0.000297641257621479)
(-0.000222933678399774 0.00109541134904751 0.000273088894404593)
(-5.24964868264753e-05 0.000475113476419453 0.000261732944144268)
(0.000181146238445412 0.000116169284709414 0.000222099781919687)
(-0.000310713656647932 0.00439614451412949 -6.27894399736793e-06)
(-4.73030452887058e-05 0.00199868914605885 -0.000268964574867079)
(-0.00046216063135414 0.00214246225067736 0.00032410462935042)
(-5.72364918977013e-05 0.00257506338105078 -0.000232447989461494)
(-7.90800846367215e-05 0.00105033680468146 8.86278580097409e-05)
(-0.000474498861043994 0.00114978976513009 0.000443153917959635)
(-5.49687411433282e-05 0.00275557157960647 -9.75534911466494e-05)
(-0.000126794593640376 0.00200594353838682 2.82542262372883e-05)
(-0.000115275459374123 0.000651330969087772 0.00025399222647933)
(-0.00034434000248121 0.000909150369962815 0.000486695924863792)
(-4.83173761470544e-05 0.00270685143413878 4.06523280395302e-05)
(-0.000133982257661836 0.00233571302724975 9.45046030806027e-05)
(-0.000193489289188486 0.001659622977207 0.000163223854628129)
(-0.000113056188673322 0.000549912530790743 0.000332768026652394)
(-0.000230324145188625 0.00088190749546138 0.00052917910902304)
(-4.19441710070859e-05 0.00257776308326199 0.000172656790966592)
(-0.000122149419336794 0.00236332421064255 0.000177925766159456)
(-0.00020599968784283 0.00204076481887569 0.000195278605159417)
(-0.000236658071301307 0.00146270302599013 0.000240068827968923)
(-0.000103357940447377 0.000521019058834682 0.000383646702684031)
(-0.000183009085118787 0.000749501913550282 0.000514222736743112)
(-3.57462208926463e-05 0.00242247995350749 0.000289475518134545)
(-0.000106725744753217 0.00228361190412232 0.00026408784042276)
(-0.000187169668051558 0.00211032847432904 0.000249602874943713)
(-0.000258486141870521 0.00183561155547042 0.000254254953318954)
(-0.00025951285255869 0.00131926614111942 0.000283345372516506)
(-0.000104337316790676 0.000505984006125353 0.000387874786537905)
(-0.000100410422958457 0.000519630362689668 0.000445264950352578)
(-3.02991058093459e-05 0.00226332474554963 0.000388196785056181)
(-9.13504113902355e-05 0.0021688843565258 0.000344578174244155)
(-0.000162423694430069 0.00206427937147841 0.000311670196115164)
(-0.000236989139309454 0.00192203177948825 0.000292135229935042)
(-0.000289993888843834 0.00167058020938552 0.00028630239745994)
(-0.000264726870962356 0.00120398601360439 0.000297188182379301)
(-9.12343973473212e-05 0.000486115336286523 0.000359708967873594)
(3.79203598331579e-05 0.000303331937277687 0.000360805066009676)
(-2.56144697236485e-05 0.00211027470242071 0.000469276165724295)
(-7.77219123042851e-05 0.00204623020734942 0.000416049686585946)
(-0.000138844340871058 0.00197983771398868 0.000373146161101806)
(-0.000206286885737023 0.00189829734760343 0.000340924857424326)
(-0.000268893082384256 0.00176617285030554 0.0003153987834457)
(-0.000301767329844502 0.00153327834164402 0.000296782449177454)
(-0.000253559046528053 0.00110477876007677 0.00028673321467502)
(-6.06709860586745e-05 0.000446944381867491 0.0003003764839337)
(0.000191241189330424 7.26437695012321e-05 0.000265949688833268)
(-2.1654328602002e-05 0.00196755928625313 0.000534481821845862)
(-6.61820894650491e-05 0.00192677175775065 0.00047773926763417)
(-0.000118478546415167 0.00188542387957793 0.000430433740460495)
(-0.000177139142661597 0.00183632342349973 0.000391845442998028)
(-0.000235851301630687 0.00175929514134162 0.00035741768614136)
(-0.00028338168474287 0.00163304774694818 0.000324825687269949)
(-0.00029801240854768 0.00141343253615429 0.000293804903513104)
(-0.000233415882386053 0.00101033139010062 0.000264009008253373)
(-3.09441300682288e-05 0.000387609376897306 0.000240241771815543)
(0.000292758878643276 -0.000104203123996945 0.000186123825197115)
(-0.000278415533279835 0.00502155558557861 -0.000391624307895694)
(-3.41294014848182e-05 0.00215754482936239 -0.000602511334958968)
(-0.000402382364932509 0.00253538444907525 3.96946480313999e-05)
(-5.95863889482375e-05 0.0027234409479658 -0.000487642883923265)
(-4.11529760656045e-05 0.00106039131416127 -0.000129214545612394)
(-0.000403336564105285 0.00131223870753743 0.00025845172302328)
(-6.15530392618161e-05 0.00294305899897891 -0.000284400878308067)
(-0.000130896225233937 0.00208970197439225 -0.000129708211995157)
(-9.58330687495345e-05 0.000567451579805903 0.000108824303953631)
(-0.000341804000857601 0.000990520291881588 0.000346230075155708)
(-5.47952366232499e-05 0.00290070441379952 -9.62222611254458e-05)
(-0.000147783430044555 0.00246874378242306 -1.86759621489443e-05)
(-0.000210442225257643 0.00169714676779585 6.25065221599783e-05)
(-0.000105869601399178 0.000427670232573066 0.000236999467589652)
(-0.000295746753230134 0.000955624983155832 0.000451498121240361)
(-4.77477608881445e-05 0.00276234904176736 7.33346679060646e-05)
(-0.000136778877376867 0.00250991077730467 9.45131105737338e-05)
(-0.000231247682803713 0.00213799980978553 0.000123017834136135)
(-0.000262194585884423 0.00147911502975037 0.000177593611680418)
(-9.90617046239638e-05 0.000398154588609454 0.000335914930969441)
(-0.00027880343029546 0.000779950923221914 0.00049253341535565)
(-4.09285827443951e-05 0.0025917036142837 0.000219378198523256)
(-0.00012065857599177 0.00242704125579123 0.000203009381555784)
(-0.000212091417066555 0.00222645728753379 0.000196112960151612)
(-0.000292089771581449 0.00191087002540414 0.000209621784282057)
(-0.000289808984061647 0.00132702747291692 0.000251038605436164)
(-0.000105305419944839 0.000405748541807166 0.000387046730258674)
(-0.000184404477805347 0.000483162259908103 0.000458267671322622)
(-3.47444530260693e-05 0.00241495203162938 0.000340585698300345)
(-0.000103827250825004 0.00230235235553343 0.000300747107163292)
(-0.000184707583734262 0.00218099312969037 0.000272337144891942)
(-0.000269652368473103 0.00201714320051517 0.000259045028679824)
(-0.000329410134233815 0.00173025196010774 0.000262997568778179)
(-0.000300048225660053 0.00120814626441415 0.000287309815075852)
(-0.000106253035370223 0.000408265845069345 0.000373815198150261)
(-2.31560807889704e-05 0.000216168101740921 0.000387811107270913)
(-2.93779664057501e-05 0.00224397625488421 0.000438943429669015)
(-8.85103008630103e-05 0.00216665226682991 0.00038587577613576)
(-0.000158165807867306 0.00208880111653863 0.000344687484477224)
(-0.000235208707834943 0.0019942883048121 0.000316181394357698)
(-0.000306768704765537 0.00184293763603312 0.000297187786950392)
(-0.000344277679712447 0.00157974212037717 0.000289031997332248)
(-0.000290473807237238 0.0011067463225544 0.000293549658291066)
(-7.89372496083008e-05 0.000395810938628424 0.000337866352023305)
(0.000159076307952592 3.13142797422699e-05 0.000310998818103169)
(-2.47601123509814e-05 0.0020838725829798 0.000517282605855544)
(-7.52052513959041e-05 0.00203294240501925 0.000458181961708977)
(-0.000134675007378357 0.00198317709302724 0.000410509426372775)
(-0.00020169300056965 0.00192576758092213 0.00037354865673332)
(-0.000269054154173652 0.00183757467004051 0.000342730565700447)
(-0.000323639938853836 0.00169496874121144 0.000315997726328087)
(-0.000340058724730813 0.00145092557567642 0.000294089789805658)
(-0.000265270036003927 0.00101444733676477 0.000277274985893001)
(-3.54581580855418e-05 0.00035966238760637 0.000274899783477987)
(0.000327553591905613 -0.000167597415849352 0.000221567739342469)
(-2.0870040825153e-05 0.00193666624043898 0.000578529549840762)
(-6.39721075164348e-05 0.00190688918329109 0.000518569045596679)
(-0.00011481084181038 0.0018776408119264 0.000468844035926411)
(-0.000172431300269923 0.00184334166649418 0.000427998315967108)
(-0.000232099378425654 0.00178891824709368 0.000391251443881387)
(-0.000286472049352443 0.00170316508052573 0.000356238041691219)
(-0.00032424207265114 0.00156664685332335 0.000321554029143503)
(-0.000323201429583955 0.00133579071151016 0.000286775946036412)
(-0.000234791495445762 0.000922866164647384 0.000250018114549068)
(6.98364301792115e-07 0.000297862842413549 0.000211885039942341)
(0.00043411043348868 -0.000336088284684393 0.00014351737046817)
(-3.73531546596181e-05 0.00537692481206105 -0.000716832519709986)
(-7.30168627314613e-06 0.00246619305459408 -0.000977192229637013)
(4.00755318249882e-06 0.00275919220852296 -0.000195955946441501)
(-6.02748445547084e-05 0.0029209847353129 -0.000807901325242932)
(3.53379474149901e-05 0.00123059352253413 -0.000404388677299674)
(-3.9490431179062e-05 0.00136707871616104 6.26331568963072e-05)
(-6.89830429087169e-05 0.00317021229980192 -0.000526921127638786)
(-0.000125025051534363 0.0022188336102677 -0.000333767762541747)
(-2.41298421707255e-05 0.000603672407151174 -0.000106552257482875)
(-0.000136424483730439 0.00103411728147335 0.000214651869586249)
(-6.21481313199314e-05 0.00312809707594506 -0.000273847353334294)
(-0.000160469321971354 0.00262833504595603 -0.000166030047787554)
(-0.000218397045345454 0.001762981786489 -7.94734522524036e-05)
(-5.75069130825511e-05 0.000377509106331694 7.60540605162191e-05)
(-0.000265387914368763 0.00106177806395185 0.000339545272900373)
(-5.42164643732796e-05 0.00297554918989613 -5.60919379752488e-05)
(-0.000151910531583145 0.0026776797824655 -1.4130628824685e-05)
(-0.000256356346094003 0.00225008788635661 2.43731608080238e-05)
(-0.000281883311077519 0.00150554870023666 7.99231055609541e-05)
(-6.1525054931621e-05 0.00028973477716971 0.000230933059340563)
(-0.000284336277044869 0.000776328912302712 0.00041795318012415)
(-4.67130321351388e-05 0.00278533429570966 0.000127190793403652)
(-0.000135325284447629 0.0025885076803275 0.000122643688306029)
(-0.000238626702615796 0.00235583484950711 0.000123534404611767)
(-0.000326835342697273 0.00199311982934949 0.000143496448046519)
(-0.000316456078731438 0.00133304630144908 0.000190240445041554)
(-8.15644078002682e-05 0.000292106209899058 0.000337930894883408)
(-0.00019000802348109 0.000399968866716262 0.000436391235221328)
(-3.97726298233259e-05 0.00258750373465949 0.000276860621072258)
(-0.00011741531204614 0.00245177227288802 0.000242170561425809)
(-0.000208992568514285 0.00231028770173552 0.000218697000961833)
(-0.000305128777149724 0.0021211117103482 0.000210812650778816)
(-0.000370964894411907 0.00179292614821191 0.000222738655963477)
(-0.000333070027402869 0.00120740296836436 0.000257383302172117)
(-0.000103982584354306 0.000315907231547778 0.000361364827892789)
(-3.97963684056254e-05 9.22585191509601e-05 0.000385139610368772)
(-3.3659759100149e-05 0.00239581783107374 0.000396975567640064)
(-0.000100473851638105 0.00230195167817875 0.000344569170417027)
(-0.000179547317357634 0.00221063108879751 0.000305466925362719)
(-0.000267286953954811 0.0021012552524769 0.000280676266964688)
(-0.000348608978434468 0.00192758532800219 0.000267827279413056)
(-0.000390784661050901 0.00162898894049759 0.000268902729622398)
(-0.000329678349180277 0.00110407052303727 0.0002846568513561)
(-9.22097159391858e-05 0.000321872862024213 0.000344597488335426)
(0.000156172958307748 -0.000102532287854448 0.00032234451591105)
(-2.83692019297987e-05 0.00221589303625439 0.000491913406241081)
(-8.55043105572123e-05 0.00215299208555662 0.000430524974496664)
(-0.000153071403104008 0.00209364958078159 0.000382689832690663)
(-0.000229466783298507 0.00202659896630664 0.000347543210261189)
(-0.000306507027534876 0.00192512914340847 0.000320695085292135)
(-0.000369071799769588 0.00176286504690083 0.000300487397721593)
(-0.000388110735662937 0.00148897519184071 0.000288419666545557)
(-0.000304539551986394 0.0010109395482465 0.000284341954484222)
(-5.02203641899361e-05 0.000309986088743611 0.000307434142192382)
(0.000340780784264063 -0.000237094501468121 0.000259265649109463)
(-2.38341615936874e-05 0.00205013846087758 0.000565676395577902)
(-7.25582442961568e-05 0.00201144691515816 0.000501515713857872)
(-0.000130192824069078 0.0019750399888334 0.000449967491340638)
(-0.000195774416150926 0.00193418262908284 0.000409376687299059)
(-0.000264006352216071 0.00187148217208819 0.000374677755398587)
(-0.000326495618150563 0.00177416180170707 0.000343355565628753)
(-0.000369962402303095 0.00162103506666999 0.000314338395756605)
(-0.000368380503697772 0.00136618237542082 0.000288014291129734)
(-0.00026618685824968 0.000922368548146192 0.000262892112052398)
(1.91382532747176e-06 0.000272251385728959 0.000243453285160599)
(0.000499794811750203 -0.000409557259339793 0.000177407607870182)
(-2.0022588199426e-05 0.00189931430536306 0.000621762045348325)
(-6.16217894286628e-05 0.00188026790672734 0.000559270530968614)
(-0.000110911571043803 0.00186173481421937 0.0005077012252248)
(-0.000167158951715802 0.00183919554645094 0.000465147056030059)
(-0.000226438282464946 0.00180040376414799 0.000426594010978807)
(-0.000283235436197132 0.00173844722390076 0.000389811438815682)
(-0.000330460900973848 0.00164354387753264 0.000353195414446998)
(-0.000356960785585321 0.00149675630867531 0.000315574574993561)
(-0.000339349947585421 0.00125467555879178 0.000275873909346433)
(-0.000226870832447808 0.000831618831040704 0.000230797550840182)
(4.11641488002515e-05 0.000203697342816983 0.000176251001727991)
(0.000591368019006265 -0.000585920400117013 9.68894389380242e-05)
(0.000277503254167456 0.00538467680537804 -0.000739321980024837)
(2.0890991898817e-05 0.0028804605303308 -0.00131559156496983)
(0.000419237494612903 0.00263869504595662 -0.000131586813155884)
(-6.13961592474853e-05 0.00316127297908325 -0.00117892976395151)
(0.000115482073368754 0.00155212955423308 -0.000632840334439136)
(0.0002592599518074 0.00147175246309756 3.74847368135958e-05)
(-7.8194257115322e-05 0.00344581984308396 -0.000831324832496839)
(-0.000111906937547528 0.00240364788729076 -0.000566302967176892)
(6.59951902618646e-05 0.000786406270505042 -0.000331549528388064)
(-5.34066098952998e-05 0.00123689909936823 0.000145349449403301)
(-7.07722689523901e-05 0.00339822683900286 -0.000499464561388581)
(-0.000171832392514914 0.00282427741177748 -0.000346288841966277)
(-0.000213668806245681 0.00187867853995397 -0.000250572854995154)
(2.62803272551916e-05 0.000443688427913008 -0.000102694503810093)
(-0.000270519950358006 0.00121892458304782 0.000231825060472297)
(-6.14017738992309e-05 0.00322497875603385 -0.000221376199353666)
(-0.000167142823904647 0.00287359712338511 -0.000149540574237352)
(-0.000279867539454461 0.00238707581764735 -0.000100301932780129)
(-0.000290518235015372 0.00156632894709831 -5.08731131775741e-05)
(1.34470134037614e-05 0.000256609283759339 9.37744283831037e-05)
(-0.000211740598541959 0.000749339782335856 0.000310767949652079)
(-5.31491444752211e-05 0.00300923794601363 8.59361978715536e-06)
(-0.000150443430333289 0.0027725210768874 2.08408804152733e-05)
(-0.000266092000485182 0.00250335305016297 3.0703637149961e-05)
(-0.000360934431193602 0.00208951186354825 5.37688024934597e-05)
(-0.000333869054532165 0.00135336609251628 9.82804678089749e-05)
(-2.08347875294929e-05 0.000199241423174719 0.000238179645988451)
(-8.63723461990841e-05 0.000213820973790781 0.000370090076042559)
(-4.5394282187294e-05 0.00278550790080854 0.000193909346980418)
(-0.000131742699497549 0.00262000043878669 0.000166663712150712)
(-0.000234773707136488 0.00245459188552854 0.0001488535348888)
(-0.000342630051361527 0.00223656892313688 0.000145219489510982)
(-0.000412922044511096 0.00186199799049317 0.000161981578166998)
(-0.000358683114150982 0.00120807276880355 0.000200547744087534)
(-6.86826613903199e-05 0.00022347193698287 0.000313516361353595)
(4.70960252048969e-05 -9.29297343317129e-05 0.000355694638457293)
(-3.85015274906809e-05 0.00256918230658925 0.000341014929033245)
(-0.000113474307274103 0.00245368277919845 0.000289999452944548)
(-0.000202736116725803 0.00234591960260412 0.000253466189501283)
(-0.000302067976183859 0.0022193025356636 0.000232141642423031)
(-0.000393606831223078 0.00201976814335828 0.000224316195986256)
(-0.000438841960281613 0.00168071785736558 0.000232705018217918)
(-0.000364676078502457 0.00109899405835932 0.00025681849365662)
(-8.57712436424936e-05 0.000243040512992712 0.000325639201573211)
(0.000217750485828191 -0.000269110665890021 0.000308160883599579)
(-3.24864606473691e-05 0.00236639442831291 0.000456587552196876)
(-9.69350443704355e-05 0.0022883111556802 0.000392897943409338)
(-0.000173420840481074 0.00221747582263986 0.000345091807581374)
(-0.000260222022508629 0.00213932077678909 0.000311805232770949)
(-0.000347897881011699 0.0020225584206972 0.000288861152732724)
(-0.000419100496451822 0.00183740232078325 0.000274646414086686)
(-0.000440359551060869 0.00152900500807954 0.00027116806105475)
(-0.000345877313513748 0.00100359679226384 0.000276337960558847)
(-5.93931713369791e-05 0.000243346640830962 0.00030900887287817)
(0.000392873007841339 -0.0003901526726251 0.000263160065262642)
(-2.72867529625199e-05 0.00217939344288342 0.000545991744267258)
(-8.23773326524471e-05 0.00213008032532495 0.000477269247685087)
(-0.000147681759179096 0.00208544611278589 0.000423871633420753)
(-0.00022220596560218 0.00203698902373829 0.000383609894288272)
(-0.000300043590328 0.00196451168834995 0.000351187121944979)
(-0.00037165993881574 0.00185338805553352 0.000324024638563993)
(-0.000421724570301925 0.00168026878340379 0.000301387759932966)
(-0.000420398996342237 0.0013962852121636 0.00028421955472885)
(-0.000305830201540172 0.000914286355307518 0.000270451078884157)
(-7.32681921817007e-06 0.000226114469713858 0.000273133985692156)
(0.000559475032275847 -0.000493123052240657 0.000210104265155978)
(-2.28430069843016e-05 0.00200908057582441 0.000613701251612629)
(-6.97897734694188e-05 0.00198251577832879 0.000545361878893643)
(-0.000125521999716599 0.00195793990520662 0.000490668023298737)
(-0.000189308327500782 0.00193008009006878 0.000447236783134727)
(-0.000256822561056109 0.00188482196696383 0.000409523190318898)
(-0.000321866097994424 0.0018141827268601 0.000375034589471047)
(-0.000376276857778434 0.00170721879137919 0.000342120776904927)
(-0.000406883197906813 0.00154357183263742 0.000309931764334846)
(-0.000386218554773188 0.00127809178005458 0.00027806361851382)