/*--------------------------------*- C++ -*----------------------------------*\
  =========                 |
  \\      /  F ield         | OpenFOAM: The Open Source CFD Toolbox
   \\    /   O peration     | Website:  https://openfoam.org
    \\  /    A nd           | Version:  12
     \\/     M anipulation  |
\*---------------------------------------------------------------------------*/
/*   Windows 32 and 64 bit porting by blueCAPE: http://www.bluecape.com.pt   *\
|  Based on Windows porting (2.0.x v4) by Symscape: http://www.symscape.com   |
\*---------------------------------------------------------------------------*/
FoamFile
{
    format      ascii;
    class       volScalarField;
    location    "100";
    object      k;
}
// * * * * * * * * * * * * * * * * * * * * * * * * * * * * * * * * * * * * * //

dimensions      [0 2 -2 0 0 0 0];

internalField   nonuniform List<scalar> 
10140
(
0.000479457866373815
0.00047947178057469
0.000481245136949087
0.00136065221756487
0.000479528488467962
0.000481302141092841
0.00136036979647839
0.000483630840101226
0.00136195839438549
0.00199019843615524
0.000479633326780407
0.000481369325952426
0.00136022878203206
0.000483716768651419
0.00136172189128722
0.00198964712380323
0.000481278144691112
0.00136069354080384
0.00198994475456642
0.00249494769736256
0.000479789538391766
0.000481469105080133
0.00136024757377653
0.000483796535788659
0.00136159300901762
0.00198926219599627
0.000481382631097045
0.00136048492858948
0.00198945049878312
0.002494157239064
0.000472707691923196
0.0013506774929893
0.0019816720833684
0.00249337871684406
0.00292637734570154
0.000480006974037083
0.000481625531279519
0.00136042151153785
0.000483892021122081
0.00136161382024196
0.00198910272722405
0.000481470127271471
0.00136036889610726
0.00198908057767731
0.00249353810007901
0.000472820428625656
0.00135048033910165
0.00198121328889585
0.00249265874198838
0.0029253755586752
0.00045966927355184
0.00132833030345499
0.00196194932137441
0.00247945414027768
0.00292290190303446
0.00330433923403658
0.000480298226051416
0.000481848526522652
0.00136075178855181
0.000484050013279682
0.00136178784573216
0.00198916172595372
0.000481562507428403
0.00136039127734535
0.00198892321042296
0.00249318240838312
0.00047291449147692
0.00135037443233781
0.00198085880255331
0.00249205789583503
0.00292454311563128
0.000459780671428763
0.0013281287634338
0.00196149762712683
0.00247878105662868
0.00292198338703676
0.00330315421201433
0.000444146793804582
0.00129494501763552
0.00192843909749065
0.00245110305119747
0.00290382765865836
0.00329856667973151
0.0036382929019187
0.000480667304115051
0.000482148828188877
0.0013612404119391
0.000484278203375043
0.00136211800803416
0.00198943283827425
0.000481716455916754
0.0013605638615187
0.00198898039258074
0.00249308574766349
0.000473004051535035
0.00135039613086001
0.00198070398764425
0.00249170435495962
0.00292399636566827
0.000459879601295198
0.00132803083815421
0.00196114822123877
0.00247820082042667
0.00292117322021342
0.003302132390399
0.000444254023313702
0.00129473047643362
0.00192797685590627
0.00245044127740508
0.0029029667547637
0.00329747647952745
0.00363695439278387
0.000426788741134706
0.00125342546754189
0.00188187491094065
0.00240755902355722
0.00286775629784078
0.00327460865290845
0.0036306465100082
0.0039339490396253
0.000481107149384248
0.000482526418213283
0.00136188374538588
0.000484579033516939
0.00136260722491195
0.00198991019779926
0.000481940297222346
0.00136089068248323
0.00198924813145756
0.00249323765173397
0.00047315231313123
0.00135056217785547
0.00198075726036893
0.00249160462478037
0.00292373431297377
0.000459964672661668
0.00132804754028468
0.00196099015725929
0.00247785116665261
0.00292062967964654
0.00330140753302565
0.000444356197694566
0.00129463567483236
0.00192762029754715
0.00244986862578407
0.00290218283668536
0.00329648099294805
0.00363576767173872
0.000426873276772568
0.00125319359905475
0.0018813925560726
0.00240688566706257
0.00286691160796815
0.0032735857010034
0.00362941277231027
0.00393249156713828
0.000407268143844992
0.00120528464166127
0.00182417451956984
0.00234984724707099
0.00281511487770997
0.00323170367262525
0.00360272114794155
0.00392515805321485
0.00419547770009796
0.000481606195349233
0.000482971250245661
0.00136266866232609
0.000484955135361073
0.00136325114952613
0.00199058253126501
0.000482237571944684
0.00136137398839238
0.00198972122959136
0.00249362666566756
0.000473368016342488
0.00135087788107717
0.00198101680643457
0.00249175122741413
0.00292374484791067
0.000460103982956056
0.0013281998055394
0.00196103284607979
0.00247774658188028
0.00292036452807384
0.00330098201902077
0.000444435215523012
0.00129464159223341
0.00192744981060504
0.00244951603933133
0.00290164537095438
0.00329576103922007
0.00363488001655712
0.000426972159553245
0.00125309825050296
0.00188101886448744
0.00240630418042499
0.00286613922212255
0.00327262190725372
0.00362825611075134
0.00393116510684764
0.000407340412788355
0.00120502935888293
0.0018236673043616
0.00234915105282143
0.00281425980894633
0.0032307020978716
0.00360156294882209
0.00392381289166827
0.00419394374876673
0.000385119990621988
0.00115046694072907
0.0017563585671725
0.00227931214109626
0.00274744248441334
0.00317110929701317
0.00355431039147031
0.00389447106913202
0.00418607645214671
0.00442606076192757
0.000482151152142575
0.000483488286338082
0.00136357108165118
0.000485401957120622
0.00136403600316346
0.0019914283397327
0.000482610410777824
0.00136200982318185
0.00199038850529991
0.0024942352299029
0.000473655219028292
0.00135134554029827
0.0019814779384987
0.0024921335278971
0.00292401311626035
0.000460307522551552
0.00132849459160421
0.00196127514033229
0.00247788254956692
0.00292036922170971
0.00330084396693031
0.000444560812322534
0.00129477215286785
0.00192747200522954
0.00244939929266394
0.00290137569270235
0.00329533320407661
0.00363429710071881
0.00042705129924825
0.00125308919467455
0.00188082645304727
0.00240593669696119
0.00286560057603651
0.00327191067209152
0.00362737472867033
0.00393012815193452
0.000407424320381108
0.00120492702539767
0.00182327026958121
0.00234854820772541
0.00281347998321322
0.003229754099906
0.00360044273124145
0.00392251923714875
0.00419250109577251
0.000385183102447447
0.00115018795422809
0.00175582618791741
0.00227858801136397
0.00274656470084054
0.00317009969596308
0.00355317838914001
0.00389320783509429
0.00418466013702138
0.00442451456408449
0.000360060669455802
0.00108834084561395
0.00167838126362736
0.00219645353847339
0.00266585803175447
0.00309475110040944
0.00348719011566632
0.00384198320860718
0.00415358591627006
0.00441631572843016
0.00462816439352144
0.000482730226253383
0.000484054373962979
0.00136455396083874
0.000485917886685217
0.00136493950591675
0.00199241198157108
0.000483058493364473
0.00136278505828897
0.00199122834766557
0.00249503439195402
0.000474017433466884
0.00135196169951169
0.00198212940402998
0.00249273419142258
0.0029245169829258
0.000460578146253045
0.00132893465508173
0.00196171242439773
0.00247824924805248
0.00292062993518119
0.00330097674464142
0.000444746151603373
0.00129503612204071
0.00192768501610106
0.00244951480471673
0.00290136892385193
0.00329518951316525
0.0036340084481372
0.000427162605704045
0.00125319112007328
0.00188081787351469
0.00240579629313096
0.00286531880743046
0.00327147947216119
0.00362679013669493
0.0039293928027357
0.000407491276720819
0.00120490495793446
0.00182304861556031
0.00234815406680641
0.00281292671301505
0.0032290441331356
0.0035995724298549
0.00392148964086771
0.00419132301326141
0.000385260063141029
0.0011500657261994
0.00175540387141431
0.00227795634482736
0.00274576336131317
0.00316914675127081
0.00355207787593374
0.00389195422471331
0.00418325221873434
0.0044229710551657
0.000360113140995633
0.00108803910864219
0.00167782326290324
0.00219569994862478
0.00266495266722611
0.00309372015791962
0.00348605267904367
0.00384074999736584
0.00415225587936216
0.00441489060324932
0.0046267451514937
0.000331952288900605
0.00101832917962831
0.00158975463216217
0.00210104157028714
0.00257051083560947
0.00300365146715845
0.00340352940516796
0.00376974692183549
0.00409816156760969
0.00438262036842695
0.00461818146549921
0.00480382897127329
0.000483323933265546
0.00048465088907644
0.00136556112771548
0.000486499847646816
0.00136592367651883
0.0019934786629326
0.000483565770202339
0.00136367686325307
0.00199220514148639
0.00249597850946175
0.000474453803128123
0.00135271379708537
0.00198294937755952
0.00249352425287168
0.00292522150866439
0.000460921049892474
0.00132951702727748
0.00196233336627041
0.00247882931863372
0.0029211248182894
0.00330135495670535
0.0004449942130086
0.00129543659913899
0.00192808397645166
0.00244985296815933
0.00290161236015543
0.00329531470948941
0.00363399783088028
0.000427325662507915
0.00125341524699211
0.00188098988991759
0.00240587833828192
0.00286529035552544
0.00327132457603949
0.00362649643109225
0.00392895298942303
0.000407585776755055
0.00120497536876705
0.00182300046541545
0.00234797803789165
0.00281262048509578
0.00322860191911637
0.00359898570094668
0.00392075316013622
0.00419043596625952
0.00038531363926445
0.00115003286685692
0.00175514910078501
0.00227752687830197
0.00274518250185096
0.00316842373845141
0.00355121123634682
0.00389093752519049
0.00418208224946825
0.00442164623647314
0.000360183775515576
0.00108789683612648
0.00167737946104223
0.00219503641019338
0.00266412194442665
0.00309274712131102
0.00348494987312538
0.00383951917899367
0.0041508904916899
0.00441338307546992
0.00462507493125127
0.000331994563541402
0.0010180086845159
0.00158917026092845
0.00210026062091262
0.00256957700154994
0.00300259440838288
0.00340237232934278
0.00376851038262744
0.00409686404682417
0.00438128435141646
0.00461688287296339
0.00480288802359924
0.000300755514380096
0.00094005770785803
0.00148995767679968
0.00199258850288147
0.00246097254535155
0.00289774065646807
0.0033043421036077
0.00368009950365421
0.00402196869697775
0.00432505353026578
0.00458363401469878
0.00479365011729468
0.000483889290479863
0.000485258688393066
0.00136651937232892
0.000487110007307279
0.00136693255981937
0.0019945486335772
0.000484143298513024
0.00136464818727311
0.00199326387434571
0.00249699899224037
0.000474958128583792
0.00135357740779311
0.00198390169541489
0.0024944579447035
0.00292607275054039
0.000461335698699071
0.0013302293900752
0.00196311582525402
0.00247959338334833
0.00292181892710977
0.00330193915971833
0.00044531099648326
0.00129597095315935
0.00192865728858981
0.00245039605226875
0.00290208420502237
0.00329568390824116
0.00363423834355859
0.000427546879047057
0.00125376563002795
0.00188133697099092
0.00240617258121736
0.0028655028458668
0.00327143210519874
0.00362647865571076
0.00392879417993485
0.000407724957940621
0.00120515374252956
0.0018231211084329
0.00234801350497987
0.00281255670151745
0.00322842540786367
0.00359868146552997
0.00392030863577888
0.00418984254124547
0.000385389980941825
0.00115007209977877
0.00175505581794687
0.00227730545043617
0.00274483904442994
0.00316795767929839
0.00355061485354268
0.00389019991108665
0.00418119444585975
0.00442059944792187
0.000360224178994952
0.00108784038579791
0.00167709179442027
0.00219456671225332
0.00266350441335142
0.00309199741050414
0.00348407211083197
0.00383850811031587
0.00414973474000692
0.00441206698321822
0.00462356366901872
0.000332059972155617
0.00101784748790167
0.00158870342873367
0.00209956692905168
0.00256871405240954
0.00300159321136962
0.00340125131290629
0.00376727951615079
0.004095523605601
0.00437982078675962
0.00461525031395938
0.00480091195561863
0.000300793607899662
0.000939725981298912
0.00148935338444925
0.00199178626862606
0.00246001262994805
0.00289665716323024
0.00330316058477156
0.0036788447391304
0.00402066912078289
0.00432375167440125
0.00458242337776997
0.00479280628022649
0.00495513333148029
0.000266525193400483
0.000853325398609519
0.00137859218732122
0.00187062327597155
0.00233668650743783
0.00277642504175876
0.00318945077074756
0.00357411342469354
0.00392746721054902
0.00424579018356707
0.00452447160187446
0.00475847759000248
0.000484360767056501
0.00136731019017084
0.000485832062504868
0.000487726034435575
0.00136788794252836
0.00199550429334562
0.000484754188632042
0.00136564039523262
0.00199432359322243
0.00249799666321248
0.000475506723733468
0.00135451557276319
0.00198493055216983
0.00249546639455671
0.00292699066833848
0.000461816064758368
0.00133104701632281
0.00196402259120129
0.00248049491356789
0.00292265821433272
0.00330266882377709
0.000445695538082292
0.00129662692362801
0.00192938247929772
0.0024511139493536
0.00290274898079548
0.00329625749422169
0.00363468634054656
0.000427831412896846
0.00125423992756787
0.00188184696732238
0.0024066604888791
0.00286593406585433
0.00327177730763478
0.00362671021886617
0.0039288884274756
0.000407917751760713
0.00120544638937468
0.00182340433030738
0.00234824896632086
0.0028127222121307
0.00322850116790173
0.00359864622553517
0.00392014289297146
0.00418953106029846
0.000385505143019118
0.00115020262894192
0.0017551176716053
0.00227728325603614
0.00274472626180784
0.0031677455818324
0.00355028964957125
0.0038897454488639
0.00418059654374168
0.00441984659542681
0.000360277028790336
0.00108785163959305
0.00167695169453245
0.00219429340589903
0.00266311369697761
0.00309149434771706
0.00348345310369445
0.00383776209324018
0.00414884658832458
0.00441101979862365
0.00462233506743856
0.000332087930961054
0.00101776232646259
0.00158838671919934
0.0020990567938567
0.00256805519298535
0.00300080758721242
0.00340034839728554
0.00376625911324046
0.00409437500624526
0.00437851990186819
0.00461374890102982
0.00479911579360014
0.000300862649394352
0.00093955180273727
0.00148886492720666
0.00199106787270968
0.00245911899211176
0.00289562534076767
0.00330201315627602
0.00367759740071363
0.00401933024062106
0.00432231421448941
0.00458083568783259
0.0047908827839617
0.00495230154192388
0.000266569454128742
0.000852995050055057
0.00137797894016001
0.00186980504123999
0.00233570691037685
0.00277531823026601
0.00318824490944192
0.00357283561963268
0.00392615025603295
0.00424448698945056
0.0045232938575331
0.0047576985020205
0.00494477001208236
0.00508317157457167
0.000229197094123496
0.000757997017322688
0.00125540480116848
0.00173479532372635
0.00219717085252443
0.00263905518466832
0.00305814910083027
0.00345158560637406
0.00381581197659691
0.00414736820731949
0.00444281705734917
0.00469811854143562
0.000484644376751171
0.00136777984506362
0.000486302578211898
0.00199619133706164
0.00136867404062373
0.000488298350436625
0.000485368709531026
0.00136657150455507
0.00199526869729801
0.00249883061642864
0.000476108073588146
0.00135546860338782
0.00198595353808599
0.00249644978691157
0.00292786083520806
0.000462348607043462
0.00133192970618447
0.00196499666227627
0.002481463951506
0.00292356244646238
0.00330345371332643
0.00044614340390549
0.00129737948758572
0.00193022129924631
0.00245195892670641
0.00290355176183953
0.00329697460706705
0.00363527495165442
0.000428179597956178
0.0012548258585682
0.00188249663991799
0.00240731099732189
0.00286654758321862
0.00327231992369444
0.00362714754787243
0.00392918860398476
0.00040817133666183
0.00120585149794987
0.0018238373569493
0.00234866472662632
0.00281309382408272
0.00322880400561311
0.00359885345279849
0.00392022831375925
0.00418947275883851
0.000385665993006167
0.00115043344987685
0.00175532793020272
0.00227744731321211
0.00274482947529313
0.00316777320077687
0.00355022263667368
0.00388956249584733
0.00418027832804635
0.00441937823077316
0.000360361875589178
0.0010879367826555
0.00167695116052144
0.00219420547943938
0.00266294079694209
0.00309123278853146
0.0034830929004457
0.00383728742334574
0.00414823923853274
0.00441026269121428
0.00462141392664694
0.000332119188986296
0.00101773232781473
0.00158820125897494
0.00209872961626112
0.00256761102513634
0.00300025750863556
0.00339969350329016
0.0037654918180701
0.00409347955107054
0.00437747311292874
0.00461252052896764
0.00479767348940971
0.000300883171063532
0.000939440313155913
0.00148851565579612
0.00199052095018697
0.00245841857310758
0.00289479950036011
0.00330107586146549
0.00367655350224182
0.00401817380626304
0.00432102157737134
0.00457935079452067
0.00478910273646538
0.00495013874430603
0.000266648538647898
0.000852820982536279
0.00137747774022088
0.00186906855075749
0.00233478854767646
0.00277425789679295
0.00318706896633849
0.00357156356382456
0.00392479624002806
0.004243051968506
0.00452173227586612
0.00475583009369967
0.00494207575745078
0.0050806130007189
0.000229264961932886
0.000757688903999778
0.00125479673790778
0.0017339723918225
0.00219618144091613
0.00263793177538559
0.00305692266288124
0.00345028523730688
0.00381447289563922
0.0041460479510715
0.00444163688296007
0.00469735786861247
0.00490912324947684
0.00507266068232855
0.00519053428223848
0.000188635110992871
0.00065383292963762
0.0011202282529089
0.00158489255430725
0.00204209768087177
0.00248511339700228
0.00290970328267481
0.00331174430671533
0.00368681229164899
0.00403101444033921
0.00434124079032259
0.00461460875756124
0.000484619681213961
0.0013677232501857
0.000486587571297679
0.00199639734103752
0.00136913318456875
0.000488747444827209
0.0024993119225345
0.00199594142570829
0.00136732298625124
0.000485937400908953
0.000476707034014139
0.00135635109710771
0.00198685372830529
0.00249726770499259
0.00292852371285869
0.000462914212457942
0.00133282011326841
0.00196595401490294
0.00248239933050794
0.00292441682623722
0.00330416684203958
0.000446639604928982
0.00129818824286679
0.00193111524938962
0.00245285949338524
0.00290441119638398
0.00329774538563346
0.00363590648191924
0.00042858585790648
0.0012554982094935
0.00188324660862557
0.00240807502657427
0.00286728707997161
0.00327299809446021
0.00362772373457676
0.00392962199002874
0.0004084846415079
0.00120635674645675
0.00182439626150662
0.00234922856766702
0.00281363381999344
0.00322929256662569
0.00359925896852586
0.00392051781456923
0.00418961622326534
0.000385878411101083
0.0011507641438685
0.00175567335946238
0.00227777665560403
0.00274512409174103
0.0031680142438175
0.00355038679161342
0.00388962346055451
0.00418021113593628
0.0044191624904539
0.000360489284384231
0.00108810526722444
0.00167708319125399
0.00219428842844718
0.0026629691225564
0.00309119683994239
0.00348297767837078
0.00383707300610726
0.00414790406167803
0.00440978767097165
0.00462078571002604
0.000332173221907469
0.00101776698087837
0.00158813804470111
0.00209857225166596
0.00256737036837321
0.00299993545302481
0.00339928446842991
0.0037649830864347
0.00409285277515616
0.00437670706802277
0.00461159549646909
0.00479657882261744
0.000300894399716479
0.000939367640901495
0.00148828446341667
0.00199014143632839
0.00245791897297902
0.00289419659336426
0.00330037520509663
0.00367575178054106
0.00401725839591746
0.00431996852207043
0.00457812388096679
0.00478766270108387
0.00494848772552269
0.000266663825203591
0.000852691724184738
0.00137710133432736
0.00186849196546261
0.00233405053280951
0.00277339213185566
0.00318609333878159
0.00357048706149436
0.00392361784447371
0.004241752635731
0.00452025665216042
0.00475407342097586
0.00493994753063255
0.00507841905837757
0.000229368735896101
0.000757534003460438
0.00125429746320292
0.00173322713058498
0.00219524836889106
0.00263684934317329
0.00305572091737226
0.003448986662003
0.00381309558378552
0.00414459865089637
0.00444007760863315
0.00469551910475943
0.0049065355721114
0.00507023228581139
0.00518820362581744
0.000188746689791538
0.000653579317585547
0.00111964657239897
0.00158408062461416
0.00204110955203626
0.00248398393602623
0.00290846364410468
0.00331042566500735
0.00368545185358659
0.00402967233791152
0.00434004259908206
0.00461383830438395
0.00484785779762183
0.00503669133619141
0.00517990315292561
0.00527958286379376
0.000148046192985528
0.000540741191641061
0.000972993728846414
0.00142080340058309
0.0018712903620195
0.00231425371096419
0.00274353862989074
0.00315378636381454
0.00353965849657861
0.0038965563898591
0.00422101613806094
0.00451051236272772
0.000484245617020581
0.00136689056471267
0.000486538143715113
0.00199584807202856
0.00136906069758899
0.000488998924909939
0.00249918731344463
0.00199612903676644
0.00136773296464262
0.000486365922683185
0.00292876319095559
0.00249772974769389
0.00198747036783279
0.00135704158397969
0.000477259089085657
0.00046348318066807
0.0013336298835281
0.00196677562070469
0.00248315937171394
0.00292506158642973
0.00330463303728604
0.000447164992288051
0.00129899358185861
0.00193197906801549
0.00245371266648773
0.00290521105920201
0.00329844246524808
0.00363644250753963
0.000429035869365202
0.00125621590507072
0.00188403747028067
0.00240887946484317
0.00286806948896677
0.00327372090951126
0.00362834085965152
0.00393008370703073
0.000408845817384189
0.00120693672714237
0.00182504100497495
0.00234989008459765
0.00281428427333486
0.00322990343949646
0.00359979486791159
0.00392093885928849
0.00418988363172153
0.000386143990125543
0.0011511822557342
0.00175612934997879
0.00227823790195196
0.00274557092525471
0.00316842587962952
0.00355073676057264
0.00388988064759606
0.00418034403412123
0.00441914353335066
0.000360667198537648
0.00108835921229879
0.0016773342887632
0.00219452032449801
0.0026631725361284
0.00309135863647792
0.00348307921859866
0.00383709070147744
0.0041478123674182
0.00440956326278007
0.00462041121082953
0.000332263268243578
0.0010178762014076
0.00158819016065041
0.00209856878016824
0.00256731462828267
0.00299982355017274
0.00339910573688664
0.00376472095499011
0.00409248660402224
0.00437621537661486
0.00461096084996607
0.00479579351665206
0.000300917727161308
0.000939343886630569
0.00148816086057858
0.00198991430219007
0.00245760685632489
0.00289380680502815
0.00329990654394305
0.00367519540149442
0.00401659866343538
0.00431918391158352
0.00457719062814232
0.00478656489544468
0.00494723641551678
0.000266655224168462
0.000852580054334235
0.00137682515881066
0.00186806570668084
0.00233349746894335
0.0027727349406053
0.00318534150692124
0.00356964130070969
0.00392266957776476
0.00424068090907007
0.00451902471591944
0.00475263782094055
0.00493830312036748
0.00507667754386542
0.000229394703133799
0.000757399491193528
0.00125390532209801
0.0017326265947168
0.00219448119845715
0.00263594824214663
0.00305470783682185
0.00344787398010393
0.00381188635949138
0.00414327869000876
0.00443859620285462
0.0046937761675943
0.00490444936438023
0.00506807565535674
0.00518606931785487
0.000188902197731942
0.000653475189862521
0.00111917085834948
0.0015833425771783
0.00204017362606874
0.00248289002272666
0.00290724318528065
0.00330910382676308
0.00368404979021518
0.00402820084465746
0.00433846935880081
0.00461200258660184
0.00484531770345915
0.00503436278529501
0.00517769691810201
0.00527737952148529
0.000148298315399687
0.000540590249543901
0.000972469414100636
0.00142002334601967
0.00187031994619714
0.00231313246795117
0.00274229679467376
0.00315245744575465
0.00353828134986456
0.00389519330351964
0.00421979508410152
0.00450971962085884
0.00476290231896516
0.00497479236531607
0.00514373570659381
0.00526885341413629
0.00535250861458159
8.35589131328368e-05
0.000419968528028926
0.000814228397249412
0.0012425414744136
0.0016846356420113
0.00212627487094962
0.00255926148965681
0.00297707006165595
0.00337348876987475
0.00374315627355061
0.00408198047786993
0.00438712233184093
0.00136502877974387
0.000486162933889475
0.00199420839150489
0.00136820433338501
0.000488900903128781
0.00249813007876624
0.00199555666310813
0.00136759629629672
0.000486569216180599
0.00292829311230656
0.00249758232216987
0.00198758845862479
0.00135737280720953
0.00047767237873572
0.00330461402655523
0.00292528020043654
0.00248355151808269
0.00196729795702738
0.00133423582717317
0.000463998783367242
0.000447691345246044
0.0012997086653974
0.00193269209264418
0.00245437476228619
0.00290579003549264
0.0032988898835343
0.00363669268724947
0.000429510902759178
0.00125691900138156
0.0018847831106181
0.0024096195985256
0.00286877657603413
0.00327435949498598
0.00362886039021552
0.00393042478355309
0.000409246114746633
0.00120755029596333
0.00182571116040722
0.00235057481704724
0.0028149602526808
0.00323054385428398
0.00360036190616152
0.00392138594796586
0.00419016175255933
0.000386454911092214
0.00115166192202575
0.00175665581760111
0.00227877954501584
0.00274611045594353
0.00316894287100606
0.00355120295934607
0.00389026049250675
0.00418059886500269
0.0044192366773025
0.000360891095317997
0.00108868616950657
0.0016776793711007
0.00219486653948242
0.00266351037971111
0.00309167366306449
0.00348335054962342
0.00383729156228889
0.0041479126589585
0.00440953368408043
0.0046202273766332
0.000332397713222466
0.00101805959734357
0.00158834377049971
0.00209869642373096
0.00256741619942316
0.00299989217278205
0.00339912738688874
0.00376467600443535
0.00409235174805662
0.00437596659914014
0.00461057784639103
0.00479526401838576
0.000300968232893286
0.000939381658251111
0.00148813508189576
0.0019898226461644
0.00245746175384185
0.00289361025398323
0.00329965224833396
0.00367487058269451
0.00401618560905266
0.00431866185576866
0.00457653975700303
0.004785773534558
0.0049463089795717
0.000266646540460844
0.000852497451863854
0.00137663711583769
0.00186777206049561
0.00233311398101522
0.00277227425780703
0.00318480643958338
0.00356902684944438
0.00392196368293436
0.00423986458616201
0.00451807397085636
0.00475153310831718
0.00493704989703338
0.00507532176024541
0.000229375775742406
0.000757255988942567
0.00125359157061985
0.00173215796396296
0.00219388123523532
0.00263523966372171
0.003053903950071
0.00344697922104534
0.0038108959955062
0.00414217571812829
0.00443734697762917
0.00469233828614829
0.00490281519531918
0.00506634234214436
0.0051843066238417
0.000188955932657375
0.00065335917016372
0.0011187801833939
0.00158273154673223
0.00203938893542772
0.00248196262611247
0.00290619806456011
0.00330795642498278
0.00368280661246468
0.00402685179251063
0.00433696856656476
0.00461025631320732
0.00484325628126296
0.00503225124268079
0.00517559950390915
0.00527530434204312
0.000148633933386624
0.00054058276367674
0.000972048157986091
0.00141931427226429
0.00186939771435656
0.00231204204689072
0.0027410688471451
0.00315112010149285
0.00353685829633433
0.00389369858283927
0.00421820061885207
0.00450787077170561
0.00476036979450447
0.00497250617269021
0.00514162224867255
0.00526677135617702
0.00535037540496623
8.39256981382008e-05
0.000420003676399115
0.000813806947439561
0.00124182116847617
0.00168370375821014
0.00212517775448629
0.0025580322813803
0.00297574251541899
0.00337210326079736
0.0037417769213817
0.00408073709973951
0.0043863026830556
0.00465678497111159
0.00488877645436585
0.00508142127750546
0.00523258237159159
0.00534170163278051
0.00541144525664279
2.72789425533849e-05
0.00029081870443511
0.000646024689827155
0.00105072268193816
0.00148202559845219
0.00192097133637629
0.00235658247991001
0.00278112147417467
0.00318758902168343
0.00356989862080643
0.00392326861633938
0.00424427439182113
0.0019910759544625
0.00136630767206962
0.000488494720714422
0.00249573805221264
0.00199388751884818
0.00136666179145322
0.000486408798569198
0.00292674465138463
0.0024964980941026
0.00198693193765953
0.00135713708888383
0.000477841624415253
0.00330379675785987
0.00292478619950186
0.00248332038648836
0.00196730324050364
0.00133446876492843
0.000464372052568296
0.0036364016086022
0.00329884976689729
0.00290592999482875
0.00245465092149983
0.00193308894159121
0.00130020789781847
0.000448154879803551
0.000429984037222362
0.00125752120357292
0.00188536251155314
0.00241014997164153
0.00286924488263561
0.00327473612063588
0.00362909184426174
0.00393044172413433
0.000409667697449633
0.00120813802028769
0.00182632017418466
0.0023511768078235
0.00281554152458763
0.00323108275491285
0.00360082003929117
0.00392171022707943
0.00419029219692277
0.000386799999864369
0.00115216273636159
0.00175719132436288
0.00227932607618416
0.00274665611261395
0.00316947036189813
0.00355168406688348
0.00389065593516891
0.00418086227468089
0.00441932090962763
0.000361156324623416
0.00108906122398032
0.00167807826104357
0.00219527481797963
0.00266392174492563
0.00309207485924862
0.00348372007954859
0.00383760021768293
0.00414812556535745
0.00440961421953284
0.00462014201395755
0.000332575210775228
0.00101829812843053
0.00158857388522382
0.00209891918622833
0.00256763306919214
0.00300009511691866
0.00339930059801055
0.00376479754829767
0.00409239539516755
0.00437590425220372
0.00461038346454109
0.00479491755396007
0.000301057634505994
0.000939483972730949
0.00148819147117402
0.00198984295837341
0.00245745472566599
0.0028935755853163
0.00329958049184481
0.00367474609237596
0.00401598858698276
0.00431837029387024
0.00457613263645847
0.00478523579334592
0.00494563568851151
0.000266654713342108
0.000852459523512181
0.00137652969755359
0.00186759427841478
0.00233287807838127
0.00277198831674142
0.00318446841095174
0.0035686277449774
0.00392148924167794
0.00423929674141761
0.00451739357008734
0.00475072619832732
0.00493611691480152
0.00507428063941437
0.00022933764997274
0.000757117276533816
0.00125334351891651
0.00173180317881877
0.0021934309458436
0.00263470908370683
0.00305329993791404
0.00344630043868279
0.0038101339863757
0.00414131492581087
0.0044363659564174
0.00469121771368643
0.00490155701025763
0.00506498537562712
0.00518289000830744
0.000188946914745491
0.000653198713487389
0.00111844103430485
0.00158223055393906
0.00203875242510099
0.00248120964685055
0.00290534570601918
0.00330701240060401
0.00368176972509417
0.00402570881570741
0.00433568981666542
0.00460880334546764
0.00484162454200385
0.00503053031817089
0.00517384533722517
0.00527354475657866
0.000148795978582824
0.000540518576782664
0.000971683170586314
0.00141871144699561
0.00186860872397915
0.00231110176466929
0.00274000150407793
0.00314994410140973
0.00353558324086881
0.00389231790790174
0.00421667263914552
0.00450610710717849
0.00475831011045067
0.00497042127814717
0.00513956868933813
0.00526473231304586