/*--------------------------------*- C++ -*----------------------------------*\
  =========                 |
  \\      /  F ield         | OpenFOAM: The Open Source CFD Toolbox
   \\    /   O peration     | Website:  https://openfoam.org
    \\  /    A nd           | Version:  12
     \\/     M anipulation  |
\*---------------------------------------------------------------------------*/
/*   Windows 32 and 64 bit porting by blueCAPE: http://www.bluecape.com.pt   *\
|  Based on Windows porting (2.0.x v4) by Symscape: http://www.symscape.com   |
\*---------------------------------------------------------------------------*/
FoamFile
{
    format      ascii;
    class       volScalarField;
    location    "100";
    object      nut;
}
// * * * * * * * * * * * * * * * * * * * * * * * * * * * * * * * * * * * * * //

dimensions      [0 2 -1 0 0 0 0];

internalField   nonuniform List<scalar> 
10140
(
0.000108077164860982
0.000108080451103653
0.000110209864742455
0.000895774958878122
0.000108079453280185
0.000110221564109321
0.000895741322603823
0.000112752491876517
0.000909378190662944
0.00210708025061541
0.000108087234623729
0.000110217602230075
0.0008957277386346
0.000112770265133859
0.000909365787475746
0.00210709981957428
0.000114258336364053
0.000926425652386296
0.00212464736311154
0.00341282364671425
0.000108102603887724
0.000110221734854155
0.000895771017417271
0.000112765031159725
0.000909350085553257
0.00210714291510819
0.000114284347254906
0.00092643254203154
0.00212469189690898
0.00341294416168866
0.000113971405877873
0.000937006900528601
0.00214496427935172
0.00342600323031875
0.00465793201063662
0.000108124998595593
0.000110236246869077
0.000895873569787048
0.000112766111773918
0.000909391525156095
0.00210729063636205
0.000114279690981793
0.000926419088417439
0.00212474276504017
0.00341306402575647
0.000114000311368944
0.000937036545657762
0.0021450323999565
0.0034261511123273
0.00465815926129077
0.000112400720862675
0.000935706009492489
0.00215563607653207
0.00343673982406846
0.00466265878567245
0.00577771621477927
0.000108155840914706
0.000110259447163888
0.00089603203802469
0.000112780463004278
0.000909495950861099
0.00210755467344868
0.00011427846886432
0.000926458078386268
0.00212489443658799
0.00341331934183771
0.000114001454879837
0.000937037192165884
0.00214509460694485
0.00342628164912978
0.00465834353465412
0.000112430347765933
0.000935739319969782
0.00215571604202324
0.00343691457407592
0.00466291401070173
0.00577804108719487
0.000110324684892249
0.00092453443503574
0.00214864335322044
0.00343512651240261
0.00465850021936889
0.00577379412551553
0.00675482385176854
0.000108195354164824
0.00011029201954675
0.000896245667452241
0.000112804820590027
0.000909658514089799
0.00210793645244204
0.000114291581515119
0.000926564109421378
0.00212516301127706
0.00341373378909115
0.000113998894101329
0.000937075804381311
0.0021452511373047
0.00342654072368702
0.00465867190196491
0.000112438224973066
0.000935771474933214
0.00215579048680796
0.00343705894807142
0.00466310890936013
0.00577826774650667
0.000110354355735542
0.000924564559522538
0.00214871969074087
0.00343530709766494
0.00465878472518217
0.00577414539554667
0.00675523200876152
0.000108056112067314
0.000908030292943463
0.00212494868268667
0.00341415388421786
0.00463851340870451
0.00575488481826281
0.00674492694867397
0.00759429901043245
0.000108242467113856
0.00011033336056514
0.000896512710780004
0.000112837435710903
0.000909878813594845
0.00210843604034728
0.000114315309616445
0.000926730808290791
0.00212555041021661
0.00341431412353768
0.000114010789979594
0.000937180558493954
0.00214552409330244
0.00342695702208984
0.00465918045195591
0.00011243480185424
0.000935812670457641
0.00215595016726946
0.00343732306429347
0.00466343864165215
0.0057786257993368
0.000110369578660652
0.000924631963422031
0.00214880625438975
0.00343545733418799
0.00465899267489851
0.00577438173830744
0.00675547888577937
0.000108081730925948
0.00090805523058663
0.00212501237497242
0.00341432081277281
0.00463879921412096
0.00575526654007713
0.00674535936589893
0.00759477951146492
0.000105526712746067
0.000888623890896649
0.0020893701154479
0.00337339849272275
0.00459793929615924
0.00571637274752288
0.0067149864442589
0.00758130192811935
0.00830985471952281
0.000108295944573666
0.000110381321578056
0.000896828877144881
0.00011287833781198
0.000910154406343653
0.00210904942883505
0.000114347999196607
0.000926955355679681
0.00212605699168578
0.0034150608802142
0.000114033436435935
0.00093734660278928
0.00214591637069956
0.00342753880693358
0.0046598804053544
0.000112445372059531
0.0009359127233571
0.00215622226542131
0.0034377405660682
0.00466394504019161
0.00577916357844859
0.000110365835614955
0.00092467681845201
0.00214896554861692
0.00343572051883699
0.00465932371201323
0.00577473918375935
0.00675582985129669
0.000108101351547614
0.000908160377511304
0.00212510854518341
0.0034144652402107
0.00463900625054754
0.00575551430239257
0.00674561553286665
0.00759503089464927
0.000105550493034315
0.000888641032744879
0.00208941911000105
0.00337353930487709
0.00459820144875761
0.00571675196663512
0.00671544971243004
0.0075818031411083
0.008310400635723
0.000102598615945035
0.000866422182881818
0.00204485324967357
0.00331555631444577
0.00453577016508313
0.00565526923976612
0.00666151981632866
0.00754451105476821
0.0082953966850898
0.00891664916683765
0.000108354439965375
0.000110437817700528
0.000897186242340535
0.000112926804765792
0.000910479093553813
0.00210976551661016
0.000114389259975546
0.000927235412815098
0.00212667872718042
0.00341596581977941
0.000114065073658784
0.000937570502472629
0.00214642800182554
0.00342828716916574
0.00466077165764702
0.000112466548219914
0.000936072155763974
0.00215661180812158
0.00343832138827254
0.00466464135192348
0.00577989690882169
0.000110374911826912
0.000924769836532015
0.00214922866932644
0.0034361315246621
0.00465982511542455
0.00577527183031576
0.00675634276862517
0.000108102539269744
0.000908212744184673
0.00212526354547741
0.00341471685615088
0.00463932863162566
0.00575586893769249
0.00674596390735822
0.00759534626823424
0.000105568725713687
0.000888775550830255
0.00208952495860689
0.00337366791214245
0.00459838842644775
0.00571699291580488
0.0067157157492454
0.00758206297950402
0.00831064555868375
0.000102621433755395
0.00086642868981237
0.0020448946234702
0.00331566447404783
0.0045359921777209
0.00565561588066522
0.0066619773103983
0.00754504235475507
0.00829595868305776
0.00891726229245905
9.91753453019191e-05
0.000840681965457169
0.00199166300368422
0.00324215510695483
0.004452477519493
0.00557032971059912
0.00658225848057053
0.00748027320443261
0.00825451146947419
0.00890132027175163
0.00942855626952679
0.000108415946187893
0.000110499101418364
0.000897572169129787
0.000112982987514539
0.000910845470325794
0.00211056371182961
0.000114439041986134
0.000927565641030935
0.00212740390621099
0.00341700824958693
0.000114105430492064
0.00093784976766164
0.00214705458148504
0.00342919407519086
0.00466184033220947
0.000112496287035461
0.00093628819553104
0.00215711912633625
0.00343906703245832
0.00466552819857026
0.00578082377114594
0.00011039415700245
0.000924918130744204
0.00214960433932925
0.00343670139573643
0.00466051211612646
0.00577599733294005
0.00675703622850529
0.000108110616558493
0.000908298938156769
0.00212551016467495
0.00341510872933476
0.00463981419305303
0.00575639069099296
0.00674646912388782
0.00759579359305218
0.00010557757470142
0.000888853940952582
0.00208967602141285
0.00337389746284607
0.00459868581353341
0.00571733108214738
0.00671605758679506
0.00758237447292593
0.00831090596762039
0.000102639256829102
0.000866569600243503
0.00204501353864819
0.00331577163930135
0.0045361426651002
0.00565582541017689
0.00666223152306164
0.00754531026212299
0.00829621091775683
0.00891749089602809
9.91966389226711e-05
0.000840676369213796
0.00199168917830725
0.00324222804392947
0.00445264859968821
0.0055706233481408
0.00658267568395883
0.00748079560142976
0.00825510150319898
0.00890194416744794
0.00942925575498825
9.51863788695496e-05
0.000810613542659149
0.00192867688796376
0.00315267391453883
0.00434761237954684
0.00546041319391384
0.0064757614272009
0.0073861356069906
0.00818255829358733
0.00885769454632518
0.0094124704312697
0.0098577521081898
0.000108478092582745
0.000110563823424502
0.000897961175645572
0.000113047295751861
0.000911239505086193
0.00211141013904304
0.00011449413554667
0.000927937424613847
0.00212821146839047
0.00341815091513612
0.000114154231709953
0.000938179177825662
0.00214778439963745
0.00343023877724197
0.00466305460963875
0.000112534684901084
0.00093655851394004
0.00215773988160689
0.00343996938462318
0.00466659198470381
0.00578192320282949
0.000110421353623672
0.00092512044728201
0.00215009411355066
0.00343743198010357
0.00466138602688114
0.005776915090841
0.0067579077201845
0.000108127573304095
0.000908433965119744
0.00212586153014394
0.00341565259583128
0.00464047868465305
0.00575709936422597
0.00674715250425183
0.00759639521267546
0.000105584654158729
0.000888938195071712
0.00208990260618937
0.00337425727797662
0.00459913856454742
0.0057178275132086
0.00671654693008563
0.00758281245609168
0.00831126108377979
0.000102649343253848
0.000866694683130914
0.00204516990893577
0.00331597269974811
0.00453639862697169
0.00565612603041482
0.00666255000777417
0.00754561205494033
0.0082964662998172
0.00891768300469016
9.92141598949489e-05
0.000840814909876547
0.00199183083149341
0.00324231223639302
0.00445275103277255
0.005570779942644
0.00658288915533173
0.00748104721824506
0.00825535967445322
0.00890217846576133
0.00942944596973819
9.52056914900799e-05
0.000810594003952614
0.00192867276179727
0.00315270758810979
0.00434772468013731
0.00546063957358695
0.00647611435208944
0.00738661104281496
0.00818313617823525
0.00885834481014686
0.00941317004442257
0.00985846927506541
9.05721425519534e-05
0.000775473116533238
0.00185416660712563
0.00304512641874991
0.00421922386642654
0.00532334753211026
0.00633998503445836
0.0072604238095598
0.00807636433210595
0.00877987870929168
0.00936670110981022
0.00984090167525601
0.000108536846779338
0.000110629949282611
0.000898329303771772
0.000113113399326992
0.000911641033848143
0.00211225331049142
0.000114558450611301
0.000928336700868423
0.00212906711625274
0.00341933442222617
0.000114210715028198
0.000938548551002348
0.00214859556683324
0.00343138373919221
0.00466435857422349
0.000112581259287941
0.000936878012271435
0.00215846197722156
0.00344100743222272
0.00466780087560476
0.0057831520332283
0.000110456933115228
0.000925375053257538
0.00215069401619907
0.00343831524613285
0.00466243333223465
0.00577800500768762
0.0067589304560956
0.000108151917576527
0.000908618964932768
0.00212632125505042
0.00341635077361549
0.00464132362381557
0.0057579952741754
0.00674801240515607
0.00759714717023584
0.000105599290058743
0.000889059920177568
0.00209022276692821
0.00337475961723878
0.00459976154997187
0.00571850242176548
0.00671720772091793
0.00758340217134934
0.00831173724149863
0.000102662336733915
0.000866786915908302
0.00204537901274382
0.00331629109764949
0.00453680069790662
0.00565657594676566
0.00666300571869182
0.00754603013666264
0.00829681074274755
0.00891793118833122
9.92225519278506e-05
0.00084095372181482
0.00199200609202115
0.00324248389862764
0.00445295277903457
0.00557102168456505
0.00658315928250341
0.00748131976524861
0.00825560255158747
0.00890236442238149
0.00942955754760332
9.52231036964376e-05
0.00081072360582236
0.00192881012058471
0.00315276910478986
0.0043477713982269
0.00546072701408117
0.00647626156505183
0.00738681412179928
0.00818337391299807
0.00885858209826636
0.00941336651264387
0.0098586337720536
9.05902937535068e-05
0.000775438372176387
0.00185412416969785
0.00304511768381373
0.00421927029737462
0.00532349542787069
0.0063402566501137
0.00726082527681297
0.00807688954614234
0.00878051531748409
0.00936741837758554
0.00984159610241833
0.0102151819635854
8.52785377298857e-05
0.000734424497589275
0.00176589107019399
0.00291644239915512
0.00406398913318438
0.00515567442754167
0.00617158288507701
0.00710068993736267
0.00793394919877776
0.0086637562703927
0.00928415219873581
0.00979329784980082
0.000108584403294002
0.000898626678024789
0.000110690013573489
0.0001131807948938
0.000912019848042445
0.0021130098035216
0.000114625521023215
0.000928740802362002
0.0021299183601229
0.00342046992734633
0.000114270538228731
0.000938944194024213
0.00214945262983618
0.00343256903280658
0.00466566459585556
0.000112635259761075
0.000937236622656422
0.00215926268272958
0.00344214282549461
0.00466909885193282
0.00578443593047454
0.00011050032238463
0.000925676717135992
0.00215139185696686
0.00343932967340718
0.00466362170546242
0.00577922330191648
0.00676004773265595
0.00010818392279105
0.000908853376974004
0.0021268861891391
0.00341719528162413
0.00464233533725599
0.00575905851558
0.00674902227824189
0.00759801578779769
0.000105620826268863
0.000889225928455256
0.00209064323290121
0.00337540756865748
0.0046005559919338
0.00571935616991998
0.00671803903774824
0.00758414056007089
0.00831232830748485
0.000102676860320146
0.000866899281572899
0.00204566526795841
0.0033167395439685
0.00453736217827365
0.00565719399630138
0.00666362311964284
0.00754659258315592
0.00829727355393272
0.00891826446068456
9.92326886805738e-05
0.0008410765564534
0.00199220662549755
0.00324275636887921
0.00445328920439513
0.00557140275057292
0.00658355638120228
0.00748169721106014
0.00825592371669076
0.00890260080136104
0.00942969479761971
9.52298263863101e-05
0.000810851340124917
0.0019290031624618
0.0031529131811468
0.00434791025548356
0.00546089218433862
0.00647645809810729
0.00738702927684465
0.00818358248593046
0.00885875262564568
0.00941347166803274
0.0098586764224678
9.06094259917325e-05
0.000775556502826071
0.00185423198148504
0.00304514999855607
0.00421925547452988
0.0053235016625805
0.00634031799692828
0.00726095125085097
0.00807707213911091
0.00878072777679223
0.00936761601632413
0.00984177781774254
0.010215686793081
8.52971293923745e-05
0.000734375777104279
0.00176580529209333
0.00291637108630589
0.004063963247282
0.00515573419239785
0.00617175972941634
0.0071009981717052
0.00793439246105839
0.00866433686884003
0.00928484958382155
0.00979398707330937
0.0101975625533537
0.0105097964068482
7.91359393449888e-05
0.000686191643084228
0.00166072579055016
0.00276231652822224
0.00387719280030954
0.00495262620822646
0.00596585987094457
0.00690290913088034
0.00775268249032832
0.00850696306005284
0.00915973466097257
0.0097067996404317
0.000108610087291715
0.000898796172866169
0.000110734333673936
0.00211358199888501
0.000912326420341195
0.000113242345309026
0.000114692229371999
0.000929120430897554
0.00213068691363797
0.003421425211492
0.000114337993056202
0.000939342090269699
0.00215030157702815
0.00343370460411943
0.00466684422976265
0.000112694833792326
0.000937617846085363
0.00216010544583976
0.00344331430479338
0.00467039803789866
0.00578565667152147
0.00011055092893556
0.000926015397254196
0.00215216435877378
0.00344043592366715
0.00466489425112057
0.00578049485215648
0.00676116473831951
0.000108223734420761
0.000909132453020466
0.00212754427342634
0.00341816423537586
0.00464348077532507
0.00576024449716673
0.00675012544714285
0.00759893156207482
0.000105650070657783
0.000889437583019279
0.00209116235381263
0.00337619339846494
0.00460150783628275
0.00572036847241188
0.00671901422174516
0.00758499416767022
0.00831299405103168
0.000102695107752577
0.000867047133324876
0.00204604084901849
0.0033173223929333
0.00453808376016963
0.00565797971501527
0.00666440114257241
0.00754729695608098
0.00829784964399156
0.00891867333929133
9.92479695696516e-05
0.000841194793041227
0.00199246195411911
0.00324314259684974
0.00445377177732009
0.00557193970754696
0.00658410338533986
0.00748220822811994
0.00825635535358906
0.00890291952121008
0.00942988206258946
9.52367665479537e-05
0.000810963259108779
0.00192920747434211
0.00315313920360474
0.00434816986595688
0.00546118483538272
0.00647677052597331
0.00738733796618342
0.00818385717549535
0.00885896276120358
0.0094135963271892
0.00985871601029628
9.06154363146955e-05
0.00077566526852329
0.0018543971927202
0.00304526303654359
0.00421932506798433
0.0053235765392574
0.00634041969537949
0.00726108084781487
0.00807721582382576
0.00878085907739863
0.00936770351762161
0.00984181831420651
0.0102157569356668
8.53188628856858e-05
0.000734485651582298
0.00176587249179303
0.00291635525428408
0.00406388025305813
0.00515564981773223
0.00617172043133069
0.00710102503144712
0.00793448914552145
0.00866448827886212
0.0092850179928036
0.00979417966477155
0.0101980739498792
0.0105103825216194
7.91582192567476e-05
0.000686136427612333
0.00166059606368916
0.00276217237484353
0.00387708683205668
0.00495258955667014
0.0059659307651625
0.00690310913883451
0.00775302285324676
0.00850745635181967
0.00916037215339613
0.00970745917022775
0.010148352685476
0.0104915059023401
0.0107508548031971
7.17052579088214e-05
0.000628130483707289
0.00153376511084396
0.00257658345634418
0.00365241366380977
0.00470793852983476
0.00571680445679146
0.00666151122525987
0.00752816591699517
0.0083067399217129
0.00899065046083612
0.00957541927276358
0.000108601372953494
0.000898761720530419
0.000110755503690629
0.00211382588413451
0.000912496974535592
0.000113284205858129
0.00342202750659032
0.00213126679269071
0.000929425749834056
0.000114752279681728
0.000114403588742461
0.000939709458331912
0.002151064522925
0.00343466024779428
0.00466771433887765
0.000112757836864012
0.000938000108774178
0.0021609345958178
0.00344443028162947
0.00467156932104801
0.00578664673113945
0.000110606665572688
0.00092637482840501
0.00215297372963534
0.00344157126451541
0.00466616194146703
0.00578170306162664
0.00676213775771354
0.000108270350449141
0.000909445857968343
0.00212827185821502
0.00341921748093987
0.0046447018487875
0.00576147698768233
0.0067512271700788
0.00759977977869142
0.000105686920675086
0.000889691373503472
0.00209176864719586
0.00337709514711189
0.00460258329388179
0.00572149373492958
0.00672007589943113
0.0075858934402406
0.0083136506992085
0.000102719334435267
0.000867235525703145
0.0020465067280907
0.00331803258129407
0.00453895096477844
0.00565891199306097
0.00666531247539055
0.00754810951041057
0.00829849829252711
0.00891910875490148
9.92695749390703e-05
0.000841331560162157
0.00199279159766602
0.00324364906435196
0.00445440060216567
0.00557263074108653
0.00658479806980794
0.00748285008468437
0.00825689294083004
0.00890331200918313
0.00943010307784903
9.52475790052712e-05
0.000811084784920548
0.00192944176444628
0.00315345896242298
0.00434855955331287
0.00546161891713834
0.00647721923516786
0.00738776727400926
0.00818423075924301
0.00885924704545743
0.00941376815628867
0.00985876840782373
9.06192928941742e-05
0.000775750280536641
0.00185457785158102
0.00304544248489905
0.00421949948119129
0.00532376479805238
0.00634062445448973
0.00726129188752846
0.00807741347124721
0.00878101770008494
0.00936779947734196
0.00984184586261874
0.0102157381899639
8.53238020011096e-05
0.000734574063993944
0.00176598823058288
0.00291642237311609
0.00406387345953927
0.00515562356055825
0.0061717104987866
0.00710104543776849
0.00793453767039246
0.00866454798521778
0.00928506182505749
0.00979420604205572
0.0101981435715853
0.0105104785911462
7.91855326239409e-05
0.000686242927072795
0.00166062002618012
0.00276208638409953
0.00387692729200988
0.00495240682296536
0.00596577962630607
0.00690302040459471
0.00775301001923539
0.00850751460753434
0.00916047341416613
0.00970762341473271
0.0101488872565638
0.0104920777512211
0.0107514878330699
7.17343042944151e-05
0.000628083495400688
0.0015336019186653
0.00257636491561238
0.00365221268347247
0.00470779871549156
0.00571676054608229
0.00666159097556034
0.00752838727754057
0.00830712349656477
0.00899119799297986
0.00957601995074795
0.010058530116426
0.010441002435084
0.0107319685180534
0.0109462234287578
6.68045545881291e-05
0.000555117391560538
0.00137672606272617
0.0023501322672838
0.00338086919690945
0.00441346908761194
0.00541691369653887
0.00636955592524185
0.00725425577758373
0.00805846644898856
0.0087740051827145
0.00939591574658122
0.000108563823661787
0.000898433744444416
0.000110736757703895
0.00211355607852871
0.000912455525935595
0.000113297729598465
0.00342203740064131
0.00213151302282549
0.000929586588739024
0.000114791852508275
0.00466802431740857
0.00343525914277463
0.00215163152073756
0.000939996162059525
0.0001144615319054
0.000112820815745881
0.000938346789149763
0.0021616700868184
0.00344535979612331
0.00467242952763009
0.00578717201886203
0.000110665434527639
0.000926731769378335
0.0021537635729174
0.00344264228333935
0.00466729398615068
0.00578267972397582
0.00676275988271436
0.000108321370913632
0.00090977717278602
0.00212903068724657
0.00342029104775147
0.00464590794395932
0.00576263873366616
0.00675218380726474
0.00760039163493489
0.000105729051310736
0.00088997690762489
0.00209243841550174
0.00337807218445096
0.0046037231593278
0.00572265430684678
0.00672112833212565
0.00758672443078516
0.00831416692402173
0.000102750191636245
0.00086746188853469
0.00204705251866811
0.00331884838033739
0.00453992940993761
0.00565994411749807
0.00666629856968918
0.0075489600025295
0.00829913695192138
0.00891947584089608
9.92957184233282e-05
0.000841500456679504
0.00199320032774216
0.00324427011335273
0.00445516091449768
0.00557345367729064
0.0065856119360985
0.00748358816398832
0.00825749524240122
0.00890372933998799
0.00943030003523573
9.52644728926747e-05
0.000811235524110828
0.00192973210351858
0.00315388154132611
0.00434907887674107
0.0054621910323564
0.00647780018316823
0.00738831310081927
0.00818469831063869
0.0088595973308204
0.00941397187939016
0.00985880940245126
9.06251580522158e-05
0.000775840900504028
0.00185479322111927
0.00304569421851349
0.00421978510962463
0.00532407748738737
0.00634094974938247
0.00726160878798883
0.00807769623879331
0.00878123854994882
0.00936793427661152
0.0098418824466723
0.0102156787789555
8.53238470527423e-05
0.000734624831942315
0.00176610867870712
0.00291654449597157
0.00406395502838616
0.00515569441488782
0.00617178856902726
0.00710113352544043
0.00793462738086907
0.00866462267848602
0.00928510199667656
0.00979420438273054
0.0101981135185607
0.0105104227141457
7.91929243689652e-05
0.000686308297948259
0.00166067572596728
0.00276207270392856
0.00387683384895841
0.0049522702273986
0.0059656450689072
0.00690291311447868
0.00775293825296252
0.00850747112801006
0.00916043932458714
0.00970760531277615
0.0101489467929547
0.0104921703063837
0.0107516001572099
7.17740055871663e-05
0.000628205157619992
0.00153358958219722
0.00257620302245962
0.00365196126412478
0.00470751177634998
0.00571648968710464
0.00666137468237947
0.00752824752148795
0.00830706407328406
0.00899119914852984
0.00957611107138357
0.0100590346578418
0.0104415798842973
0.0107325764712999
0.0109468956173217
6.69183336372427e-05
0.00055512342917905
0.0013765592317392
0.00234985306980538
0.00338057264043209
0.00441322193457111
0.00541674920123045
0.00636950667199074
0.00725434557087799
0.00805872329621285
0.00877444057341329
0.00939643309069812
0.00992130699968653
0.0103485022107058
0.0106804337998951
0.0109268317627131
0.0111029784494419
3.65365465142556e-05
0.000459941201244997
0.00117645456769708
0.00206960106718727
0.00305052434448898
0.00405871144313682
0.00505688551464967
0.00601867309177453
0.00692338296678884
0.00775563198134994
0.0085050273252892
0.00916524535379592
0.000897726833180811
0.000110701238259688
0.00211254061465079
0.000912115185278221
0.000113267004148672
0.00342114163151663
0.00213123874512928
0.000929520198956247
0.000114798384102456
0.00466743609492406
0.00343526132763594
0.00215185365289839
0.000940132703248945
0.000114498390670272
0.00578690649286299
0.0046727270813046
0.00344592247632531
0.00216219950508404
0.000938606576738595
0.000112875401740326
0.000110724031375751
0.000927050953441003
0.00215445171935691
0.00344351598635771
0.0046681055091143
0.00578318901831048
0.00676274286304165
0.00010837477884579
0.000910102908069896
0.0021297635982253
0.00342129013230686
0.0046469662851831
0.00576355984528316
0.00675278864823709
0.00760052259924217
0.000105774979180597
0.000890276980470229
0.00209313320422053
0.00337905982330816
0.0046048354076302
0.00572373133315577
0.00672202669326581
0.00758731729652324
0.00831434684834557
0.000102786913902719
0.000867716522343945
0.00204765500476683
0.00331972904415233
0.00454095909246964
0.00566099703256092
0.0066672621040592
0.0075497335217225
0.00829963365042415
0.00891962487781422
9.93227361518623e-05
0.000841699260878624
0.00199367944957602
0.00324498446227807
0.00445601795919915
0.00557436072606327
0.00658648500909984
0.00748435088984265
0.00825807919866828
0.00890407685135404
0.00943036643834391
9.5289042498337e-05
0.000811412344027093
0.00193008634060583
0.00315440320701802
0.00434971301764055
0.00546287788151153
0.00647848335021648
0.00738893938047309
0.00818521754493694
0.00885996422010326
0.00941414985944094
0.00985877321085618
9.06357336593191e-05
0.000775962854725973
0.00185505956535003
0.00304602936755051
0.00422018086434886
0.00532450949541478
0.00634138939700982
0.0072620253709402
0.0080780576933207
0.00878151286859982
0.00936809297432249
0.00984190564780895
0.0102155568039743
8.53238342001039e-05
0.000734670558030317
0.00176625370023735
0.00291672110384469
0.00406412699665309
0.00515587001870488
0.00617196897650949
0.00710131068303125
0.00793478674082159
0.00866474556406313
0.009285169123533
0.00979420229141097
0.0101980382466634
0.0105102720041909
7.91908852547828e-05
0.000686317523139521
0.00166071559335239
0.00276210115363381
0.00387681193260207
0.00495221284740068
0.00596558113401252
0.0069028575917319
0.00775289336071835
0.00850742970968153
0.00916038972969355
0.00970754535541322
0.0101488876830135
0.0104921027393857
0.0107515151113474
7.17878473324712e-05
0.000628259770024713
0.00153358226241391
0.00257609419601503
0.00365176679561328
0.00470725718275125
0.00571622106868804
0.00666112596837861
0.00752803618336357
0.00830689152304491
0.00899105441819422
0.00957600977117046
0.0100590487771588
0.0104416585132641
0.0107326827348441
0.010947022040071
6.70698210256204e-05
0.000555305555187444
0.00137653770500885
0.00234962523766203
0.00338022456897605
0.00441282813898199
0.00541635472270375
0.00636915546977921
0.00725406680131745
0.00805852841376101
0.00877431677374877
0.00939641466768054
0.00992172244338188
0.0103490406857201
0.0106810375398922
0.0109274715596599
0.0111036899007731
3.66969217927334e-05
0.000460178848274998
0.00117636537828333
0.00206930223856829
0.00305014959110377
0.00405835524782446
0.00505659931633194
0.00601849047119543
0.00692333259641637
0.00775574910600013
0.00850533331323833
0.00916565945719166
0.00973301756201699
0.0102065230849284
0.0105858097352894
0.010874514167914
0.0110831716075218
0.0112274254992873
1.14536577799624e-05
0.000310015659336896
0.000916218667251761
0.001718058701386
0.00264582790592119
0.00363037385080274
0.00462535655870753
0.0055989003746251
0.00652663839487687
0.00739027078401916
0.00817697153605038
0.00887852134641286
0.00211047888486088
0.000911397453709858
0.000113226557065314
0.00341894437441628
0.00213021109627029
0.000929142817390896
0.000114755426622477
0.00466550703869328
0.00343435245391902
0.0021515403161761
0.000940031791148063
0.000114499001619375
0.00578541631333598
0.00467212370031
0.00344587556150693
0.00216237196652243
0.00093870858580704
0.00011290768753922
0.00676169417438877
0.0057829067901054
0.00466834288809931
0.00344400925512324
0.00215492420966716
0.000927279700642396
0.000110772516089927
0.000108427614243159
0.00091038805001161
0.00213038818578138
0.003422080067898
0.00464768985930851
0.00576400239865708
0.00675275370735417
0.00759983505621653
0.00010582282414348
0.000890568180609322
0.00209379578076331
0.00337996251154879
0.00460578571312964
0.0057245529133948
0.00672256290407136
0.00758742851928413
0.00831391298638832
0.000102827396347943
0.000867982128762423
0.00204827547137914
0.00332060976789052
0.00454194712767496
0.00566195033595337
0.00666805641307412
0.00755025853641027
0.00829979280985283
0.00891933696611674
9.93548926770272e-05
0.000841921999180636
0.00199420683160236
0.00324575165967522
0.00445691133159938
0.00557527172715658
0.00658731832122208
0.00748502159372581
0.00825851143271367
0.00890420491148586
0.00943013644620639
9.5321020055721e-05
0.000811596384176552
0.00193049778931727
0.00315500326830259
0.0043504270683855
0.00546363074871035
0.00647920731972896
0.00738957287290109
0.00818570394898067
0.00886025218068759
0.00941419569064062
0.00985854290151174
9.06538166755888e-05
0.000776127117780683
0.00185537181381357
0.00304644531993731
0.00422067197747188
0.00532503640926346
0.00634191172017245
0.00726250375895438
0.0080784539164623
0.00878179007425411
0.00936821738534683
0.00984185002009921
0.0102153023085849
8.53269486874337e-05
0.000734741531642329
0.00176645057537742
0.00291696582063352
0.00406438722257468
0.00515614336211891
0.00617224320665524
0.00710156830937749
0.00793500709946667
0.00866490619082186
0.00928524743021792
0.0097941785179106
0.0101978983156923
0.0105100065334572
7.91846275814435e-05
0.000686306873484886
0.00166076145204297
0.00276217543174401
0.00387685889117237
0.0049522378831037
0.00596559867386628
0.00690287199264411
0.00775290077623585
0.00850742092816337
0.00916035342298885
0.00970747265887678
0.010148772732707
0.0104919360783906
0.0107512881302866
7.17893006867003e-05
0.000628228653249843
0.00153352882508237
0.00257600393919151
0.00365162638140839
0.00470706168215645
0.0057160034200577
0.00666091084213375
0.00752783541766506
0.00830670670714491
0.00899088195964941
0.0095758554796239
0.0100589295582286
0.0104415604718382
0.0107325854480804
0.0109469143110297
6.71431003385021e-05
0.000555378412532334
0.00137648186714951
0.00234942090733122
0.00337991267963266
0.00441245034324504
0.00541594688526504
0.00636875661794059
0.00725370230068643
0.00805820740129946
0.00877403513733019
0.00939619477796105