/*--------------------------------*- C++ -*----------------------------------*\
  =========                 |
  \\      /  F ield         | OpenFOAM: The Open Source CFD Toolbox
   \\    /   O peration     | Website:  https://openfoam.org
    \\  /    A nd           | Version:  12
     \\/     M anipulation  |
\*---------------------------------------------------------------------------*/
/*   Windows 32 and 64 bit porting by blueCAPE: http://www.bluecape.com.pt   *\
|  Based on Windows porting (2.0.x v4) by Symscape: http://www.symscape.com   |
\*---------------------------------------------------------------------------*/
FoamFile
{
    format      ascii;
    class       volScalarField;
    location    "100";
    object      omega;
}
// * * * * * * * * * * * * * * * * * * * * * * * * * * * * * * * * * * * * * //

dimensions      [0 0 -1 0 0 0 0];

internalField   nonuniform List<scalar> 
10140
(
4.43625503121342
4.43624888385096
4.36662487585561
1.51896657087731
4.43681452777924
4.36667856224097
1.51870831695465
4.28931398368457
1.49768095207189
0.944529016193836
4.43746505727618
4.36744509236905
1.51857391857209
4.28939994135197
1.49744130474398
0.944258599103873
4.21219282554275
1.46875632955429
0.936600016132631
0.731050870373748
4.43827920084217
4.36818659874307
1.51852152763153
4.2903064080512
1.4973254312603
0.944056609418035
4.21214840579472
1.46852022879737
0.936347760198731
0.730793450142453
4.14759902523032
1.44148083885757
0.923871834344636
0.727780608838504
0.628256775543098
4.43937091580826
4.36903055899141
1.51854185391497
4.29111205050878
1.4972800851737
0.943914756180937
4.21308565970989
1.46841630652399
0.936151241649109
0.730586382576386
4.14753629133036
1.44122483307593
0.9236286076313
0.727539054836136
0.628011065011243
4.08955805642421
1.41960219340202
0.910148676176705
0.721455294029929
0.626874501736228
0.57191096121754
4.44079785233409
4.370133706606
1.51864189092122
4.2919668920079
1.4972995145749
0.943824495285225
4.21393909293752
1.46837866610751
0.936010361821379
0.730427527780279
4.14831979096579
1.44111081569402
0.9234365683174
0.727335972647774
0.627807522969305
4.08947121987005
1.41933627783931
0.909905381269914
0.721222772112438
0.626643206443567
0.571673714701456
4.025815203899
1.4006455233714
0.897514747899065
0.71354083826249
0.62333959899475
0.571299670203775
0.538621432884016
4.44258727951301
4.37156586823136
1.518825096035
4.29306301665142
1.49739488713201
0.943782169509665
4.21480260865082
1.46839689524382
0.935918977521404
0.730310534356936
4.14919859761623
1.44107459027991
0.923297022526147
0.727177802888769
0.627645910079009
4.09006457906426
1.41918286005564
0.909711882133131
0.72102365943337
0.626443275718874
0.571474451386464
4.02570447131542
1.40036784137848
0.897267737720368
0.713310690351584
0.623116740954409
0.571076108002171
0.538390744842923
3.9496955143901
1.38037847116179
0.885609580256454
0.705170037790712
0.618249004618426
0.569013760712752
0.538278107033015
0.51801345117188
4.44471714487246
4.37335014307304
1.51909028060627
4.29448817641039
1.49757001103083
0.943784947572561
4.21588585850287
1.46848542242076
0.935874360775496
0.73023089309388
4.15006608774413
1.44109069017161
0.923204389338788
0.727060365426155
0.627521158092598
4.09094573100207
1.41913823376127
0.909571189088712
0.720866534889389
0.62628242892713
0.57131360424905
4.026074966371
1.40016322823295
0.89706565848329
0.713112807836144
0.622920669594867
0.570880337037484
0.538195401571337
3.94954145455942
1.38008521601175
0.885356046972202
0.704938346173717
0.618028820743305
0.568798278621433
0.538060698538719
0.517788773354365
3.85938435157189
1.356349580524
0.873073902073494
0.696581578529838
0.612255772941912
0.565341662512415
0.536519496777504
0.51774195124142
0.504879789323066
4.44713047423147
4.37547986689151
1.51942995709978
4.29626396668649
1.49782403955247
0.943829245559469
4.21728036636248
1.46865108448957
0.935873891138586
0.730185127918175
4.15113348450592
1.44117221640035
0.923156574731178
0.726979727369843
0.62742915988813
4.09180008504455
1.41914921380188
0.909476206385717
0.720748565594676
0.626157577524513
0.571186811761247
4.02692747304121
1.40010170731948
0.89691982816828
0.712955557910311
0.62276105939431
0.570720327679723
0.538036051316398
3.949739327405
1.37982043869488
0.885140134959598
0.704738227259418
0.617834740314105
0.568606337385573
0.537868796861219
0.517596986948026
3.85919952695935
1.35603614336913
0.872810675288925
0.696346133992063
0.612034909802987
0.565128960767768
0.536310016908583
0.517530304947313
0.504662041290608
3.75365678254672
1.32783643292983
0.858916681406296
0.687459938823951
0.605727888410981
0.560735335943848
0.533558480567454
0.516199266043977
0.50462643452251
0.496381620394885
4.4497590712171
4.37792321873968
1.51983057396641
4.29837679483925
1.49815192113782
0.943909796635793
4.21901855891888
1.46889323289193
0.935914052207964
0.730169844048374
4.15250000578784
1.44132685140414
0.923151364412617
0.726932548215777
0.627366739038343
4.09283942503044
1.41922242150228
0.909424279764363
0.720666357141164
0.626065114417742
0.571090456975509
4.02773424652595
1.40010205969021
0.896820348964361
0.712836303000599
0.622636176430414
0.570593610291837
0.537908928717414
3.95042801152566
1.37973090853232
0.884985044348823
0.704578680550749
0.617675703441681
0.568447736998546
0.53771036704091
0.517438970277283
3.85932782295851
1.3557157645393
0.872576449527934
0.696140897351679
0.611840436756367
0.56493932168032
0.536121966098105
0.517341948721895
0.504473577433679
3.75343715588264
1.32750446488235
0.858638957609345
0.687219116770949
0.605504726028992
0.560522454645596
0.533351919946358
0.51599549108438
0.504421525816831
0.49617409682186
3.63054616406599
1.29459283097872
0.842703439549091
0.677467137140269
0.598735876842345
0.555577723616755
0.529786261958533
0.513615359173048
0.503189792833935
0.496141650182541
0.490866709729434
4.45257587308028
4.38061819281485
1.52027213829691
4.30080578832885
1.49854124589161
0.944018875338236
4.22109871754259
1.46920605723851
0.935989795756292
0.730180968177539
4.15420573256462
1.44155465633112
0.923185382021826
0.726915460824083
0.627331005465761
4.09416309098149
1.41936495773931
0.909413115134534
0.720616732579641
0.626001989673154
0.5710218604341
4.02871097238872
1.40016297550433
0.896762711552099
0.712751712370356
0.622542941968227
0.570497062796939
0.537811005482957
3.95116242328458
1.37971219323058
0.884878324636157
0.704456719771727
0.617550334606193
0.568321305445803
0.537583448481701
0.517311687659588
3.85963854420059
1.35557137390106
0.872407299925722
0.695976713182508
0.611680559854063
0.564781728876685
0.535965093112407
0.517184907560292
0.50431601916698
3.75353519738068
1.32714755499874
0.858382518374271
0.68700640231887
0.605307981699583
0.560333200096374
0.533166381810366
0.51581102559171
0.504236483402404
0.495988289389308
3.63029579335203
1.2942425271924
0.842412200245638
0.677219467253658
0.598509540459294
0.555363370412065
0.529579892191675
0.513414642238291
0.50299271035651
0.495946786477656
0.490679781280306
3.48739276399554
1.25624496265849
0.824272143293314
0.666431615587646
0.591246553557149
0.550077688352653
0.52557980145342
0.510381493438547
0.500841108681305
0.494781158404833
0.49064499051778
0.487314848106424
4.45549808037854
4.3834490710009
1.52073515509591
4.30350716849241
1.49897328736821
0.944145633323567
4.22349815467386
1.46957847273004
0.93609360304456
0.7302130805311
4.15625243165434
1.44185015939114
0.923253459655561
0.726924396463314
0.627318732793268
4.09581321792135
1.41957710862537
0.909439262349378
0.720596331384285
0.625965335702005
0.570978693575482
4.02996520514672
1.40028966276225
0.896743991018898
0.712698602427477
0.622478452422197
0.570428101793285
0.537740078933937
3.95205079934714
1.3797538347511
0.884812986756588
0.704368571094798
0.617455773474729
0.568224442393191
0.537485469434247
0.517212819952695
3.86027477195991
1.3555220997899
0.872289675134395
0.695850329261087
0.611553760692696
0.564655354093503
0.535838688899148
0.517057909956149
0.504187742873046
3.75368830477155
1.32691810534992
0.858192316010714
0.686835231929073
0.605145783602251
0.560175590397698
0.533010819011205
0.515655654817688
0.50407994178924
0.495829043726674
3.63036663211128
1.29386006759349
0.842129479331627
0.676997232270047
0.598309208131902
0.555173091228433
0.529395192732781
0.513232849223263
0.502811586094197
0.495764389856285
0.49049275493963
3.48712937583143
1.25587986038867
0.823970915339497
0.666176790018079
0.591016494970143
0.549861306156589
0.525372491028519
0.5101812401904
0.50064717946655
0.494594017879942
0.490470569550473
0.487183952152387
3.32061830388498
1.21223764926961
0.803572705426643
0.654353294041391
0.583276124534219
0.54434557183971
0.52119083651591
0.506871168981709
0.497992479238366
0.492609712898266
0.489354145174773
0.487114928639908
4.45829508446692
4.38632297619013
1.52117866643266
4.30638642464562
1.49941973766735
0.944275302431963
4.22616835274539
1.46999271492394
0.93621467314471
0.73025878253075
4.15861268766708
1.44220286350399
0.923348128442294
0.7269539446179
0.62732585927477
4.09780190430403
1.41985335620173
0.909497524612878
0.72060099612939
0.625951921466921
0.570958387527486
4.03153504197616
1.40048183555114
0.896760428988559
0.712673468503147
0.622439828781731
0.570384398050237
0.537694294558249
3.95320664328054
1.37985853082069
0.884784915036889
0.704310751636001
0.617389149759634
0.568154704793021
0.537414343361286
0.517140722944937
3.86105775629561
1.35553714117363
0.872213783754811
0.695757260157393
0.611457065972181
0.564557845700265
0.535740684975899
0.516959083429611
0.504087463247338
3.75395683755667
1.32682217355994
0.858058974406172
0.686702518982809
0.605016448198059
0.560048642343391
0.532884857592437
0.515529336701955
0.503952009453107
0.495697864736393
3.63046678397153
1.29357937015879
0.841910976646987
0.676816533516838
0.598143422021396
0.555014427438106
0.529240135521537
0.513079006213058
0.502656797499168
0.49560619784625
0.490326682421475
3.48717862856259
1.25548026552059
0.823670205676891
0.665943765390843
0.590811663524238
0.549669156438262
0.525187452474221
0.510000584018102
0.500468834632605
0.494415555240692
0.490286902965083
0.486975382859625
3.32037346868652
1.21186417259882
0.803265179748968
0.654091721713536
0.583042198429135
0.544126918577792
0.520982156883559
0.506670330007607
0.4977991958183
0.492425731072029
0.489187435967933
0.486994815713761
0.485075385748791
3.12534900920422
1.161896697905
0.780677931153348
0.641405870561155
0.574973611114677
0.538518302654464
0.516796230422459
0.503347344585085
0.495020463598891
0.490063437965877
0.487332769328204
0.485891235310407
4.46068452156109
1.52155530612137
4.38912280178118
4.30926496755229
1.49984448854308
0.944389510176363
4.22902495277526
1.47042144779198
0.936338044950869
0.730308032601377
4.16123640532492
1.44259433242553
0.923458616680989
0.726996710250087
0.627346995953905
4.10010209714068
1.42018246422148
0.909580203886316
0.720625214966629
0.625957664854933
0.570957801845018
4.03343201598011
1.40073407878262
0.896806629182772
0.712671997774903
0.622423765074158
0.570363407333405
0.537671697640296
3.95466721726455
1.38002450047974
0.884789687822507
0.704279472063201
0.617347489496167
0.56810975245062
0.537368239331241
0.517094006804426
3.86209582116257
1.35561318085804
0.87217383703341
0.695693458806472
0.611387453399605
0.564486818443219
0.535669144718363
0.516886898643506
0.504014146857745
3.75454743958001
1.32680076381538
0.857969140453231
0.686602980380953
0.604916723410458
0.559949965283751
0.532786681633571
0.515430693521982
0.503851839591353
0.495594923755776
3.63062851143794
1.29340383018192
0.841755906776807
0.676675382386942
0.598010498475886
0.554886172499224
0.529114190263576
0.512953409497359
0.50252966605505
0.495475411853723
0.49018925496988
3.48722604632191
1.25517746114324
0.823423595206672
0.665751536200947
0.590641260303506
0.549508667433222
0.525032100227634
0.509847595304131
0.500315725207692
0.494259190531247
0.49012192990368
0.486791085126094
3.32043433783372
1.21145499949212
0.802955046657234
0.653848865787825
0.582832446851482
0.543932457299929
0.520796142697536
0.506489752328611
0.497622179348703
0.49225011005505
0.489007627965319
0.486790382051178
0.484774214620405
3.12518669769646
1.16152394543636
0.780368564037111
0.64114098854561
0.574736228714417
0.538297384368308
0.516586038540328
0.503145548448256
0.494826828305041
0.489880189759844
0.487169319944045
0.485777494539094
0.484897247377626
0.483660327735697
2.89624532191782
1.10464332371597
0.755937439107633
0.628021917836773
0.56669115148182
0.532859754343013
0.51260826888079
0.500018983436028
0.49219247419938
0.4875262979329
0.485037746374789
0.484002834658971
4.46224092840904
1.521790909169
4.39161515744383
0.944458903470368
1.50020213172372
4.31197666477246
4.23192322783049
1.47082279014673
0.93644386912353
0.730347870248773
4.16404084820799
1.44299783585621
0.923569772399411
0.727042676855946
0.627374879267605
4.1026601795738
1.42054645370222
0.909676268841756
0.720661470854285
0.625977148572494
0.570972994230181
4.03563686168162
1.40103446598478
0.896874484226692
0.712688444461094
0.622426062743451
0.570362000380829
0.53766992705431
3.95642970784457
1.38024536952698
0.884821370549572
0.704270137873344
0.617327328768352
0.568086984034096
0.537345205844687
0.517071192428523
3.86342701070176
1.35574605905059
0.872164398724976
0.695654676563904
0.611341743656625
0.564439864527074
0.535622240707767
0.516839990526107
0.50396676974869
3.75544659766412
1.32684072832958
0.857914411163771
0.686531799882827
0.604843281956199
0.559877086934433
0.532714427106546
0.51535834862221
0.503778509782142
0.495519688035163
3.63092441237579
1.29332324885442
0.841647770013679
0.676567685173864
0.597906882095434
0.55478575698594
0.529015523693194
0.512854936183718
0.502429832641528
0.49537263374193
0.490081837288418
3.48730013653989
1.25496724590604
0.823240258032143
0.66560005148577
0.590503845132394
0.549378495522996
0.524905659333865
0.509722424411496
0.50018951495482
0.494129305080634
0.489984950347333
0.486642833042264
3.32044057061762
1.21114139214254
0.802695162416972
0.653644997591482
0.582656831008762
0.543769677962385
0.52063996076965
0.506336946151512
0.497470154803892
0.492095538635094
0.488844548282985
0.48660751332428
0.484559174173709
3.12531753974694
1.16111319628784
0.780055041699085
0.64089193112254
0.574521984480104
0.538100529491206
0.516398790547828
0.502964508364325
0.494650149246644
0.489706008242558
0.486992300862606
0.485577175065085
0.484608739036386
0.483389923275228
2.89628751234626
1.10428316222247
0.755630321753347
0.62775676406536
0.56645144564666
0.532636865058366
0.512396603851299
0.499816121680123
0.491998149346589
0.487342841339961
0.48487515666199
0.483891591634917
0.483735971898436
0.483501675502763
0.482802007585008
2.63070124136134
1.04091895967002
0.73037797312555
0.615113999278718
0.559109090272567
0.527855956753434
0.508973729059096
0.497146097143466
0.489735791200595
0.485270332083299
0.482861702747019
0.481922370823707
4.46237158918319
1.52178627431808
4.39334890893416
0.944447390876247
1.50042490306947
4.31434762794107
0.730359974524225
0.936504726932108
1.47114816486994
4.23466446380611
4.16688881226687
1.44337282665579
0.923660683875526
0.727078524461427
0.627399943579849
4.10538393900041
1.4209168003298
0.909770253439314
0.720699543186451
0.626003089167724
0.5709985412206
4.03808941004066
1.40136390050877
0.896952537231704
0.7127150085996
0.622441148167876
0.570376124557608
0.537685952607485
3.9584785320133
1.38050901930349
0.884871263676366
0.704276648092107
0.617324248857892
0.568083167121499
0.537342862739785
0.517070507891133
3.86504440567162
1.35592721519407
0.872178796614208
0.695635883897466
0.611316219683324
0.564414244991817
0.535597963831115
0.51681688458372
0.503944220757821
3.75662881017071
1.32693381412791
0.857887900080518
0.686484113641727
0.60479263006866
0.559827445223068
0.532666218533945
0.515310947090768
0.50373103525256
0.49547130906161
3.63141762826618
1.29331326524197
0.841574800505085
0.676487617776731
0.59782883498662
0.554710509912537
0.528942215303554
0.512782290528691
0.502356527013545
0.495297442841863
0.490003732926323
3.48747154916227
1.25482193699155
0.823107529838755
0.665482657828375
0.590395586606904
0.54927586463624
0.524806146744825
0.50962394276823
0.500090099553195
0.494026980573583
0.489877742887519
0.486529211783793
3.32042316935606
1.21091498703896
0.802492309582963
0.65348186550775
0.582514344162232
0.543637200956559
0.520512644895672
0.506211819807754
0.497344652495196
0.491966725226923
0.488708569396684
0.486459833644453
0.484398448110599
3.12531578468717
1.16079748248744
0.779790776902761
0.640679478626476
0.574341341099268
0.537935343664881
0.516241541045711
0.502811465267343
0.49449860942933
0.489552674065362
0.486831077415301
0.485396508972974
0.4843967429912
0.48317676634207
2.89659901620406
1.10388606363018
0.755318762527605
0.627506489501061
0.566234082701353
0.532437951370565
0.512208145251977
0.499634429547292
0.491821315118275
0.487169148934034
0.48469957914695
0.483693990192626
0.483455520597897
0.483243872761171
0.482556805752906
2.63119147314618
1.04059304594303
0.730076402990812
0.614851031006855
0.558869301690175
0.527631720500792
0.508760795674371
0.496942198515707
0.489540683511513
0.485086364681818
0.482699035486781
0.481811684615755
0.481964833977589
0.482395379898299
0.482661046220173
0.482320034681851
2.2161092742595
0.974102414844069
0.706744613318143
0.604563164534225
0.553493865935452
0.52436159969037
0.506476341250133
0.495134417662686
0.487942334142181
0.483535721656838
0.481082020144766
0.480050320200978
4.46046943343826
1.52141498821144
4.39364628153637
0.944308075051368
1.5004136187188
4.31605228668734
0.730321449139119
0.936484560680947
1.47133465694459
4.23693765764539
0.627409583114914
0.72708626740645
0.923703872469535
1.44366715392372
4.16960249562359
4.10813534367653
1.42125480573819
0.909840790552568
0.720725706066452
0.626025832841904
0.571027269712272
4.04069250888244
1.40169315953201
0.897024674532177
0.712741105389444
0.622461552201914
0.570400337333619
0.537715750759447
3.9607684591371
1.38079514704001
0.884927343493228
0.704290784384207
0.617332397361827
0.568094073013065
0.537358129342947
0.517089631140356
3.86692032431652
1.35614386935427
0.872207751231392
0.695630512401137
0.611306148509977
0.564406526466591
0.535593830384891
0.516815774061626
0.503945093959552
3.75808535221585
1.32706954731899
0.8578819224049
0.686454348276181
0.604760708227057
0.559798085255671
0.532639923557789
0.515286959566966
0.503708284167237
0.495448792303326
3.63225327601753
1.29335546244784
0.841528202367514
0.676429596742215
0.597772468209192
0.554657635188364
0.528892265805466
0.512734081218132
0.502308780769221
0.495249023684498
0.489953786577909
3.4877983171954
1.2547234078824
0.82301069550254
0.665392391144108
0.590312270952981
0.549197846139521
0.524731489205054
0.509550814051539
0.500016793374377
0.493951949869219
0.489799726304767
0.486447533457706
3.32046568115144
1.21074293198557
0.802332488405661
0.653353278242515
0.582400949925034
0.543532060133145
0.520412032008993
0.506113109201563
0.497245569119767
0.4918650013908
0.488601915106298
0.486346481110745
0.484278776042584
3.12521332991035
1.16056525353227
0.779581220233036
0.640506499818902
0.574193723268144
0.537800481851412
0.516113193330484
0.50268612580247
0.494373508606414
0.48942476394264
0.486696292354887
0.485250014725092
0.484236923954583
0.483013641024432
2.89665655059073
1.10358492452707
0.755057295347445
0.627292175275635
0.566049844784228
0.532270680134367
0.512049879189581
0.49948100503715
0.491669897929962
0.48701648558846
0.48453966513824
0.48351534867377
0.48324712548349
0.483034063245541
0.482353253657517
2.63190268101352
1.04022576372704
0.729772079402107
0.614603182813834
0.558651496693156
0.527431505365622
0.508571403852763
0.496759900852935
0.48936353111395
0.484912697087814
0.482523997870761
0.481615402350956
0.481688140887539
0.482145694529046
0.482428141271365
0.482089142526825
2.21610890975852
0.973819913065746
0.706449378768813
0.604303036758498
0.553255363848086
0.524136900941051
0.506262463481017
0.494929608852954
0.487746456974523
0.483351166226314
0.480918988372612
0.479939523575513
0.480068031270038
0.480725834910634
0.48160363174053
0.482194063984386
0.482078627726295
2.28699538146645
0.913091775409833
0.692103562352833
0.600377287252899
0.55224461494783
0.523879290444533
0.506094409739492
0.494638937230962
0.487260171228029
0.482637170323685
0.479949131466327
0.478669382268522
1.52053913205126
4.39166662932003
0.943985823361101
1.50003459592405
4.31635767894998
0.730203641893303
0.936336516811533
1.47129271406085
4.23846746611298
0.627387939063836
0.727042889598341
0.923663398738876
1.44380979676451
4.17186980480191
0.571050185557832
0.626032753365904
0.72072181981619
0.909859590847938
1.42150700862259
4.11071656191921
4.04330785000743
1.40198190894813
0.897069112888304
0.712752538977535
0.622477368992453
0.570427470568486
0.537754097841569
3.96319980841984
1.38107349205945
0.88497292008778
0.70430144926086
0.617343961625297
0.568114079298696
0.537386934383454
0.517125596593184
3.86902571777298
1.35637596214778
0.872238401610521
0.695629831953074
0.611305291827895
0.564412210540083
0.535606606526629
0.516834316361432
0.503967639189013
3.75976762429084
1.32723290656583
0.85788661347332
0.68643540322361
0.604742390323987
0.559785290961811
0.532632871472685
0.515284477434003
0.503708843195632
0.495450956496441
3.63351946694463
1.2934384287924
0.841499054152099
0.676387380277798
0.597733313487319
0.554623895904184
0.528863353489889
0.512708666224702
0.502285405500519
0.495226373007986
0.489930842755732
3.48830993058061
1.25467600393023
0.822939231827915
0.665322815758528
0.590249561065487
0.549141356964034
0.524679497212129
0.509501541504636
0.499968598951654
0.49390341658616
0.489749782532656
0.486395610876347
3.32063547942982
1.21060132264044
0.802203395347555
0.653251300648008
0.5823119512725
0.543451045861608
0.520335850987144
0.506039347838127
0.497172186870295
0.491790186997386
0.488524160631957
0.486264927323646
0.484193771762629
3.12511202714469
1.16038058493787
0.779410746968396
0.640367040247214
0.574075067766484
0.53769281377334
0.516011414137815
0.502587058748558
0.494274617710554
0.489323610810544
0.486590379856995
0.485137325832451
0.484117609447944
0.482891571047985
2.89649212790625
1.10336100042811
0.75485024385741
0.627116049563982
0.565898287916901
0.532133764223178
0.511920612840096
0.499355401040587
0.491545003677582
0.486889208548436
0.484405915967247
0.483370215059742
0.48308892052527
0.482871972185909
0.482193120704456
2.6321437357254
1.0399506722164
0.729520815944298
0.614391953982336
0.558466366986401
0.527263017454643
0.508412468593893
0.496606195512015
0.489212129532988
0.484760368103926
0.482364844526856
0.48143813794833
0.481482532648674
0.481939840906336
0.48222794167821
0.481894009414905
2.21610749982241
0.97348704443316
0.706154400601647
0.604059851551717
0.553039502615899
0.523936571756926
0.506072624020607
0.494746927821827
0.487569027582153
0.483177372209827
0.480744054223366
0.479743703437298
0.47979267931243
0.480479913423416
0.481378539254196
0.481975297526276
0.481855622120149
2.28699558541227
0.912696613443922
0.691797771732408
0.600115896716646
0.552006945207186
0.523654935241443
0.505879964251527
0.494433368244235
0.487063594567566
0.482452032710409
0.479785676757423
0.478558329986171
0.478452334174825
0.478985489346995
0.480021973242706
0.48117849595807
0.481965074794589
0.481984517019178
2.38167955402928
0.938077466980711
0.705098807651382
0.611575542262037
0.560136808269167
0.529138710039885
0.509492068340892
0.496726372696155
0.488396756312645
0.483053831873933
0.479794823675561
0.478038428497547
0.94342377398092
1.49913483574926
4.31431223712503
0.729973283826457
0.936004662795725
1.4708845248257
4.23865618285214
0.627315450842049
0.726919594770708
0.923492775255485
1.44371403357152
4.17332568543896
0.571056010307206
0.626007868607545
0.720664557428871
0.909789467751697
1.42160068109012
4.11284707613015
0.537794451333776
0.570448372528094
0.622475697369327
0.71273064027001
0.897056579957299
1.40217444307011
4.0457226722171
3.96563218902967
1.38130240566853
0.884985433235317
0.704293857484741
0.617348611781616
0.568135801157689
0.537423990498784
0.517174609061982
3.87126029536108
1.35659239415121
0.872253249798247
0.695622155509095
0.611305366761075
0.564425345314301
0.535632033596951
0.516869479180207
0.504009628652981
3.76164342969
1.32740375427356
0.857888183946141
0.686417927883211
0.604730974492866
0.559784203999813
0.532641574525324
0.515301021336774
0.503730920815
0.495476393191106
3.63501298116668
1.29354171175026
0.841476538165912
0.676353291366505
0.597705798192236
0.554605230124918
0.528852548134077
0.512703960787465
0.502284897121516
0.495228295324236
0.489933739592514
3.48900180233926
1.2546853932373
0.822883037740036
0.665266881754314
0.590202531574681
0.549102831963308
0.524647604292549
0.509474311039528
0.499944222350865
0.493880327891991
0.489726750541699
0.486371830184439
3.32095928827079
1.21047693246099
0.802098781545657
0.653168775211879
0.582242528863372
0.543390760724682
0.520281681208122
0.505988873030894
0.497123413528294
0.491741462430371
0.488474215341775
0.486213037546134
0.484139924508668
3.12509374170764
1.1602168746426
0.779263069536764
0.640252369501253
0.57398027073401
0.537608852598364
0.515933722040971
0.502512626720086
0.494201100581436
0.489249006054792
0.486512998607439
0.485056116716647
0.484032764594833
0.482804708375878
2.89623954771853
1.10317600738774
0.754680039914657
0.626970741581509
0.565775285460622
0.532023934612686
0.511817858497547
0.499256025949092
0.491446246552581
0.486788529776546
0.484300741637749
0.483258400877045
0.482970418133526
0.48275030821614
0.482071538358937
2.63196483233741
1.03974677071537
0.729325080827729
0.614218996278261
0.558313532699002
0.527124948512217
0.508282709528164
0.496480508294065
0.489087436270779
0.484633556671111
0.482231869590076
0.481294162727762
0.481326021220939
0.481779551221166
0.482068869822095
0.481738013721844
2.21610229245698
0.973243764225704
0.705917886589035
0.603855802324993
0.552857100492381
0.523768333893508
0.505913658705285
0.494593260564618
0.48741774811109
0.483025282679379
0.480585337663532
0.479567230529069
0.479588732159065
0.480277091629527
0.481182292668461
0.481783483402109
0.481666299398854
2.28700593835545
0.912264919356658
0.69150326344032
0.59987616921881
0.551793975970673
0.523455968806705
0.505690294731202
0.494250626523472
0.48688605807179
0.482278142211635
0.479610701722498
0.478362566010369
0.478177252411772
0.478740881192522
0.479800432084456
0.480967354597058
0.481754082989407
0.481765871146426
2.38168145625283
0.937164624915246
0.704733393492231
0.61129460583169
0.559894863834523
0.528913711567465
0.509277094635932
0.496520057095637
0.488199522747972
0.482868145809847
0.479630961137419
0.477927140033166
0.477404999507384
0.477585317751683
0.478414184264412
0.479671326447643
0.480984630437477
0.481881070517311
0.48197580047086
3.68516517047986
1.2061202382866
0.805004939130841
0.660060995881475
0.587359331643992
0.545393328903271
0.519615530153799
0.503174282764684
0.492484079461991
0.485532537924899
0.481121577715272
0.47850239105926
0.72959548680767
0.93542819698125
1.46994169042008
4.23642751271732
0.627169497054604
0.726682827222087
0.923135525602956
1.44324993146962
4.17318882307898
0.571030997781807
0.62593143500092
0.72052465461273
0.909583482358129
1.42144188742448
4.11414507851586
0.537828900219647
0.570451618073216
0.622440180804799
0.712651389197604
0.896948704122237
1.40219823539651
4.04766140525846
0.517232063314781
0.537462647887691
0.568149766317736
0.617332935831115
0.704248578844377
0.88493439193134
1.38142371551537
3.96786383959896
3.87346645571178
1.35675015335687
0.872228644098341
0.695591979432527
0.6112954722931
0.564438138669743
0.535664587385125
0.516917400043966
0.504068362393842
3.76364415812766
1.32755005416311
0.857868392901604
0.68638955244398
0.604717620581616
0.559788424092064
0.532661450584224
0.515333368792417
0.503772247072015
0.495523441184591
3.63667203639914
1.29364358595172
0.841446015487757
0.676317289858683
0.597682696482439
0.554596350645031
0.528856021167467
0.512717244401285
0.502305329418237
0.495253356343645
0.489961277750904
3.48996893890053
1.25471388028932
0.822830006156988
0.665216306823399
0.590165132594725
0.549077820595772
0.524632564601079
0.50946679446352
0.499941993472591
0.493881401800874
0.489729458794323
0.486374900121105
3.32142443062765
1.21036070594844
0.802008006102686
0.653098016692063
0.582187272403697
0.543347286526851
0.520246673998256
0.505959648552323
0.497097794426634
0.49171767675394
0.488450875862409
0.486189198131218
0.484115121545426
3.12519793852358
1.16005510826671
0.77912611590519
0.640155460750052
0.573904063703556
0.537544881659851
0.515877447413101
0.50246096469977
0.49415171248767
0.489200041844737
0.48646304168168
0.485004304399275
0.483978971233096
0.482749484758713
2.89600461418009
1.10300306097115
0.754527808704885
0.626846807482763
0.565675459816762
0.531937458015552
0.511738929938073
0.4991810613096
0.491372633145942
0.486714127508177
0.484223766642842
0.483177682986534
0.482885989398722
0.48266362604222
0.481984243750118
2.6315510180562
1.03957345558375
0.729165211167579
0.614075936030273
0.558188680611157
0.527013910897307
0.508179496860597
0.496381100283538
0.488988914344637
0.484533325274966
0.482127351817487
0.481183216147025
0.481208546034749
0.481658782238651
0.481947709284269
0.481618108472987
2.21610342175294
0.973069019251204
0.705740584640951
0.60369173468116
0.552707474243764
0.523630790608793
0.50578418158193
0.494467914010927
0.487293452815315
0.482898945726919
0.480452974568067
0.479424119644495
0.479433564553145
0.48011866040983
0.481025058651507
0.481628544888917
0.481513787409858
2.28699080959885
0.912010906958574
0.691281565180756