/*--------------------------------*- C++ -*----------------------------------*\
  =========                 |
  \\      /  F ield         | OpenFOAM: The Open Source CFD Toolbox
   \\    /   O peration     | Website:  https://openfoam.org
    \\  /    A nd           | Version:  12
     \\/     M anipulation  |
\*---------------------------------------------------------------------------*/
/*   Windows 32 and 64 bit porting by blueCAPE: http://www.bluecape.com.pt   *\
|  Based on Windows porting (2.0.x v4) by Symscape: http://www.symscape.com   |
\*---------------------------------------------------------------------------*/
FoamFile
{
    format      ascii;
    class       volScalarField;
    location    "100";
    object      p;
}
// * * * * * * * * * * * * * * * * * * * * * * * * * * * * * * * * * * * * * //

dimensions      [0 2 -2 0 0 0 0];

internalField   nonuniform List<scalar> 
10140
(
83333.330697187
83333.3306393056
83333.3306974783
83333.3306965083
83333.3305806702
83333.3306395395
83333.3306385699
83333.33069797
83333.330696874
83333.3306964218
83333.3305213287
83333.3305808438
83333.3305798942
83333.3306399911
83333.3306388655
83333.3306385098
83333.3306986859
83333.3306973981
83333.330696813
83333.3306984008
83333.3304611611
83333.33052151
83333.3305204845
83333.3305812678
83333.3305801321
83333.3305798082
83333.330640709
83333.3306393514
83333.3306389036
83333.3306406193
83333.3306996772
83333.3306981388
83333.3306973876
83333.3306988318
83333.330702842
83333.3304001228
83333.3304613633
83333.3304602267
83333.3305219572
83333.3305207322
83333.3305203231
83333.3305819925
83333.3305805987
83333.3305801704
83333.3305819824
83333.3306417371
83333.3306401158
83333.3306395073
83333.3306411257
83333.3306452248
83333.3307009722
83333.3306991696
83333.3306982068
83333.3306994673
83333.3307032513
83333.3307096534
83333.3303381727
83333.3304003459
83333.3303990914
83333.3304618464
83333.330460502
83333.3304599729
83333.3305227218
83333.3305212189
83333.3305206861
83333.3305225064
83333.3305830605
83333.3305813756
83333.3305807655
83333.3305824758
83333.3305866979
83333.3306430937
83333.3306412035
83333.33064039
83333.3306418367
83333.3306457448
83333.3306522309
83333.3307025765
83333.3307005332
83333.3306993395
83333.3307003838
83333.3307039634
83333.3307100258
83333.3307186164
83333.3302752555
83333.3303384158
83333.3303370421
83333.3304008704
83333.3303993922
83333.3303987272
83333.3304626649
83333.3304610238
83333.3304603532
83333.3304621302
83333.330523856
83333.3305220338
83333.330521292
83333.3305229846
83333.3305272932
83333.3305844895
83333.3305825153
83333.3305816736
83333.330583191
83333.3305872168
83333.3305938587
83333.3306447806
83333.3306426475
83333.3306416041
83333.3306428472
83333.3306465534
83333.3306527263
83333.3306614025
83333.330704486
83333.3307022338
83333.3307008224
83333.3307016217
83333.3307049666
83333.3307107798
83333.3307189819
83333.3307294287
83333.3302113068
83333.3302755192
83333.3302740107
83333.3303389855
83333.3303373577
83333.3303365396
83333.3304017525
83333.3303999596
83333.3303991309
83333.330400824
83333.3304638796
83333.3304618905
83333.3304609815
83333.3304626122
83333.3304669548
83333.3305253832
83333.3305232388
83333.330522237
83333.3305237014
83333.3305277901
83333.3305345781
83333.3305862779
83333.3305840436
83333.3305829462
83333.3305842479
83333.3305880451
83333.3305943585
83333.3306032125
83333.3306467864
83333.3306444437
83333.330643183
83333.3306441857
83333.3306476677
83333.3306535688
83333.3306618793
83333.3306724396
83333.3307066829
83333.3307042495
83333.3307026583
83333.3307032206
83333.3307062918
83333.3307118204
83333.3307196988
83333.3307298076
83333.3307418563
83333.3301462567
83333.3302115929
83333.3302099333
83333.3302761393
83333.330274347
83333.3302733525
83333.3303399424
83333.3303379708
83333.330336966
83333.3303385529
83333.3304030614
83333.3304008911
83333.3303997943
83333.3304013277
83333.330405655
83333.3304655179
83333.330463176
83333.330461977
83333.3304633442
83333.3304674482
83333.3304743367
83333.3305272979
83333.3305248634
83333.3305235767
83333.3305247978
83333.3305286254
83333.3305350562
83333.3305441006
83333.3305884025
83333.3305859474
83333.3305846176
83333.330585664
83333.3305892173
83333.3305952238
83333.330603694
83333.3306144621
83333.3306490958
83333.3306465786
83333.3306451322
83333.3306458983
83333.3306491096
83333.3306547333
83333.3306626948
83333.3306729194
83333.3306851234
83333.3307091454
83333.3307065667
83333.3307048355
83333.3307051917
83333.3307079958
83333.3307132069
83333.330720747
83333.3307304771
83333.3307421935
83333.33075561
83333.330080027
83333.3301465706
83333.3301447512
83333.3302122714
83333.3302103029
83333.3302091053
83333.3302771832
83333.3302750065
83333.330273806
83333.3302752719
83333.330341362
83333.3303389855
83333.3303376769
83333.3303390901
83333.3303433739
83333.3304048277
83333.3304022735
83333.3304008534
83333.3304020896
83333.3304061674
83333.3304131113
83333.330467573
83333.3304649122
83333.3304633988
83333.330464489
83333.3304683015
83333.330474811
83333.330484014
83333.3305295725
83333.3305268918
83333.3305253508
83333.3305262917
83333.3305298421
83333.3305359324
83333.330544563
83333.3305555602
83333.3305908406
83333.3305882131
83333.330586687
83333.3305874858
83333.3305907536
83333.3305964559
83333.3306045371
83333.3306149401
83333.3306273824
83333.3306516819
83333.3306490212
83333.3306474421
83333.3306479993
83333.3306509424
83333.3306562486
83333.3306638674
83333.3306736899
83333.33068554
83333.3306991507
83333.3307118543
83333.3307091762
83333.3307073369
83333.3307075296
83333.3307100961
83333.3307149983
83333.330722167
83333.3307315056
83333.3307428358
83333.3307559247
83333.3307704827
83333.3300125391
83333.330080374
83333.3300783943
83333.330147317
83333.3301451462
83333.3301437265
83333.3302134172
83333.3302110188
83333.3302095949
83333.3302109304
83333.3302787317
83333.3302761188
83333.3302745742
83333.3302758505
83333.3302800715
83333.330343278
83333.330340486
83333.3303388165
83333.3303398975
83333.3303439221
83333.330350891
83333.3304070432
83333.3304041397
83333.3304023745
83333.3304032962
83333.3304070515
83333.3304136026
83333.3304229304
83333.3304700143
83333.3304670863
83333.3304652917
83333.3304660711
83333.330469571
83333.3304757098
83333.3304844764
83333.330495682
83333.3305321702
83333.3305293027
83333.3305275527
83333.3305282275
83333.3305314654
83333.3305372152
83333.3305454189
83333.3305560182
83333.3305687221
83333.3305935661
83333.3305908027
83333.330589141
83333.3305897241
83333.3305927118
83333.330598078
83333.3306057815
83333.3306157413
83333.3306277976
83333.3306416747
83333.330654517
83333.330651759
83333.3306500875
83333.3306504846
83333.3306531877
83333.3306581804
83333.3306654234
83333.3306748445
83333.330686287
83333.3306995434
83333.3307143414
83333.3307147837
83333.3307120454
83333.330710144
83333.3307102167
83333.3307125872
83333.3307172086
83333.3307240192
83333.3307329374
83333.3307438406
83333.3307565378
83333.3307707757
83333.3307862502
83333.329943706
83333.3300129173
83333.3300107564
83333.3300812029
83333.3300788105
83333.3300771388
83333.3301485793
83333.3301459329
83333.3301442562
83333.3301454482
83333.3302151172
83333.330212237
83333.3302104293
83333.3302115453
83333.3302156874
83333.3302808219
83333.3302777579
83333.3302758121
83333.3302767175
83333.330280669
83333.3302876407
83333.3303456795
83333.330342507
83333.3303404579
83333.3303411829
83333.3303448521
83333.3303514159
83333.3303608415
83333.3304096722
83333.3304064811
83333.3304044053
83333.3304049821
83333.3304083877
83333.3304145387
83333.3304234121
83333.3304348036
83333.3304727977
83333.3304696649
83333.3304676456
83333.3304681336
83333.3304712883
83333.3304770503
83333.3304853562
83333.3304961386
83333.3305090935
83333.3305350629
83333.3305320607
83333.3305301619
83333.3305306118
83333.33053355
83333.3305389333
83333.3305467186
83333.3305568337
83333.3305691226
83333.3305832934
83333.3305965474
83333.3305936856
83333.3305919476
83333.330592369
83333.3305951103
83333.3306001492
83333.3306074542
83333.3306169722
83333.3306285754
83333.3306420657
83333.3306571524
83333.3306575654
83333.3306547625
83333.3306530437
83333.3306533332
83333.3306558398
83333.3306605476
83333.3306674252
83333.3306764172
83333.3306874217
83333.3307002651
83333.3307147299
83333.3307305173
83333.3307179007
83333.3307151386
83333.3307132267
83333.3307132291
83333.3307154473
83333.330719828
83333.3307263101
83333.3307348228
83333.330745269
83333.3307575157
83333.3307713567
83333.3307865015
83333.3298734325
83333.3299441136
83333.3299417377
83333.3300138417
83333.3300112195
83333.3300092468
83333.330082603
83333.3300796653
83333.3300777101
83333.3300787237
83333.3301504577
83333.330147279
83333.3301451678
83333.3301460952
83333.3301501377
83333.3302174094
83333.330214034
83333.3302117807
83333.3302124869
83333.3302163438
83333.3302232953
83333.3302834391
83333.3302799602
83333.3302775964
83333.3302781002
83333.3302816612
83333.3302882132
83333.3302977142
83333.3303485237
83333.3303450399
83333.3303426509
83333.3303429928
83333.3303462708
83333.3303524041
83333.3303613575
83333.3303729166
83333.3304126646
83333.3304092521
83333.3304069338
83333.3304071898
83333.3304102142
83333.3304159509
83333.3304243319
83333.3304352768
83333.3304484706
83333.3304758856
83333.3304726095
83333.3304704302
83333.3304706793
83333.3304735094
83333.3304788697
83333.3304867193
83333.3304969808
83333.3305094961
83333.3305239569
83333.3305382152
83333.3305351127
83333.3305331448
83333.3305334267
83333.3305361081
83333.330541143
83333.3305484961
83333.3305581249
83333.330569915
83333.3305836693
83333.3305990782
83333.3305997382
83333.3305968373
83333.3305950698
83333.330595395
83333.3305979385
83333.3306026845
83333.3306096071
83333.3306186695
83333.330629791
83333.3306428187
83333.3306575372
83333.33067365
83333.3306607859
83333.3306579896
83333.3306562804
83333.3306565144
83333.3306588746
83333.3306633395
83333.3306698826
83333.3306784593
83333.3306889956
83333.3307013781
83333.330715437
83333.3307308947
83333.3307474022
83333.3307211638
83333.330718426
83333.3307165494
83333.3307165374
83333.3307186543
83333.3307228346
83333.3307290232
83333.3307371593
83333.330747161
83333.3307589254
83333.3307722989
83333.3307870292
83333.3298016292
83333.3298712819
83333.3298738735
83333.3299451448
83333.3299422739
83333.3299399545
83333.3300154056
83333.3300121545
83333.3300098736
83333.3300106605
83333.3300846849
83333.3300811515
83333.3300787044
83333.3300794166
83333.3300833235
83333.3301529859
83333.3301492546
83333.3301466504
83333.3301471268
83333.3301508626
83333.3301577634
83333.3302202765
83333.330216446
83333.3302137328
83333.330213986
83333.3302174125
83333.3302239276
83333.3302334816
83333.3302865326
83333.3302827158
83333.3302799777
83333.3302800574
83333.3302831811
83333.3302892688
83333.3302982766
83333.3303099885
83333.3303517543
83333.3303480308
83333.3303453803
83333.33034537
83333.3303482282
83333.3303539053
83333.3303623342
83333.3303734179
83333.3303868419
83333.3304159748
83333.3304124077
83333.3304099195
83333.3304099185
83333.3304125897
83333.3304178867
83333.3304257725
83333.3304361615
83333.3304488896
83333.3304636355
83333.3304792321
83333.3304758566
83333.3304736083
83333.3304736822
83333.3304762408
83333.3304812269
83333.3304886061
83333.3304983407
83333.3305103157
83333.3305243343
83333.3305400705
83333.3305415799
83333.3305384362
83333.3305364507
83333.3305366432
83333.3305391228
83333.3305438525
83333.3305507989
83333.3305599348
83333.3305711946
83333.330584437
83333.3305994432
83333.3306158974
83333.330603087
83333.3306002159
83333.3305984759
83333.3305987629
83333.3306011677
83333.330605668
83333.3306122458
83333.3306208729
83333.3306314959
83333.3306440174
83333.3306582779
83333.3306740472
83333.3306909722
83333.3306641243
83333.3306613956
83333.3306597567
83333.330659998
83333.3306622662
83333.3306665327
83333.3306727785
83333.3306809703
83333.3306910505
83333.3307029389
83333.3307165266
83333.3307315818
83333.3307477487
83333.3307649362
83333.3307244833
83333.3307218355
83333.3307200731
83333.3307201074
83333.3307221744
83333.3307262005
83333.3307321332
83333.330739924
83333.3307495069
83333.3307607977
83333.3307736715
83333.3307879182
83333.3297281776
83333.3297993246
83333.3298020978
83333.329869205
83333.3298718925
83333.3298750243
83333.3299469007
83333.3299433212
83333.3299406551
83333.3299411768
83333.33001773
83333.3300137917
83333.3300109604
83333.3300114175
83333.3300151417
83333.3300874904
83333.3300833541
83333.3300803372
83333.3300805467
83333.3300841289
83333.3300909378
83333.3301561441
83333.3301519086
83333.3301487967
83333.330148763
83333.3301520207
83333.3301584687
83333.3301680454
83333.3302236588
83333.330219459
83333.3302163308
83333.3302161163
83333.3302190541
83333.3302250647
83333.3302340996
83333.3302459561
83333.3302900393
83333.3302859619
83333.3302829401
83333.3302826327
83333.3302852944
83333.3302908784
83333.3302993255
83333.3303105244
83333.3303241699
83333.3303553158
83333.330351427
83333.3303485971
83333.3303483098
83333.3303507828
83333.3303559801
83333.3303638691
83333.3303743635
83333.3303872861
83333.3304023147
83333.3304195458
83333.3304158777
83333.3304133197
83333.3304131344
83333.3304155158
83333.3304204093
83333.3304277839
83333.3304376045
83333.3304497523
83333.3304640276
83333.3304800919
83333.3304827909
83333.3304793771
83333.3304771212
83333.3304771088
83333.3304794589
83333.3304841234
83333.3304910675
83333.3305002679
83333.330511668
83333.3305251299
83333.3305404344
83333.3305572502
83333.3305450966
83333.330541986
83333.3305400448
83333.3305402136
83333.3305425604
83333.3305470389
83333.3305536252
83333.3305622984
83333.3305730187
83333.3305857027
83333.3306001957
83333.3306162643
83333.3306335844
83333.3306065235
83333.3306037614
83333.3306021232
83333.3306024391
83333.3306047643
83333.3306090712
83333.3306153473
83333.3306235764
83333.3306337205
83333.330645715
83333.3306594591
83333.3306747858
83333.3306913666
83333.330708933
83333.3306674763
83333.3306648921
83333.3306634243
83333.3306637437
83333.330665978
83333.3306700969
83333.3306760859
83333.3306839268
83333.3306935777
83333.3307049795
83333.3307180574
83333.3307326313
83333.3307483915
83333.3307652467
83333.3307830854
83333.3307277484
83333.3307252949
83333.3307237281
83333.330723897
83333.3307259714
83333.3307298907
83333.3307356079
83333.3307430873
83333.3307522792
83333.3307631179
83333.3307754986
83333.3307892352
83333.3296531031
83333.3297257354
83333.3297286853
83333.3297969617
83333.3297999943
83333.3298033838
83333.3298702087
83333.3298699904
83333.3298730917
83333.3298770075
83333.3299495089
83333.3299451325
83333.3299418581
83333.3299420056
83333.329945516
83333.3300208578
83333.3300162414
83333.3300127614
83333.3300126552
83333.3300160369
83333.3300227057
83333.3300909882
83333.330086287
83333.3300827109
83333.3300823422
83333.330085387
83333.3300917286
83333.3301012904
83333.3301598613
83333.3301552165
83333.3301516461
83333.3301510957
83333.3301538062
83333.3301597011
83333.3301687303
83333.3301806999
83333.3302274843
83333.3302230047
83333.3302195628
83333.3302189219
83333.3302213518
83333.3302268049
83333.3302352355
83333.33024652
83333.3302603795
83333.3302938884
83333.3302896342
83333.3302864247
83333.3302858172
83333.3302880587
83333.3302931197
83333.3303009759
83333.3303115472
83333.3303246471
83333.3303399546
83333.330359141
83333.3303551543
83333.3303522516
83333.3303517704
83333.330353932
83333.3303586937
83333.330366029
83333.3303759068
83333.3303882099
83333.3304027303
83333.3304191253
83333.3304233243
83333.3304196255
83333.3304170685
83333.3304167984
83333.3304189622
83333.3304235143
83333.3304304223
83333.3304396652
83333.3304511919
83333.3304648669
83333.3304804697
83333.3304976556
83333.3304864947
83333.3304831197
83333.3304809274
83333.3304809039
83333.3304831244
83333.3304875297
83333.3304940945
83333.3305028006
83333.3305136169
83333.3305264708
83333.3305412132
83333.3305576093
83333.3305753309
83333.3305486771
83333.3305457
83333.3305438811
83333.3305440991
83333.3305463786
83333.3305506675
83333.3305569447
83333.3305652016
83333.3305754125
83333.3305875251
83333.3306014453
83333.3306170085
83333.3306339566
83333.3306519655
83333.3306099267
83333.3306073807
83333.3306059558
83333.3306063787
83333.3306086891
83333.3306128584
83333.3306188794
83333.3306267505
83333.3306364498
83333.3306479329
83333.3306611339
83333.3306759458
83333.3306920901
83333.33070931
83333.3307274808
83333.3306707278
83333.3306683859
83333.3306671983
83333.3306677011
83333.330669968
83333.3306739918
83333.3306797696
83333.3306872968
83333.3306965488
83333.3307074863
83333.3307200566
83333.3307341097
83333.3307493874
83333.3307658364
83333.3307833659
83333.3308017256
83333.3307306963
83333.3307287009
83333.3307274387
83333.3307278337
83333.3307299928
83333.3307338585
83333.330739405
83333.3307466114
83333.3307554436
83333.3307658553
83333.3307777616
83333.3307909965
83333.329576289
83333.3296504623
83333.3296537857
83333.3297230781
83333.3297264598
83333.3297301497
83333.3297977065
83333.3297978289
83333.329801381
83333.3298056272
83333.3298743515
83333.3298711159
83333.3298713411
83333.3298751158
83333.3298799527
83333.3299530205
83333.3299478636
83333.3299438532
83333.3299433678
83333.3299464741
83333.3299529652
83333.3300247533
83333.3300195146
83333.3300153953
83333.330014633
83333.3300174081
83333.3300235908
83333.3300331055
83333.3300950966
83333.3300899392
83333.3300858546
83333.3300849109
83333.3300873407
83333.330093071
83333.3301020508
83333.3301140983
83333.3301640546
83333.3301591129
83333.3301551892
83333.3301541687
83333.3301563194
83333.3301615954
83333.3301699684
83333.3301813111
83333.3301953616
83333.3302316659
83333.3302269976
83333.3302233604
83333.3302223895
83333.3302243609
83333.3302292435
83333.3302370256
83333.3302476391
83333.3302608962
83333.3302764765
83333.3302980047
83333.3302936594
83333.330290371
83333.3302895613
83333.3302914665
83333.3302960569
83333.3303033132
83333.3303132135
83333.3303256479
83333.3303404028
83333.3303571303
83333.3303631671
83333.3303591629
83333.3303562716
83333.3303557052
83333.3303576391
83333.3303620369
83333.3303688712
83333.3303781253
83333.3303897553
83333.3304036313
83333.3304195269
83333.3304370902
83333.3304272384
83333.3304235909
83333.3304211176
83333.3304208476
83333.3304228836
83333.3304271657
83333.3304336721
83333.330442386
83333.3304532824
83333.3304662988
83333.3304812919
83333.3304980259
83333.3305161614
83333.3304902464
83333.3304870242
83333.3304849752
83333.3304850226
83333.3304871869
83333.3304914043
83333.3304976495
83333.3305059172
83333.3305161892
83333.3305284243
83333.3305425392
83333.3305583756
83333.3305756873
83333.3305941562
83333.3305521924
83333.3305494843
83333.3305479004
83333.3305482505
83333.330550534
83333.3305546956
83333.3305607182
83333.3305686071
83333.3305783521
83333.3305899198
83333.3306032498
83333.3306182381
83333.3306346924
83333.3306523307
83333.3306709468
83333.3306131629
83333.3306109635
83333.33060988
83333.3306105242
83333.3306128931
83333.3306169836
83333.3306228013
83333.3306303578
83333.3306396489
83333.3306506499
83333.3306633179
83333.3306775803
83333.3306932114
83333.3307100008
83333.3307278357
83333.3307465146
83333.3306735822
83333.3306717602
83333.33067097
83333.3306717809
83333.3306741733
83333.3306781651
83333.330683783
83333.3306910392
83333.3306999275
83333.3307104279
83333.3307225082
83333.3307360417
83333.3307508005
83333.3307667714
83333.3307839092
83333.3308019871
83333.3308207483
83333.3307330745
83333.3307318423
83333.3307310768
83333.3307318046
83333.3307341497
83333.3307380369
83333.3307434682
83333.3307504463
83333.3307589567
83333.3307689717
83333.3307804268
83333.3307931787
83333.3295734623
83333.3295772464
83333.3296474613
83333.3296513497
83333.3296555644
83333.3297235208
83333.329724024
83333.3297280494
83333.3297327105
83333.3298015695
83333.3297986938
83333.3297993547
83333.3298036986
83333.329808978
83333.3298816244
83333.3298753727
83333.3298726234
83333.3298735695
83333.3298781623
83333.3298839175
83333.3299573864
83333.3299515333
83333.3299467882
83333.3299455559
83333.329947985
83333.3299539342
83333.3299633457
83333.33002932
83333.3300235746
83333.3300188892
83333.3300174747
83333.3300195561
83333.3300250571
83333.3300339273
83333.3300460149
83333.3300997178
83333.330094239
83333.3300897575
83333.3300882951
83333.3300901044
83333.3300951449
83333.3301034086
83333.3301147719
83333.3301289829
83333.3301686222
83333.3301634847
83333.3301593514
83333.3301579636
83333.3301596136
83333.3301642649
83333.3301719236
83333.3301825394
83333.3301959285
83333.3302117683
83333.3302361205
83333.3302313659
83333.3302276438
83333.3302264623
83333.3302280689
83333.330232442
83333.330239573
83333.3302494548
83333.3302619908
83333.3302769668
83333.330294027
83333.330302312
83333.3302979679
83333.3302947037
83333.3302938072
83333.3302954741
83333.3302996756
83333.3303063933
83333.3303156199
83333.3303273226
83333.3303413813
83333.3303575659
83333.3303755146
83333.3303673215
83333.3303633841
83333.3303605992
83333.3303600448
83333.3303618518
83333.3303659669
83333.3303723747
83333.3303810621
83333.3303920121
83333.3304051734
83333.3304204109
83333.3304374851
83333.330456045
83333.3304311858
83333.3304277112
83333.3304254077
83333.3304252304
83333.3304272211
83333.3304313148
83333.3304374888
83333.3304457389
83333.3304560527
83333.3304684003
83333.3304827109
83333.3304988343
83333.330516526
83333.3305354572
83333.3304939115
83333.3304909964
83333.3304892043
83333.3304894095
83333.330491597
83333.3304956967
83333.3305016859
83333.3305095726
83333.3305193534
83333.3305310056
83333.3305444793
83333.3305596807
83333.3305764395
83333.3305945056
83333.3306136081
83333.3305555078
83333.3305532104
83333.3305520076
83333.3305526043
83333.3305549709
83333.3305590707
83333.3305648981
83333.3305724701
83333.3305817943
83333.3305928564
83333.3306056178
83333.3306200081
83333.3306358932
83333.3306530444
83333.3306712976
83333.3306904247
83333.3306159588
83333.3306143813
83333.3306137691
83333.3306147734
83333.3306173043
83333.3306213877
83333.3306270603
83333.3306343511
83333.3306432754
83333.3306538281
83333.3306659874
83333.330679704
83333.3306947858
83333.3307110715
83333.3307284885
83333.3307468508
83333.3307659393
83333.3306758113
83333.330674772
83333.3306745876
83333.33067584
83333.3306784854
83333.3306825382
83333.3306880615
83333.3306950988
83333.3307036662
83333.3307137637
83333.3307253789
83333.3307384087
83333.3307526505
83333.3307681092
83333.3307847809
83333.3308024932
83333.3308209934
83333.3308400633
83333.3307349901
83333.330734437
83333.3307344178
83333.330735602
83333.3307382908
83333.3307423147
83333.3307477129
83333.3307545237
83333.3307627609
83333.3307724183
83333.3307834526
83333.3307957444
83333.3295700815
83333.3295746822
83333.3295794553
83333.3296474844
83333.3296485457
83333.3296532241
83333.329658591
83333.3297270286
83333.3297245917
83333.3297257441
83333.3297307479
83333.3297365595
83333.3298085734
83333.3298026671
83333.3298003685
83333.3298018745
83333.3298071183
83333.329813482
83333.3298918869
83333.3298826618
83333.3298770432
83333.3298750603
83333.3298768554
83333.3298823033
83333.329888837
83333.3299624935
83333.3299560779
83333.3299506963
83333.329948715
83333.3299503598
83333.3299555467
83333.3299642368
83333.3299763013
83333.3300344413
83333.3300283413
83333.3300232116
83333.330021223
83333.3300226102
83333.3300273405
83333.3300354256
83333.3300467593
83333.3300610918
83333.3301047341
83333.330099049
83333.3300943398
83333.3300924697
83333.33009373
83333.3300980829
83333.3301055572
83333.3301161238
83333.3301296112
83333.3301456911
83333.3301734694
83333.3301682506
83333.330164029
83333.3301624166
83333.3301636697
83333.3301677683
83333.3301747177
83333.3301845317
83333.330197132
83333.3302123113
83333.3302297018
83333.3302407557
83333.3302360204
83333.3302323364
83333.3302310668
83333.3302324242
83333.3302363807
83333.3302429316
83333.3302520839
83333.3302638219
83333.3302780393
83333.3302945072
83333.3303128499
83333.3303067379
83333.3303024817
83333.330299351
83333.3302984806
83333.3303000205
83333.3303039262
83333.3303101901
83333.3303188086
83333.3303297769
83333.3303430582
83333.330358528
83333.3303759446
83333.3303949427
83333.3303714928
83333.3303677493
83333.3303651667
83333.3303647287
83333.3303665018
83333.3303704276
83333.3303764883
83333.3303846838
83333.3303950095
83333.3304074481
83333.3304219435
83333.3304383542
83333.3304564335
83333.3304758374
83333.330435027
83333.3304318946
83333.3304298755
83333.3304298848
83333.3304319182
83333.3304359033
83333.3304418182
83333.3304496715
83333.3304594655
83333.3304711883
83333.3304848039
83333.330500233
83333.3305173179
83333.3305358137
83333.3305554143
83333.3304973505
83333.3304948963
83333.33049352
83333.3304939976
83333.3304962926
83333.3305003472
83333.3305061482
83333.3305137139
83333.3305230581
83333.3305341766
83333.3305470405
83333.3305615894
83333.3305777153
83333.3305952369
83333.3306139456
83333.3306335772
83333.3305583473
83333.3305567521
83333.330556064
83333.3305570529
83333.3305596109
83333.330563727
83333.3305694243
83333.3305767359
83333.3305856888
83333.3305962876
83333.3306085149
83333.3306223234
83333.3306376116
83333.3306542026
83333.3306719808
83333.3306907595
83333.3307103066
83333.3306180637
83333.3306173747
83333.3306174615
83333.3306189679
83333.3306217998
83333.3306259813
83333.3306315831
83333.3306386684
83333.3306472757
83333.3306574206
83333.3306691022
83333.330682293
83333.3306968281
83333.3307125741
83333.3307295009
83333.3307474672
83333.3307662582
83333.3307856698
83333.330677592
83333.3306771398
83333.3306777835
83333.330679658
83333.3306827208
83333.3306869788
83333.3306925085
83333.3306993991
83333.3307077019
83333.3307174412
83333.3307286252
83333.3307411751
83333.3307549157
83333.3307698637
83333.3307860348
83333.3308033047
83333.3308214646
83333.3308402921
83333.3308595915
83333.3307355685
83333.3307361616
83333.3307370832
83333.3307390363
83333.3307421672
83333.330746509
83333.3307520074
83333.3307587469
83333.3307667789
83333.3307761316
83333.3307867864
83333.3307986491
83333.3295695971
83333.3295714318
83333.3295769786
83333.3295830541
83333.3296505449
83333.3296486917
83333.3296505294
83333.3296563914
83333.3296630645
83333.329733661
83333.3297282088
83333.3297264589
83333.3297286189
83333.3297346609
83333.329741715
83333.3298186193
83333.3298096892
83333.3298045141
83333.3298031026
83333.3298055745
83333.3298117971
83333.3298190608
83333.3299048158
83333.3298928624
83333.3298844445
83333.329879684
83333.3298785935
83333.3298812536
83333.3298874277
83333.3298945826
83333.3299682036
83333.3299613909
83333.3299555109
83333.3299528915
83333.3299537523
83333.3299580747
83333.3299658932
83333.3299771262
83333.3299915245
83333.3300399843
83333.330033659
83333.3300282798
83333.3300258406
83333.3300266218
83333.3300305903
83333.3300378019
83333.3300482533
83333.3300617923
83333.3300780842
83333.3301100357
83333.3301042789
83333.3300994754
83333.3300973622
83333.3300981902
83333.3301019408
83333.3301086385
83333.3301183239
83333.3301309422
83333.3301462976
83333.3301640107
83333.3301784889
83333.3301733008
83333.3301691392
83333.3301674367
83333.3301684275
83333.3301720784
83333.3301784011
83333.3301874225
83333.3301991499
83333.3302134959
83333.3302302362
83333.3302489803
83333.3302454867
83333.3302408725
83333.3302373504
83333.330236125
83333.330237355
83333.3302410018
83333.3302470686
83333.3302555673
83333.33026651
83333.3302798795
83333.3302955653
83333.3303133251
83333.3303327779
83333.3303111635
83333.330307125
83333.3303042358
83333.3303035096
83333.3303050281
83333.3303087438
83333.3303146446
83333.3303227405
83333.3303330388
83333.3303455383
83333.3303602
83333.3303768928
83333.3303953667
83333.3304152612
83333.3303755341
83333.3303721694
83333.3303699048
83333.330369687
83333.3303715252
83333.3303753517
83333.3303811494
83333.3303889304
83333.3303987044
83333.3304104724
83333.3304242149
83333.3304398688
83333.3304572858
83333.3304762173
83333.330496333
83333.3304386186
83333.3304359959
83333.3304344278
83333.330434739
83333.3304369057
83333.3304408628
83333.330446596
83333.3304541226
83333.3304634612
83333.3304746181
83333.3304875785
83333.3305022978
83333.330518687
83333.3305365843
83333.3305557592
83333.3305759175
83333.3305002755
83333.3304985882
83333.3304977758
83333.3304986775
83333.3305011896
83333.330505283
83333.3305109682
83333.3305182781
83333.3305272444
83333.330537881
83333.3305501801
83333.3305641035
83333.3305795755
83333.3305964722
83333.3306146491
83333.3306339001
83333.3306539678
83333.3305604409
83333.3305598375
83333.3305599038
83333.3305614295
83333.3305643227
83333.3305685665
83333.3305742152
83333.3305813346
83333.3305899738
83333.3306001583
83333.3306118915
83333.3306251485
83333.3306398516
83333.3306558545
83333.3306730863
83333.330691409
83333.3307106248
83333.3307305088
83333.3306197909
83333.3306196637
83333.3306206619
83333.3306228929
83333.3306261767
83333.3306306156
83333.3306362616
83333.3306432242
83333.3306515789
83333.3306613681
83333.3306726126
83333.3306853063
83333.3306993129
83333.3307145209
83333.3307309216
83333.3307484198
83333.3307668389
83333.3307859716
83333.3308056287
83333.3306784444
83333.3306787605
83333.3306801788
83333.3306829025
83333.3306866025
83333.3306912684
83333.3306969706
83333.3307038302
83333.3307119483
83333.3307213903
83333.3307321904
83333.3307442948
83333.330757558
83333.3307720107
83333.3307876816
83333.3308044719
83333.3308222164
83333.3308407289
83333.3308598041
83333.3308792641
83333.3307370271
83333.3307386704
83333.3307416514
83333.3307454948
83333.3307503427
83333.3307561465
83333.3307629711
83333.3307709038
83333.3307800274
83333.3307903599
83333.3308018368
83333.3295720685
83333.329571061
83333.3295738097
83333.3295807141
83333.3295882627
83333.3296566831
83333.3296518555