/*--------------------------------*- C++ -*----------------------------------*\
  =========                 |
  \\      /  F ield         | OpenFOAM: The Open Source CFD Toolbox
   \\    /   O peration     | Website:  https://openfoam.org
    \\  /    A nd           | Version:  12
     \\/     M anipulation  |
\*---------------------------------------------------------------------------*/
/*   Windows 32 and 64 bit porting by blueCAPE: http://www.bluecape.com.pt   *\
|  Based on Windows porting (2.0.x v4) by Symscape: http://www.symscape.com   |
\*---------------------------------------------------------------------------*/
FoamFile
{
    format      ascii;
    class       surfaceScalarField;
    location    "100";
    object      phi;
}
// * * * * * * * * * * * * * * * * * * * * * * * * * * * * * * * * * * * * * //

dimensions      [0 3 -1 0 0 0 0];

internalField   nonuniform List<scalar> 
28973
(
1.04949634037964e-05
-5.87896599583695e-08
-8.63480054046024e-08
1.06470286587136e-05
-5.65822604470375e-08
-9.54844801530477e-08
1.26799467539137e-05
-1.0759173439293e-07
-1.02370650445571e-07
3.0494289301059e-06
-9.05529827272568e-09
-1.35958031426965e-07
1.07992566851458e-05
-5.07990778763467e-08
-1.01424847505661e-07
1.28471204236046e-05
-1.08799216556405e-07
-1.14957826395785e-07
3.11100676778458e-06
-9.63269228477384e-09
-1.47429462837423e-07
1.41605376795816e-05
-1.50310683020646e-07
-1.1733491692976e-07
3.87510964490866e-06
-1.13256049970242e-08
-1.6304700595125e-07
2.36433985968878e-06
-3.14363298806244e-09
-1.85253198602089e-07
1.09581505327643e-05
-5.17946422630178e-08
-1.07095739421931e-07
1.30244322272268e-05
-1.0806516933214e-07
-1.20039838846333e-07
3.17492903555878e-06
-7.28007038525266e-09
-1.58063392241955e-07
1.43422754306748e-05
-1.57006803429049e-07
-1.33526432249728e-07
3.9422997212058e-06
-1.37741538402797e-08
-1.78004060352817e-07
2.41861168586032e-06
-4.53989347333117e-09
-1.97161488656997e-07
1.57683632136932e-05
-1.9541390629024e-07
-1.30959809558764e-07
4.4391878691047e-06
-7.76349913451659e-09
-1.88214001796332e-07
2.91896092626437e-06
-2.769299633671e-09
-2.22538313870326e-07
2.30787704563483e-06
-1.40131829738116e-09
-2.35647584835263e-07
1.11279030300795e-05
-5.69133175570757e-08
-1.12834679205938e-07
1.32111119213969e-05
-1.14152160923482e-07
-1.24304907894941e-07
3.24421556162878e-06
-8.71407734008227e-09
-1.67664071338199e-07
1.45376030555242e-05
-1.64507707750059e-07
-1.38875632883489e-07
4.01700780837565e-06
-1.32419773390532e-08
-1.88778790554563e-07
2.47533650759304e-06
-4.9706052370238e-09
-2.09817228938639e-07
1.59699222211327e-05
-2.07373594605332e-07
-1.51190498516818e-07
4.51046611704143e-06
-1.20428091119157e-08
-2.06534652130619e-07
2.97909545675549e-06
-6.0003382024442e-09
-2.36678216475485e-07
2.36237509007397e-06
-3.24782521340895e-09
-2.48412273781841e-07
1.69060271389997e-05
-2.44099461039645e-07
-1.38422077280351e-07
4.9713929929876e-06
-3.0943544017494e-09
-2.09837563201251e-07
3.37017187891427e-06
2.71950088478237e-09
-2.59912964134934e-07
2.76421136889122e-06
-1.49090037422904e-09
-2.81634355113267e-07
2.38745142617204e-06
-1.9580693282488e-09
-2.85801341662587e-07
1.13111705483394e-05
-6.41403906547439e-08
-1.19121564603299e-07
1.34098238921798e-05
-1.25559775705154e-07
-1.30058453655116e-07
3.32059175500152e-06
-1.16045545982681e-08
-1.7760457485074e-07
1.4743357041515e-05
-1.77863064025621e-07
-1.42031266780191e-07
4.10009999618926e-06
-1.74358009656618e-08
-1.9867051658962e-07
2.53695971549608e-06
-6.7428615132209e-09
-2.22543635023863e-07
1.61846764521486e-05
-2.22668265905934e-07
-1.56584537559405e-07
4.59313924082739e-06
-1.60161626412096e-08
-2.18766718940933e-07
3.04430228901479e-06
-8.35014403705706e-09
-2.50604568724179e-07
2.42001422930306e-06
-4.69278859147426e-09
-2.62763503725625e-07
1.71207442089244e-05
-2.60304267690852e-07
-1.61790267438472e-07
5.04896051131096e-06
-9.5039116220562e-09
-2.3129539696153e-07
3.43658235452977e-06
-2.58981695293229e-09
-2.7635608575067e-07
2.82582939298467e-06
-5.4595494006212e-09
-2.96085316795986e-07
2.44297149940708e-06
-3.9845480929759e-09
-2.99948199070819e-07
1.73998347930293e-05
-2.94674740633382e-07
-1.39246419664248e-07
5.24359913412222e-06
-4.40792569733773e-10
-2.19070830895193e-07
3.71538478406964e-06
9.43753227488208e-09
-2.8988292942812e-07
3.17163782094958e-06
9.62982481209043e-10
-3.29253858931619e-07
2.77750829139246e-06
-2.82585530203628e-09
-3.39501364605105e-07
2.50403222220279e-06
-2.65677943712319e-09
-3.35606433444485e-07
1.15110527618095e-05
-7.30289078891986e-08
-1.2685462862406e-07
1.36235737068999e-05
-1.40779143779853e-07
-1.37105956003882e-07
3.40523378407125e-06
-1.52823009270703e-08
-1.88480448727439e-07
1.49626427975313e-05
-1.96377106197166e-07
-1.48460120002189e-07
4.19180670047374e-06
-2.40049908952975e-08
-2.09361752502545e-07
2.60517080063643e-06
-9.83518946631728e-09
-2.35979873100563e-07
1.64099034475329e-05
-2.44069446764491e-07
-1.59008633718549e-07
4.68665586684166e-06
-2.37276268927563e-08
-2.29248318646174e-07
3.1163949185723e-06
-1.27739651806029e-08
-2.64730339565227e-07
2.48244700122797e-06
-6.75582067430182e-09
-2.78220328609531e-07
1.73479020515508e-05
-2.82247953208235e-07
-1.67568694327812e-07
5.13892612098761e-06
-1.7523570633291e-08
-2.45037699066721e-07
3.50973589719617e-06
-8.06802954098317e-09
-2.92200982089434e-07
2.89168388147409e-06
-8.90143582189004e-09
-3.1224981657754e-07
2.50213571268981e-06
-5.66210099795443e-09
-3.16265543804664e-07
1.76180297675941e-05
-3.14087894078874e-07
-1.64417148107194e-07
5.32415680791458e-06
-9.03698860443038e-09
-2.42813542608126e-07
3.78794299910125e-06
2.20365791897001e-09
-3.08647334952898e-07
3.2404994353246e-06
-4.92526196031679e-09
-3.45752747335239e-07
2.83974085667637e-06
-6.99491202694663e-09
-3.5530828498879e-07
2.5602498924227e-06
-4.66045956477535e-09
-3.51505859808216e-07
1.74026462572827e-05
-3.45414052700539e-07
-1.35279755054832e-07
5.26115475768821e-06
-1.02771221166725e-09
-2.16988009490206e-07
3.80071364258686e-06
1.51759659307976e-08
-3.00890575515189e-07
3.44844201496483e-06
3.72480879760644e-09
-3.66105562990947e-07
3.14627992681793e-06
-3.42197366784868e-09
-3.95085311279925e-07
2.85626837704465e-06
-5.39042471434506e-09
-3.95295363454799e-07
2.62849007998724e-06
-3.61092492881163e-09
-3.84539823288615e-07
1.17307813921331e-05
-8.3437575641351e-08
-1.36290532092823e-07
1.38560398356107e-05
-1.59391462244437e-07
-1.46109091401906e-07
3.49979519627395e-06
-2.07176298614577e-08
-2.00699352623721e-07
1.51987177386932e-05
-2.19988759205759e-07
-1.56864151206341e-07
4.29300481509116e-06
-3.23589557521815e-08
-2.21227725862892e-07
2.68126838492148e-06
-1.39161378535246e-08
-2.50661659995496e-07
1.6649906033911e-05
-2.70702794682123e-07
-1.65669449657961e-07
4.79019622061839e-06
-3.46601191884111e-08
-2.41341367495424e-07
3.19634426167487e-06
-1.92419104575838e-08
-2.79903414212877e-07
2.55120224508525e-06
-9.66304704578548e-09
-2.95071733339566e-07
1.75846158994806e-05
-3.11240812518575e-07
-1.6953777277117e-07
5.24160190775656e-06
-2.90989173210621e-08
-2.56307442089295e-07
3.59178045001084e-06
-1.57845416380473e-08
-3.08281769717723e-07
2.96348021906101e-06
-1.34852688266784e-08
-3.29796580413397e-07
2.56614386541735e-06
-7.76021343312287e-09
-3.34468069545596e-07
1.78479181045976e-05
-3.41426850095676e-07
-1.70703951854616e-07
5.4172008838162e-06
-2.04527925956546e-08
-2.5768071162122e-07
3.86758990897508e-06
-6.29434511566372e-09
-3.26457105652872e-07
3.31482465726306e-06
-1.11839506824307e-08
-3.64243024774621e-07
2.90638929102112e-06
-1.08293396556069e-08
-3.73730797777712e-07
2.62041068395788e-06
-6.42152380528565e-09
-3.70004765060324e-07
1.76174080459896e-05
-3.66973248372131e-07
-1.61880872834644e-07
5.3410902807465e-06
-1.14676448862902e-08
-2.41922988022961e-07
3.8750941688237e-06
6.06744107539751e-09
-3.21058126124036e-07
3.52351350684646e-06
-4.12680556415693e-09
-3.8451841223416e-07
3.21604737624537e-06
-9.45649857844955e-09
-4.13059362573399e-07
2.91881713640399e-06
-9.51345805844471e-09
-4.13004667026827e-07
2.6848747005538e-06
-5.54765944190607e-09
-4.0234305051337e-07
1.71436141315047e-05
-3.94865267005905e-07
-1.30173970643392e-07
5.1187968479879e-06
-4.72604746515672e-09
-2.08175167524009e-07
3.67338795675937e-06
1.8678112117005e-08
-2.95894464875097e-07
3.46970730491643e-06
5.71451477153996e-09
-3.78529953125896e-07
3.37872281824464e-06
-4.56022033132652e-09
-4.37189413322652e-07
3.20500452875652e-06
-8.7396632055709e-09
-4.57687402153432e-07
2.96789341285818e-06
-8.38597393605825e-09
-4.4908801010582e-07
2.75397529241895e-06
-4.77049513273893e-09
-4.322133063392e-07
1.19733732975233e-05
-9.55702991106955e-08
-1.47021248227454e-07
1.41111400885884e-05
-1.81744437856668e-07
-1.56800881415235e-07
3.60587287331117e-06
-2.77426307455574e-08
-2.14627156083058e-07
1.54551212758171e-05
-2.49152965209558e-07
-1.66643470207517e-07
4.4050494875816e-06
-4.3821319084734e-08
-2.35051773215129e-07
2.76652323013215e-06
-1.89165842566736e-08
-2.67037545522727e-07
1.69083051727026e-05
-3.03604942505769e-07
-1.74777652417629e-07
4.90463264053778e-06
-4.85538300481781e-08
-2.55105621231512e-07
3.28535736419211e-06
-2.76002634793454e-08
-2.96556878486528e-07
2.62762345201359e-06
-1.33950331599781e-08
-3.13687670835114e-07
1.78363418065251e-05
-3.45867173175309e-07
-1.76554220308164e-07
5.35534187080293e-06
-4.43606467610409e-08
-2.69705621626426e-07
3.68311782035556e-06
-2.61070958917227e-08
-3.25812088869857e-07
3.04257646453149e-06
-1.96692407987344e-08
-3.48992819699604e-07
2.63634339170789e-06
-1.0569362563359e-08
-3.54701603195828e-07
1.80856575759733e-05
-3.76661153435239e-07
-1.72313749670981e-07
5.52380826469089e-06
-3.57353407521763e-08
-2.69505994725127e-07
3.95723148091355e-06
-1.73706000523252e-08
-3.44362156175425e-07
3.39661235343136e-06
-1.90228807094456e-08
-3.84531543637223e-07
2.97876440179727e-06
-1.54895412455978e-08
-3.94441885107374e-07
2.68545095851923e-06
-8.53695022275198e-09
-3.9097125691115e-07
1.78424894153812e-05
-3.97816633055982e-07
-1.68694289896175e-07
5.43299864250673e-06
-2.56566072442717e-08
-2.57409578270901e-07
3.95635245434943e-06
-5.15481898682263e-09
-3.40078845006482e-07
3.60416495836365e-06
-1.31895091367434e-08
-4.05102921876262e-07
3.2910730259064e-06
-1.59408561883501e-08
-4.3415692913632e-07
2.98596746357131e-06
-1.34400205132792e-08
-4.33862250832711e-07
2.74534525152528e-06
-7.34196610193968e-09
-4.23133300320523e-07
1.73508184309295e-05
-4.18729943353377e-07
-1.55455318898727e-07
5.1959751622976e-06
-1.68442353977298e-08
-2.3368850830016e-07
3.74614392241209e-06
7.93510289022403e-09
-3.16549327621327e-07
3.54645916261144e-06
-4.05996073800005e-09
-3.97878215216624e-07
3.4542512562212e-06
-1.25881837247599e-08
-4.5691621710362e-07
3.2748943873687e-06
-1.47719408246063e-08
-4.77691330119257e-07
3.03063861969771e-06
-1.24252893292993e-08
-4.68872809383514e-07
2.81030180537567e-06
-6.66157721944285e-09
-4.52008107385187e-07
1.67797727540906e-05
-4.43119161235487e-07
-1.23262732440276e-07
4.89951088428207e-06
-1.22137309902202e-08
-1.96355158749888e-07
3.43160631881839e-06
1.97568413727173e-08
-2.82302921465006e-07
3.29629232794128e-06
6.45101070733678e-09
-3.71123351517947e-07
3.36788202711785e-06
-6.30048947175135e-09
-4.50670727779124e-07
3.41748617986716e-06
-1.29349326045936e-08
-5.04282077761691e-07
3.31843519119331e-06
-1.40161493446999e-08
-5.17746431038046e-07
3.09586707679997e-06
-1.1238444189542e-08
-5.00969476001574e-07
2.87992837383253e-06
-6.02153784718551e-09
-4.78262144642769e-07
1.22424541217604e-05
-1.10522463457333e-07
-1.58562661300673e-07
1.43923357844549e-05
-2.08573757493573e-07
-1.68202796358535e-07
3.72499330661978e-06
-3.57322538635074e-08
-2.30411434299613e-07
1.57360410781346e-05
-2.84609189900534e-07
-1.78058032244471e-07
4.52978278063851e-06
-5.8314804180199e-08
-2.50965907099939e-07
2.86229410762347e-06
-2.49606921179504e-08
-2.85437917049576e-07
1.71888441595945e-05
-3.43863715720117e-07
-1.85834190202907e-07
5.0311539543112e-06
-6.6034721475774e-08
-2.7095313425685e-07
3.38465138307624e-06
-3.80821334443312e-08
-3.15180643225988e-07
2.71300160093312e-06
-1.79802144782285e-08
-3.34435980589718e-07
1.81069962623204e-05
-3.87915762806418e-07
-1.86342771217541e-07
5.48074964471981e-06
-6.36059460267185e-08
-2.85133508216306e-07
3.78480102944657e-06
-3.91702936734542e-08
-3.45218838395249e-07
3.13034675876815e-06
-2.75424131618746e-08
-3.70179790441985e-07
2.71403021252944e-06
-1.41358708487065e-08
-3.7723858881993e-07
1.83375363098753e-05
-4.18190376564959e-07
-1.79549562631787e-07
5.64178928188743e-06
-5.5155274980632e-08
-2.8373960957439e-07
4.05695827307239e-06
-3.15846336444318e-08
-3.63954157282674e-07
3.48706353781291e-06
-2.90318219672319e-08
-4.0690077339969e-07
3.05817886494445e-06
-2.14759664415351e-08
-4.17500201317089e-07
2.75655632165924e-06
-1.12768697291754e-08
-4.14530000272452e-07
1.8073152622878e-05
-4.37468996108896e-07
-1.69856264472745e-07
5.53850776319962e-06
-4.40789843479381e-08
-2.6948183697077e-07
4.0480311704993e-06
-1.94529445562029e-08
-3.59101175207608e-07
3.69287351494413e-06
-2.43755443659983e-08
-4.2771746377389e-07
3.37286617887397e-06
-2.37319474361684e-08
-4.58081889141264e-07
3.05875342173679e-06
-1.81032780283204e-08
-4.57661098415219e-07
2.81070341829272e-06
-9.46869476884457e-09
-4.46860573021425e-07
1.75669018477114e-05
-4.51377488428074e-07
-1.62533027699225e-07
5.2841467100574e-06
-3.30981527506004e-08
-2.49428831978246e-07
3.82516931712687e-06
-5.58627755537165e-09
-3.36004634174062e-07
3.62848565519074e-06
-1.57368799898777e-08
-4.19558428623359e-07
3.53521882045753e-06
-2.1815853837952e-08
-4.8019551259658e-07
3.35012595205402e-06
-2.13295850709049e-08
-5.01498970489898e-07
3.09803883696309e-06
-1.63875120834736e-08
-4.92216524435907e-07
2.87070123682412e-06
-8.45060223849694e-09
-4.75082127463616e-07
1.69772961833249e-05
-4.67196673253734e-07
-1.49071043723516e-07
4.97340306557152e-06
-2.4456992022569e-08
-2.21741828625781e-07
3.50099867993894e-06
7.76449194599941e-09
-3.02912534000178e-07
3.37124370405718e-06
-5.03113412243832e-09
-3.90531733068533e-07
3.44482065212467e-06
-1.62929434140576e-08
-4.71113100835147e-07
3.49286258067653e-06
-2.10015099826825e-08
-5.26063716450197e-07
3.3884022343563e-06
-2.00517810637716e-08
-5.40032238799572e-07
3.15836413158046e-06
-1.52091342832647e-08
-5.22822616846759e-07
2.93590360859755e-06
-8.02262793981958e-09
-4.99960819949185e-07
1.6390604545688e-05
-4.89774097252864e-07
-1.15557810253201e-07
4.65215280354456e-06
-2.35663169196845e-08
-1.82792538953423e-07
3.13978274513634e-06
1.81701836607269e-08
-2.64839234187092e-07
3.02528371143586e-06
5.83737648835758e-09
-3.53511848844534e-07
3.17722387826263e-06
-8.54430563330008e-09
-4.4130481441082e-07
3.39535537969998e-06
-1.75113493902261e-08
-5.18790664246927e-07
3.53110719692584e-06
-2.0555126359563e-08
-5.68677799568463e-07
3.46062073940582e-06
-1.86981194651624e-08
-5.75748746571498e-07
3.22986378970467e-06
-1.37344816541142e-08
-5.51155073539104e-07
3.00400920943248e-06
-7.14478651643312e-09
-5.22540428643293e-07
1.25418877510941e-05
-1.28385844471684e-07
-1.71049398247975e-07
1.47045044638306e-05
-2.40546257139622e-07
-1.82151971677581e-07
3.85906260040786e-06
-4.46502509479501e-08
-2.47984638932993e-07
1.60456913810294e-05
-3.27382068201806e-07
-1.90851285385479e-07
4.66955962137635e-06
-7.50512567138975e-08
-2.68663322453422e-07
2.97013022250587e-06
-3.21921234279368e-08
-3.06056140655192e-07
1.74958821189196e-05
-3.92764217250498e-07
-1.98885492862633e-07
5.17145747161656e-06
-8.75935810903405e-08
-2.89085278319125e-07
3.49572844955954e-06
-5.08494894207218e-08
-3.36155268318279e-07
2.80867619643395e-06
-2.35099436431499e-08
-3.57602921627453e-07
1.84005024199841e-05
-4.39005911309996e-07
-1.98363389214322e-07
5.61919665802548e-06
-8.74753723143021e-08
-3.02840684136215e-07
3.89811872600744e-06
-5.53538454800764e-08
-3.6700012825029e-07
3.22824588179898e-06
-3.72962368118766e-08
-3.93764233451103e-07
2.80049468996425e-06
-1.85166819031231e-08
-4.02383865115601e-07
1.86075630464841e-05
-4.68095624426386e-07
-1.89847946176935e-07
5.77149917583932e-06
-7.93984941219454e-08
-3.00260377980645e-07
4.16775458070228e-06
-4.9404070218445e-08
-3.85696330811729e-07
3.58750450723799e-06
-4.15255002534543e-08
-4.316772529637e-07
3.14598098973157e-06
-2.8959531741114e-08
-4.43158755570745e-07
2.83494607022403e-06
-1.47066005667814e-08
-4.40921777408861e-07
1.83162971652549e-05
-4.84435089924275e-07
-1.76906271381015e-07
5.65501840366483e-06
-6.7131614953855e-08
-2.84084706743328e-07
4.15012757299285e-06
-3.7458797665596e-08
-3.79961960988299e-07
3.79091322858314e-06
-3.83194032858421e-08
-4.52706615647362e-07
3.46273881595014e-06
-3.34146775442451e-08
-4.84834152520345e-07
3.13836162296859e-06
-2.39586075027985e-08
-4.84426674507258e-07
2.88200802016298e-06
-1.21662310880437e-08
-4.73668251787761e-07
1.77866137011572e-05
-4.92511669864554e-07
-1.64677137252505e-07
5.3853181007827e-06
-5.36412616848034e-08
-2.61468641335968e-07
3.91424428276985e-06
-2.26282300797243e-08
-3.55382304363765e-07
3.71851128129738e-06
-3.01000667685539e-08
-4.43402351844319e-07
3.62341350242348e-06
-3.29188528239513e-08
-5.06725085729781e-07
3.43189381816021e-06
-2.9079485683196e-08
-5.28873275682747e-07
3.17098617736779e-06
-2.10544083008083e-08
-5.19022402028092e-07
2.93589525633888e-06
-1.05670204112733e-08
-5.0148734900239e-07
1.7182709540707e-05
-5.00867285145835e-07
-1.5593160280925e-07
5.05692815661528e-06
-4.172500258028e-08
-2.37434771606195e-07
3.57578228673272e-06
-7.47874988753661e-09
-3.22322511344396e-07
3.45086487563397e-06
-1.89670151019893e-08
-4.1239664061143e-07
3.52694729444984e-06
-2.81102519479725e-08
-4.9539073968317e-07
3.57379264666894e-06
-3.02847118758128e-08
-5.52170253589691e-07
3.463787235845e-06
-2.6658577980082e-08
-5.66612608376816e-07
3.22556563955929e-06
-1.92019781680517e-08
-5.48666311297866e-07
2.99586653688056e-06
-9.76128560646171e-09
-5.252837355629e-07
1.65775894693511e-05
-5.11901610209075e-07
-1.42293183344264e-07
4.72218502927026e-06
-3.52388699342621e-08
-2.08332497819111e-07
3.20522190518821e-06
5.67596341584007e-09
-2.85096407275609e-07
3.09678926925131e-06
-6.96501509062169e-09
-3.72487610627625e-07
3.25226256801987e-06
-2.02968159626491e-08
-4.6156841206912e-07
3.47202850665998e-06
-2.75813442592963e-08
-5.41207115488514e-07
3.60650241839589e-06
-2.86675495598831e-08
-5.9284370783216e-07
3.53050554229539e-06
-2.47380837902168e-08
-6.00388333437257e-07
3.29189675115091e-06
-1.77167000953048e-08
-5.75161562598549e-07
3.05930101803917e-06
-9.11175946194711e-09
-5.46140905545264e-07
1.60099787064517e-05
-5.34733992758635e-07
-1.07763673519589e-07
4.40513064169667e-06
-3.94737332126979e-08
-1.68199334631067e-07
2.82730489133565e-06
1.36623093331073e-08
-2.45407523571362e-07
2.71186962327433e-06
3.65580517686694e-09
-3.31409274455779e-07
2.89846536645442e-06
-1.13557202386544e-08
-4.20263407740129e-07
3.20028559555548e-06
-2.2121719611855e-08
-5.07828653559122e-07
3.50988805952085e-06
-2.73169309911133e-08
-5.84335924308733e-07
3.68374882334867e-06
-2.7037581810131e-08
-6.31064440350455e-07
3.6137203637686e-06
-2.25337571793093e-08
-6.31987931724637e-07
3.36340955258021e-06
-1.56928254527817e-08
-5.99708968584838e-07
3.1218284986779e-06
-7.85587294590687e-09
-5.65030803524543e-07
1.28760061856543e-05
-1.49137381456157e-07
-1.84985684014573e-07
1.50522534214179e-05
-2.79312867174618e-07
-1.9683481245507e-07
4.01045926960524e-06
-5.52273139651738e-08
-2.67221220354013e-07
1.63889902276027e-05
-3.780872169502e-07
-2.0576111433191e-07
4.82601568894792e-06
-9.48562073460364e-08
-2.88405651207456e-07
3.09180867431372e-06
-4.07182373462276e-08
-3.28945220579535e-07
1.78345246622189e-05
-4.51716937134261e-07
-2.14315032547994e-07
5.3282526285516e-06
-1.1327982041666e-07
-3.09420190897944e-07
3.62045889258167e-06
-6.60615812444379e-08
-3.59525924337992e-07
2.91622288972034e-06
-3.0266570947948e-08
-3.83336711668892e-07
1.87212791675261e-05
-5.00738011268102e-07
-2.12806789947883e-07
5.77253338445082e-06
-1.16655824914079e-07
-3.23163575594119e-07
4.02466717775492e-06
-7.50748162173229e-08
-3.9140944461023e-07
3.33783199776354e-06
-4.91454745084301e-08
-4.20106955508351e-07
2.89710702873529e-06
-2.38069962385497e-08
-4.30408625628786e-07
1.88997455921861e-05
-5.28844723530451e-07
-2.02349441593724e-07
5.91433122852771e-06
-1.09378434295489e-07
-3.1929502435453e-07
4.29104978059041e-06
-7.13976837282387e-08
-4.10093171535418e-07
3.69932674100048e-06
-5.68410716596902e-08
-4.5927818720566e-07
3.24357378488033e-06
-3.81287232151173e-08
-4.71745719971637e-07
2.92188072829687e-06
-1.88956509680414e-08
-4.70423026896112e-07
1.85757744283622e-05
-5.40361960676192e-07
-1.87212940881922e-07
5.78261271741161e-06
-9.57481709790979e-08
-3.01094320940918e-07
4.26345735237164e-06
-5.98505416128099e-08
-4.0314446892063e-07
3.89964022359071e-06
-5.55408302585525e-08
-4.80408406109045e-07
3.56210062785831e-06
-4.53464671301861e-08
-5.14652436622369e-07
3.22607018983628e-06
-3.11922640684517e-08
-5.14381824744632e-07
2.96038698791559e-06
-1.55010563396673e-08
-5.03799687935034e-07
1.80161277165037e-05
-5.42581748279017e-07
-1.71374387288262e-07
5.4966960298175e-06
-7.94241685719556e-08
-2.75994718294465e-07
4.01321804837885e-06
-4.38958686275096e-08
-3.7662298249483e-07
3.8178294410269e-06
-4.78161727488945e-08
-4.6978388936939e-07
3.72025608379308e-06
-4.64997607583148e-08
-5.3646420574228e-07
3.52141609286005e-06
-3.85524001069699e-08
-5.59762533981075e-07
3.25056905005403e-06
-2.6834644153852e-08
-5.49340806406182e-07
3.00686871972613e-06
-1.32218713166473e-08
-5.31419782708621e-07
1.73897992555062e-05
-5.42523983211766e-07
-1.57089662571565e-07
5.15199300161264e-06
-6.39248654983649e-08
-2.494615260841e-07
3.65982204736257e-06
-2.65626317797754e-08
-3.41575681174991e-07
3.5379302971573e-06
-3.60799633307901e-08
-4.36469310289257e-07
3.61615613078234e-06
-4.23739621548014e-08
-5.23156540594591e-07
3.66165979204468e-06
-4.1319156742769e-08
-5.82352461074825e-07
3.54560322898925e-06
-3.44068424606838e-08
-5.97336391770148e-07
3.29827556480114e-06
-2.38835039380461e-08
-5.78415354284594e-07
3.06049739389452e-06
-1.18288577801801e-08
-5.54289194277869e-07
1.67708654310895e-05
-5.44339952307458e-07
-1.4981067092478e-07
4.80051100881606e-06
-5.21325573212988e-08
-2.23854470602411e-07
3.27499673720165e-06
-1.04913396460772e-08
-3.04199778982627e-07
3.17216002744401e-06
-2.26470339395448e-08
-3.9401570605796e-07
3.33195669329345e-06
-3.43758106169637e-08
-4.85826059012375e-07
3.55406450561584e-06
-3.94512789298492e-08
-5.68260257699339e-07
3.68756409951872e-06
-3.80095286593976e-08
-6.21880757175937e-07
3.60583198100402e-06
-3.13848489301048e-08
-6.29755978787957e-07
3.35862786262232e-06
-2.17111788803268e-08
-6.03447200324463e-07
3.11849916005263e-06
-1.08568433737012e-08
-5.73624944622781e-07
1.61856925108346e-05
-5.52537331530897e-07
-1.35093539376794e-07
4.47147250770778e-06
-4.98003024588842e-08
-1.94083585401145e-07
2.88859378715461e-06
1.32182817466436e-09
-2.65271221586241e-07
2.77949758404674e-06
-9.96924353898397e-09
-3.49724156403314e-07
2.97006623735098e-06
-2.4525763215355e-08
-4.39861612408894e-07
3.27506154880759e-06
-3.39968171384818e-08
-5.29929999933496e-07
3.58660696163152e-06
-3.74697878082408e-08
-6.09124043302309e-07
3.75911945643223e-06
-3.51959339434254e-08
-6.57756574224043e-07
3.68324086642324e-06
-2.85902204532183e-08
-6.59035537843319e-07
3.42468345832405e-06
-1.96897177347659e-08
-6.2585744328533e-07
3.17603907571092e-06
-9.90987318327488e-09
-5.90441679824993e-07
1.56471779177013e-05
-5.76670855566907e-07
-1.00899459793709e-07
4.17928516997432e-06
-6.07505526739776e-08
-1.53426769067133e-07
2.51059493364866e-06
5.73528193511178e-09
-2.248692293503e-07
2.37990429485109e-06
-3.3564108734194e-10
-3.06964050580467e-07
2.5825399228627e-06
-1.4892619046705e-08
-3.94131561436282e-07
2.92069238396505e-06
-2.67978847680165e-08
-4.83808312767129e-07
3.3151803541878e-06
-3.38652623032081e-08
-5.72019584597083e-07
3.66848769185861e-06
-3.55207028921332e-08
-6.47976182328141e-07
3.85114622257218e-06
-3.22172406360558e-08
-6.91683010691669e-07
3.76704645804207e-06
-2.54154181310557e-08
-6.86492080496733e-07
3.49081695184312e-06
-1.69857398462549e-08
-6.46407049842711e-07
3.22889376779194e-06
-8.11103467186621e-09
1.32493040281363e-05
-1.72638539625935e-07
-2.00661104731947e-07
1.54409097491076e-05
-3.24908326594051e-07
-2.12899519243856e-07
4.18153720948399e-06
-6.78476318539858e-08
-2.88218047355431e-07
1.6772430031247e-05
-4.38743726809464e-07
-2.24016118201148e-07
5.00174215582342e-06
-1.17738300164586e-07
-3.10053947890735e-07
3.22936323424951e-06
-5.07390202538877e-08
-3.54037706783031e-07
1.8209344623702e-05
-5.22504348655284e-07
-2.30411933608348e-07
5.50403029195159e-06
-1.44252264609079e-07
-3.32146447457519e-07
3.7607853105655e-06
-8.40951606563186e-08
-3.85356900656056e-07
3.0374025436324e-06
-3.8396710352482e-08
-4.11728786415838e-07
1.90745317906144e-05
-5.75128440648214e-07
-2.29846499174461e-07
5.94302010371179e-06
-1.51854364555417e-07
-3.46229068382449e-07
4.16652017725367e-06
-9.8738254116775e-08
-4.18598839919744e-07
3.46076995555034e-06
-6.33537721153694e-08
-4.493779875384e-07
3.00540357028332e-06
-3.01217569293511e-08
-4.61512003780734e-07
1.92183156421416e-05
-6.01768229247344e-07
-2.17546253831822e-07
6.07215541561456e-06
-1.45997255949751e-07
-3.41290380017661e-07
4.42852860358072e-06
-9.82025005064366e-08
-4.37516194629486e-07
3.82416749320357e-06
-7.53901930195643e-08
-4.90007176288494e-07
3.35245981711255e-06
-4.92369363674605e-08
-5.03563999741768e-07
3.01871757615173e-06
-2.39427854954121e-08
-5.03303050128911e-07
1.88554049911521e-05
-6.08623499019106e-07
-1.99858621009517e-07
5.92265126336989e-06
-1.31068624143634e-07
-3.20701677067333e-07
4.38936002934082e-06
-8.74117021903019e-08
-4.29185345575239e-07
4.02057742161776e-06
-7.65868570909696e-08
-5.11285217726409e-07
3.67245657323977e-06
-5.98745016988717e-08
-5.4788909581091e-07
3.3232443407883e-06
-3.9991824319878e-08
-5.47824203251214e-07
3.04704606224059e-06
-1.95474415755254e-08
-5.37534739021309e-07
1.8259505493893e-05
-6.02394965616512e-07
-1.81354854329187e-07
5.61809928050166e-06
-1.11416420060896e-07
-2.92952045344032e-07
4.12276928388937e-06
-7.02543016961107e-08
-4.00242831809593e-07
3.9277738911593e-06
-6.95723206393817e-08
-4.99058526377734e-07
3.82722649979485e-06
-6.30779438438487e-08
-5.69648278603409e-07
3.62005095474203e-06
-5.01033185551608e-08
-5.94376625406624e-07
3.33800256557881e-06
-3.39126144805135e-08
-5.83403903908583e-07
3.08469225620144e-06
-1.64790903420223e-08
-5.65144109657784e-07
1.7603282635628e-05
-5.9295956580668e-07
-1.63107241365145e-07
5.25635485715201e-06
-9.14589236333255e-08
-2.63705189135539e-07
3.75287626281329e-06
-5.03195402040097e-08
-3.62627189752094e-07
3.63369349124429e-06
-5.70878997646855e-08
-4.63115458659796e-07
3.71391080075147e-06
-5.9706746357322e-08
-5.54331568325479e-07
3.75779004397098e-06
-5.46519791263765e-08
-6.16494965475396e-07
3.63496390703712e-06
-4.37813622897533e-08
-6.32176260513688e-07
3.37748762498611e-06
-2.96255025604126e-08
-6.12149066690348e-07
3.13074222362612e-06
-1.44645833922803e-08
-5.87199801247254e-07
1.6964273901757e-05
-5.84956083695947e-07
-1.50986945340337e-07
4.88908418739966e-06
-7.42098326548678e-08
-2.35384982208662e-07
3.35294581638173e-06
-3.08728563412004e-08
-3.23102893473769e-07
3.25413809273869e-06
-4.18936816760347e-08
-4.17741680929842e-07
3.41817116038565e-06
-5.13987497397445e-08
-5.13659418937446e-07
3.6428903054941e-06
-5.36334610016337e-08
-5.99667903824836e-07
3.77546018546364e-06
-4.90389440778806e-08
-6.55615980075002e-07
3.68750643264495e-06
-3.91444936575804e-08
-6.63749267297333e-07
3.43077179207288e-06
-2.63758673061819e-08
-6.36011759260035e-07
3.18222366977725e-06
-1.29221739747656e-08
-6.05091306816308e-07
1.63660254242635e-05
-5.81269805332155e-07
-1.43415498416609e-07
4.54466397454281e-06
-6.54404180259793e-08
-2.09700491503922e-07
2.95303861435415e-06
-1.48455020076449e-08
-2.83948491376805e-07
2.85007711415374e-06
-2.67624567863876e-08
-3.70666796388075e-07
3.04562019611221e-06
-4.04046046721919e-08
-4.63541970298075e-07
3.35473952928978e-06
-4.81433346592313e-08
-5.568118195998e-07
3.66885110056839e-06
-4.94124458293931e-08
-6.39101348502212e-07
3.84020832941508e-06
-4.45879956671147e-08
-6.89766191363877e-07
3.75816726430062e-06
-3.52519577508413e-08
-6.91141221947655e-07
3.49056450061329e-06
-2.3687069995176e-08
-6.56497551087874e-07
3.23406781124912e-06
-1.16403363233301e-08
-6.20013192936326e-07
1.58109821209648e-05
-5.8788426560128e-07
-1.28472183104917e-07
4.24266273199649e-06
-6.86163518933856e-08
-1.79665763835362e-07
2.56794032795965e-06
-5.77863857030119e-09
-2.44334211982189e-07
2.44334757730649e-06
-1.42111840879893e-08
-3.24477043374034e-07
2.65016627359012e-06
-2.90577784662474e-08
-4.12821110257449e-07
2.99208005099622e-06
-4.0162287930541e-08
-5.05084782263052e-07
3.3900548168096e-06
-4.58671831492727e-08
-5.96407333853736e-07
3.745245425385e-06
-4.57517392056313e-08
-6.75326304364443e-07
3.92619637576212e-06
-4.04104449885625e-08
-7.20986445737453e-07
3.83581077536168e-06
-3.14912156204243e-08
-7.1599823772103e-07
3.55077161654399e-06
-2.10691631524944e-08
-6.74652788537844e-07
3.28139890012656e-06
-1.03359876189626e-08
-6.32610863448812e-07
1.52930971473946e-05
-6.1566940742012e-07
-9.40729923659958e-08
3.99364953990318e-06
-8.85065267941079e-08
-1.39518909785816e-07
2.20431412296741e-06
-6.24320728595324e-09
-2.04167982866408e-07
2.04265062979167e-06
-6.56933513156931e-09
-2.81286426178962e-07
2.24956735535285e-06
-1.94481583778128e-08
-3.65413051533356e-07
2.6057273746129e-06
-3.1692314931337e-08
-4.54117709923455e-07
3.03578841703994e-06
-4.01663468324677e-08
-5.45328869983925e-07
3.47591066520568e-06
-4.36647982299528e-08
-6.34458411276817e-07
3.84356382626797e-06
-4.20260074826439e-08