/*--------------------------------*- C++ -*----------------------------------*\
  =========                 |
  \\      /  F ield         | OpenFOAM: The Open Source CFD Toolbox
   \\    /   O peration     | Website:  https://openfoam.org
    \\  /    A nd           | Version:  12
     \\/     M anipulation  |
\*---------------------------------------------------------------------------*/
/*   Windows 32 and 64 bit porting by blueCAPE: http://www.bluecape.com.pt   *\
|  Based on Windows porting (2.0.x v4) by Symscape: http://www.symscape.com   |
\*---------------------------------------------------------------------------*/
FoamFile
{
    format      ascii;
    class       volVectorField;
    location    "100";
    object      U;
}
// * * * * * * * * * * * * * * * * * * * * * * * * * * * * * * * * * * * * * //

dimensions      [0 1 -1 0 0 0 0];

internalField   nonuniform List<vector> 
10140
(
(1.77710699642463e-06 0.000605225577918791 2.38762236099256e-05)
(4.19861846218147e-06 0.000623671623149338 2.81950951739644e-05)
(9.14895689282336e-06 0.000277563854095164 2.17788683033827e-05)
(2.36057442315777e-06 0.000710351253820297 4.62176000902136e-05)
(5.93796709474159e-06 0.000645315527887667 3.24009234617071e-05)
(1.35610822564279e-05 0.000278768020306248 2.74721424124634e-05)
(3.13006396379269e-06 0.000730225728659382 5.19453896764725e-05)
(1.95480132510672e-05 0.000161100456728533 2.08623384964301e-05)
(8.97390352332457e-06 0.000499343740477568 4.45407567851422e-05)
(1.64102523762804e-06 0.000912428464490791 7.52228952077619e-05)
(5.58593105360149e-06 0.000670687265645839 3.57057648847903e-05)
(1.64178014028255e-05 0.000295944256887601 3.2836654973725e-05)
(3.48310167751925e-06 0.000752933622396569 5.77717550839564e-05)
(2.32234668450115e-05 0.000154671541799671 2.85249592136787e-05)
(9.24360721648598e-06 0.000508068334079369 5.14910929448979e-05)
(1.69530514231827e-06 0.000936552677023669 8.15901508394939e-05)
(3.10762059000005e-05 8.51631927796753e-05 2.00673419447948e-05)
(1.72423522491457e-05 0.000402155095797668 4.32122566577135e-05)
(5.55020052798082e-06 0.000809488359446002 7.41577154317525e-05)
(1.04530421384986e-06 0.00103767769885124 0.000105879138970445)
(4.77039700895351e-06 0.000702254732980709 3.89740110297249e-05)
(1.53083290657828e-05 0.000318200651712725 3.58341442392804e-05)
(3.1194557651149e-06 0.000778558544688939 6.28712388782219e-05)
(2.46270669958924e-05 0.000169268310139088 3.44790878815973e-05)
(1.04930103140908e-05 0.000525198990433269 5.6992141749698e-05)
(1.54488702101184e-06 0.000962682149200937 8.83682171134549e-05)
(3.29273052701645e-05 7.5541688071249e-05 2.87821861121301e-05)
(1.77657441208606e-05 0.000404480432701366 5.03927634825541e-05)
(5.4407003088346e-06 0.000827299687291278 8.07697286546793e-05)
(8.57341760728033e-07 0.00106384908689063 0.000112940511395267)
(4.25817547183579e-05 -1.07478154529519e-05 1.89992523103307e-05)
(2.65250692032678e-05 0.000326207947742056 4.20367478847144e-05)
(1.07805663089018e-05 0.000741617493519474 7.29932629902549e-05)
(3.21575933482798e-06 0.000973937871778452 0.000104820304254438)
(5.26181275255655e-07 0.00114993672300839 0.000136282415535621)
(3.98195096884584e-06 0.000739156193773658 4.25368103059563e-05)
(1.3264879109575e-05 0.000347021223496716 3.91524993623565e-05)
(2.57307731076707e-06 0.000808365533348417 6.79498871343177e-05)
(2.25857720397179e-05 0.000189901724932715 3.73188540030176e-05)
(9.30813685705407e-06 0.000548047076701615 6.20507491946388e-05)
(1.12607661115409e-06 0.000991574531759501 9.51659715597827e-05)
(3.26997202838137e-05 8.85383438399994e-05 3.52984407525295e-05)
(1.75712033091839e-05 0.000418114796529372 5.66735964896491e-05)
(4.83281008115348e-06 0.000850162933622536 8.74282874855313e-05)
(5.5548801314545e-07 0.00109213084905859 0.000120855929801867)
(4.28460003565052e-05 -2.27423482779777e-05 2.83504239101568e-05)
(2.62806988249478e-05 0.000325135229808258 4.94419615148472e-05)
(1.01355689940798e-05 0.000755214643592843 7.97084035197066e-05)
(2.56698394017649e-06 0.000996467866411229 0.000111910945873899)
(2.50381777846051e-07 0.00117744417156944 0.000144202183054726)
(5.38636366430538e-05 -0.000131518635113866 1.7342851672035e-05)
(3.60038924509145e-05 0.000234278549443487 3.97922183811693e-05)
(1.65335757547993e-05 0.000672851262173499 7.12450578694463e-05)
(6.23375997954381e-06 0.000919854212563171 0.000103469234514484)
(1.42424555372493e-06 0.00109959955313907 0.000134746757227617)
(3.78879428311155e-08 0.0012627301705135 0.000166170935536198)
(3.22573827847071e-06 0.000781737061993671 4.6549198063653e-05)
(1.11348860386098e-05 0.000380748473217324 4.33110562858165e-05)
(1.89911019814487e-06 0.000842571631023049 7.34515656496825e-05)
(1.93688781356486e-05 0.000217595704184462 4.07501797094054e-05)
(7.96707364251249e-06 0.000575684573152424 6.71601024110096e-05)
(5.67563395010123e-07 0.00102412353001874 0.000102360853665716)
(2.97045272294262e-05 0.000107785718243436 3.80767777872403e-05)
(1.5622978406982e-05 0.000439347254475555 6.16756122060142e-05)
(3.508728359025e-06 0.000877535135846331 9.43232975884899e-05)
(1.31321058546668e-07 0.0011230902167613 0.000129355903275368)
(4.10298249873885e-05 -1.15835787369337e-05 3.5249687994061e-05)
(2.49946511308279e-05 0.000336345873891736 5.61440454305069e-05)
(8.79631855362801e-06 0.000775702679568259 8.63758404572972e-05)
(1.56016069693986e-06 0.00102278462037154 0.000119833312952441)
(-1.01517256933921e-07 0.00120723957979179 0.000153317526792405)
(5.30220385823636e-05 -0.000146392965599281 2.68939383155063e-05)
(3.48292203165365e-05 0.000230742808858278 4.74791562760562e-05)
(1.51002471826748e-05 0.000683870813279751 7.81127670819038e-05)
(4.99828100035326e-06 0.000939401135578778 0.000110413481376021)
(5.67689743309833e-07 0.00112448906654669 0.000142609908224114)
(-2.6936821141225e-07 0.00129129566414025 0.00017514127432163)
(6.42607682607292e-05 -0.000275076157727526 1.48316018654747e-05)
(4.51930472254014e-05 0.000124408748561924 3.64426778699802e-05)
(2.2488499864847e-05 0.000585292600004611 6.7996987112891e-05)
(9.50137033706689e-06 0.000855593484303114 0.000101096652881807)
(2.79621888420885e-06 0.00104978545048131 0.000132921296222768)
(-4.76051262829335e-08 0.00121542580210989 0.000163893939141837)
(-3.93159066880543e-07 0.00137535718701466 0.000195413544755537)
(2.44308792601977e-06 0.000830986359755901 5.1388980164558e-05)
(8.62857830269836e-06 0.000419626353331428 4.85487590144233e-05)
(9.78781694621183e-07 0.000881771079919313 7.97689288670988e-05)
(1.56656002744398e-05 0.000249923389863801 4.49435477201704e-05)
(6.57916653434813e-06 0.000607644075620685 7.26815003379158e-05)
(-1.13491996025995e-07 0.00106088824922371 0.000110228229326759)
(2.5393187381092e-05 0.000134573950207398 4.15190184129953e-05)
(1.2814793604234e-05 0.000465682653044383 6.71304230202637e-05)
(1.81505834857215e-06 0.00090889625268621 0.000101808502170727)
(-3.98879931302877e-07 0.00115747898605208 0.00013863593204204)
(3.68302329252206e-05 5.77187331091611e-06 3.79910945773292e-05)
(2.21989451150129e-05 0.000356140451256575 6.12530480341474e-05)
(6.57108962151095e-06 0.000801890684317669 9.33086560649467e-05)
(2.04412453858553e-07 0.00105279269340401 0.0001285099213659)
(-5.27942661369757e-07 0.0012397166470091 0.000163470034849591)
(4.97563820957536e-05 -0.000136987027508974 3.41495552734129e-05)
(3.24912917703221e-05 0.000239795590938408 5.44866031497296e-05)
(1.291589844666e-05 0.000702465154385412 8.48830270232249e-05)
(3.22961787262565e-06 0.000963943784270364 0.000118223092036368)
(-5.59581772158934e-07 0.00115279275875127 0.00015174689455516)
(-6.39525882098928e-07 0.00132228572451476 0.000185568043558719)
(6.28458967818891e-05 -0.000292815536128934 2.45031438688346e-05)
(4.33207977367122e-05 0.000118695140780366 4.42630530017065e-05)
(2.02714973749413e-05 0.000594296338723885 7.49320127482308e-05)
(7.50361303997319e-06 0.00087330609535258 0.000108087575956645)
(1.30785042121701e-06 0.00107255925398321 0.000140660756488652)
(-9.73549317239687e-07 0.00124187130772202 0.000172767577325387)
(-7.09219862810303e-07 0.00140470770410353 0.000205494954020797)
(7.35135291005744e-05 -0.000437614062611004 1.28746229731014e-05)
(5.36589347323056e-05 -9.84256546447161e-07 3.19746730548656e-05)
(2.82940333097646e-05 0.000478894356875616 6.31180893465747e-05)
(1.2930596914225e-05 0.000770151564207464 9.67501925607536e-05)
(4.31936454271464e-06 0.000985792628876307 0.000129784281401955)
(8.50325468351092e-08 0.00116491266302846 0.000161336348441835)
(-1.25585550367763e-06 0.00132692754352588 0.00019225915109482)
(-7.39966244744063e-07 0.00148418354011162 0.000223804914382691)
(1.54525359484559e-06 0.000887900495899002 5.72377987320341e-05)
(5.70357860633281e-06 0.000464665555863223 5.44711968658744e-05)
(-1.12758909260609e-07 0.000926676506408982 8.70859787641333e-05)
(1.1386398186497e-05 0.000287029502667875 5.00142991892422e-05)
(3.93042542187382e-06 0.000644252806826695 7.94706299185515e-05)
(-9.45505895160076e-07 0.00110251718737075 0.000119038608510311)
(2.014702018363e-05 0.000165893150870655 4.57358797098205e-05)
(9.43386820840283e-06 0.000496175841779951 7.31817471850238e-05)
(-2.36690968987724e-07 0.000944437968521274 0.00011000857823554)
(-1.05165032854248e-06 0.0011959309332136 0.000148896970658863)
(3.12947960595294e-05 3.09952487911585e-05 4.1506063266859e-05)
(1.82776361435061e-05 0.000381263054656432 6.6881061397047e-05)
(3.67488336292676e-06 0.000832279484556527 0.000100968089329174)
(-1.46161330977173e-06 0.00108641095668781 0.000138089512988141)
(-1.04383830224936e-06 0.0012755315130195 0.000174767866259921)
(4.43089952004867e-05 -0.000122030271779607 3.69072682439213e-05)
(2.87473520898467e-05 0.000257889154200139 5.96968751790966e-05)
(9.73483504519878e-06 0.000727413215722652 9.18939801291786e-05)
(8.80606368783124e-07 0.000993028903805021 0.000126950878543203)
(-1.92882983459792e-06 0.00118450137916954 0.000162071034120743)
(-1.07147266452454e-06 0.00135597580972062 0.000197371473283566)
(5.85426608176677e-05 -0.000285270544906027 3.19997745014443e-05)
(4.00858501656484e-05 0.00012567890728559 5.14663059160634e-05)
(1.72016849335655e-05 0.000611056233500703 8.17657038036609e-05)
(4.86981853513195e-06 0.000896418495540938 0.00011592834884561)
(-6.3297156944174e-07 0.00109954058432228 0.000149745913162232)
(-2.14012567249501e-06 0.00127158779418699 0.000183205412544675)
(-1.08728816624672e-06 0.0014365708202018 0.000217269197097053)
(7.15131784655133e-05 -0.000458389871281081 1.98314331938844e-05)
(5.13343754500144e-05 -8.71844754412346e-06 3.98381242467474e-05)
(2.54323456506022e-05 0.000486060407306916 7.00088474556362e-05)
(1.01745263486443e-05 0.000786239424840051 0.00010367422943961)
(2.06083647275063e-06 0.00100701010301284 0.000137423777252382)
(-1.50314503405698e-06 0.00118957841266823 0.000170048915570131)
(-2.21603802234013e-06 0.00135452877463154 0.000202230232960245)
(-1.05838673747909e-06 0.0015141628383333 0.000235043455176454)
(8.0700769738381e-05 -0.000616172821299284 9.29593540199563e-06)
(6.09234305353315e-05 -0.00013935798772814 2.66089797793112e-05)
(3.36255552420549e-05 0.000356326547933587 5.67455263184976e-05)
(1.62989380534382e-05 0.000664867440262841 9.03804411776832e-05)
(5.93126302941257e-06 0.000899816060292486 0.000124367580963538)
(2.83420640360585e-07 0.00109876903757636 0.000157358631178326)
(-2.08424937413285e-06 0.00127396394827506 0.00018895409179846)
(-2.251985456533e-06 0.00143427921432764 0.000219969171113665)
(-9.89776749046479e-07 0.00158659030515621 0.000251379849577177)
(3.72821193853571e-07 0.000953682326479594 6.37338917578481e-05)
(2.42463889742928e-06 0.000516953254708626 6.12664279228459e-05)
(-1.33399080406816e-06 0.000978058210795855 9.54298476019051e-05)
(6.29362814151844e-06 0.000329979870823127 5.6043840328295e-05)
(2.27298657805662e-07 0.000686198041065046 8.75157411304305e-05)
(-1.95477436323395e-06 0.00114968783951725 0.000129021050805127)
(1.38223998337018e-05 0.000201737187041058 5.09355991048706e-05)
(5.2557704149637e-06 0.000531146389351719 8.01279232763823e-05)
(-2.79439582369531e-06 0.000984715345389516 0.000119190710477658)
(-1.84810839982643e-06 0.00123908868780404 0.000160365400330315)
(2.43739780322055e-05 6.06398558589431e-05 4.57904518046963e-05)
(1.33178906756585e-05 0.000410394494636207 7.31482721142719e-05)
(9.84101864871787e-08 0.000866759168713608 0.000109431632532139)
(-3.49488795362049e-06 0.00112405546879435 0.000148698285354973)
(-1.67636670067179e-06 0.00131530448955898 0.000187374888915927)
(3.75609592916722e-05 -9.90625705016826e-05 4.05027678415153e-05)
(2.37096337917917e-05 0.000281352851396696 6.54405644590425e-05)
(5.5974762235043e-06 0.00075663588434574 9.96832083473161e-05)
(-2.03819690496402e-06 0.00102591339750418 0.000136727517340166)
(-3.57089810883144e-06 0.00121969948964832 0.000173641173340015)
(-1.58628327070278e-06 0.00139294466530373 0.000210640293901723)
(5.21050866672232e-05 -0.000273162360519399 3.47779852335174e-05)
(3.5428412307195e-05 0.0001417980455858 5.67330376581399e-05)
(1.30314108004786e-05 0.000634431279354995 8.88285262778048e-05)
(1.45977917318122e-06 0.000924431887165884 0.000124703642081895)
(-3.04091838911298e-06 0.00113045007869856 0.000160129920760287)
(-3.51931807357737e-06 0.00130455535678795 0.000195143358790516)
(-1.52525324109692e-06 0.00147115356131871 0.000230708731527181)
(6.671296317357e-05 -0.000452668888633979 2.69407471226702e-05)
(4.74610722552667e-05 -3.8022347797124e-06 4.71253901535966e-05)
(2.1559367133945e-05 0.000500959265041639 7.68281922387062e-05)
(6.65821520120028e-06 0.000807806245770319 0.000111479482589576)
(-7.77218012391618e-07 0.00103272729915692 0.000146442846395119)
(-3.51154495853849e-06 0.00121811017624603 0.000180410935897967)
(-3.40174296485721e-06 0.00138528068514547 0.000213996885778321)
(-1.43701309384542e-06 0.00154665469964239 0.000248182812680966)
(7.88152853749227e-05 -0.000639623934641416 1.59456918443791e-05)
(5.84285378540192e-05 -0.000149074411433468 3.42915945022416e-05)
(3.03010895267629e-05 0.00036169902132643 6.35210993464308e-05)
(1.28726660661649e-05 0.000679359249534351 9.71371525623549e-05)
(2.90821683906142e-06 0.000919592245705012 0.0001318437439815)
(-2.09926609997939e-06 0.00112203318482316 0.000165895949282997)
(-3.73259359161574e-06 0.00129987412144744 0.000198712804358273)
(-3.22738078846869e-06 0.00146251111421755 0.000231016689601347)
(-1.30614987243254e-06 0.00161685573695853 0.000263742492786612)
(8.56647944545304e-05 -0.000808751218932448 4.69108761144215e-06)
(6.6528551212341e-05 -0.000288411804491321 2.03200724113909e-05)
(3.81884579481423e-05 0.000220498087089854 4.91054570873622e-05)
(1.93974789792117e-05 0.0005431567010707 8.22297420293952e-05)
(7.53109272189126e-06 0.000793989282913496 0.000116661052430225)
(5.06572472442737e-07 0.00101099856596961 0.000150924244612819)
(-2.96735167803445e-06 0.0012049199771886 0.000184142939944239)
(-3.84258400687848e-06 0.0013784552080562 0.000215920158150885)
(-3.0268933600985e-06 0.00153529616384035 0.000246930590791732)
(-1.18418403848392e-06 0.00168045579588192 0.0002781106542387)
(-1.12444170431164e-06 0.00102964083004047 7.08356721245123e-05)
(-1.49032635737818e-06 0.00057766169205604 6.9104766715903e-05)
(-2.72324924957651e-06 0.00103689177323112 0.000104827823526716)
(1.53816040742602e-07 0.000379843138830118 6.31827566538395e-05)
(-3.64289105607012e-06 0.00073438188422397 9.64565205435974e-05)
(-3.15914423989507e-06 0.00120318063584017 0.000140284332513874)
(6.15879312033176e-06 0.00024313552024314 5.71859938808783e-05)
(2.58181435593637e-08 0.00057123505427124 8.81529899847683e-05)
(-5.92608682941016e-06 0.00103037822554883 0.000129613727897565)
(-2.81099530338383e-06 0.00128764702681214 0.000173246878892545)
(1.59378164193874e-05 9.44992005757956e-05 5.10616474307867e-05)
(7.16148927180087e-06 0.000443769695901326 8.02797191684185e-05)
(-4.2936036790854e-06 0.000905826903061231 0.000118926479829219)
(-5.97547383569791e-06 0.00116631801255972 0.000160550357811507)
(-2.44825942272597e-06 0.00135965898078291 0.000201484301160224)
(2.91603675266784e-05 -7.19252642717499e-05 4.48894946989075e-05)
(1.73000617848108e-05 0.000308627516195743 7.18246454218893e-05)
(4.34330236830594e-07 0.00078979687025634 0.000108300890223229)
(-5.61115810905681e-06 0.00106282746859224 0.000147629754670298)
(-5.56216329117243e-06 0.00125885221735725 0.000186579502071886)
(-2.20977156159211e-06 0.00143378208533309 0.000225528458303028)
(4.43409299595902e-05 -0.000253021641694444 3.83733193653514e-05)
(2.93457217755421e-05 0.000163174303722088 6.25336099484503e-05)
(7.67036387937507e-06 0.000662032343375139 9.66854542547467e-05)
(-2.79082761897297e-06 0.000956219470728654 0.000134557385511489)
(-5.96150325134823e-06 0.00116491829421486 0.000171838484017999)
(-5.15506654649314e-06 0.00134091840776163 0.000208623092951592)
(-2.04392325619027e-06 0.00150898306082729 0.000245907769941615)
(5.99770507692175e-05 -0.000443736687706537 3.12068332068325e-05)
(4.21103118934291e-05 1.00885194693586e-05 5.23832679927309e-05)
(1.64666738878037e-05 0.000522468577665184 8.38737752925596e-05)
(2.18643129983758e-06 0.00083438636540804 0.000120235854048661)
(-4.29426993569734e-06 0.00106262627020635 0.000156818433176515)
(-5.94641813114786e-06 0.0012502879283773 0.000192367299383293)
(-4.78976129657743e-06 0.00141917514992214 0.000227528311510649)
(-1.87710703019391e-06 0.00158183448264929 0.000263233923172633)
(7.38963796443385e-05 -0.00063681934681003 2.19727177410821e-05)
(5.42318237546637e-05 -0.000146226200477041 4.15399067726778e-05)
(2.58159421768375e-05 0.000374652834625907 7.02576030195254e-05)
(8.54308841043123e-06 0.000699251931522777 0.000104819995391211)
(-8.39068977236491e-07 0.000943899608767405 0.000140737408281058)
(-5.03331684610653e-06 0.00114938376843704 0.00017613230247326)
(-5.77603131426357e-06 0.00132946299905569 0.000210355857612935)
(-4.41610663468145e-06 0.00149385411566408 0.000244083660140742)
(-1.6844020713305e-06 0.00164961730222066 0.000278206049521775)
(8.44190738625634e-05 -0.000834953334001132 1.18393324135382e-05)
(6.42248878900489e-05 -0.000300100775960166 2.79360838713335e-05)
(3.46114403233392e-05 0.000224061080795028 5.56876219143607e-05)
(1.54429180789829e-05 0.000555998178602883 8.87409580054205e-05)
(3.81167609800054e-06 0.000812282291059378 0.000123884497960022)
(-2.65273805412433e-06 0.00103290628871324 0.00015922843513304)
(-5.4107456346437e-06 0.0012294965412954 0.000193670626472085)
(-5.52556960972956e-06 0.00140515515276115 0.000226730397387439)
(-4.00419365458623e-06 0.00156387932783619 0.000259062529449224)
(-1.50331617432112e-06 0.00171066292071839 0.000291572513392768)
(8.77877466887442e-05 -0.00101415616497952 -7.24638989614468e-07)
(7.01968789876291e-05 -0.000445948244110479 1.31086025487631e-05)
(4.17372365219646e-05 7.4259385482044e-05 4.0338893863296e-05)
(2.20604513998458e-05 0.000408314012479462 7.2554739879754e-05)
(9.02655570879123e-06 0.000672070120950905 0.000106944707543592)
(7.62397461493756e-07 0.000904092022227942 0.000142018036651414)
(-3.84374055020995e-06 0.00111508888648493 0.000176749827689416)
(-5.59126620364857e-06 0.00130672067150268 0.000210313513358141)
(-5.24808550850838e-06 0.00147733413453813 0.000242248182348429)
(-3.62471249013149e-06 0.00162835847885839 0.000273170483893849)
(-1.31952051856934e-06 0.00176445703227234 0.000303982402559009)
(-2.67591913784575e-06 0.00111722649248273 7.92058675031817e-05)
(-6.32427720040214e-06 0.000648135145481775 7.81320041532961e-05)
(-4.37103707637912e-06 0.00110438198804177 0.000115334755266967)
(-7.24548336456317e-06 0.000437740312988405 7.1565944117147e-05)
(-7.91329938509903e-06 0.000789705729366077 0.000106489316621208)
(-4.5824374248989e-06 0.00126392494540157 0.000152871244160791)
(-3.15478050054388e-06 0.000291155533127744 6.45986658994765e-05)
(-6.23715567428124e-06 0.000617252879674392 9.73419438284043e-05)
(-9.64332677984976e-06 0.0010822040627989 0.00014136659092995)
(-3.95720798046327e-06 0.00134239696006107 0.00018767113475254)
(5.62301022863625e-06 0.000133537299128296 5.75277426242676e-05)
(-3.80320685905332e-07 0.000482016468110091 8.85074420912312e-05)
(-9.63971938284558e-06 0.000950106424534901 0.000129662809976126)
(-8.98127193477642e-06 0.00121394624872929 0.000173907956953456)
(-3.38325185794548e-06 0.0014092841326278 0.000217276257787448)
(1.87087668603387e-05 -4.10026008628953e-05 5.0069328459139e-05)
(9.30661696193146e-06 0.000339847821770974 7.90823012873373e-05)
(-5.91806474926052e-06 0.000827333801421531 0.000117955196727686)
(-9.96120976098324e-06 0.00110428995438499 0.000159846875309545)
(-7.98011390602166e-06 0.00130253024930239 0.000201072005701898)
(-2.96556120782997e-06 0.00147909469239438 0.00024221585553283)
(3.48047418398533e-05 -0.000229156830639079 4.27617124873595e-05)
(2.16305560854661e-05 0.000188086178161242 6.8964405431171e-05)
(9.64697729254869e-07 0.000693373908499476 0.000105368380809944)
(-8.00824454006781e-06 0.000991876764664851 0.000145542803955467)
(-9.49688550594763e-06 0.00120328882206155 0.000184962483766557)
(-7.12185782842508e-06 0.00138114598540872 0.000223772447724274)
(-2.66664245957495e-06 0.00155061074175699 0.000263018487462894)
(5.14547452106974e-05 -0.000426878162988649 3.48834838517907e-05)
(3.51987638811981e-05 2.90185167026192e-05 5.81415172529484e-05)
(9.99105834508357e-06 0.000548016402152209 9.17107151585976e-05)
(-3.3776373766288e-06 0.000864629803878725 0.00013007935330863)
(-8.58485717971643e-06 0.00109605142368321 0.000168559717251856)
(-8.86519748855706e-06 0.00128590059956812 0.000205923342660691)
(-6.42640875971122e-06 0.0014563771930366 0.000242870091075408)
(-2.39672315351516e-06 0.00162019430651443 0.000280302393847316)
(6.69045017305762e-05 -0.000631022232811642 2.510817280357e-05)
(4.84779824690118e-05 -0.000134707331320211 4.6774823666785e-05)
(1.99966647451858e-05 0.000394050054288594 7.72028230925338e-05)
(3.09953140509801e-06 0.000724075033589906 0.00011346533685674)
(-5.46360303639748e-06 0.000972434528077692 0.00015101469186856)
(-8.59952054444944e-06 0.00118055821549977 0.000188021795027422)
(-8.22334436939412e-06 0.00136253014855562 0.000223847563957418)
(-5.80505307902866e-06 0.00152828378295475 0.000259160444800705)
(-2.12479406528957e-06 0.00168502269272249 0.000294806660113875)
(7.99749102316961e-05 -0.000834898995380207 1.80798676457631e-05)
(6.00941711002216e-05 -0.000299503089140372 3.51037775349249e-05)
(2.97596558043566e-05 0.000234980548372308 6.22654698969156e-05)
(1.04579348383042e-05 0.000574073319455722 9.62196363254471e-05)
(-7.73108664853451e-07 0.000835008784155923 0.000132563962553729)
(-6.51702034379897e-06 0.00105890915261318 0.00016926692869559)
(-8.3907489419818e-06 0.00125792492388837 0.000205133849290289)
(-7.58546803129967e-06 0.00143539911318959 0.000239640464870477)
(-5.19113934594133e-06 0.00159550749769241 0.000273413920731609)
(-1.88080970796316e-06 0.00174333837724079 0.000307315371462054)
(8.78855791558389e-05 -0.00104305755716454 6.7480044408293e-06)
(6.83852323835575e-05 -0.000459538913052626 2.07435043741507e-05)
(3.8154974359015e-05 7.59698180274716e-05 4.67035020631752e-05)
(1.77518087036848e-05 0.000419446162552459 7.87497870432192e-05)
(4.73176869629994e-06 0.000688788496944153 0.000113832830767447)
(-3.11215480156267e-06 0.000924566149951002 0.000150005886724146)
(-7.07611814752973e-06 0.00113834733801677 0.000185990060150893)
(-8.06807821338828e-06 0.00133213389803781 0.000220856195120284)
(-6.94952772056478e-06 0.00150445408760922 0.000254105311205478)
(-4.60524014424366e-06 0.00165693598381974 0.000286362231291943)
(-1.63820365600861e-06 0.00179419250754861 0.000318500354505549)
(8.67032613848181e-05 -0.0012318266329991 -6.57901042260024e-06)
(7.16231010665353e-05 -0.000609647061781908 4.96574986232972e-06)
(4.40901580375472e-05 -7.95033516102014e-05 3.05059766005417e-05)
(2.41571706399759e-05 0.000263533354789354 6.15728011683403e-05)
(1.03399638042043e-05 0.000537596398982773 9.55230931861096e-05)
(1.04412463801941e-06 0.000781860061440652 0.000130928053887269)
(-4.64913512160662e-06 0.00100713762131537 0.000166747488403506)
(-7.35042003448519e-06 0.00121515583054761 0.000202025095614695)
(-7.66828127987535e-06 0.00140361678513339 0.000235915452087879)
(-6.31374823477513e-06 0.00156907267113194 0.000267925344793294)
(-4.04767299820581e-06 0.00171237393436844 0.000298670634477945)
(-1.4029842861554e-06 0.00183791826097749 0.0003289531917594)
(-4.26690778963449e-06 0.00121847960176407 8.92787727114742e-05)
(-1.21173410185911e-05 0.000729813424759167 8.829459830846e-05)
(-6.35149758695862e-06 0.00118179505988744 0.000127086668316736)
(-1.63092226153154e-05 0.000505050320652642 8.13394259485191e-05)
(-1.29376920579733e-05 0.000853208562079386 0.000117837527469197)
(-6.26207334341174e-06 0.00133301470083142 0.000166803098990991)
(-1.44144123679694e-05 0.000346874737997031 7.33581613792105e-05)
(-1.37186572141895e-05 0.000670127250357453 0.000107836915746329)
(-1.40338185174204e-05 0.00114109574114868 0.000154544531456438)
(-5.31706607920164e-06 0.00140426047244418 0.000203724009229425)
(-6.92830984659735e-06 0.000178777255111374 6.52510108314062e-05)
(-9.48645728424187e-06 0.000525865422826608 9.80036141642266e-05)
(-1.60555707562875e-05 0.00100035107197385 0.000141781754903764)
(-1.25742773459566e-05 0.00126766387571374 0.000188889729992827)
(-4.50545269255291e-06 0.00146496966982792 0.000234890691572815)
(5.95966378324681e-06 -5.32956520603528e-06 5.6556282367971e-05)
(-5.22730450616347e-07 0.00037560026876311 8.74922693681016e-05)
(-1.36535008740175e-05 0.000869853260001691 0.000128882564089656)
(-1.52186979109841e-05 0.00115085167010514 0.000173529980429982)
(-1.09022277061821e-05 0.00135139776052698 0.000217310072652217)
(-3.87757230907705e-06 0.00152956545669025 0.000260879876103507)
(2.26322258172613e-05 -0.000202028174327907 4.79235766682288e-05)
(1.19812970035848e-05 0.00021656944951745 7.62473924396645e-05)
(-7.30657141358855e-06 0.000728810745043194 0.000115086207826682)
(-1.43614806744873e-05 0.00103187815462979 0.00015784385127359)
(-1.37695310150907e-05 0.00124608721168587 0.000199677284168816)
(-9.49477511830425e-06 0.00142579446822046 0.000240766670877887)
(-3.41595898643888e-06 0.00159662080980213 0.000282217816739936)
(4.10507266294605e-05 -0.000406801756837235 3.91554707326622e-05)
(2.64409826692401e-05 5.11459165694563e-05 6.45114798072397e-05)
(1.89966802299295e-06 0.000577018308692365 0.00010036095336141)
(-1.02168463976514e-05 0.000898528977543541 0.000141051033524656)
(-1.37890125957451e-05 0.00113325071334646 0.000181738025329375)
(-1.23711376244414e-05 0.00132532246737768 0.000221186900541249)
(-8.38191791621283e-06 0.00149735644208946 0.000260161285889105)
(-3.01701172440104e-06 0.00166227012240933 0.000299550694518758)
(5.81749106860059e-05 -0.000617813534323339 2.84300894955417e-05)
(4.10557457653086e-05 -0.000118479293054924 5.23984750953272e-05)
(1.26360616438785e-05 0.000417208834461665 8.49106446636209e-05)
(-3.65044860137829e-06 0.000752352969598808 0.000123191213439607)
(-1.11107584195435e-05 0.00100436979099734 0.000162668303994778)
(-1.28981088479204e-05 0.00121511947958475 0.000201545728833741)
(-1.1136764429096e-05 0.00139894056432238 0.000239198648230937)
(-7.43937225658698e-06 0.00156597168284348 0.000276304849954292)
(-2.64568218666833e-06 0.0017235406556484 0.000313665589989981)
(7.3476777844806e-05 -0.000832741423255474 2.0997913981013e-05)
(5.4289519121489e-05 -0.000290434178208054 4.01045052666507e-05)
(2.34782079407467e-05 0.000252096265465805 6.90321212910668e-05)
(4.22505712390453e-06 0.000596880977324422 0.000104659781977625)
(-6.40943055618733e-06 0.000861853308267953 0.000142639206049907)
(-1.12140621024274e-05 0.00108874573297095 0.00018098613442451)
(-1.1977654569138e-05 0.00128997015172156 0.000218499404399899)
(-1.00350600693802e-05 0.0014690026112289 0.000254632591630608)
(-6.57726103951661e-06 0.00163014566020747 0.000289994060972796)
(-2.3188522820498e-06 0.00177859181597204 0.000325396294724563)
(8.45700813821379e-05 -0.00104567215135022 1.35657913483174e-05)
(6.47130611734103e-05 -0.000461179913994878 2.79354095897002e-05)
(3.32299731545864e-05 8.47930612818233e-05 5.30690354419534e-05)
(1.2319212865368e-05 0.000435586856529408 8.59470764682946e-05)
(-5.49915193723006e-07 0.000709771457814191 0.000122208331333026)
(-7.83512616040787e-06 0.000949036064993477 0.000159754506616116)
(-1.10007440190398e-05 0.00116545177778175 0.000197194447209901)
(-1.10697599322775e-05 0.00136123323435464 0.000233543471895598)
(-9.01133694715028e-06 0.00153500217463311 0.000268261829526491)
(-5.78735701945493e-06 0.00168849088719903 0.00030195384291968)
(-2.01410210774808e-06 0.0018264068053295 0.000335472573201517)
(8.89629909924289e-05 -0.00126340133674098 8.6058289229628e-07)
(7.06666935812349e-05 -0.000625024085573416 1.26319154794726e-05)
(4.07549849202093e-05 -7.96351493113409e-05 3.66338639649252e-05)
(1.97008496643614e-05 0.000272891121113688 6.73866660166504e-05)
(5.62706830726441e-06 0.000552642051818675 0.000101994678864927)
(-3.43552786051733e-06 0.000800794426580344 0.000138514180173572)
(-8.61166667492857e-06 0.00102898871691064 0.000175620568891505)
(-1.062365044804e-05 0.00123927446290002 0.000212238553539189)
(-1.01620021214447e-05 0.00142947950250233 0.000247471159390374)
(-8.01729036272774e-06 0.00159622401412026 0.000280805426456347)
(-5.02009256115909e-06 0.00174033096060877 0.000312830860982939)
(-1.71352968715302e-06 0.0018666343110813 0.000344393192908819)
(8.24189538907021e-05 -0.00146125314566681 -1.4458455469322e-05)
(7.05227094571669e-05 -0.000776946664602905 -4.13066202453578e-06)
(4.50982487224891e-05 -0.00023787206655794 1.97158477208944e-05)
(2.55794491798705e-05 0.000111932824189385 4.94675161497673e-05)
(1.14025006201374e-05 0.000393790702393849 8.2675217986523e-05)
(1.33176288549358e-06 0.000647800061117448 0.000117993420949111)