/*--------------------------------*- C++ -*----------------------------------*\
  =========                 |
  \\      /  F ield         | OpenFOAM: The Open Source CFD Toolbox
   \\    /   O peration     | Website:  https://openfoam.org
    \\  /    A nd           | Version:  12
     \\/     M anipulation  |
\*---------------------------------------------------------------------------*/
/*   Windows 32 and 64 bit porting by blueCAPE: http://www.bluecape.com.pt   *\
|  Based on Windows porting (2.0.x v4) by Symscape: http://www.symscape.com   |
\*---------------------------------------------------------------------------*/
FoamFile
{
    format      ascii;
    class       volScalarField;
    location    "200";
    object      k;
}
// * * * * * * * * * * * * * * * * * * * * * * * * * * * * * * * * * * * * * //

dimensions      [0 2 -2 0 0 0 0];

internalField   nonuniform List<scalar> 
10116
(
0.000217804890893791
0.00022238805065833
0.000218477549263802
0.000612468627340882
0.000226361418845577
0.000223151335722448
0.000625345614394596
0.000219294575709064
0.000612755753390598
0.000895474359248021
0.000229736518702256
0.000227154371496208
0.000636393137728532
0.000224081824078105
0.000625625198006112
0.000914010083818145
0.000217827696340962
0.000611653563902785
0.000894986258540398
0.00112267125678768
0.000232582571056042
0.000230532819667872
0.00064583333435585
0.000228132317892907
0.000636683117356824
0.00092994214731893
0.000222642640016615
0.000624496694686881
0.000913427384376655
0.00114560734683039
0.000213353128907626
0.00060616171009043
0.000890622763091619
0.00112155022836823
0.00131883308364223
0.000234977122421416
0.000233377589646981
0.000653869122461513
0.000231525663284809
0.000646127235866507
0.00094361991178564
0.000226705337521315
0.000635552507020475
0.000929323785816599
0.00116536896170483
0.000218108813460534
0.000618899578363399
0.000908898989688251
0.00114434694527296
0.00134543582436201
0.000206668075264125
0.000594525232602094
0.000880442399594092
0.00111457991170325
0.00131684445702467
0.00149408753042371
0.000236987124324022
0.00023577100772775
0.000660683414658449
0.000234383353976935
0.000654166053858717
0.000955315015372493
0.000230092285986856
0.000644993732594941
0.000942984065380259
0.00118238225959474
0.000222125246528715
0.000629888727365476
0.000924699938555947
0.00116404736762165
0.0013684059372425
0.000211302518197866
0.000607035477183137
0.000898469119799869
0.00113712394561751
0.00134326750509485
0.00152384683174305
0.000198770956787898
0.000577375437995714
0.000863161093391497
0.00110028771001168
0.00130750162119226
0.00149103417551325
0.00165340277478036
0.000238670915034029
0.000237781739144172
0.000666439463947802
0.000236788578544697
0.000660983591156401
0.000965269070739332
0.000232942394931776
0.000653033637381076
0.000954668705749933
0.00119696980533454
0.000225464688029186
0.000639272696584062
0.000938299523170223
0.00118102595578332
0.00138822278106325
0.000215229332383375
0.000617852005298793
0.000914085939422345
0.00115666697551892
0.00136615141925104
0.00154958758955426
0.000203226910211021
0.000589537137924559
0.000880825999761475
0.00112247375150478
0.00133360185236438
0.00152057450571236
0.00168592680679857
0.000190295022183029
0.000556244416654641
0.000839181259887755
0.00107801622396182
0.00128951667533851
0.00147938196228507
0.00164943390068849
0.00179968755276636
0.00024007956188987
0.000239467561429037
0.000671283795508097
0.000238810645651493
0.000666743376964746
0.000973702483989639
0.000235342116869268
0.000659855470921774
0.000964615909805544
0.00120941667493639
0.000228270243587435
0.00064726744491108
0.00094994289397027
0.00119559028440203
0.0014052480872118
0.000218489046111702
0.000627088967995199
0.000927546930810768
0.00117353875487017
0.00138591479875307
0.00157183162290768
0.000207024636510774
0.000600076790124796
0.00089614609061486
0.00114174625535681
0.00135627739730185
0.0015462040089687
0.00171409907066939
0.000194406702550879
0.000567946366194946
0.000856359490297919
0.0010997252379445
0.00131517096844989
0.00150853718670379
0.00168170620423751
0.00183466060360592
0.000182888608687607
0.000532194834997669
0.000809643521869277
0.00104831195257111
0.00126270862750625
0.00145804408845201
0.00163579936440396
0.00179510846700506
0.00193489324958544
0.000241257469370537
0.000240878883218164
0.000675348082673857
0.000240508363998952
0.000671591677673464
0.000980816812982087
0.000237360027508236
0.000665621673463714
0.000973044668744359
0.00121998482863861
0.000230633008357486
0.000654055317094279
0.000959861226595916
0.00120802016951433
0.00141980187273313
0.000221220734714192
0.000634960975127059
0.000939084035145209
0.00118802616872395
0.00140290182477672
0.00159097212506765
0.000210177348654289
0.000609079921612185
0.000909365441999812
0.00115841135094954
0.00137589440674457
0.00156837532724003
0.0017384774899298
0.000197983647295108
0.000578113303960479
0.000871268958487438
0.00111860376141145
0.00133750483967112
0.00153391304983798
0.0017097471418783
0.00186498958825054
0.000185618584030731
0.000543294352824225
0.000826216981508842
0.00106941694947477
0.00128779211056256
0.00148667984782487
0.001667635873845
0.00182980511275119
0.00197205404038589
0.000182063585530139
0.000505833937344079
0.000775364214361032
0.00101211741896965
0.00122787890752696
0.00142718168643926
0.00161161621129526
0.00177996650977243
0.00192994223558179
0.00206032605321628
0.000242243750997051
0.000242060045313151
0.000678750223613671
0.000241931054642603
0.000675659846349526
0.000986795855108867
0.000239054603964243
0.000670477686748583
0.000980155757205438
0.00122891618935265
0.000232621260099152
0.000659796363742024
0.000968269757889016
0.00121857529160166
0.00143217954276456
0.000223521189360965
0.000641648560131732
0.000948920228150087
0.00120039891870024
0.00141742615838219
0.00160735793801944
0.000212816423165844
0.000616754229921244
0.000920705949409457
0.00117273850173422
0.00139277291180182
0.00158746173771931
0.00175948165796433
0.00020095667787252
0.000586810874947002
0.000884143907401504
0.00113494736688127
0.00135685772689472
0.00155590272748364
0.00173403784466422
0.00189126465709145
0.000188489131417072
0.000552974050643844
0.000840613442449851
0.00108778156946989
0.00130965123846254
0.00151165452429289
0.00169538723055946
0.00185998925425688
0.00200431216640505
0.000180920591874087
0.000516044617438494
0.000791219685014255
0.00103249717145954
0.00125226146602435
0.00145516875232106
0.00164287469907829
0.00181418931293648
0.00196680819951547
0.00209945276783214
0.000171985070285664
0.000477540194441132
0.000736685063836534
0.000970061071296432
0.00118593488957748
0.00138779842128973
0.00157727214029906
0.00175349803173127
0.00191368178986841
0.00205512782044404
0.00217679221094375
0.000243072557098388
0.000243050074685153
0.000681595471093666
0.000243122073002479
0.000679065672804383
0.000991806228773497
0.000240477010757833
0.000674554077661475
0.000986132471843238
0.00123643333162751
0.000234291889250048
0.000664634055565466
0.000975366847620488
0.00122749635412057
0.00144265551418658
0.000225459857020018
0.00064730850917443
0.000957265067384617
0.00121091101376172
0.00142978032158224
0.00162131238906997
0.000215042306758728
0.000623277180118458
0.000930382455947631
0.0011849856952049
0.00140721443348159
0.00160380480514287
0.00177748445093249
0.000203469077078673
0.000594227930626496
0.000895196955328487
0.00114901290176793
0.001373529323041
0.00157485210426579
0.00175497562920205
0.0019139272317185
0.000190960304883177
0.000561280766241628
0.00085305323629994
0.00110369278977281
0.00132861477168548
0.00153333171542494
0.00171946868507998
0.00188616689667545
0.00203228551931841
0.000180432768698629
0.000525057854389551
0.000805006654149067
0.00105023813061766
0.00127352090473633
0.00147960178780191
0.00167017820522389
0.00184405827569909
0.00199891239140944
0.00213344585506011
0.000176718881781625
0.000486344856887281
0.000751700029032672
0.000989601772302724
0.00120948949998595
0.00141500370365353
0.00160781965850232
0.00178709859298096
0.0019500457175726
0.00209394505285646
0.00221769066801185
0.000152251064641025
0.000444459460394492
0.00069367734947601
0.000922432697749539
0.00113741874242423
0.00134081688063171
0.00153391097816972
0.00171622727003775
0.00188537452851429
0.00203798973723986
0.00217139715071472
0.00228474878276578
0.000243772112838527
0.000243883188600231
0.000683976580183721
0.000244121643077726
0.000681914280645513
0.00099599777552206
0.000241670308137513
0.000677968013859328
0.000991141099107725
0.00124273955877065
0.000235694714624371
0.000668697541765241
0.000981334033287789
0.00123500517992594
0.00145148369662592
0.000227091167695284
0.000652080681029196
0.000964312746956258
0.00121979949499466
0.00144023714411724
0.00163313718322304
0.000216923256872227
0.000628800999150834
0.00093859773269032
0.00119539889391744
0.00141950452333717
0.00161772447996159
0.00179283290455653
0.000205612920742277
0.000600536741217794
0.00090463455890166
0.0011610472392467
0.00138780722214359
0.00159108894041442
0.00177292541805092
0.001933371045016
0.000193231117901809
0.00056838230282434
0.000863739671285896
0.00111739703229668
0.00134496837597796
0.00155203464721367
0.00174024728377168
0.00190875559645
0.00205643503684493
0.000181103026239523
0.000532834206401811
0.000816928359724412
0.00106561753512395
0.00129197800156916
0.00150083324311819
0.00169390960275663
0.00187000765994329
0.00202678256533844
0.00216294797918595
0.0001798314430125
0.000494611402846957
0.000764787858625273
0.0010066173782174
0.00123003365358213
0.0014387657197124
0.00163452848273261
0.0018164852938252
0.00198181683339891
0.00212777767592916
0.00225324805761083
0.000157438512149545
0.000453876109779548
0.000707665815320762
0.000941022159625204
0.00116002221325805
0.00136710807154222
0.00156361086925349
0.00174906869192812
0.0019210829426167
0.00207628305580446
0.00221197366357551
0.00232724377641677
0.000129354889041197
0.000406382715780856
0.000645936129766298
0.00086937824350295
0.00108259956005512
0.00128674517898263
0.00148249992451226
0.0016694089500846
0.00184562187006015
0.00200814583766889
0.00215351513739942
0.00227917442675339
0.00238445090678356
0.000244362312288534
0.000244587829481839
0.000685973185206404
0.000244964660511276
0.000684298298794847
0.000999503650081738
0.000242673015515734
0.000680824236537398
0.000995331200516164
0.0012480188327327
0.000236874078940739
0.00067210263219749
0.000986336218629468
0.00124130453988175
0.00145889726425137
0.000228462301616646
0.000656091166823149
0.000970241595083047
0.00122728356854861
0.00144904952514669
0.00164311242848361
0.000218507376121561
0.00063346044412945
0.000945540270396095
0.00120420927606526
0.00142991144647263
0.00162952052115662
0.00180585197990338
0.000207435738065493
0.000605881976864052
0.00091265168799063
0.00117128723541959
0.00139996725844182
0.00160492518703602
0.00178823045112315
0.0019499634911832
0.00019526619577785
0.000574434329700783
0.000872869460792948
0.00112913070852405
0.00135898673688804
0.00156807535681929
0.001758072750951
0.00192814026318259
0.00207717234361443
0.000182840147595208
0.000539547367062177
0.000827177012064788
0.00107887133315182
0.00130790739624799
0.00151917109782918
0.00171441118924965
0.00189242235730089
0.00205085395476462
0.00218843713092692
0.000179388612466832
0.000501739506212898
0.000776119003655167
0.00102137508468151
0.001247878480564
0.00145942909554749
0.00165776962475442
0.001842057403955
0.00200944619400966
0.00215717278392481
0.00228412921642092
0.000161755033633892
0.000461857378184004
0.000720032639029046
0.000957217956735646
0.00117974144943608
0.00139007840767141
0.00158959090574802
0.00177782000153422
0.00195234658044118
0.00210976948926351
0.0022473652798955
0.00236421094118912
0.000134176586243417
0.000415507590184846
0.000659184306773874
0.000886891177438698
0.0011041294270556
0.00131199182198133
0.001511215592234
0.00170135053209076
0.00188053397487933
0.00204575787062404
0.00219354985225219
0.00232133665429899
0.00242838105217699
0.000105443164103339
0.00036376485194706
0.000593471540231498
0.00081096121353247
0.00102165772499874
0.00122583882399531
0.00142355205632778
0.00161408144723168
0.00179577682217542
0.00196623944098233
0.00212233256612287
0.00226062724107455
0.00237870564925769
0.00247606530927725
0.00024485155723179
0.000245183736702711
0.000687650600212601
0.000245679488941079
0.000686297157330165
0.00100244028628778
0.000243519971537939
0.000683214979570041
0.000998835690541319
0.00125243575354797
0.000237868659238249
0.000674952634856933
0.000990521822546896
0.00124657798556202
0.00146510822021892
0.000229615857891882
0.000659453452053696
0.00097521386727743
0.00123356397440998
0.00145644989384177
0.00165149661267599
0.00021983846100114
0.000637377294882416
0.000951383649934196
0.00121163152323084
0.00143868482177032
0.0016394719078278
0.00181684460033779
0.000208969563638775
0.000610391134159128
0.000919429887606319
0.00117995664026319
0.00141027049483241
0.00161665531949716
0.00180121350294652
0.00196404966811186
0.000197026359259374
0.00057956623404611
0.000880628288474481
0.00113912108366701
0.00137093496718237
0.00158175477787506
0.00177327948730254
0.00194468418268953
0.00209488257213992
0.000184508661303321
0.000545284417514831
0.000835937653784525
0.00109022525137097
0.00132157212075711
0.00153491315201981
0.00173201550608876
0.0019116708528482
0.00207152878161964
0.00221034072136083
0.000183095857851861
0.000507964299756446
0.000785860592770966
0.00103409795914365
0.0012632877881318
0.00147729022599148
0.00167786901280715
0.00186417328585713
0.00203333421502376
0.00218258116208819
0.00231082734567336
0.000165031708324163
0.000468666467521082
0.000730739860093387
0.000971273047208932
0.00119687585975512
0.00141006255166094
0.00161221411778096
0.00180286792078997
0.00197957922705814
0.00213891506170588
0.00227813643101949
0.00239633496986793
0.000138344660152801
0.000423354179920119
0.000670729163906362
0.000902183333219241
0.00112291736307764
0.0013340542479855
0.0015363414528373
0.00172932719730301
0.00191113102069197
0.0020787177317618
0.00222858494561139
0.002358133448032
0.002466615114982
0.000109620549924861
0.00037225712725009
0.000605815688305022
0.000827341603291028
0.00104198963535153
0.00124991055164221
0.00145114740341254
0.001644982211939
0.00182974781624287
0.00200302602930099
0.00216166531303624
0.00230223258835557
0.00242229355049615
0.00252127992970969
8.15200762513224e-05
0.000317354061904956
0.000536089538912451
0.000747243534378819
0.000954747561066848
0.00115828675255623
0.0013573222074679
0.0015507918084779
0.00173696012766943
0.00191371037760583
0.00207851587007122
0.00222824533402485
0.00235955114536972
0.0024701575419888
0.00255973988759573
0.000245233171901133
0.00024567718567059
0.000689059257161454
0.000246283257635026
0.000687975544792618
0.00100490757174785
0.000244238011870559
0.000685219009196601
0.00100177073314823
0.00125613578962603
0.000238709069781978
0.000677338422949206
0.000994022746536865
0.00125098977419675
0.00147030717248625
0.000230588426153555
0.000662268654080666
0.000979375675127534
0.00123882259481963
0.001462649667102
0.00165852561742773
0.000220959146328393
0.000640661693958312
0.000956286167783123
0.00121786269242997
0.00144605448854108
0.00164783608695679
0.00182609081680916
0.000210254335015124
0.000614181012569981
0.000925136856841426
0.00118726397343848
0.00141896102375298
0.00162655448892239
0.00181217602054158
0.00197595213169456
0.000198509421031513
0.000583894232221492
0.000887189533606732
0.00114758347279636
0.00138106538332493
0.00159335920986329
0.00178618439727553
0.00195873006551401
0.00210992842269278
0.000186112395227152
0.000550162376268108
0.000843384953340457
0.00109989644092014
0.00133322642218336
0.00154834836655647
0.00174704488657117
0.00192810691575853
0.00208918779871717
0.00222905950975226
0.000179259042604708
0.000513239950261876
0.000794189574370355
0.00104500045505123
0.00127651320239796
0.00149263431725412
0.00169514384358113
0.001883183016871
0.00205386563928009
0.00220442029322949
0.00233378390569449
0.000168121118587194
0.000474413047440384
0.000739902933165529
0.00098338999816551
0.00121167681077681
0.00142734575201202
0.00163179427752855
0.00182455347588446
0.00200315316358016
0.00216413385869102
0.00230475179561155
0.00242412274688465
0.000141824527764504
0.000429936281528686
0.000680800311390912
0.000915463953609741
0.00113924801571653
0.00135325445987837
0.00155823058451878
0.00175371763576802
0.00193781367758983
0.00210745221477524
0.00225909994843207
0.00239014488013336
0.00249985561835185
0.000113263440650476
0.000379657495483059
0.000616552465192285
0.000841630249808199
0.00105974166007626
0.00127095058480006
0.00147529748466848
0.00167205413391789
0.00185953395252461
0.00203529497213648
0.0021961587734837
0.00233866432506123
0.00246035318926384
0.00256064717574094
8.49116861642666e-05
0.000324992440231039
0.000547403783247863
0.000762397306691153
0.000973769557081004
0.00118105386489525
0.00138366104480179
0.00158051089501291
0.00176984485566718
0.00194952304438222
0.00211699988513784
0.00226913170257169
0.00240256933345665
0.00251502168154724
0.00260609746133888
5.8250880058344e-05
0.000267579891055758
0.00047385656800911
0.000678143355539912
0.00088197849867127
0.00108426425919026
0.00128400275829108
0.00147980677742329
0.00166976513470197
0.00185175902262112
0.00202357842707686
0.00218270943118859
0.00232608187991906
0.00245044840134745
0.00255368004056965
0.00263563873223176
0.000245484706457164
0.000246046784734228
0.000690236559699773
0.000246773387388404
0.000689382387826562
0.0010069901736909
0.000244839738725271
0.000686899576763263
0.00100423582812106
0.00125924597614916
0.000239418247626791
0.000679336971504398
0.00099695415557877
0.00125468506002696
0.00147466359407327
0.000231410079236874
0.000664624875372651
0.000982856818506394
0.00124322227892186
0.0014678389830267
0.00166441201193427
0.000221904234537141
0.000643411492246603
0.000960390435772014
0.00122308156816215
0.00145222975030137
0.00165484808301578
0.00183384671538452
0.000211336963453167
0.000617358364666246
0.000929925866131446
0.00119340109180954
0.00142626417469509
0.00163487706212308
0.00182139692839193
0.00198596973899663
0.000199749968995089
0.000587529406533787
0.000892714232261768
0.0011547190955639
0.00138961473262074
0.00160315743923512
0.00179708460575646
0.00197059886551708
0.00212264962741824
0.000187538780032463
0.000554279418049085
0.00084968271311406
0.00110809103997435
0.0013431129588625
0.00155975316556101
0.00175980726673752
0.00194206692360325
0.00210419116176125
0.00224497171914386
0.000179682348066072
0.000517788367380892
0.000801272981236682
0.00105428926040673
0.0012877979476984
0.00150573843498826
0.0017099034867834
0.00189942744132327
0.00207141115284429
0.00222308632626881
0.0023534135413126
0.000170529343126144
0.0004786432475678
0.000747722830832327
0.000993773046615514
0.001224384056424
0.00144220106957109
0.0016486352408555
0.00184321046776319
0.00202343372456556
0.00218582501009469
0.00232764243280243
0.0024480283456839
0.000144765409236648
0.000435682649497618
0.000689287138494206
0.000926901407668816
0.00115335696676206
0.00136986527263713
0.00157718528056366
0.00177485025881049
0.00196093606020637
0.00213234590360474
0.00228552120254444
0.00241784816205914
0.00252862181353408
0.000116316070682211
0.00038596229783711
0.000625826533578393
0.000854052137968731
0.00107517764454489
0.00128926544875905
0.00149634255455402
0.00169566601312948
0.00188552784897013
0.00206345949824817
0.00222625156856623
0.00237041427316235
0.00249347878573295
0.00259488546277715
8.79060181558315e-05
0.000331704604711943
0.000557271607226577
0.000775612891303768
0.000990381264297084
0.00120095836718729
0.0014067151074879
0.00160655178467085
0.00179868548742466
0.0019809521943428
0.00215078307209857
0.00230500958530206
0.00244025676252206
0.00255421095133202
0.00264647214427693
6.0740558093734e-05
0.000274189630581984
0.000484009067601878
0.000691978298220338
0.000899586258390547
0.00110560184712207
0.00130895013552829
0.00150820323305141
0.0017014184499932
0.00188644881543777
0.00206106215800823
0.00222272817695286
0.00236836698166937
0.00249473199745333
0.0025996800679426
0.00268300645268389
3.6254813116294e-05
0.000214734404400862
0.000406859680834466
0.000603592772443452
0.000803358128971802
0.00100390500567701
0.00120377363416918
0.0014013222647166
0.00159447688917035
0.00178102441975559
0.00195879012263973
0.00212559350180022
0.00227898859239165
0.0024159928062274
0.00253346868330107
0.00262943896130412
0.00270395472370679
0.000245731791005308
0.00024623391680685
0.000691221953568258
0.000247115347583968
0.000690551570488865
0.00100876154185188
0.000245315140424619
0.000688302283808845
0.00100631505563612
0.0012618765814427
0.000240005760734728
0.000681009012222738
0.000999414419228485
0.00125779056346686
0.00147832651930686
0.000232103034204002
0.000666596053007757
0.000985770430974178
0.0012469069358338
0.00147218690356654
0.00166934566780494
0.00022269958609402
0.000645711537538056
0.000963822957434893
0.00122744831085182
0.0014573989948197
0.00166071996904509
0.00184034426780653
0.00021224774920132
0.000620017159737383
0.000933934983061719
0.00119854229697492
0.00143238548249612
0.00164185553698834
0.00182913153301427
0.00199437671406068
0.000200795581917146
0.000590575089238929
0.000897349891650731
0.00116071344576026
0.00139680216103742
0.00161139863244578
0.00180625561397744
0.00198058825960856
0.00213336182479727
0.000188740815641466
0.000557736606435676
0.0008549844795511
0.00111500217892057
0.00135146000752675
0.0015693880909881
0.00177059275194951
0.00195386716005317
0.00211687693059749
0.00225843233398813
0.000180837039841765
0.00052166120932173
0.000807263473028877
0.00106216076883332
0.00129737445546801
0.00151686834326018
0.00172244514975327
0.00191323334571881
0.00208632421803371
0.00223895480817481
0.00237010823150728
0.000172604269090538
0.000482687338937048
0.000754384544822955
0.00100261968399628
0.00123522948947806
0.00145489369958788
0.00166303366081013
0.00185916598768849
0.00204077796429924
0.00220437410443144
0.0023472181839221
0.00246847887531844
0.000147206751576389
0.000440414491823461
0.000696498554200265
0.000936696933599379
0.001165471336626
0.00138414738320552
0.00159349679629758
0.00179304491614717
0.00198084645819561
0.00215377762837251
0.00230826063457087
0.00244168655807073
0.00255337915905997
0.000118852366629937
0.000391335921237195
0.000633788000159866
0.000864729079713009
0.00108851300508369
0.00130511358989101
0.00151457244165702
0.00171613457079384
0.0019080706698885
0.00208788533737458
0.00225233935757333
0.00239791987208069
0.00252215892070765
0.00262452523012832
9.04128714941112e-05
0.000337450299861152
0.000565801020302942
0.000787082475071256
0.00100482928353711
0.00121828846247937
0.00142680905131094
0.0016292704693904
0.0018238648621843
0.00200840305565774
0.00218029012925182
0.00233632844308021
0.00247311647465922
0.00258833228107167
0.00268159623166175
6.29974839492121e-05
0.000280050588581929
0.000492896277628683
0.000704057335810469
0.000914965281172024
0.00112426047186186
0.00133078949895039
0.00153308811952426
0.00172918300854175
0.00191689950377575
0.00209398232525017
0.00225788015033053
0.00240549053904832
0.00253354310395621
0.00263987369557943
0.00272427049895034
3.76739805768367e-05
0.000220148221246387
0.000415716379944911
0.000616004397363478
0.000819451715664479
0.00102369558224245
0.00122719767280877
0.0014282560574692
0.0016247533606551
0.00181444224305861
0.00199512127540699
0.00216459058148015
0.0023203906492582
0.00245953168429029
0.00257887917791596
0.00267644314260508
0.00275220931577474
1.75423008598743e-05
0.000159432137646371
0.000335335616775036
0.000523503303236774
0.000718795722047485
0.000917244045295878
0.00111676978936176
0.00131551628395149
0.00151129510943678
0.001701809526828
0.00188482903890415
0.0020582248878838
0.00221989482467665
0.00236748835494261
0.00249812338686961
0.0026087780091878
0.00269762843653354
0.00276490818074287
0.000246441464939512
0.000692130081990149
0.00024722861927846
0.000691519035597626
0.00101029510948748
0.000245623664753025
0.000689456845445772
0.00100808099474771
0.00126412435513045
0.000240458726386829
0.000682396602299987
0.00100148621765876
0.0012604162096513
0.00148142589895732
0.000232672310019874
0.00066823968244205
0.000988212844725563
0.00125000215887804
0.00147584209345876
0.00167349381216151
0.00022336454493276
0.000647632586693404
0.000966693736809112
0.00123110446104045
0.00146172979282128
0.00166564101296492
0.0018457906911865
0.000213007781061717
0.000622238176829679
0.000937286468687713
0.00120284377287243
0.0014375101264471
0.00164769994249835
0.00183561093644708
0.00200142145265829
0.000201656674163571
0.000593119028747541
0.000901229252414574
0.00116573517675466
0.00140282793020033
0.00161831094840139
0.00181394994236148
0.00198897136969904
0.00214235453727634
0.000189769147378963
0.000560627146903844
0.000859430978991378
0.00112080807264629
0.00135847929332486
0.00157749533432537
0.00177967111878943
0.00196380161892368
0.00212755931644035
0.00226977123193032
0.000181806484099116
0.000524916737667511
0.000812305197170328
0.00106879929635355
0.0013054617525063
0.00152627518672462
0.00173304996832466
0.00192490950095135
0.00209893797730873
0.00225237892264928
0.0023842364349083
0.000174350614668429
0.000486258425189762
0.000760024671998058
0.00101011627283794
0.00124443482304372
0.0014656782885703
0.0016752752814415
0.00187273542574659
0.00205552925962894
0.00222014971298149
0.00236386826241187
0.00248587841624369
0.000149210837097138
0.000444466614972259
0.000702679091950896
0.000945042810412222
0.00117581151519621
0.00139635376713953
0.00160744921889757
0.00180861533049371
0.00199788752840003
0.00217211876794735
0.0023277171243376
0.00246208217121092
0.00257456594734719
0.000120939777450667
0.000395859563234827
0.000640557973842429
0.000873870036601788
0.00109996201214102
0.00131874223721003
0.00153026550500419
0.00173376666044241
0.00192749625856408
0.00210893361760506
0.00227481298949486
0.00242160457604651
0.00254684789916562
0.00265004229634288
9.24748938265999e-05
0.000342315445571467
0.000573121430035173
0.000796965611702759
0.00101730947150987
0.0012332860555371
0.00144421867267326
0.00164897113154181
0.00184571233928649
0.00203222815597673
0.00220589727670537
0.00236349400340528
0.00250159603002633
0.00261788458132092
0.00271201025965168
6.49262156653668e-05
0.00028508705725114
0.000500589167865517
0.000714540793610173
0.000928339355065013
0.00114050838128204
0.00134982749705449
0.00155480193327143
0.00175342895915411
0.00194350668587661
0.00212275570131359
0.00228860060171357
0.00243791197913942
0.00256739494494006
0.00267487902309115
0.0027601747155223
3.91063788215527e-05
0.000225001365817628
0.000423510436705128
0.000626862254779258
0.000833516361201182
0.00104100522431011
0.00124770643363732
0.00145186145084064
0.00165131251418495
0.00184377996658397
0.00202703616429579
0.00219886069347481
0.00235677558722403
0.00249777074843567
0.00261868975983111
0.0027175234534242
0.0027942528186505
1.78510376995886e-05
0.000163426595837406
0.000342778300143536
0.000534382962684398
0.000733267317376945
0.000935374680612955
0.0011385430552857
0.00134084930119898
0.00154004965696931
0.00173380563291751
0.00191985488290656
0.0020960450955259
0.00226025777609581
0.00241013163363579
0.00254277971975767
0.00265518532718768
0.00274551441806832
0.00281393958841975
4.74846360313761e-06
0.000102899318356076
0.000259980783926818
0.00043793821342879
0.000628060768539946
0.000824145948697662
0.00102301012895868
0.00122250846474486
0.00142038904291022
0.00161431583493894
0.00180201213067513
0.00198131259449654
0.00215017444614913
0.00230659916841047
0.00244834518112389
0.00257263697757156
0.00267657026314181
0.00275847033201109
0.00281872874806745
0.000247384652723014
0.000692413982604661
0.00101168270828549
0.000245684593363474
0.000690396964807389
0.00100960642774912
0.00126607994443706
0.000240734985807404
0.000683526026851304
0.001003240862999
0.00126265835682123
0.00148407467024229
0.000233100388980329
0.000669594764154054
0.000990264722016122
0.00125261680995401
0.00147893412286789
0.00167700244620064
0.0002239051397916
0.000649228499085692
0.00096909619757054
0.00123417351439949
0.00146536952266979
0.00166977808717081
0.0018503692591855
0.000213636799146086
0.000624088456001546
0.000940086381607723
0.0012064435422498
0.00144180293011861
0.00165259778824877
0.00184104178405319
0.00200732645014315
0.000202356253527935
0.000595238742253646
0.00090446959528443
0.0011699354318658
0.00140787261492769
0.0016241007602282
0.00182039633831403
0.00199599584130229
0.00214989111292877
0.000190461077016396
0.000563029469201429
0.000863148815608889
0.00112567082458075
0.00136436452911857
0.00158429709722027
0.00178729011546113
0.00197214037931431
0.00213652702575177
0.00227929240151485
0.000182505121308612
0.00052763100152926
0.000816529392220118
0.0010743747397688
0.00131226320792033
0.00153419291417152
0.00174198012701437
0.00193474377297642
0.00210956272947327
0.00226368738001574
0.00239614112028068
0.000175777050346173
0.000489276571146631
0.000764772817469929
0.00101643732470218
0.00125220912504525
0.00147479581240738
0.0016856311096566
0.00188421801912581
0.00206801285784732
0.00223349989669935
0.00237795928385135
0.00250060770084083
0.000150852430968637
0.000447894726652596
0.000707926914220488
0.000952114493943725
0.00118458802388117
0.00140672738949056
0.0016193164207028
0.00182186480203766
0.00201239071764206
0.00218772740140438
0.00234427267039597
0.00247943638819933
0.00259259745794679
0.000122644054436992
0.000399664689106231
0.000646309441107855
0.00088165936044844
0.00110973340088387
0.00133039151115517
0.00154369294830249
0.00174886290810746
0.00194413338547706
0.00212696079290111
0.00229405664890879
0.00244187917545851
0.00256797888247642
0.00267188512916382
9.41396344917676e-05
0.000346406406166116