/*--------------------------------*- C++ -*----------------------------------*\
  =========                 |
  \\      /  F ield         | OpenFOAM: The Open Source CFD Toolbox
   \\    /   O peration     | Website:  https://openfoam.org
    \\  /    A nd           | Version:  12
     \\/     M anipulation  |
\*---------------------------------------------------------------------------*/
/*   Windows 32 and 64 bit porting by blueCAPE: http://www.bluecape.com.pt   *\
|  Based on Windows porting (2.0.x v4) by Symscape: http://www.symscape.com   |
\*---------------------------------------------------------------------------*/
FoamFile
{
    format      ascii;
    class       volScalarField;
    location    "200";
    object      nut;
}
// * * * * * * * * * * * * * * * * * * * * * * * * * * * * * * * * * * * * * //

dimensions      [0 2 -1 0 0 0 0];

internalField   nonuniform List<scalar> 
10116
(
7.27493346951667e-05
7.35279267796681e-05
7.41346199299654e-05
0.000600607150164821
7.42008006420423e-05
7.49696751879943e-05
0.000607135906811625
7.57779442138704e-05
0.000609568136027412
0.00143527953960483
7.47733042080003e-05
7.56622669442101e-05
0.000612664906369548
7.66651960327371e-05
0.000616289293364855
0.00145091649841312
7.67051529281931e-05
0.000620764928341697
0.00144703996302263
0.00236107270686112
7.52560277409248e-05
7.62414084307815e-05
0.000617328324320579
7.73853908816377e-05
0.000621946414257303
0.00146416265481451
7.76237952584486e-05
0.000627696601954325
0.00146285123731198
0.00238731912374345
7.63958365124573e-05
0.000627346061042568
0.00146044588181797
0.00236983916620723
0.00326964018679019
7.56613136975557e-05
7.67303625152803e-05
0.000621264712725238
7.79752793513661e-05
0.00062667741871126
0.0014753633920693
7.83685060359722e-05
0.000633521285262273
0.00147623101879527
0.00240953895963523
7.73241941041059e-05
0.000634418118605887
0.00147647540641034
0.00239618156063502
0.00330693517013275
7.51894140311495e-05
0.000625511369039948
0.00146653684441193
0.00237634976327385
0.0032723180245024
0.00411103422128944
7.60006814408324e-05
7.7141380455122e-05
0.00062457998943129
7.84746287415517e-05
0.000630667021606791
0.00148482107000118
7.89682113579698e-05
0.000638352754650208
0.00148753031960558
0.00242835570453865
7.80793788762621e-05
0.000640382762318533
0.00149003625049821
0.00241848759981366
0.00333852224102221
7.61128666281438e-05
0.000632614863172595
0.00148270587862453
0.00240278602737089
0.00330959929085409
0.00415923398005146
7.36273424612292e-05
0.00061665463997288
0.00145948695789652
0.00237301736190497
0.00326768321212507
0.00410714357661693
0.00486773955834557
7.62843299658954e-05
7.74858660800809e-05
0.000627362822758398
7.8894763196515e-05
0.000634027582794453
0.00149278571779635
7.9475306503513e-05
0.000642423169256494
0.00149706759684014
0.00244425697529649
7.86812998129299e-05
0.000645293719349616
0.00150147445703547
0.00243737867461503
0.00336529104966315
7.68689273436438e-05
0.000638636985925822
0.00149639865574185
0.00242519178174165
0.00334119597728607
0.00420008223104361
7.45338340998583e-05
0.000623692867252047
0.00147566257909765
0.00239945279285825
0.00330488596141503
0.00415522435226914
0.00492636581818575
7.20067409932515e-05
0.000604052243642565
0.00144011202849107
0.00235455383783731
0.00324999101715251
0.00409087718888035
0.00485897927571394
0.00553878952959729
7.65211445197193e-05
7.77740005466952e-05
0.000629691351045584
7.92473060189902e-05
0.00063684876516899
0.00149947043112125
7.99022556524643e-05
0.000645852849525519
0.00150509903319551
0.00245765282013227
7.91888283477163e-05
0.000649423727128277
0.00151112596066596
0.00245334301947394
0.00338792502156586
7.74669676055922e-05
0.000643569525734134
0.00150793681440841
0.00244417502873954
0.00336798187986566
0.0042347149418354
7.5282190183201e-05
0.000629694064402443
0.00148937161924253
0.00242188618052107
0.00333645545428903
0.00419599950906424
0.00497607893880523
7.28521728438511e-05
0.000610933340799372
0.00145612326912851
0.00238082268830037
0.00328697968783061
0.00413870541195824
0.00491740597062012
0.00560717906308854
7.08271956039336e-05
0.000589919521659126
0.00141221386492268
0.00232086942498619
0.00321544776525547
0.00405801854716573
0.00483333795772095
0.00552719155701684
0.00613047571590447
7.67188068226171e-05
7.80147028452561e-05
0.00063163471815098
7.95428220130856e-05
0.00063920937996475
0.00150506192533737
8.02607595676169e-05
0.000648733459158214
0.00151183996680647
0.0024688980508987
7.96163949733457e-05
0.000652904376779583
0.00151925480622483
0.00246679231380819
0.00340700002482654
7.79689602792788e-05
0.000647710395073077
0.0015176694937572
0.00246022210804398
0.00339063347583517
0.00426400877812119
7.58748440658398e-05
0.000634595163714709
0.00150091433904098
0.0024409034121693
0.00336323874047675
0.00423058235396252
0.00501824178766272
7.35687092798194e-05
0.000616826444312518
0.00146971538823298
0.00240314117394521
0.0033184121032286
0.00417931578518444
0.0049669794345102
0.00566520096275364
7.12681667662144e-05
0.000596349620756966
0.0014278612610719
0.00234676035567838
0.00325203623729822
0.0041054053509068
0.00489136491968626
0.00559532924869434
0.00620787046198237
8.29525819913612e-05
0.000576341518835121
0.00137876596654902
0.00227444008124942
0.0031636010534179
0.0040060278455347
0.00478737704662938
0.00549503105114356
0.00611727016501547
0.00665103862745386
7.68839449846852e-05
7.82157813337837e-05
0.000633253872243064
7.97900084967139e-05
0.000641179369883244
0.00150972523198689
8.0561329183147e-05
0.000651144918588589
0.00151747847000523
0.00247830419106331
7.99757070326029e-05
0.000655829556731479
0.00152607958796687
0.00247808266036612
0.00342301657876597
7.83916214964996e-05
0.000651200486740391
0.00152586908491256
0.0024737456173893
0.00340972462617052
0.0042887035230499
7.63669070104559e-05
0.00063870196249982
0.00151064787861573
0.00245698649192291
0.00338589972169783
0.00425983858137488
0.00505391529173317
7.41422321649506e-05
0.000621662349477009
0.00148115679238732
0.00242207282571269
0.00334510506334979
0.00421378602324362
0.00500903763845287
0.00571442826559552
7.17994134108819e-05
0.00060195798890828
0.00144118417551774
0.00236879309329938
0.00328316369155464
0.00414569555503842
0.00494065426065889
0.00565316798212602
0.00627356892394345
6.99608051041895e-05
0.000580907307431717
0.00139361217260449
0.0022997240475393
0.00319955689942623
0.00405275412927926
0.00484475348599931
0.00556265810679888
0.00619438057363696
0.00673663539819775
7.83603818891073e-05
0.00057483818110285
0.00134141664640887
0.00221714896254017
0.00309540770866221
0.00393434790729168
0.00471912316122073
0.00543874363144901
0.00608057097630687
0.00663670153339616
0.0071083890774503
7.70222794082709e-05
7.83839883399754e-05
0.000634602296634441
7.99964495380456e-05
0.00064282061264374
0.0015136061262821
8.08133408330873e-05
0.000653158038995709
0.0015221808239786
0.0024861464491956
8.02770830619716e-05
0.000658279775955536
0.00153179005128508
0.00248752661175389
0.00343641468108136
7.8747576885725e-05
0.000654135298183134
0.00153275666393751
0.00248510212918479
0.00342575530092052
0.00430944284170217
7.67819529092297e-05
0.000642162811630415
0.00151885061207367
0.00247054715478152
0.00340500655028694
0.0042845035035063
0.00508399460812499
7.46138955096594e-05
0.000625704282597755
0.00149080361321711
0.00243809176417918
0.00336770605142171
0.00424296272680031
0.00504462731915111
0.0057560886806809
7.22739193503286e-05
0.000606647745523167
0.00145241345560636
0.00238749713902747
0.00330962281401613
0.00417992833275596
0.00498250223081497
0.00570225329209484
0.00632932879003957
6.99783267420074e-05
0.00058561366938727
0.00140639940742294
0.00232128204846943
0.00323018236465982
0.00409252266554434
0.00489355188215413
0.00562012237790825
0.00625986683504481
0.006809340667815
8.05170168532247e-05
0.000565668975369143
0.00135464020608639
0.00224151411394718
0.00313048707039807
0.00398015168823398
0.00477557738070693
0.00550554140808728
0.00615708821506253
0.00672199053834993
0.00720136426140608
6.93589320969959e-05
0.000552391019742802
0.00130169241943377
0.00214936387580117
0.00301122727170024
0.00384282501772966
0.00462796478165481
0.00535629774133946
0.00601608720664726
0.00659647112289465
0.007093031487716
0.00750954183789833
7.71384843167835e-05
7.85250939911541e-05
0.000635726252138394
8.01693398500741e-05
0.000644187324621278
0.00151683269384933
8.10244241082744e-05
0.000654835503936674
0.00152609397564319
0.00249266799938269
8.05298232984773e-05
0.000660326570729117
0.00153655374838679
0.00249540029495813
0.00344758289852925
7.90468961350746e-05
0.000656594933461919
0.0015385226174477
0.00249460445400508
0.00343916541244463
0.00432679277947129
7.71336998649192e-05
0.000645074699671998
0.00152574448378186
0.00248194085358517
0.00342105606677174
0.00430521853883031
0.00510925968809476
7.50190874877957e-05
0.000629110916774509
0.0014989361096249
0.0024516060785889
0.00338677409164344
0.00426757090217393
0.00507463824866303
0.00579122316340311
7.27031674711259e-05
0.000610603705103725
0.00146189287244882
0.00240333340670237
0.00333204377949315
0.00420892680287357
0.0050179322045911
0.00574379908578937
0.00637653076793151
7.03862102098536e-05
0.000589988070461997
0.00141723693327935
0.00233960469725851
0.00325623978073341
0.00412634485157671
0.00493502239368867
0.00566892256682067
0.00631546040649427
0.00687107330872236
8.19350765591077e-05
0.000568606237046362
0.00136634231328735
0.00226235581673976
0.00316040184015778
0.00401917036983031
0.00482363564927498
0.00556236820238184
0.00622213166835385
0.00679446164237051
0.00728039108635031
7.1721931091007e-05
0.000559114522279566
0.00131123716800211
0.00217249497470508
0.00304518056351762
0.00388743013730678
0.00468318401074446
0.00542192471985207
0.00609162263475666
0.0066811006582734
0.00718567857896937
0.00760906792887596
5.89356973174407e-05
0.000517317875426852
0.00124723430725885
0.00206950048834752
0.00291014584693755
0.00373056121657813
0.00451316274039358
0.00524702722212836
0.00592134919860187
0.00652511936808212
0.00704972304815642
0.00749317583785561
0.00786067640926422
7.7235763665163e-05
7.86437658949738e-05
0.00063666454118457
8.03147270306304e-05
0.000645326258388705
0.0015195162677405
8.12013984090682e-05
0.000656232496021772
0.00152934698121377
0.00249808273531803
8.07422749270123e-05
0.000662033102507559
0.00154051873870095
0.00250194769172117
0.0034568646666291
7.92984760768373e-05
0.000658650671703238
0.0015433349115976
0.00250252903455006
0.00345034359881206
0.00434125194424869
7.74305252898196e-05
0.000647516618807611
0.00153151877219752
0.00249147909929027
0.00343448623280304
0.00432254823874729
0.00513039602135582
7.53683580765479e-05
0.000631980050840924
0.00150577442984955
0.00246296751845151
0.00340280003791058
0.00428824559463535
0.00509984686056043
0.00582073816428141
7.30908463098264e-05
0.000613944775537927
0.00146989302053502
0.00241670224724504
0.00335097342282096
0.0042334005622794
0.00504782064218274
0.00577883928781491
0.00641634728219154
7.07544505538636e-05
0.000593917555102579
0.00142647198660344
0.00235513730198636
0.00327833863590264
0.00415501996632713
0.00497015960334149
0.00571024694583084
0.00636252711853687
0.00692334826579342
8.17330970419758e-05
0.000572878684338269
0.00137655585418832
0.00228010487982934
0.00318587961502203
0.00405238499212588
0.00486451460987778
0.00561066966444171
0.00627738330107461
0.00685600890280791
0.00734752445219496
7.36882694162141e-05
0.0005647325238391
0.0013215668892737
0.0021923325514274
0.0030741647075957
0.00392545992271769
0.0047302275223284
0.00547780368563254
0.00615590317050409
0.00675307309183591
0.00726445140686941
0.00769372868443943
6.11323817062856e-05
0.000525893702312966
0.00126132851232137
0.00209146256386838
0.00294277950054443
0.00377369380485473
0.00456681628775095
0.00531109998150737
0.00599548239204828
0.00660863375552764
0.00714165339095385
0.00759235546207834
0.0079659402798142
4.81052209655813e-05
0.000474519226462749
0.0011758301944222
0.00197225606906397
0.00278968403312692
0.00359556359477756
0.0043730146854722
0.00510999890750685
0.00579560794308098
0.00641957767354568
0.00697232784241976
0.00744703648623944
0.00784332428884034
0.00816729318646242
7.73153320105948e-05
7.87429342120229e-05
0.000637447852408026
8.04373725375355e-05
0.000646276384306905
0.0015217519474399
8.13505034423206e-05
0.000657396521035664
0.00153205197679397
0.00250257729503853
8.09215456760226e-05
0.000663454843591731
0.00154381509319781
0.002507383400494
0.00346456224388032
7.95104159851754e-05
0.000660365928504514
0.00154734192184446
0.00250912017932542
0.0034596333441136
0.0043532620860653
7.76805138518271e-05
0.000649558830968553
0.00153634026814631
0.00249943724339166
0.00344568435506017
0.00433699092915358
0.00514800820539082
7.56648477272068e-05
0.000634388003633051
0.00151150466994952
0.0024724839181109
0.00341621735670186
0.00430554699838323
0.00512093628523919
0.00584543025280794
7.34389322255685e-05
0.000616763009985594
0.00147662504908904
0.00242794796743423
0.00336689325740025
0.0042539741150182
0.0050729351037743
0.00580827614151279
0.00644980007893182
7.10552325681846e-05
0.000597086670398441
0.00143429500206138
0.00236826389186558
0.00329701011657647
0.00417923896864082
0.00499982011009098
0.0057451139496939
0.00640223198333684
0.00696745505027021
8.34223651192401e-05
0.000576964769900954
0.00138551846340811
0.00229520999793491
0.00320750787733015
0.00408056866698785
0.004899179491895
0.0056516013338019
0.00632418156680008
0.00690813225174685
0.00740439454304289
7.51807800553662e-05
0.00056832425774337
0.00133108941523939
0.00220931670626173
0.00309887264199608
0.00395786027204557
0.00477027710918991
0.00552534059962126
0.00621055174032957
0.00681423135845409
0.00733138181836684
0.00776568928564258
6.30314140447511e-05
0.000533073075249578
0.00127300619789883
0.00211031160811728
0.00297063238520245
0.00381049246881946
0.00461255858028685
0.00536569508153961
0.00605862134157737
0.00667973235451921
0.0072198779909314
0.00767674337120112
0.00805555863443562
5.00109646724543e-05
0.000483047387370683
0.00119103952855747
0.00199460839450218
0.00282099546569496
0.00363697707881537
0.00442476477278173
0.00517211498730698
0.00586787409275219
0.00650147646173931
0.00706302424292535
0.00754544855943346
0.00794822527745691
0.00827751401565956
3.72885971493266e-05
0.000425608319582093
0.00108856662922215
0.00185310675127394
0.00264555920783747
0.00343461066089087
0.0042047226190934
0.00494310107920411
0.00563792596416167
0.00627897475623196
0.00685716007843475
0.0073641949278258
0.00779456695471364
0.00814900888711638
0.00843431049129489
7.73752198943516e-05
7.88229007168916e-05
0.000638098601987927
8.05397464662215e-05
0.000647067850022893
0.00152361911191195
8.1476277377433e-05
0.00065836703459477
0.00153430465063602
0.00250631286708767
8.10727194181316e-05
0.000664639530039611
0.00154655580012788
0.00251189468495829
0.00347093979461773
7.96893703403099e-05
0.000661795988648131
0.00155067396567461
0.00251459281540572
0.00346733697540076
0.00436321203385469
7.78919578886883e-05
0.000651264120577432
0.00154035660893663
0.00250605870671946
0.00345499279396553
0.00434898711293925
0.00516262990046367
7.5914747582692e-05
0.000636403248110939
0.00151629114626617
0.00248042747578987
0.0034274098916479
0.00431997035456166
0.00513850935488397
0.00586600155659605
7.37392623902879e-05
0.000619131230460538
0.00148226832994445
0.00243737168478028
0.00338022931101654
0.00427119978704442
0.00509395232682301
0.00583290323410829
0.00647778713579384
7.13705459010933e-05
0.00059980128078612
0.00144088508768624
0.00237931353443943
0.00331272271831811
0.00419961183733286
0.00502475719000458
0.0057744152135305
0.00643559209662158
0.00700451858967051
6.94859885421831e-05
0.000578780664145897
0.00139302807336593
0.00230800632338452
0.00322579740139203
0.00410439046488121
0.00492846300171578
0.00568615838751214
0.0063636744376291
0.0069521135273067
0.00745239268781378
7.65883273534334e-05
0.000572530566774493
0.00133975180357699
0.00222390006917212
0.00311987952687686
0.00398537577597278
0.0048042662460414
0.00556565648989666
0.0062568705868074
0.00686604691834504
0.00738808508622651
0.00782667588230945
6.46167925025587e-05
0.000538595327263271
0.00128232992945484
0.00212649195198324
0.00299439778387464
0.00384186667624598
0.00465153080044148
0.00541217683417443
0.00611234318297548
0.0067401945525834
0.00728637698174415
0.00774848397632823
0.00813178212972131
5.16729152384078e-05
0.000490447397744602
0.00120383606372027
0.00201339705705588
0.0028476643481925
0.00367231656458847
0.00446891273910696
0.00522507859035426
0.00592946535055417
0.00657125376514857
0.0071402748123123
0.00762924302167491
0.00803755319947672
0.00837143892830117
3.88399724922801e-05
0.000433606828764649
0.00110350752065794
0.00187518548853328
0.00267573023575214
0.00347410960041457
0.0042542310823592
0.00500284399585591
0.00570784224592239
0.00635870951250822
0.00694604645243466
0.00746126738555582
0.00789865595959662
0.00825885288723548
0.00854875634889707
2.66323513091878e-05
0.000370178070219892
0.000984946021909705
0.00170912532304042
0.00247265862756877
0.00324315470180572
0.00400441204695636
0.00474301225687639
0.0054460257701438
0.00610242636766554
0.00670319870004361
0.00724040170411572
0.00770680205768261
0.00809786451763788
0.00841517107024534
0.00866611241467113
7.74109199648652e-05
7.8878891408658e-05
0.000638632374992117
8.06204242474305e-05
0.000647721659633178
0.0015251831599547
8.15803337437534e-05
0.000659174156996917
0.00153618465464356
0.00250942717080669
8.11994090825175e-05
0.000665626399330894
0.00154883719037211
0.00251564326122232
0.00347622662937141
7.98404063169197e-05
0.000662987405175741
0.00155344409907227
0.0025191345348471
0.0034737187966569
0.00437144063944708
7.80709155598556e-05
0.000652686437792501
0.00154369716955615
0.00251155769165014
0.00346271299356372
0.00435892450697725
0.00517472971611321
7.6127298174279e-05
0.000638087531478496
0.00152027956880024
0.00248703914700851
0.00343671715258017
0.00433195333829563
0.00515309812141823
0.00588307105393265
7.39936616514263e-05
0.00062111519808213
0.00148698283500299
0.00244524045679889
0.00339135938239834
0.00428556668309616
0.00511147020922587
0.00585342045232891
0.0065010995359787
7.16715312492035e-05
0.000602117576194155
0.00144640909849014
0.00238857596654412
0.00332589173975384
0.00421667943506948
0.00504563669555064
0.00579893638959778
0.00646350202919558
0.00703552796293743
6.93344484424247e-05
0.000581036295020329
0.00139939066709843
0.00231878845102954
0.00324119814367561
0.00412444219054305
0.0049530993838682
0.00571521521623375
0.00639686723906598
0.00698907269882976
0.00749273436816751
7.7685478620443e-05
0.000559887662249956
0.00134623861688133
0.00223625362737998
0.00313766565052928
0.00400864999234557
0.00483300014215303
0.00559971810491659
0.00629598200080409
0.00690978364158705
0.00743594467624098
0.00787816617850496
6.5956761268613e-05
0.000543711711571913
0.00129071025502905
0.00214049463227934
0.00301465141781552
0.00386853389369073
0.00468463096819433
0.00545162854942099
0.00615791103327864
0.00679145301847192
0.00734273660784414
0.00780928880860424
0.00819641406643777
5.30656572928027e-05
0.00049655001344695
0.00121430023406687
0.00202914215135183
0.00287040683176083
0.00370246264227961
0.00450655341170999
0.00527020506020611
0.0059819101278166
0.00663063789582174
0.00720599279040166
0.00770051281165952
0.00811354048761143
0.00845138100969744
4.02096014633155e-05
0.000440661329842382
0.00111638136882354
0.00189391704704509
0.00270137683394712
0.00350780981154611
0.00429649036473585
0.00505381856265745
0.00576746987793038
0.00642668756689805
0.00702181043392528
0.00754399719622491
0.00798734968736765
0.00835247161818816
0.00864637487844907
2.77706744750486e-05
0.000377329269436427
0.000998924532381484
0.00173017161407448
0.00250138066881658
0.00328054087253629
0.00405133862908788
0.00479995059076546
0.00551309345097021
0.00617943278544995
0.00678964664359016
0.00733549004816009
0.00780945919083364
0.00820685905352258
0.00852922891840662
0.00878411347397501
1.63596378008304e-05
0.000306250051998791
0.000861632191309175
0.00153619747429521
0.00226559016101989
0.00301551537133351
0.00376708036676028
0.0045053767311501
0.00521628563788026
0.00588761081609152
0.00650961563360097
0.00707448153291262
0.00757529249609556
0.00800568268041231
0.00836188839641077
0.00864620565343799
0.00886657969511712
7.74562492400288e-05
7.88996300887679e-05
0.000639073241596755
8.06700918471857e-05
0.000648253098315608
0.00152650064954623
8.16599156026158e-05
0.000659837115581083
0.00153775737905906
0.00251203748895304
8.130267274495e-05
0.000666444913696616
0.00155073922129155
0.00251876727949541
0.00348062032143291
7.99671591353691e-05
0.000663977953477354
0.00155574850008345
0.00252290732670117
0.00347900824720778
0.00437824363182415
7.82210380244055e-05
0.000653870772758333
0.00154647371076481
0.00251612113830191
0.00346910867467039
0.00436714210802008
0.00518471893815292
7.63066219620366e-05
0.000639491509778058
0.00152359698201387
0.00249253092117208
0.00344443824620829
0.00434188134653658
0.00516517051059899
0.00589718354786763
7.42115462491656e-05
0.000622771833885585
0.00149091175662849
0.00245179121724417
0.00340061809873838
0.00429750739439885
0.00512601669990346
0.0058704449544262
0.00652043539368882
7.19441313038491e-05
0.000604072427074161
0.00145102137319612
0.00239631045103532
0.00333688647128941
0.0042309216202898
0.00506304787797555
0.00581937111982429
0.00648675039934306
0.00706135474772684
6.95823205650237e-05
0.000583251761961098
0.00140475142789233
0.00232782633932671
0.00325411052116342
0.0041412497810933
0.00497373926059203
0.00573954413135836
0.00642464550457544
0.0070199951114412
0.00752648906176437
7.8630934670036e-05
0.000560031288834918
0.00135209426954516
0.00224668049648091
0.00315265244574164
0.00402825240307864
0.00485718992182482
0.00562837690363043
0.00632887171557545
0.00694654871289394
0.00747617090502745
0.00792145360857704
6.70691103026636e-05
0.000546299401114431
0.00129337280065744
0.00215217832137898
0.00303181444288268
0.00389110805358128
0.0047126329162154
0.00548498408125178
0.00619641481761858
0.00683474369965191
0.00739032167089785
0.00786062762199099
0.00825100338624915
5.4222735800889e-05
0.00050168020370413
0.00122336144470632
0.00204268630745667
0.00288981609815602
0.00372810920907527
0.00453854595189772
0.00530853483608882
0.0060264279955109
0.00668101842636776
0.00726172371226991
0.00776094027895123
0.00817797627548827
0.00851920312760577
4.13563471242489e-05
0.000446562824663743
0.00112718682560371
0.00190968085934532
0.00272316608982967
0.00353656118331747
0.0043325438439606
0.00509728196435423
0.00581827951700747
0.0064845821290969
0.00708631005619926
0.0076144081658984
0.0080628299917814
0.00843216265677927
0.00872952121046016
2.88025517150075e-05
0.000383731059488882
0.00101113704524179
0.00174824379921636
0.00252588427613567
0.00331245316484226
0.00409141814504787
0.00484856746152177
0.00557033127671591
0.0062451261960807
0.00686337723011183
0.00741658348744034
0.00789700761399556
0.00829980799973805
0.00862652772867776
0.00888486097096043
1.70000522996416e-05
0.00031219929530766
0.000874104464607628
0.00155553428298581
0.0022923190319678
0.00305042448663591
0.00381105282690246
0.00455905969845255
0.00527998619872746
0.00596131015080596
0.00659298314346453
0.00716688428109574
0.00767581314512365
0.00811316708441754
0.00847506654634845
0.00876381024025655
0.00898753707510861
7.67045116388881e-06
0.000231415569886495
0.00071246045538457
0.00132747582712512
0.00201759579920503
0.00274502392499011
0.00348661010187437
0.00422484353964852
0.00494405565474433
0.00563075616888764
0.00627409988454385
0.00686565398000779
0.00739872302025483
0.00786731157027123
0.00826578754454225
0.00859103757165472
0.00884599550408073
0.00903912119478937
7.89432993718381e-05
0.000639509039404837
8.06728215689958e-05
0.000648691112978681
0.00152763267229725
8.17031815690032e-05
0.000660366190655009
0.00153907971088292
0.00251424624882095
8.13792783402252e-05
0.000667112514928028
0.00155232684898673
0.00252138435378118
0.00348429036412977
8.00694929910057e-05
0.000664795433416319
0.00155766672038711
0.00252604950946719
0.0034834030200823
0.00438387537440666
7.83452456098098e-05
0.000654853536827157
0.00154878096998029
0.00251991041812525
0.00347440882301131
0.00437393493273211
0.00519295445978662
7.64544500386756e-05
0.000640658402906329
0.00152635277437266
0.00249708765356712
0.0034508349919609
0.00435009182676064
0.00517513629103364
0.00590881469745641
7.4388556529401e-05
0.000624133426658489
0.00149417729517931
0.00245723223293671
0.00340830045440314
0.0043074031302125
0.00513805646812757
0.0058845194322203
0.00653640611365216
7.21780545188217e-05
0.000605656722237668
0.00145485899115928
0.0024027490262485
0.00334603469990123
0.00424276337515373
0.00507751157169467
0.00583633144122414
0.00650603241834962
0.00708276597794267
6.99527468644025e-05
0.00058518064355861
0.00140922967150783
0.00233536901525406
0.0032648925252445
0.00415528091367276
0.00499095947068645
0.00575982803857761
0.00644779070195762
0.00704574940248607
0.00755459958492088
7.94263400931074e-05
0.00056206847436696
0.00135723304510088
0.00225542723066033
0.00316521917769463
0.00404469035490043
0.00487746701196044
0.00565238658365437
0.00635640993316741
0.00697731765560589
0.00750982932535892
0.00795767677213581
6.79823028570313e-05
0.000549298869598976
0.00129816458848282
0.00216212338328949
0.00304628487415489
0.00391013087126984
0.00473622055485796
0.00551306699892087
0.00622881390268156
0.00687115245717386
0.0074303290077065
0.00790378841657685
0.00829690889816362
5.51750627146773e-05
0.000505792845080385
0.00123004505734571
0.00205337079712227
0.00290623650392158
0.00374983307775527
0.00456562861057273
0.00534096401427316
0.00606407082093279
0.00672359557462496
0.00730880281215
0.00781197606807212
0.00823240159288522
0.00857651132011939
4.22995332769297e-05
0.000451446561084043
0.00113628623056126
0.00192309617069162
0.00274173044470122
0.00356103386235437
0.00436320830622301
0.00513422544837005
0.00586144050909776
0.00653373392614455
0.00714104455843349
0.00767414066511545
0.00812685703823957
0.00849977528650368
0.00880010211911366
2.96843869629413e-05
0.000389134430158555
0.00102149513004287
0.0017635777773492
0.00254673200120858
0.00333967655108734
0.00412563229752888
0.00489005134502849
0.00561914043998089
0.00630111413017256
0.00692618824292944
0.00748564773698011
0.00797155883993873
0.00837895979096951
0.00870940992877534
0.00897073500783947
1.76464171054822e-05
0.00031759250186322
0.000885125735430277
0.00157228801203035
0.00231524589498537
0.00308028540672008
0.00384864732742791
0.00460493729001029
0.00533439354844027
0.00602422524936148
0.00666412843043477
0.00724573131997991
0.00776159216714532
0.00820490072703972
0.00857166557569346
0.00886422673889422
0.00909090385434659
7.8054923900904e-06
0.00023563378153006
0.000722909514119356
0.00134448472830573
0.00204169086369655
0.00277693925436847
0.00352717326250586
0.00427478801330097
0.00500384855344843
0.00570055064217773
0.00635373353208768
0.00695465793570007
0.00749634092092594
0.00797252955236865
0.00837739133888777
0.00870773920388851
0.00896655041973718
0.00916251225850584
1.99374568338856e-06
0.000144322048062608
0.000530115627764995
0.001074192738927
0.00172002632055192
0.00242377585042776
0.00315586178251279
0.00389509666789751
0.00462380583890961
0.00532707043184325
0.00599282235725076
0.0066116437733179
0.0071763564915589
0.00768131871990184
0.00812136339162994
0.00849149861817771
0.00878918729848036
0.00901794715439183
0.00918669108548524
8.07086086119744e-05
0.000649135673217891
0.00152866750922005
8.16934486884836e-05
0.000660789403739492
0.00154021465752904
0.00251615238725746
8.14172516585622e-05
0.000667634148733207
0.00155365560761723
0.00252359721724377
0.00348738301067088
8.01429492997099e-05
0.000665456294908892
0.00155926263150695
0.00252867861127944
0.00348707262912567
0.00438855525369844
7.84444135783371e-05
0.000655660594771936
0.00155069693747623
0.00252306320789291
0.00347881074607919
0.00437955760605091
0.00519974574085208
7.65743725848625e-05
0.000641622948822863
0.00152863934921693
0.00250086875181924
0.00345613477927601
0.00435687839600855
0.00518335184654486
0.00591837815123645
7.45265609091602e-05
0.000625263430307732
0.00149688703349117
0.00246174495627628
0.00341466473515052
0.0043155879631223
0.00514799652877048
0.00589611859549934
0.00654954814001482
7.23068721067464e-05
0.000606917242134675
0.00145802156822713
0.00240809439514034
0.00335362557531561
0.00425257955404385
0.0050894865952347
0.00585035575950004
0.006521958619125
0.00710043719797852
7.02321865586827e-05
0.000586676582368298
0.00141288191913975
0.00234164213674166
0.00327386360838811
0.00416695053099716
0.00500527056513289
0.005776670098004
0.00646699194883346
0.00706710073578796
0.00757789628782538
8.00761062794758e-05
0.000564273023568205
0.00136151526146434
0.00226271969953819
0.00317570979704172
0.00405841641465936
0.00489439231816268
0.00567241473703141
0.00637936564084633
0.00700295117218345
0.00753785967050023
0.00798784192354513
6.87301741615249e-05
0.00055213811635036
0.00130306989219096
0.00217052344257951
0.00305841795386424
0.00392608665897672
0.00475600227693287
0.00553660762601863
0.00625595689058564
0.00690163779657779
0.00746381367341732
0.00793990626991115
0.00833532930572126
5.59525615059812e-05
0.000509262942942098
0.00123605405722968
0.00206275673914999
0.00292009357590141
0.00376814608305622
0.00458845363260927
0.00536828349473651
0.00609576559544609
0.00675942587525145
0.00734840410197408
0.0078548941742614
0.00827816979399355
0.00862471819796735
4.30609954145676e-05
0.000455462168402136
0.00114374305743153
0.00193416820896319
0.0027573349603786
0.00358176450982017
0.00438918137658063
0.00516550189568724
0.00589796061073713
0.00657530050274027
0.00718731066838825