/*--------------------------------*- C++ -*----------------------------------*\
  =========                 |
  \\      /  F ield         | OpenFOAM: The Open Source CFD Toolbox
   \\    /   O peration     | Website:  https://openfoam.org
    \\  /    A nd           | Version:  12
     \\/     M anipulation  |
\*---------------------------------------------------------------------------*/
/*   Windows 32 and 64 bit porting by blueCAPE: http://www.bluecape.com.pt   *\
|  Based on Windows porting (2.0.x v4) by Symscape: http://www.symscape.com   |
\*---------------------------------------------------------------------------*/
FoamFile
{
    format      ascii;
    class       volScalarField;
    location    "200";
    object      omega;
}
// * * * * * * * * * * * * * * * * * * * * * * * * * * * * * * * * * * * * * //

dimensions      [0 0 -1 0 0 0 0];

internalField   nonuniform List<scalar> 
10116
(
2.99390904131886
3.02453857191883
2.94703809731805
1.01974914413324
3.05066005874498
2.97655465577079
1.02999280289416
2.89391033214284
1.00522930444488
0.623902406840249
3.07244037341439
3.00221471904485
1.03872954222168
2.92286246789767
1.01514857509577
0.629953608507317
2.8398052546076
0.985322359523029
0.618494500090319
0.475492031026944
3.09055072447788
3.02372194339994
1.04617479696342
2.94800239804745
1.02369449001024
0.635135819275997
2.86822667295931
0.994902143396218
0.624415771801304
0.479871892884609
2.79273241379897
0.966231794112277
0.609829350186511
0.473260061003715
0.403357252877703
3.10564423135316
3.04152856830965
1.05248070438968
2.96921877306173
1.03103640976125
0.639584740178584
2.89281178101385
1.0032062407459
0.62952462994241
0.483648109130908
2.82070593800023
0.975538939088642
0.615586948310908
0.47757105057168
0.406852797270896
2.74863260908652
0.950462712635565
0.600354776594202
0.469030245012299
0.402419461422888
0.3634334938606
3.11822367683006
3.05634934631372
1.05780432584789
2.9867405266593
1.03726060099362
0.643387297414722
2.91373303295205
1.01040330428021
0.63392594621553
0.486906534073587
2.84486441523482
0.983612870972569
0.62058888718094
0.481312109150914
0.409883726526713
2.77617343241325
0.959565625977903
0.605965844442027
0.473252271598128
0.405870133223348
0.366376798961475
2.69968941079962
0.936302754522543
0.591414050479439
0.463666101932103
0.400131082578825
0.36303434435604
0.339665414503464
3.12870172866081
3.06871112337348
1.06228714831649
3.00132187424015
1.04251551366763
0.64662265938896
2.93100341703595
1.01651632231269
0.637692451406302
0.489707022392499
2.86554350989681
0.990669329973299
0.624918738226701
0.484547587161383
0.412511952332387
2.79995233211969
0.967454154574376
0.610857231069337
0.476938353587961
0.408880960152692
0.368942202631405
2.72663968874515
0.945236299594099
0.596902037253047
0.467804057177422
0.403524317611667
0.365942817234881
0.342225256714583
2.64273899301821
0.920854814312695
0.58271942965926
0.457843098186278
0.396775458311366
0.361629521977894
0.339460986988082
0.324924343694499
3.13742774492875
3.07901817761401
1.06605211329876
3.01348598013246
1.04694146150668
0.649364244723077
2.94537513299864
1.02168082312642
0.640898630940945
0.492102328298468
2.882606654882
0.996679699051446
0.628632502317427
0.487331072300845
0.414781342050571
2.82041562829845
0.974391954435483
0.615109944891597
0.480136954625285
0.411497106631806
0.371177669452863
2.74998158272195
0.95296561306203
0.601694082951994
0.471428535552056
0.406502474222562
0.368494802163007
0.344467821300469
2.66850932459577
0.929637209604275
0.588109199580643
0.461909760583462
0.400115331810249
0.364494941424212
0.341990515789251
0.327198504446432
2.58218057524573
0.902148200657762
0.573315091984036
0.451689328699456
0.392700712215091
0.35929951317506
0.338440923997642
0.324777682931242
0.31561877727787
3.1446978825981
3.08760880235554
1.06920671594944
3.02363378507473
1.0506599225914
0.651678709340965
2.95736084217179
1.02603259330483
0.643616183001012
0.494141436174138
2.8968029566611
1.00176280073412
0.631797393474146
0.489712961546166
0.416730807862385
2.83729235226167
0.980316172099447
0.618767155173146
0.482893867525033
0.4137580292223
0.373116521999438
2.77005312158414
0.959792882830739
0.605874311641833
0.474583035598296
0.409098048909108
0.370723270703153
0.346431591678947
2.69113933400781
0.937238196077688
0.592814748667054
0.465475675561352
0.403055677855627
0.367024921944318
0.344222714110534
0.329200958714806
2.60450903191641
0.911033283017106
0.578639538752246
0.455699256588827
0.395995621387189
0.362127420011398
0.340934667772031
0.327023671248331
0.317669972732671
2.19479106206845
0.877663539434832
0.562361004820657
0.444996299227046
0.388126975176083
0.356258553726745
0.336638663635223
0.323922921127444
0.315490763612024
0.309775084557735
3.15077160836771
3.09477245110122
1.0718453583386
3.03209711592607
1.05377664673235
0.653626126265494
2.96736171545506
1.02969042314252
0.645910816251688
0.495869794266614
2.90864899768028
1.00604853344871
0.634481822261314
0.491741180022472
0.418396905130059
2.85134029752078
0.985331818997139
0.621888363512171
0.485255601975397
0.41570106497841
0.374788774598337
2.78676237518309
0.965636973319019
0.609477537712588
0.477307671649591
0.411344997276951
0.372657721036685
0.348142292935214
2.7104211999638
0.943938257545551
0.596927963295801
0.468585153523333
0.405624846215132
0.369241038557995
0.34618183567888
0.33096305862794
2.62521826380972
0.918625653007324
0.583279678426849
0.459213416548243
0.398899159926563
0.364632304573287
0.34315034833734
0.329017156422333
0.319485159197896
2.58602787095789
0.8883424443738
0.567747398141307
0.448965680279906
0.391385902919531
0.359056756443264
0.339103878830156
0.326137123315042
0.317514911480597
0.311647082517455
2.19479622405428
0.83073847586977
0.549184375942202
0.437526340217142
0.383127200419755
0.352739120685711
0.334229916536244
0.322408657321487
0.314720738780145
0.309661028163245
0.306228624689259
3.15587332607929
3.10076177332251
1.07405137786051
3.0391607928406
1.05638440872575
0.655260448244674
2.97570931084902
1.03275782795028
0.647841870235714
0.497329243024908
2.91854014014412
1.00965285558212
0.636749694778482
0.493460591866832
0.419814151688064
2.86307040719735
0.989563643748219
0.624538186593487
0.487268108437438
0.41736206938016
0.376223203004492
2.80068816448245
0.97059058673297
0.612556922024997
0.479645042561306
0.413278040056342
0.374326874474572
0.349623590884971
2.72695957889415
0.949694523680454
0.600479464492764
0.471275494486879
0.407853091115584
0.371168027076545
0.347890045819554
0.332504820181487
2.64217447455074
0.925216932534027
0.587334985783235
0.46228025647913
0.401439936315053
0.366832058676462
0.345101438077777
0.330775712697695
0.32109021141651
2.5784093032667
0.896594259725736
0.572388362722754
0.452438828495724
0.394256658283269
0.361537835882726
0.341301828496948
0.328117103454503
0.319321871228773
0.313311663953611
2.19480165421141
0.859769367004621
0.554907513932695
0.441488084391355
0.386358248025652
0.355515019147769
0.33667544892013
0.324599973102704
0.316715572273605
0.311506694469473
0.307954241378542
2.19511835084351
0.804610220856661
0.532904193893791
0.429165441987204
0.377725970109856
0.348914372745461
0.331443960906989
0.320412970472505
0.313388829608573
0.308951513509477
0.306131046291735
0.304246095445578
3.16018800469855
3.1057993846872
1.07589796375882
3.04507488192196
1.05856519459835
0.656629949737223
2.98268467560553
1.03532568069933
0.649462690323508
0.498557994517688
2.92680034514403
1.01267701680834
0.638659099506333
0.494912652860235
0.421014878930142
2.87286634641837
0.993124752868681
0.626778401578511
0.488975113083067
0.418775188569221
0.377447515159855
2.81230198022544
0.974772378254117
0.615173603881442
0.48163875145964
0.414931674790317
0.375758969114055
0.350898763030985
2.74080807468802
0.954580067211015
0.603517757089754
0.473586376452034
0.409772599113674
0.372832455953785
0.349369813408477
0.333845025561041
2.65780879462439
0.930853019844986
0.590836502156992
0.464936337663556
0.403646670027411
0.368748310413487
0.346805658749129
0.332315871070841
0.32250060600147
2.57299015957204
0.903127085238469
0.576423278663871
0.455469052687669
0.39676992131033
0.363719780363171
0.343242536229003
0.329870030486597
0.32092396039001
0.314790409300427
2.19480411277543
0.869866298717065
0.559733714741831
0.444942113335654
0.389201663520333
0.357975797819474
0.33885819775345
0.326566891606955
0.318510912181198
0.313163542297488
0.30949546952709
2.19512371954644
0.811776642697545
0.539693224528563
0.433152744002526
0.380937087000863
0.351673991108521
0.33387773482019
0.322591843727377
0.315364732486164
0.310769611476117
0.307830866530738
0.305851360267796
2.1948478584119
0.785557072516661
0.517894774066893
0.420090861731153
0.37200869543854
0.34492000111525
0.328483595604393
0.318162814754263
0.31168941539471
0.307756184123131
0.305475140326624
0.304166681267371
0.303339150810655
3.16384924149786
3.11007270186525
1.07744839052932
3.0500590560166
1.06039122056407
0.657777525190951
2.98853246705457
1.03747412794201
0.650821045022902
0.499590672113515
2.93370578367854
1.01521000936628
0.640262395938919
0.496135288515091
0.422029036408298
2.88104277559224
0.996114017657539
0.62866561741851
0.49041731448653
0.419972528430384
0.378488152630813
2.82197977223706
0.978292179274031
0.617387320064887
0.483331076872487
0.416339257038049
0.376981454261079
0.351990757124076
2.75229212045207
0.958704275645813
0.606101199421892
0.47555935132916
0.411416258035967
0.374261490303587
0.350643950694362
0.335002784208543
2.67155472451545
0.935644951449378
0.59383196504684
0.467219621205393
0.405549840423383
0.370405619253518
0.348283521854847
0.333655283899002
0.323731283900356
2.58415048331153
0.908454990809269
0.57987609979946
0.45809275418545
0.398954330685817
0.365623055999914
0.344940872340806
0.33140814666213
0.32233323592281
0.316095196559655
2.19480992350875
0.875821565594567
0.563812213862403
0.447950922660169
0.391690406216236
0.360140780894038
0.340788291885934
0.328313287739832
0.320108888948308
0.314639729105563
0.310870583865641
2.19512596666166
0.817833857069641
0.544832535434324
0.43662078370018
0.383760000406339
0.354118609039072
0.336049565955247
0.32454978373854
0.317150307008697
0.312416208231791
0.309364761910355
0.307290656865862
2.19485291589123
0.79009805281443
0.522611120207454
0.424053096986015
0.37519951014044
0.347667799728079
0.330912280462729
0.320338637573133
0.31365849349728
0.309558366570536
0.307148741638835
0.305746571784397
0.304845500578323
2.19192765331609
0.766596655437347
0.504725548847748
0.411184544569485
0.366227039645625
0.340930925481558
0.325531048650952
0.315867278339437
0.309851328766861
0.306287974220635
0.304393685163592
0.303560650636225
0.30327773806856
0.303168412440662
3.16692111207951
3.11372365223945
1.07875585056084
3.05429530068793
1.0619251669952
0.658740925532721
2.9934660663852
1.03927379854962
0.65195940194635
0.500458369869726
2.93949722847089
1.0173301791015
0.64160651551551
0.49716289312453
0.422884080898486
2.88787141969794
0.998618226029795
0.630251047625566
0.49163208066886
0.420983887301193
0.37936990239168
2.83003355797149
0.981246446810717
0.619253214707506
0.484761730439246
0.417532389366289
0.378020598753654
0.352921854016326
2.76177868476217
0.962173197890728
0.60828782463307
0.477235314502968
0.412816383613814
0.375481981756146
0.351735191109175
0.335997451542322
2.68285980321998
0.939690326207544
0.596379080131249
0.469170303048461
0.407181001111077
0.371829901900636
0.349556903651932
0.334812625176431
0.32479806296366
2.59669351059075
0.913241652423689
0.582821283336488
0.460347875553748
0.400839571013933
0.367270970513321
0.34641556455063
0.332747247415355
0.323563530189352
0.317237887494531
2.19480540488336
0.880407827749426
0.567196045037105
0.450546119995147
0.393853370418946
0.362030478237723
0.342479595937022
0.329848688142176
0.321517368460467
0.315943743192855
0.312088629561832
2.19513163075226
0.824646249276783
0.548978792654563
0.439625991355659
0.386229444713217
0.35626890661609
0.337970746956196
0.326290821042516
0.31874450287618
0.313889410146345
0.31073766002914
0.308579815870091
2.19485255486382
0.79417663276636
0.526886015962405
0.427511903810322
0.378006167532276
0.350100219040404
0.333077927596045
0.322293229679165
0.315439918249521
0.311197757849598
0.308673491215589
0.30717888224301
0.306200380000687
2.19193032253663
0.770643081782005
0.50864448557703
0.414788990947528
0.369369482518764
0.343667426149776
0.327960349969122
0.318048267676955
0.311824655287495
0.308087869130749
0.306053786407638
0.305115404368807
0.304759045691163
0.304593858124539
2.18619316583205
0.745648163589865
0.492472876277238
0.403238255899244
0.360886862119135
0.337239607896575
0.322808977054604
0.313728524589992
0.308084948030656
0.304780708937625
0.303116136461215
0.302578266309243
0.302717413177498
0.303123677517905
0.303491303792723
3.16940193819126
3.11682497644929
1.07986329231057
3.05790952220489
1.06322010090329
0.659553010257801
2.9976579653872
1.04078572162769
0.652915138289491
0.501188740688091
2.94438217313075
1.01910643639995
0.642733192332712
0.498026363003162
0.423604919557006
2.89359076585543
1.0007142162247
0.631580652546431
0.492653358122218
0.421836607597951
0.380115750634861
2.83673889214796
0.98372023533291
0.620821284003376
0.48596734352812
0.418540522303475
0.378901119769727
0.353713291871871
2.76961119822074
0.965081517721788
0.610131411186799
0.478652968097932
0.414003888828932
0.376519826624465
0.352665704270669
0.336848211278207
2.69204511405119
0.943086382166775
0.598535039630768
0.470828261426945
0.408571506916377
0.373047220758984
0.350648039611617
0.335807056434642
0.325717467780641
2.607691910961
0.917241082825041
0.585324229217165
0.462274696041387
0.402456388761763
0.368688447058909
0.34768742458769
0.333905139214898
0.324630238733419
0.318231650214967
2.57978689467568
0.886760705835363
0.570117422293853
0.452771920277419
0.395720202963492
0.36366771875768
0.343949795908173
0.33118722492972
0.32274838372236
0.317086348571684
0.31315900858401
2.19512717403219
0.828624836771806
0.552268659904073
0.442191630728979
0.388372948486813
0.358145839249907
0.33965525513352
0.327823587243765
0.320152564415158
0.315193572725054
0.311955231797244
0.309725710293417
2.19485558276338
0.798254755965471
0.530908852513755
0.430504311458102
0.380459811268757
0.352238787526246
0.33499307031803
0.324031843286128
0.317032866051625
0.312669344828851
0.310044340842121
0.30846613188274
0.307417928625385
2.19193053319912
0.774104414110407
0.512156500185686
0.41801503923865
0.372144161143468
0.346089603781881
0.330124477875416
0.32000554728585
0.313609042736175
0.309727039142958
0.307573424162438
0.306539497879018
0.306107235398954
0.305878977039922
2.18619326213848
0.749509506473747
0.496058044916167
0.406571675897235
0.363926656009581
0.339958723453719
0.325243508877396
0.315922482556345
0.31007248964029
0.306590989971678
0.304777674556987
0.304121483029072
0.304174450152826
0.304524334781934
0.30485106312278
2.1872225768608
0.722841012426294
0.481099022147785
0.396778016449689
0.356692383185329
0.334323940386367
0.32064701215426
0.311997249275051
0.306602503399075
0.303446352492329
0.301882506789437
0.301462476860621
0.301821931134234
0.302604272522732
0.303461453041524
0.304131611282794
3.17118962762079
3.11929820944747
1.08080421025992
3.06092891090522
1.06431887458724
0.660242127064145
3.00121031000339
1.04206084154248
0.65372077834879
0.501806145561242
2.94852204384254
1.02059799939919
0.643679117324948
0.498753173539132
0.42421388226346
2.89840808572931
1.00246983605439
0.632695324597366
0.493511665107364
0.422555500013227
0.380746794755696
2.84234190089664
0.985789584387155
0.622136552888899
0.486981275496231
0.419390735819193
0.379645960916941
0.354385024144206
2.77609961894813
0.96751359995357
0.611680828457964
0.479848133168714
0.415007727250494
0.37739950882442
0.353456675086686
0.337573644919531
2.69955513130412
0.945926630595986
0.600352748698659
0.472231306476733
0.409751540881525
0.374082952800281
0.351578808483094
0.336657665644543
0.326506249546092
2.61664257430732
0.920550138317761
0.587442870762508
0.463912831534338
0.40383544142718
0.369900816407523
0.348778037921231
0.334900539189732
0.325549702352787
0.319090725098412
2.59153064750028
0.891146339425794
0.572587055263192
0.454672464811797
0.39732157387885
0.365076867470898
0.345218893114159
0.332345741929027
0.323816498831504
0.318080297925795
0.314092749812532
2.19512508842636
0.854891578864823
0.55541626978766
0.444391921581735
0.390221327826139
0.359772260567757
0.34112046190031
0.329161295841811
0.321384928404677
0.316337692100682
0.313025786789352
0.310735809605435
2.1948532106827
0.801311872128016
0.534037082147993
0.433031409512012
0.382583856941511
0.354104503225697
0.33667225684835
0.325563314286883
0.318441765333903
0.313974917857051
0.311262860784472
0.309611825265723
0.308503425161028
2.19192744641621
0.777287861010893
0.515380394420586
0.42089320228243
0.374573260016012
0.348218354464002
0.332037017616583
0.321745737359064
0.315204977788315
0.311200751823358
0.308944462382974
0.307825508656158
0.307323145738935
0.307036857029601
2.18619471361911
0.752742712483052
0.499176735467952
0.409528438700041
0.366620921543177
0.342367012953292
0.327410278638991
0.317888694410525
0.311867339664391
0.308238446901651
0.306300361187088
0.305542211290257
0.305515203169511
0.305803008748935
0.306078811233735
2.18721940471083
0.726658790587619
0.484530164103566
0.399947781243942
0.359635888133791
0.33701815952907
0.32309077452333
0.314212241257861
0.308614113859031
0.305278636556998
0.303559561520628
0.30301018232727
0.303269013102629
0.303981338193269
0.304796610902577
0.305438501065921
2.2161134346418
0.701173446336949
0.47219647192647
0.392913530026713
0.354591109545672
0.332913244356325
0.319550823707123
0.31103331604389
0.305672848432874
0.30250376177852
0.300907186060105
0.300459262196292
0.300844963223041
0.301784732504908
0.302978055099196
0.30411478360552
0.304960290967201
3.17252375910704
3.12085007914256
1.08160052491199
3.06328332998655
1.06524993445178
0.660832697419254
3.00410720013971
1.04313968941061
0.654404309379334
0.502331906666178
2.95200333066093
1.02185341687933
0.644476134676024
0.499367517478169
0.424730761411591
2.90247942672436
1.00394305189907
0.633630969865182
0.494234141158167
0.423162809328811
0.381282040969799
2.84705485530039
0.987521639503998
0.623239147698303
0.487833551480039
0.420107621724527
0.380276145810608
0.354955454627241
2.78151153522319
0.969547132772046
0.612980331470106
0.480853531963939
0.415854598082262
0.378143805863791
0.354128005892713
0.338191392191249
2.70571888157368
0.948300897865314
0.601879948736856
0.473414472487143
0.410749493321708
0.374961223928549
0.352370216431689
0.337382987999102
0.327180885322807
2.62343588310682
0.923294263135111
0.589229418218597
0.465299551833458
0.405006289292345
0.370932915292484
0.349708869957888
0.335752286599685
0.326338582537702
0.319829893083216
2.59889348865241
0.894401428926199
0.574666419268271
0.456288663328956
0.398687889372659
0.366282746378973
0.346307890202561
0.333342387815392
0.324737639850773
0.31893965346582
0.314902235565288
2.19511913237263
0.861893520166034
0.557937831566084
0.446267141930834
0.391806426726964
0.361172427645288
0.342385965460732
0.330320093966927
0.322455258379918
0.317333714271629
0.313959942026431
0.3116194321514
2.19485171209349
0.806177877780997
0.538513376689401
0.435232027148756
0.384413808490819
0.355720623571887
0.338133019190741
0.326900659981124
0.319676218668151
0.315121930392533
0.312335611000602
0.310622341559577
0.309462866457594
2.19192862319553
0.780050554811185
0.51807092899843
0.423329356326706
0.376672067741011
0.350073862298346
0.333713144630324
0.323278385427012
0.316617185389061
0.312510040255898
0.310165939495553
0.308972854563021
0.30840868642127
0.30807168121438
2.18619094240793
0.755661423709528
0.501958510737478
0.412153932014108
0.36899302150166
0.34448392077203
0.329323626649471
0.319635146884956
0.313471509378837
0.309719734544784
0.307676366396705
0.306829945568666
0.30673057439883
0.306959481977106
0.307187091595416
2.18721884687694
0.729809541492282
0.487467331899425
0.402722627202258
0.362235629643263
0.339404186539011
0.325263625415832
0.316194037041012
0.310427319784332
0.306943277620035
0.30509503631291
0.304436693007522
0.304607853585598
0.30525321839206
0.306018108166918
0.306619372869697
2.21610968677025
0.70515284485008
0.475591187068837
0.396008242377709
0.357477167984351
0.335591189595849
0.322010144846563
0.313278647777738
0.307719243858381
0.30436971020763
0.302612828213387
0.302026724107957
0.302299001472217
0.303153091597751
0.304290139058211
0.305397203868113
0.306225086224914
2.2869972684867
0.688943002947335
0.470672602585402
0.394359951827156
0.356263490601389
0.334147923792389
0.320302459045075
0.311376331834747
0.305679226726855
0.302234633463838
0.30041425440921
0.299785700514063
0.300037563049656
0.300927239730635
0.302224485375151
0.303662740085691
0.304954760070712
0.30588241059725
3.12175278839976
1.08228350084666
3.06458376526494
1.06602205851455
0.661346885156759
3.00629253397656
1.04405230795039
0.654989463911139
0.502784624108819
2.95479059646529
1.02291080894144
0.64515164336201
0.499890549317132
0.425172917334437
2.90587964689636
1.00518091559088
0.63441866722297
0.494844679090119
0.423678249387258
0.381738454959616
2.85102871519739
0.988973182967387
0.624164265668512
0.48855088347004
0.420713239944626
0.380810651868684
0.355441339892348
2.78607433516249
0.971247975530973
0.614069358292969
0.481698658496889
0.416568781119914
0.378773600217384
0.354698085850885
0.338717924852145
2.71085612588636
0.95030806461209
0.603160853348681
0.474409850696715
0.411591627254586
0.375704548536545
0.353042041015662
0.338000646035522
0.327757256820647
2.62918069271979
0.92565165434397
0.590731462096238
0.466469057068456
0.405996773842472
0.371808464163575
0.350500652467335
0.336478769017919
0.327013328497993
0.320463959842652
2.59898992174721
0.897016576753766
0.576417892408686
0.457657564767031
0.399848308148685
0.36730974834998
0.347237836432741
0.334195654463793
0.325528242824549
0.319679113460171
0.315600636156452
2.1951233616461
0.865123107531373
0.559980966232343
0.447860280795758
0.393159131542383
0.362370950546196
0.34347239608867
0.331317647515862
0.323378964107286
0.318195304064696
0.31476990488048
0.312387457724862
2.19484823000087
0.809152611758965
0.541286596618791
0.437090139127221
0.385982127007214
0.357111772754054
0.339394924767346
0.328059740766388
0.320749272592639
0.316121463100348
0.313272416594658
0.311506589175277
0.310304232449392
2.1919282280851
0.782651567900122
0.520759764056675
0.425578291960948
0.378483310169963
0.351680250791179
0.335170824333043
0.324616802474067
0.317855169486228
0.313661580949966
0.311242900918501
0.309986174425663
0.309368763225388
0.308988375043151
2.18619182441514
0.758263491363135
0.504381215419713
0.414417970275579
0.371046494915635
0.346328089877168
0.330999249018996
0.321172326405203
0.314890569378243
0.311036258737875
0.308904006781506
0.307981584719847
0.307818387631957
0.307994563747787
0.308179407800421
2.18721766922195
0.732618435061065
0.490055364086278
0.405165455579842
0.364521808586243
0.341502646689157
0.327180756720127
0.317952067078423
0.312045761782041
0.308438578595209
0.306482530774499
0.305731806000912
0.305826254072806
0.306409746435004
0.307125172080087
0.307686573409001
2.21610871984906
0.708459313420851
0.478474887524597
0.398694291365719
0.360012024211557
0.337957392532202
0.324193496438443
0.315283653045662
0.309559558962008
0.306060927383052
0.30417123341117
0.303469808135379
0.303645893325885
0.304424249790631
0.305505357938472
0.306571969949767
0.307367987102239
2.28698419106163
0.693561826221241
0.474164876030309
0.397463021657232
0.359147082653513
0.336836565344919
0.322791927288773
0.313664513193857
0.307773035198673
0.304147045039698
0.30216169331164
0.301387230674043
0.301514805681573
0.302304509228158
0.303528821430856
0.304922467820578
0.306195168659833
0.307114414587275
2.38167969099607
0.712984050167009
0.490422787615063
0.407690535933283
0.365146021915766
0.340025645751117
0.324161892839339
0.313858311866942
0.307190460065939
0.303040077204378
0.300695068742504
0.299670197370942
0.299619235565881
0.300286871632368
0.301469724116423
0.302966189273626
0.304529892496954
0.305886726189972
0.30682742260932
3.06515819040288
1.0666706686635
0.661806901882583
3.00739652086825
1.04480634964838
0.655497220996994
0.503180948359432
2.9568056020482
1.02380327331706
0.645729245323309
0.500340683605715
0.42555539947899
2.90855765874807
1.00621899481127
0.635085265308437
0.495364181263122
0.424119105095527
0.382130872064867
2.85431593631586
0.990189900479711
0.624942356014289
0.489156795810195
0.42122714617958
0.381266382902192
0.355857642162765
2.78992555778797
0.972671655754386
0.614982456188436
0.482409779150616
0.417172078694408
0.379307760749705
0.355183641504175
0.339168332750718
2.71522328495187
0.951980738679522
0.604233703043673
0.475246401493794
0.412301858052144
0.376333601378657
0.353612580766212
0.338527085059971
0.328250295588164
2.6340660502534
0.927687384891419
0.592000032385273
0.467452948211837
0.406832694490699
0.372549667110575
0.351172968435475
0.337097513448114
0.327589785603149
0.321007332078616
2.59859660151858
0.899355824633935
0.577917645600043
0.458812524301331
0.400830139825654
0.368181216157702
0.34802916332818
0.334923708668239
0.326204632101606
0.320313444600043
0.316201361073034
2.1951248445159
0.867091905355796
0.561707120820224
0.449210445690483
0.394308423966107
0.363391939545752
0.344400489393006
0.332172118308806
0.324172178595013
0.318936951262929
0.315468765378798
0.313051725957419
2.19485011945575
0.811200519198322
0.543276242097951
0.438656627828081
0.387320517257778
0.358302684499889
0.340478478859579
0.329057958428555
0.321675924696737
0.316986701691181
0.31408510085738
0.31227527176175
0.31103719635495
2.19192921889522
0.784790440076595
0.522881210030899
0.427418000249389
0.380033506474636
0.353062615363396
0.336429889436336
0.325776928476707
0.318931782240684
0.314665895026475
0.312184335139179
0.310873593110899
0.310210945943593
0.309793904894599
2.18619271536672
0.760560218165621
0.506539563150187
0.416419046606297
0.372832106300703
0.347924524193531
0.332455709422776
0.322514143766164
0.316134437760138
0.312194669874692
0.30998759074186
0.30900026817602
0.308781810290477
0.308912085694218
0.309059961331852
2.18721426789469
0.735085943450203
0.492327951773649
0.407294363961309
0.366509328026801
0.343331328882819
0.328858399637244
0.319497910305676
0.313476164419901
0.30976689872272
0.307720783520165
0.306891711761625
0.306919515857271
0.307447637341399
0.308117925451017
0.308643262610353
2.21610684513456
0.711330465996708
0.480987501044195
0.401043912441062
0.362234589386519
0.340036191824517
0.326117935884563
0.317059512423173
0.311199281485181
0.307577530780675
0.305577722742804
0.304779745404489
0.304873712866489
0.305584904867251
0.306612967786905
0.307638102495151
0.308401299796863
2.28700717368183
0.697597186467846
0.477142647323231
0.400143429969206
0.361666101040534
0.339203983206546
0.32499655341169
0.315702769801356
0.309650831042159
0.305875310924182
0.303753726698397
0.302858105882687
0.302881422312128
0.303585576824486
0.30474427318921
0.306091351720298
0.307332054592957
0.308227011237815
2.38166628498341
0.720695509267981
0.494184599135184
0.410893245422365
0.368093682574294
0.342768597026771
0.326708269437822
0.316208217937728
0.30934777426496
0.30501394215376
0.302498797753741
0.301320320578341
0.301135036388496
0.301690095283191
0.302784480276606
0.304218882140174
0.305747870547652
0.307094355934173
0.308035803332407
3.68516441843931
0.970659720906371
0.580093533447097
0.450084928781098
0.388896220670514
0.354432064642736
0.333321157092486
0.319822539015995
0.311079503691054
0.305512279581886
0.302164476504717
0.300411619915329
0.299821911916209
0.300085053249277
0.300971912564302
0.302299556305466
0.303882463070574
0.305485491796927
0.306840684470456
0.307737980485757
3.00782111245333
1.04543211453762
0.655948582664254
0.503536748801057
2.95770973623402
1.02453803706954
0.646230006722063
0.500734369390746
0.425891337222657
2.91038879185776
1.00708932502294
0.63565454641601
0.495810865925668
0.424500336401395
0.382472114846058
2.85685900112506
0.991205706582944
0.625599754818094
0.489671929356223
0.421666493910378
0.381658160838772
0.356217558363547
2.7930733385278
0.973860932492458
0.615749530326384
0.483010072499132
0.417683837676346
0.379763094739089
0.355599629306087
0.339556163215288
2.71893760762197
0.953373898173863
0.605132416531708
0.475949971925327
0.412901695521247
0.376867086839352
0.354098488945587
0.338977372606491
0.328673802198565
2.63822591268627
0.929355921280427
0.59305954739725
0.468279511357772
0.407537595143023
0.373176952460557
0.351743972115969
0.337624895085819
0.328082878360869
0.321473731240674
2.58396352321737
0.90170784534438
0.579196567551996
0.459786205279611
0.401658748846528
0.368919040495343
0.348701231394266
0.335543928977016
0.326782570534914
0.320857043565541
0.316717628634233
2.1951262419407
0.869177202992211
0.563212615458897
0.450356503259588
0.395281054044578
0.364258416838514
0.345190420738518
0.332901446491077
0.324851042471
0.319573308676518
0.316069901364002
0.313624497451161
2.19484918081457
0.81279822877501
0.54489748070006
0.439989306424211
0.388458206530206
0.359317345062641
0.341404251267877
0.329913260948977
0.322472040763976
0.317731863951397
0.314786557359733
0.312940157876679
0.311672521727558
2.19192707562473
0.786542111483021
0.524584271972178
0.428941893004184
0.381355102988077
0.354245998085073
0.337510951066136
0.326776146578666
0.319861843636842
0.315535808177834
0.313001610315891
0.311645438687138
0.310944734256254
0.31049700295471
2.18619628736204
0.762530482125135
0.508370394315529
0.418112454816176
0.374356825293015
0.349297894821405
0.333713268580972