/*--------------------------------*- C++ -*----------------------------------*\
  =========                 |
  \\      /  F ield         | OpenFOAM: The Open Source CFD Toolbox
   \\    /   O peration     | Website:  https://openfoam.org
    \\  /    A nd           | Version:  12
     \\/     M anipulation  |
\*---------------------------------------------------------------------------*/
/*   Windows 32 and 64 bit porting by blueCAPE: http://www.bluecape.com.pt   *\
|  Based on Windows porting (2.0.x v4) by Symscape: http://www.symscape.com   |
\*---------------------------------------------------------------------------*/
FoamFile
{
    format      ascii;
    class       volScalarField;
    location    "200";
    object      p;
}
// * * * * * * * * * * * * * * * * * * * * * * * * * * * * * * * * * * * * * //

dimensions      [0 2 -2 0 0 0 0];

internalField   nonuniform List<scalar> 
10116
(
83333.3300491633
83333.329952726
83333.3300496322
83333.3300493459
83333.3298538888
83333.3299530225
83333.3299527455
83333.3300503034
83333.3300499197
83333.3300523882
83333.3297530319
83333.3298540534
83333.3298537901
83333.3299535429
83333.3299531958
83333.3299554687
83333.3300510837
83333.3300506163
83333.330052956
83333.3300613932
83333.3296502472
83333.329753181
83333.3297528345
83333.3298544763
83333.3298541119
83333.3298561623
83333.3299542616
83333.3299538016
83333.3299560077
83333.3299637018
83333.3300520096
83333.3300514298
83333.3300536303
83333.330061713
83333.3300769629
83333.3295456556
83333.3296504094
83333.3296499763
83333.3297535982
83333.3297531213
83333.329754858
83333.3298551568
83333.329854633
83333.3298566065
83333.3298636929
83333.3299551875
83333.329954606
83333.3299566896
83333.3299641287
83333.3299780703
83333.3300531318
83333.3300523746
83333.3300544604
83333.3300622581
83333.330077061
83333.3300984456
83333.3294393605
83333.3295458372
83333.3295453396
83333.3296508435
83333.3296502625
83333.32965172
83333.3297542957
83333.3297536165
83333.3297552496
83333.3297617169
83333.3298560944
83333.3298554104
83333.3298572487
83333.3298640717
83333.3298769696
83333.3299563262
83333.3299555994
83333.3299575838
83333.3299648517
83333.3299783193
83333.3299980282
83333.330054482
83333.3300535106
83333.3300553889
83333.3300630468
83333.3300773698
83333.3300983646
83333.3301249287
83333.3293314402
83333.3294395596
83333.3294390175
83333.3295462968
83333.3295456334
83333.3295468713
83333.3296515754
83333.3296507569
83333.3296520939
83333.3296579935
83333.3297552939
83333.3297543959
83333.3297558668
83333.3297620467
83333.3297740067
83333.329857286
83333.3298564365
83333.3298581443
83333.3298648124
83333.329877202
83333.3298955414
83333.3299576549
83333.3299568015
83333.3299586273
83333.3299657935
83333.3299788576
83333.3299980846
83333.3300227465
83333.3300559378
83333.3300548878
83333.3300564725
83333.3300639368
83333.3300779639
83333.3300984221
83333.3301247817
83333.3301556819
83333.3292219597
83333.329331653
83333.3293310812
83333.3294400438
83333.3294393166
83333.3294403845
83333.3295470699
83333.3295461394
83333.3295472393
83333.3295526498
83333.3296526471
83333.3296515535
83333.3296527
83333.3296583068
83333.3296694186
83333.3297566034
83333.3297554738
83333.3297567664
83333.3297627635
83333.329774209
83333.3297913377
83333.3298587005
83333.3298577166
83333.3298592516
83333.3298657999
83333.3298777883
83333.3298955934
83333.3299186547
83333.3299590722
83333.3299582245
83333.3299598562
83333.3299668421
83333.3299797247
83333.3299983779
83333.3300226956
83333.3300514589
83333.3300571957
83333.3300564228
83333.3300577956
83333.3300649438
83333.3300787156
83333.3300986964
83333.3301246442
83333.3301554845
83333.330189998
83333.3291109758
83333.3292221823
83333.3292215907
83333.3293321571
83333.3293313822
83333.3293323174
83333.3294408544
83333.3294398373
83333.3294407482
83333.3294457498
83333.3295482125
83333.3295469627
83333.3295478446
83333.3295529666
83333.3295633274
83333.329654087
83333.3296526929
83333.3296536096
83333.3296590163
83333.3296696182
83333.3296856581
83333.3297582225
83333.3297568623
83333.3297579283
83333.3297637619
83333.3297748036
83333.329791373
83333.3298130172
83333.3298602662
83333.3298592502
83333.3298605935
83333.3298669428
83333.3298787741
83333.3298959545
83333.3299185914
83333.3299455748
83333.3299605004
83333.329959774
83333.3299613262
83333.3299680326
83333.3299806855
83333.329998979
83333.3300227673
83333.3300513787
83333.3300835494
83333.3300592166
83333.3300579029
83333.3300593839
83333.3300661594
83333.3300795208
83333.3300991381
83333.3301245757
83333.3301551916
83333.3301897701
83333.3302272304
83333.3289985387
83333.329111204
83333.3291106008
83333.3292227
83333.3292218924
83333.3292227219
83333.3293329951
83333.3293319136
83333.3293326768
83333.3293373419
83333.3294420542
83333.3294406886
83333.329441357
83333.3294460758
83333.3294557911
83333.329549766
83333.329548163
83333.3295487708
83333.3295536756
83333.3295635411
83333.3295786183
83333.3296559214
83333.3296541999
83333.3296548268
83333.3296600239
83333.3296702323
83333.3296857048
83333.3297060778
83333.3297601831
83333.3297585775
83333.3297593777
83333.3297649752
83333.3297758245
83333.3297917599
83333.3298129409
83333.3298383589
83333.3298619462
83333.3298609609
83333.3298622027
83333.3298682736
83333.3298798629
83333.3298967369
83333.3299187377
83333.3299455018
83333.3299757372
83333.3299629346
83333.3299613413
83333.3299630058
83333.3299694443
83333.3299817297
83333.3299997153
83333.3300230337
83333.3300513044
83333.3300834462
83333.3301184429
83333.3300627315
83333.3300601308
83333.3300611676
83333.3300676575
83333.3300804802
83333.3300995929
83333.330124556
83333.3301548126
83333.3301893501
83333.3302269702
83333.3302667465
83333.3288846947
83333.3289987682
83333.3289981599
83333.329111728
83333.3291109018
83333.3291116499
83333.3292235546
83333.3292224298
83333.3292230784
83333.3292274684
83333.3293342321
83333.3293327873
83333.3293332894
83333.3293376782
83333.3293468474
83333.3294436889
83333.329441939
83333.3294423034
83333.3294467906
83333.329456025
83333.329470268
83333.3295517654
83333.3295497749
83333.3295500424
83333.3295547002
83333.3295641865
83333.3295786938
83333.329597943
83333.3296582243
83333.3296560984
83333.329656384
83333.3296612991
83333.3296712766
83333.3296861374
83333.329706017
83333.3297300442
83333.3297627294
83333.3297606247
83333.3297611442
83333.3297664331
83333.3297770074
83333.3297926429
83333.3298131298
83333.3298382826
83333.3298668465
83333.3298643248
83333.3298627486
83333.3298640355
83333.3298698559
83333.3298810942
83333.3298976521
83333.3299192234
83333.3299454894
83333.3299756506
83333.3300086052
83333.3299661879
83333.3299636815
83333.3299648215
83333.3299711122
83333.3299829523
83333.3300004839
83333.3300234126
83333.3300512531
83333.3300832556
83333.3301183173
83333.3301555887
83333.3300659056
83333.3300635089
83333.3300635103
83333.3300694535
83333.330081679
83333.3301001268
83333.3301245062
83333.3301542926
83333.3301886254
83333.3302263658
83333.330266391
83333.3303078829
83333.3287694904
83333.3288849193
83333.3288843116
83333.328999293
83333.3289984586
83333.3289991475
83333.3291125915
83333.3291114423
83333.3291120037
83333.3291161704
83333.3292248096
83333.3292233161
83333.3292236943
83333.3292278155
83333.3292365268
83333.3293359117
83333.3293340716
83333.3293342538
83333.3293383999
83333.3293471022
83333.329360633
83333.3294457905
83333.3294436268
83333.3294436218
83333.3294478352
83333.3294567066
83333.3294703786
83333.3294886484
83333.329554277
83333.3295518224
83333.3295516969
83333.3295560343
83333.3295652557
83333.3295791853
83333.3295979177
83333.3296207249
83333.3296612137
83333.329658432
83333.3296583079
83333.3296628714
83333.3296725366
83333.3296870797
83333.32970627
83333.3297299774
83333.3297570725
83333.3297664433
83333.3297630984
83333.3297632275
83333.3297681862
83333.329778395
83333.3297936811
83333.3298137642
83333.329838313
83333.3298667652
83333.3298979639
83333.3298676556
83333.3298650159
83333.3298660201
83333.3298717111
83333.3298825457
83333.3298986683
83333.3299198477
83333.3299456581
83333.3299755475
83333.3300085018
83333.3300436903
83333.3299695501
83333.329966943
83333.3299671889
83333.3299730445
83333.3299844254
83333.330001371
83333.3300237707
83333.3300511806
83333.3300829313
83333.3301180149
83333.3301554156
83333.3301944162
83333.330069029
83333.3300668971
83333.3300666151
83333.3300716733
83333.3300831624
83333.3301008196
83333.3301244487
83333.3301536069
83333.3301875563
83333.3302252683
83333.3302655734
83333.3303074276
83333.3303500847
83333.3286529841
83333.3287696996
83333.3287690987
83333.3288854394
83333.3288846052
83333.328885254
83333.3290001603
83333.3289989993
83333.3289994981
83333.3290034856
83333.3291138531
83333.3291123332
83333.3291126219
83333.3291165271
83333.3291248582
83333.3292265032
83333.3292246187
83333.3292246711
83333.3292285427
83333.3292368014
83333.3292497309
83333.3293380545
83333.329335802
83333.3293356068
83333.3293394635
83333.3293478194
83333.3293607785
83333.3293782084
83333.329448398
83333.329445773
83333.3294453523
83333.3294492203
83333.3294578019
83333.3294709337
83333.3294886686
83333.3295104017
83333.3295574279
83333.3295543471
83333.3295537594
83333.3295577091
83333.3295665855
83333.3295801768
83333.3295982568
83333.3296206721
83333.3296464806
83333.3296653202
83333.3296613468
83333.329660629
83333.3296647867
83333.3296740604
83333.3296882237
83333.3297070143
83333.329730082
83333.329757009
83333.3297866811
83333.329770174
83333.3297663421
83333.3297656565
83333.3297702668
83333.3297800542
83333.3297948981
83333.3298145578
83333.3298386634
83333.3298667151
83333.3298978698
83333.3299312629
83333.3298712116
83333.3298683389
83333.3298684494
83333.3298738458
83333.3298842782
83333.3298998603
83333.3299205293
83333.3299459235
83333.32997544
83333.3300083068
83333.3300435543
83333.3300804928
83333.3299729218
83333.3299706388
83333.3299703659
83333.3299754284
83333.3299861933
83333.330002458
83333.3300241762
83333.3300510218
83333.3300823778
83333.3301173649
83333.3301549384
83333.3301941646
83333.3302344016
83333.330071939
83333.3300702348
83333.3300699491
83333.3300743935
83333.3300849902
83333.3301017305
83333.33012445
83333.3301528055
83333.3301861718
83333.3302236426
83333.3302641004
83333.3303063898
83333.330349532
83333.3303928667
83333.328535249
83333.328653159
83333.3286525791
83333.3287702072
83333.3287693809
83333.3287700062
83333.3288863088
83333.3288851428
83333.3288856003
83333.3288894458
83333.3290014284
83333.328999893
83333.329000117
83333.3290038499
83333.3290118676
83333.329115545
83333.3291136438
83333.3291136066
83333.3291172592
83333.3291251502
83333.3291375772
83333.3292286378
83333.329226364
83333.3292260465
83333.3292296216
83333.3292375508
83333.3292499085
83333.3292666276
83333.329340664
83333.3293379925
83333.3293373875
83333.3293408889
83333.3293489389
83333.3293613947
83333.3293782745
83333.3293990801
83333.3294515591
83333.3294484075
83333.3294475206
83333.3294509816
83333.3294591939
83333.3294719688
83333.3294890957
83333.3295103893
83333.3295350734
83333.3295611877
83333.3295574664
83333.3295562697
83333.3295597724
83333.3295682305
83333.3295814148
83333.3295990768
83333.3296208883
83333.3296464414
83333.3296747874
83333.3296696679
83333.329665121
83333.329663438
83333.3296670891
83333.3296759087
83333.3296896132
83333.329707949
83333.3297305857
83333.3297570193
83333.3297866134
83333.3298184364
83333.3297723769
83333.329769959
83333.3297686492
83333.3297727139
83333.3297820418
83333.3297963562
83333.3298155004
83333.3298391478
83333.3298667785
83333.3298977363
83333.329931142
83333.3299663013
83333.3298747391
83333.3298722661
83333.3298717611
83333.329876424
83333.3298863334
83333.3299013006
83333.3299213317
83333.329946167
83333.3299752817
83333.3300079355
83333.3300432232
83333.3300802913
83333.3301185284
83333.3299759245
83333.3299742615
83333.3299740325
83333.3299783877
83333.3299883445
83333.3300038008
83333.3300247028
83333.3300508115
83333.33008161
83333.3301163211
83333.3301539637
83333.3301935014
83333.3302340679
83333.3302750969
83333.3300745378
83333.3300733462
83333.3300733346
83333.3300774134
83333.3300871915
83333.3301029161
83333.330124583
83333.3301519591
83333.3301845334
83333.3302215215
83333.330261909
83333.3303045364
83333.3303482768
83333.33039222
83333.3304358067
83333.3284164251
83333.328535363
83333.3285348449
83333.3286536432
83333.3286528348
83333.3286534489
83333.3287710788
83333.3287699101
83333.3287703436
83333.3287740785
83333.3288875904
83333.3288860401
83333.3288862177
83333.3288898145
83333.3288975759
83333.3290031236
83333.3290012092
83333.329001108
83333.3290045864
83333.3290121736
83333.3290241843
83333.3291176508
83333.3291153919
83333.3291149966
83333.3291183503
83333.3291259279
83333.3291377825
83333.3291539069
83333.3292311781
83333.3292285537
83333.3292278555
83333.3292310773
83333.3292386917
83333.32925058
83333.3292667356
83333.3292867569
83333.3293437176
83333.3293406566
83333.3293396211
83333.3293427164
83333.3293503846
83333.3293624704
83333.3293787846
83333.3293991191
83333.3294228254
83333.3294551047
83333.3294516044
83333.3294501657
83333.3294531684
83333.3294609443
83333.329473292
83333.3294899835
83333.329510716
83333.329535065
83333.3295622626
83333.3295648415
83333.3295612613
83333.3295593285
83333.3295622713
83333.3295702498
83333.329582957
83333.3296001416
83333.3296214982
83333.3296465589
83333.3296747495
83333.3297052263
83333.3296716046
83333.3296692602
83333.3296669051
83333.3296698416
83333.3296781364
83333.3296913067
83333.3297091126
83333.3297312538
83333.3297572689
83333.3297865572
83333.3298183473
83333.3298519472
83333.3297753826
83333.3297730604
83333.3297721785
83333.3297756473
83333.329784404
83333.3297981171
83333.3298166424
83333.3298397279
83333.3298669088
83333.3298975657
83333.3299309015
83333.3299661243
83333.3300026339
83333.3298778144
83333.3298760934
83333.3298756593
83333.3298796121
83333.3298887951
83333.3299030401
83333.3299223205
83333.3299464578
83333.3299750177
83333.3300073362
83333.3300425691
83333.3300798018
83333.330118255
83333.3301573828
83333.3299784239
83333.3299774839
83333.3299777009
83333.3299817536
83333.3299909193
83333.3300054629
83333.3300254152
83333.330050628
83333.3300806825
83333.3301149087
83333.3301524227
83333.3301921955
83333.3302332165
83333.3302746819
83333.3303161138
83333.3300764816
83333.3300761729
83333.3300765924
83333.3300805946
83333.3300896984
83333.3301044104
83333.3301249181
83333.3301511499
83333.3301827238
83333.3302189836
83333.3302590296
83333.3303017751
83333.3303460461
83333.3303907554
83333.3304350711
83333.3304785481
83333.3282970072
83333.3284165025
83333.3284160304
83333.3285358171
83333.3285350418
83333.3285356575
83333.3286545191
83333.3286533488
83333.3286537675
83333.3286574159
83333.3287723837
83333.3287708133
83333.3287709552
83333.3287744451
83333.3287819993
83333.3288893098
83333.3288873696
83333.3288872149
83333.3288905536
83333.328897891
83333.3289095603
83333.3290052236
83333.3290029677
83333.3290025115
83333.3290056882
83333.329012975
83333.329024412
83333.3290400448
83333.3291200973
83333.3291175628
83333.3291168224
83333.3291198301
83333.3291270876
83333.3291385021
83333.3291540507
83333.329173418
83333.3292340325
83333.3292311722
83333.3292301164
83333.3292329524
83333.3292401824
83333.3292516925
83333.3292673197
83333.3292868439
83333.3293097244
83333.3293470015
83333.3293438062
83333.3293423367
83333.329344994
83333.3293522223
83333.3293638687
83333.3293797348
83333.3293995453
83333.3294228689
83333.3294490659
83333.3294584403
83333.3294553502
83333.3294533733
83333.3294558256
83333.3294631112
83333.3294749682
83333.3294911643
83333.3295114202
83333.3295353067
83333.3295622578
83333.3295915807
83333.3295681205
83333.3295651307
83333.3295630335
83333.3295652736
83333.329572694
83333.329584859
83333.3296014999
83333.3296223369
83333.3296469537
83333.3296747799
83333.3297051743
83333.3297374217
83333.329674358
83333.3296720657
83333.3296707897
83333.3296731285
83333.3296807926
83333.3296933561
83333.329710549
83333.329732113
83333.3297576365
83333.3297865584
83333.3298182003
83333.3298518101
83333.3298868027
83333.3297785036
83333.3297765394
83333.3297758474
83333.3297790786
83333.3297872031
83333.3298002274
83333.3298180382
83333.3298404434
83333.329867059
83333.3298973128
83333.32993048
83333.3299657473
83333.3300023932
83333.3300398767
83333.3298803321
83333.3298794425
83333.3298795429
83333.3298832454
83333.3298917083
83333.329905135
83333.3299235509
83333.3299468542
83333.3299746984
83333.3300065113
83333.3300415307
83333.3300788581
83333.3301176002
83333.330157037
83333.3301966971
83333.3299800333
83333.329980271
83333.3299811025
83333.3299852523
83333.3299938444
83333.3300074721
83333.3300263807
83333.3300505485
83333.3300796738
83333.3301131984
83333.3301503432
83333.3301901521
83333.3302315787
83333.3302736465
83333.3303156205
83333.3303571209
83333.3300778359
83333.330078482
83333.3300796827
83333.3300838142
83333.3300924431
83333.3301062075
83333.3301255098
83333.3301504597
83333.3301808399
83333.3302161312
83333.3302555574
83333.3302981311
83333.3303427209
83333.3303881585
83333.3304334089
83333.3304777273
83333.3305207944
83333.3281768028
83333.3282973051
83333.3282965664
83333.3284169875
83333.3284161831
83333.3284167269
83333.3285367134
83333.3285355355
83333.3285359329
83333.3285395173
83333.3286558625
83333.3286542633
83333.3286543648
83333.3286577675
83333.328665158
83333.3287741549
83333.3287721689
83333.3287719594
83333.3287751824
83333.3287823159
83333.3287937098
83333.328891453
83333.3288891581
83333.3288886383
83333.3288916661
83333.3288987102
83333.3289098036
83333.3289250349
83333.3290076464
83333.3290051411
83333.3290043573
83333.3290071911
83333.329014152
83333.3290251715
83333.3290402176
83333.3290590472
83333.329122719
83333.3291201066
83333.3291190923
83333.3291217415
83333.3291286176
83333.3291396476
83333.3291546983
83333.329173546
83333.3291957395
83333.3292369585
83333.3292341648
83333.3292328375
83333.3292352885
83333.3292420909
83333.3292531566
83333.3292683263
83333.3292873554
83333.3293098231
83333.329335168
83333.329350201
83333.3293473603
83333.3293455831
83333.329347759
83333.3293545087
83333.3293656604
83333.3293810184
83333.329400335
83333.3294232187
83333.329449118
83333.3294774355
83333.329462755
83333.3294591107
83333.3294571894
83333.3294590126
83333.3294657394
83333.3294770516
83333.3294926937
83333.3295124097
83333.3295358234
83333.3295624116
83333.3295915666
83333.3296226588
83333.3295714425
83333.3295686314
83333.3295669997
83333.3295688284
83333.3295756094
83333.3295871651
83333.3296031943
83333.3296234403
83333.329647533
83333.3296749697
83333.3297051221
83333.329737332
83333.3297710067
83333.3296776714
83333.3296753022
83333.3296743496
83333.3296768414
83333.3296839179
83333.3296958052
83333.3297123029
83333.3297331936
83333.3297581281
83333.329786599
83333.3298179829
83333.329851545
83333.3298866097
83333.3299226457
83333.329781267
83333.3297799619
83333.3297796722
83333.3297828276
83333.3297904375
83333.3298027277
83333.3298197325
83333.329841344
83333.3298672569
83333.3298969748
83333.3299298403
83333.3299650708
83333.3300018699
83333.3300395706
83333.3300776958
83333.3298818842
83333.3298822955
83333.3298831003
83333.3298870121
83333.329894992
83333.329907605
83333.329925079
83333.3299474206
83333.3299743902
83333.3300055135
83333.3300401195
83333.3300773758
83333.330116363
83333.3301562178
83333.3301962803
83333.3302361635
83333.3299810113
83333.3299822894
83333.3299841959
83333.3299887016
83333.329996993
83333.3300098071
83333.3300276381
83333.3300506452
83333.3300786713
83333.3301112827
83333.3301478117
83333.3301873959
83333.3302290347
83333.3302716834
83333.3303144092
83333.3303565542
83333.3303978427
83333.330077333
83333.3300801966
83333.3300824382
83333.3300870151
83333.3300953552
83333.3301082882
83333.3301263915
83333.3301499721
83333.3301789885
83333.3302130829
83333.3302516169
83333.3302937141
83333.3303383217
83333.3303842869
83333.330430464
83333.3304758836
83333.3305198958
83333.3305622873
83333.3281774119
83333.3281764036
83333.3282980223
83333.3282968266
83333.3282970519
83333.3284179735
83333.3284166799
83333.3284169511
83333.3284204659
83333.3285381254
83333.3285364756
83333.3285365049
83333.3285398256
83333.3285470972
83333.3286577129
83333.3286556602
83333.3286553782
83333.3286584938
83333.3286654618
83333.3286766432
83333.3287763838
83333.3287740089
83333.3287734139
83333.3287763058
83333.3287831437
83333.3287939594
83333.3288088698
83333.3288939613
83333.3288913797
83333.3288905189
83333.3288931962
83333.3288999034
83333.3289105938
83333.3289252286
83333.3289436223
83333.3290102334
83333.3290076707
83333.3290066466
83333.3290091384
83333.3290157194
83333.3290263467
83333.3290409162
83333.3290592105
83333.3290808372
83333.3291251434
83333.3291229034
83333.3291217891
83333.3291241181
83333.3291305854
83333.3291411703
83333.3291557552
83333.3291741279
83333.3291958866
83333.3292205239
83333.3292398946
83333.3292373965
83333.3292360186
83333.3292381101
83333.3292444698
83333.3292550473
83333.3292697013
83333.3292882221
83333.3293102521
83333.3293352778
83333.3293627447
83333.3293552982
83333.3293510461
83333.329349366
83333.3293510528
83333.3293572814
83333.3293678977
83333.3293826977
83333.3294014587
83333.3294238441
83333.3294493735
83333.3294774747
83333.3295075819
83333.3294666893
83333.3294632401
83333.3294612389
83333.3294627542
83333.3294688689
83333.3294795804
83333.3294946135
83333.329513728
83333.3295365909
83333.3295627468
83333.3295916247
83333.3296226185
83333.3296551644
83333.3295752158
83333.3295722159
83333.3295708477
83333.3295727514
83333.3295790188
83333.3295899148
83333.3296052625
83333.3296248387
83333.3296483228
83333.3296752654
83333.3297051004
83333.3297371803
83333.3297708687
83333.3298056455
83333.3296809242
83333.3296789136
83333.3296781151
83333.3296807188
83333.3296874649
83333.3296986782
83333.3297144101
83333.3297345333
83333.3297587683
83333.329786675
83333.3298176826
83333.3298511021
83333.3298862151
83333.3299223942
83333.3299591638
83333.3297831448
83333.3297830651
83333.3297833726
83333.3297867618
83333.3297940209
83333.3298056186
83333.3298217657
83333.3298424796
83333.3298675564
83333.3298965858
83333.3299289873
83333.3299640382
83333.3300009327
83333.3300388998
83333.330077325
83333.3301158032
83333.3298826925
83333.3298842903
83333.3298862861
83333.3298906968
83333.3298985005
83333.3299104152
83333.3299269284
83333.3299482157
83333.3299741654
83333.3300044184
83333.3300384014
83333.3300753661
83333.330114436
83333.3301546903
83333.3301953024
83333.3302356792
83333.3302755237
83333.3299800522
83333.3299834884
83333.3299867188
83333.3299920124
83333.3300002467
83333.3300124109
83333.3300291992
83333.3300509804
83333.3300777646
83333.3301092656
83333.3301449396
83333.3301840276
83333.3302256058
83333.3302686509
83333.3303121346
83333.3303551785
83333.3303972089
83333.3304380474
83333.3300761852
83333.3300805501
83333.3300848413
83333.3300900591
83333.3300983631
83333.3301106124
83333.3301275784
83333.3301497519
83333.330177277
83333.3302099715
83333.3302473524
83333.3302886717
83333.330332972
83333.3303791575
83333.3304260743
83333.3304726136
83333.330517885
83333.3305613244
83333.3306028183
83333.3281784424
83333.3281769478
83333.3281767625
83333.3282992427
83333.3282974696
83333.3282973201
83333.3283005431
83333.3284195201
83333.3284176859
83333.3284175012
83333.3284207062
83333.3284279041
83333.328540088
83333.3285379358
83333.3285375313
83333.3285405242
83333.3285473591
83333.3285583971
83333.3286600595
83333.3286575738
83333.3286568777
83333.328659626
83333.3286662825
83333.3286768828
83333.3286915507
83333.3287790375
83333.3287763197
83333.328775349
83333.32877787
83333.3287843512
83333.3287947677
83333.3288090741
83333.3288271234
83333.3288967632
83333.3288939913
83333.3288928589
83333.3288951889
83333.3289015092
83333.3289117954
83333.3289259666
83333.3289438127
83333.3289649813
83333.3290126663
83333.3290104369
83333.3290093523
83333.3290115586
83333.3290177433
83333.3290279237
83333.329042018
83333.3290598419
83333.329081023
83333.3291050862
83333.3291274433
83333.3291257253
83333.329124864
83333.3291269699
83333.3291330399
83333.3291431479
83333.3291572124
83333.3291750633
83333.3291963764
83333.3292206803
83333.3292474477
83333.3292457568
83333.3292408894
83333.3292396352
83333.3292414354
83333.3292473485
83333.3292574141
83333.3292715124
83333.3292894659
83333.3293109783
83333.3293356111
83333.3293628339
83333.3293921116
83333.3293599334
83333.3293557841
83333.3293534599
83333.3293548876
83333.3293605718
83333.3293706135
83333.329384813
83333.3294029663
83333.3294247795
83333.3294498428
83333.3294776345
83333.3295075892
83333.3295391798
83333.3294710231
83333.3294673154
83333.3294654421
83333.3294668661
83333.3294725116
83333.3294825879
83333.3294969551
83333.3295154039
83333.3295376432
83333.3295632716
83333.3295917796
83333.32962258
83333.3296550817
83333.3296887792
83333.3295791987
83333.3295762606
83333.329574823
83333.3295768701
83333.3295828469
83333.3295931197
83333.3296077333
83333.3296265613
83333.3296493464
83333.3296756956
83333.3297051011
83333.3297369531
83333.3297706023
83333.3298054552
83333.3298410435
83333.3296835383
83333.3296824814
83333.3296820456
83333.329684816
83333.3296913369
83333.3297019567
83333.3297168947
83333.3297361687
83333.3297595945
83333.3297868095
83333.3298173063
83333.3298504537
83333.3298855399
83333.3299218673
83333.3299588536
83333.3299960853
83333.3297841393
83333.3297854106
83333.3297868117
83333.3297907012
83333.3297978494
83333.3298088562
83333.329824146
83333.3298438931
83333.3298680131
83333.3298962028
83333.3299279668
83333.3299626555
83333.329999504
83333.3300377022
83333.3300765102
83333.3301153704
83333.3301539544
83333.3298810575
83333.3298853774
83333.3298887847
83333.3298941849
83333.3299020882
83333.3299134894
83333.3299290927
83333.3299492794
83333.3299740944
83333.3300033105
83333.3300364666
83333.3300729075
83333.3301118272
83333.3301523259
83333.3301934944
83333.3302345516
83333.3302749773
83333.3303145618
83333.3299797878
83333.3299831967
83333.3299885743
83333.3299949386
83333.330003483
83333.3300151996
83333.330031044
83333.3300515908
83333.3300770366
83333.330107257
83333.3301418517
83333.3301801789
83333.3302214056
83333.3302645669
83333.3303086351
83333.3303526119
83333.3303956827
83333.3304373576
83333.3304775573
83333.3300724774
83333.3300801835
83333.3300865803
83333.3300927618
83333.3301013134
83333.3301131032
83333.3301290552
83333.3301498472
83333.3301758082
83333.3302069373
83333.330242926
83333.330283175
83333.3303268418
83333.3303729069
83333.3304202531
83333.3304677425
83333.3305143148
83333.3305591606
83333.3306018039
83333.3306422046
83333.3281799315
83333.3281779047
83333.3281772625
83333.3281799971
83333.3283010297
83333.3282986475
83333.3282979598
83333.3283007843
83333.3283078198
83333.3284216499
83333.3284192623
83333.3284185661
83333.3284213666
83333.3284280945
83333.3284390611
83333.328542586
83333.3285399508
83333.3285390885
83333.3285416607
83333.3285481495
83333.3285585975
83333.3285731084
83333.3286628818
83333.3286600025
83333.3286588888
83333.3286612328
83333.3286674996
83333.3286776898
83333.3286917476
83333.3287095431
83333.3287820996
83333.3287790694
83333.3287777732
83333.328779923
83333.3287859979
83333.3287959913
83333.3288098373
83333.3288273312
83333.328848141
83333.3288998201
83333.3288969402
83333.3288956389
83333.3288976723
83333.3289035938
83333.3289134245
83333.3289271074
83333.3289444805
83333.3289651967
83333.3289888037
83333.3290150677
83333.3290132432
83333.329012417
83333.3290144547
83333.3290202707
83333.3290299821
83333.3290435504
83333.3290608403
83333.3290815603
83333.3291052748
83333.3291314786
83333.329134178
83333.3291288203
83333.3291282584
83333.3291302935
83333.3291360023
83333.3291456273
83333.329159141
83333.3291764153
83333.3291971935
83333.3292210774
83333.3292475742
83333.329276173
83333.3292511069
83333.3292462635
83333.3292436876
83333.3292452753
83333.329250749
83333.3292602845
83333.3292737977
83333.3292911414
83333.3293120649
83333.3293362024
83333.3293630778
83333.3293921657
83333.3294229581
83333.3293648619
83333.329360475
83333.3293580591
83333.329359151
83333.3293643895
83333.3293738345
83333.3293873905
83333.3294048853
83333.329426064
83333.3294505705
83333.3294779469
83333.3295076564
83333.3295391493
83333.3295719361
83333.3294758042
83333.3294718853
83333.3294697838
83333.3294712711
83333.3294765946
83333.3294860798
83333.3294997418
83333.3295174606
83333.3295390018
83333.3295640145
83333.3295920456
83333.3296225508
83333.3296549381
83333.3296886497
83333.3297232257
83333.329582961
83333.3295805156
83333.32957916
83333.3295812304
83333.3295870249
83333.3295967504
83333.3296106182
83333.3296286347
83333.3296506305
83333.3296762813
83333.3297051381
83333.3297366441
83333.329770167
83333.3298050701
83333.3298408003
83333.3298769433
83333.3296856452
83333.329685523
83333.3296859338
83333.3296890694
83333.329695481
83333.3297055927
83333.3297197532
83333.3297381279
83333.3297606462
83333.3297870435
83333.3298168866
83333.3298496083
83333.3298845382
83333.3299209583
83333.3299581963
83333.3299957183
83333.330033177
83333.3297822283
83333.3297869001
83333.3297895966
83333.3297944886
83333.329801789
83333.3298123662
83333.3298268534
83333.3298456038
83333.3298686781
83333.3298958903
83333.3299268465
83333.3299609796
83333.3299975873
83333.3300358812
83333.3300750591
83333.3301144185
83333.3301534638
83333.3301919436
83333.329881696
83333.3298848382
83333.3298904104
83333.3298971718
83333.3299055966
83333.3299167171
83333.329931528
83333.3299506268
83333.3299742368
83333.3300022763
83333.3300344166
83333.3300701077
83333.3301086269
83333.3301491295
83333.3301907087
83333.3302324789
83333.3302737122
83333.3303139624
83333.3303531051
83333.3299769594
83333.3299823171