/*--------------------------------*- C++ -*----------------------------------*\
  =========                 |
  \\      /  F ield         | OpenFOAM: The Open Source CFD Toolbox
   \\    /   O peration     | Website:  https://openfoam.org
    \\  /    A nd           | Version:  12
     \\/     M anipulation  |
\*---------------------------------------------------------------------------*/
/*   Windows 32 and 64 bit porting by blueCAPE: http://www.bluecape.com.pt   *\
|  Based on Windows porting (2.0.x v4) by Symscape: http://www.symscape.com   |
\*---------------------------------------------------------------------------*/
FoamFile
{
    format      ascii;
    class       volVectorField;
    location    "200";
    object      U;
}
// * * * * * * * * * * * * * * * * * * * * * * * * * * * * * * * * * * * * * //

dimensions      [0 1 -1 0 0 0 0];

internalField   nonuniform List<vector> 
10116
(
(3.1594662116239e-06 -0.000360591402356643 4.3735131552926e-05)
(1.06351418108154e-05 -0.000318990816790721 4.68504308850872e-05)
(1.84676587216532e-05 -0.00109592563546494 3.05890796517838e-05)
(5.46692720414528e-06 7.1692548085393e-05 8.6343659179878e-05)
(1.52184694483931e-05 -0.000287977957676029 5.09032017863719e-05)
(3.5291393507522e-05 -0.00108558399235485 3.71026417681227e-05)
(8.00970060086422e-06 9.5498550852405e-05 8.99068534879408e-05)
(4.38360289511965e-05 -0.00127927527738851 2.61901561880142e-05)
(1.84445353406736e-05 -0.000341960956337059 7.37272997116076e-05)
(5.20174951757388e-06 0.000349890509598923 0.000135590508672604)
(1.54458143915572e-05 -0.000260936866993629 5.15514186267109e-05)
(4.45144173791646e-05 -0.00106311615657779 4.38630278561714e-05)
(9.42181639318405e-06 0.00011796614841729 9.40881762429436e-05)
(6.02648753108637e-05 -0.00128371890305286 3.56165504176146e-05)
(2.53062807164538e-05 -0.000338370354279758 7.89915588321843e-05)
(6.09455153017628e-06 0.000374156304794167 0.000136796797681918)
(7.31302319379548e-05 -0.0013689784543306 2.43476540642056e-05)
(3.63711368398488e-05 -0.000498710480309842 6.74934313565576e-05)
(1.58047538754051e-05 0.000142508855689721 0.000122583523697595)
(4.81008651499554e-06 0.000472743382971028 0.000179248527964499)
(1.45832931375834e-05 -0.000233075230434679 4.99330204795362e-05)
(4.5002229720109e-05 -0.00104268373255575 4.50338430329357e-05)
(9.61591259927217e-06 0.00013862168862886 9.44118710328679e-05)
(6.8838151548584e-05 -0.00126470533870833 4.36980935350026e-05)
(2.92272009146146e-05 -0.000326398107076185 8.39526141029787e-05)
(6.57235550699286e-06 0.000396556184251005 0.000137308948476064)
(8.68817634709808e-05 -0.00137975392305509 3.60509838730739e-05)
(4.40482587151336e-05 -0.000507007891551186 7.83869818113304e-05)
(1.84823524778722e-05 0.000154851016593241 0.000124965783148217)
(5.11920096313122e-06 0.000494743728914285 0.000178107817124917)
(0.000101834746594625 -0.00146027510158226 2.32517358204524e-05)
(5.61758809687686e-05 -0.000562286358309837 6.33628333332928e-05)
(2.95768731574013e-05 4.18676345380447e-05 0.000115365358978355)
(1.34010843163706e-05 0.000351236788917878 0.000165185674302725)
(4.1375069471642e-06 0.000556163639483469 0.000217185885243524)
(1.37269494205679e-05 -0.000205906482090439 4.75259264678422e-05)
(4.34304082552531e-05 -0.001020155295598 4.34708321544999e-05)
(9.36046404021918e-06 0.000159270392709355 9.19783424962e-05)
(6.97206573413579e-05 -0.00124628011187874 4.48692514454509e-05)
(2.98982094074609e-05 -0.000311250045211817 8.4949868535467e-05)
(6.60727533219094e-06 0.000417590092655409 0.000135458786882041)
(9.39555860787254e-05 -0.00136308553536586 4.5194176119609e-05)
(4.87148897435208e-05 -0.000500993331326188 8.23396549143852e-05)
(2.00372884216295e-05 0.000170951866371246 0.000126373385307624)
(5.30009920063219e-06 0.000515678222793863 0.000176310389417847)
(0.000114404989036518 -0.00147552177842174 3.66056248072881e-05)
(6.36919203230853e-05 -0.000576234478096293 7.69944140544041e-05)
(3.30027905886004e-05 4.63625365134408e-05 0.000119249395554601)
(1.45108595205672e-05 0.000366119108365803 0.000165094726149796)
(4.28378764966826e-06 0.00057535054979111 0.000214563547811405)
(0.000129608776028466 -0.0015558173807361 2.15085202840047e-05)
(7.57133043409028e-05 -0.000619179139990917 5.9209067200188e-05)
(4.42943516645439e-05 -1.2221287676897e-05 0.000110436339271681)
(2.4208473054155e-05 0.000282487890576607 0.000156891110515607)
(1.12606681687426e-05 0.000469311238221283 0.000202046035507811)
(3.5005974164795e-06 0.000629794390709191 0.00024953943564257)
(1.30200153175294e-05 -0.000180516815296659 4.493214753322e-05)
(4.18097348406395e-05 -0.000998930672545008 4.12076118154626e-05)
(9.0244571395012e-06 0.000179567588623016 8.83819845991381e-05)
(6.86115038474432e-05 -0.00122412561198511 4.32793420457752e-05)
(2.94793231746741e-05 -0.000294783191210645 8.33200567203707e-05)
(6.49161709436959e-06 0.000437934335609793 0.000131796656765363)
(9.53071663139312e-05 -0.00134585736853037 4.64471785346448e-05)
(4.99602973872854e-05 -0.00048839269857983 8.2405897310823e-05)
(2.03788238760713e-05 0.000189085022101302 0.000125494365219719)
(5.30654067366149e-06 0.0005356118220906 0.000172913766611828)
(0.000120380153223439 -0.00146102021249232 4.62740731309349e-05)
(6.81565036644654e-05 -0.000573634217590429 8.16936754809002e-05)
(3.50315607785873e-05 5.82314640907934e-05 0.000121329757899036)
(1.5209157332009e-05 0.000383361713296767 0.000164381474177691)
(4.36188601384411e-06 0.000594222369080638 0.000211175471432173)
(0.000142531412127989 -0.0015762757607953 3.64725998431892e-05)
(8.33661929295086e-05 -0.000636335026270561 7.45275904626774e-05)
(4.80187433355732e-05 -1.18744177136529e-05 0.000115580629763711)
(2.59383842811778e-05 0.000292331900211958 0.000157716100142705)
(1.19094675464908e-05 0.000483741637364281 0.000200459285428976)
(3.60790529049486e-06 0.000646228203974482 0.00024614273342047)
(0.000158717095492541 -0.00165351692424108 1.78796577157286e-05)
(9.39876711140601e-05 -0.000677732715262998 5.42106649077933e-05)
(5.88583217296005e-05 -6.27276694840605e-05 0.000104466559299807)
(3.60455258088148e-05 0.000239470019180579 0.000150990957217245)
(2.01494746016085e-05 0.000415944434991131 0.000192726671499442)
(9.68301813222331e-06 0.000559320351881483 0.000233323728849378)
(3.0312196202784e-06 0.000701637831021617 0.000277063023456765)
(1.24772618103707e-05 -0.000157156816774398 4.24459796186585e-05)
(4.04903573192253e-05 -0.000980077345978636 3.89042031920075e-05)
(8.69136524035746e-06 0.00019925031250402 8.43886713405176e-05)
(6.72549432123984e-05 -0.00120335803182639 4.10034470047329e-05)
(2.88285259559815e-05 -0.00027850620107504 8.04426553556195e-05)
(6.30736985942416e-06 0.00045771812027623 0.000127077943257459)
(9.48205623568846e-05 -0.00132323264738784 4.50588735470165e-05)
(4.98057590035428e-05 -0.000473352228064847 8.09922114341616e-05)
(2.01966306491633e-05 0.000207307667152927 0.000122797298149365)
(5.21248952239548e-06 0.00055478366457499 0.000168149982447411)
(0.000121439885142755 -0.00144475328190359 4.76456107258755e-05)
(6.9726732408162e-05 -0.000562286959163254 8.18820520284663e-05)
(3.56270872149185e-05 7.47933965874475e-05 0.000121111810338792)
(1.54176250664142e-05 0.000401701904240274 0.000162147399053847)
(4.34840012329388e-06 0.00061248678536954 0.000206585010467969)
(0.000146964891237159 -0.00156448851887596 4.67483152535964e-05)
(8.75891842021007e-05 -0.00063603938272613 8.01781125977805e-05)
(5.03217080712212e-05 -2.56641028330041e-06 0.000118478829468693)
(2.69481032312768e-05 0.000306940164632153 0.000157816261544214)
(1.23136494587971e-05 0.0005001476384444 0.000198234356345972)
(3.65432472716838e-06 0.000662820669958578 0.000241821386766736)
(0.000170502390857273 -0.00168360421513169 3.39606778944289e-05)
(0.000102373437617948 -0.000697411311731879 7.02269079537164e-05)
(6.28917169268476e-05 -6.45574886750294e-05 0.000110963250213503)
(3.82374448301647e-05 0.000246524967950287 0.000152742451896962)
(2.12509504491333e-05 0.000426874466575093 0.00019186784384156)
(1.01766697925986e-05 0.000572269891878769 0.000230969685782821)
(3.12193783822349e-06 0.000715432336882222 0.00027328823030981)
(0.000192868564228482 -0.00175453786049492 1.26300816821838e-05)
(0.000112221855470173 -0.000737996761367694 4.82713536339591e-05)
(7.23406618506236e-05 -0.000115387353890238 9.73138309844103e-05)
(4.76912365482335e-05 0.000196147401661196 0.000144080190639863)
(3.00720429947587e-05 0.00037879170005363 0.000185899295145575)
(1.72914648380698e-05 0.000513766610878231 0.000223042047849275)
(8.67763820640034e-06 0.000639645497037916 0.00026005971005455)
(2.78309730559692e-06 0.000774030416282606 0.000300496271601603)
(1.20860722469827e-05 -0.000135853417435445 4.02293130361867e-05)
(3.94845893004169e-05 -0.000963686942253808 3.67767755686151e-05)
(8.40877123284339e-06 0.00021816423131896 8.04688261452762e-05)
(6.61708442301557e-05 -0.00118525752610211 3.87688104617748e-05)
(2.81970873667199e-05 -0.000262930751360123 7.71392969478336e-05)
(6.10517987792099e-06 0.000477051640275287 0.000121933069348896)
(9.3999417490123e-05 -0.00130162680460088 4.2903623483224e-05)
(4.92185632869443e-05 -0.000458351536146589 7.84617946361716e-05)
(1.98259891888761e-05 0.000225090613297671 0.000118934952450956)
(5.06486548879512e-06 0.000573434561808726 0.000162500566999751)
(0.00012118099277525 -0.0014214490490756 4.63493270885585e-05)
(6.9963548118068e-05 -0.000547522763510924 8.07997573991541e-05)
(3.55144964161669e-05 9.21266838927524e-05 0.000119078085451413)
(1.53084000376405e-05 0.00041972433200657 0.000158453294947506)
(4.26849376104502e-06 0.000630180861109029 0.000200927164321985)
(0.000146592006123773 -0.00154859514747839 4.82541627340522e-05)
(8.92272549450899e-05 -0.000625540846627338 8.08440758410754e-05)
(5.11772681209585e-05 1.31881268838992e-05 0.000118889216183007)
(2.72667567277636e-05 0.000324339381807726 0.000156434705206475)
(1.24244814359908e-05 0.000517395514899913 0.000194899302071876)
(3.63409835929564e-06 0.000679169199854408 0.000236431175839099)
(0.000171720961655309 -0.00167561759439934 4.43248121942563e-05)
(0.000106160800067245 -0.000698965055023823 7.68183307243191e-05)
(6.53538219855465e-05 -5.67396093191965e-05 0.000114904689454845)
(3.95270336535394e-05 0.000259506346515797 0.000153662772801221)
(2.18656883169295e-05 0.000441463870177109 0.000190477253012125)
(1.04526040296242e-05 0.000587108439928928 0.000227856955529909)
(3.15174228882618e-06 0.000729715633256008 0.000268450519316214)
(0.000194681438426442 -0.0018050330465205 2.62509261206148e-05)
(0.000120749630911504 -0.000761118667424893 6.37047129310195e-05)
(7.68715389161117e-05 -0.00011847822898127 0.000105073427224914)
(5.02519623374423e-05 0.000201800100671042 0.000146848051264006)
(3.15803938548363e-05 0.000387771900828605 0.000185815314455813)
(1.81241024161476e-05 0.000524083752435376 0.00022139112550898)
(9.07671848830388e-06 0.000650776420185824 0.000257327581249541)
(2.83471070465897e-06 0.000785323198260656 0.000296576995235695)
(0.000216954906843826 -0.00187862447711059 9.15554126239215e-06)
(0.000133115344504063 -0.000800678118149711 4.15300055160056e-05)
(8.49880980270864e-05 -0.000171614736121693 8.9200062924798e-05)
(5.83315427866259e-05 0.000148705797195662 0.000135904189457122)
(3.98161399248181e-05 0.000338892776283686 0.000178077302602553)
(2.5855959685383e-05 0.000479438169831094 0.00021537492510437)
(1.5464521098552e-05 0.000598093760342053 0.000249064036434815)
(8.18573156511743e-06 0.000716643001418814 0.000283061699565158)
(2.69001047741414e-06 0.000847401212562442 0.000320513719398213)
(1.18275632640445e-05 -0.000116436416862741 3.83516509717726e-05)
(3.87940586075941e-05 -0.000949622863212177 3.49110984989041e-05)
(8.18647842130319e-06 0.000236233223417217 7.68981567891757e-05)
(6.54023607068742e-05 -0.00116974819446144 3.71283646133509e-05)
(2.76430689224422e-05 -0.000248251844619535 7.38400667464574e-05)
(5.9043245876375e-06 0.000495923607976815 0.000116828162508856)
(9.34439578240059e-05 -0.00128275180272879 4.06795556383267e-05)
(4.85464771745357e-05 -0.000444126737823221 7.54930134990996e-05)
(1.93914498361493e-05 0.000242369815626557 0.000114543523714319)
(4.89329388555565e-06 0.000591750316538152 0.000156475679188295)
(0.000121054706480889 -0.0013987147269038 4.43119650249367e-05)
(6.97027578334187e-05 -0.000532560359296508 7.86243812337397e-05)
(3.50781975235492e-05 0.000109107462737754 0.000115778462503975)
(1.50331970338346e-05 0.000437286414641652 0.000153742740770321)
(4.14719506078369e-06 0.00064750459231937 0.000194551597798133)
(0.000146148226594369 -0.00152374541231842 4.67394655472296e-05)
(8.97993873322707e-05 -0.000610746840198578 8.02477312589533e-05)
(5.12364037837711e-05 3.03066417938252e-05 0.000117436546930843)
(2.71410359564418e-05 0.000341820599160768 0.000153534081916623)
(1.23205068519859e-05 0.00053437559786481 0.000190387819916242)
(3.56148936416134e-06 0.000695207542831448 0.000230126838498367)
(0.000167934604115579 -0.00165864667298602 4.6024227416465e-05)
(0.000107438615028329 -0.000688943167789523 7.85731357749106e-05)
(6.63982086917293e-05 -4.13857162910336e-05 0.00011608017036039)
(3.99658394316009e-05 0.000276461205853126 0.000153019606839329)
(2.20417626072719e-05 0.000458094342235509 0.000188076318191881)
(1.05107093649473e-05 0.000602809714268923 0.000223763303027249)
(3.12377720247412e-06 0.000744042947691643 0.000262574019884084)
(0.000189264223022439 -0.00180065308936074 3.74675411337361e-05)
(0.000123329092401002 -0.000764702904651039 7.13250520618726e-05)
(7.94068112002035e-05 -0.000111489132733775 0.000110142996357171)
(5.17812696106665e-05 0.000213931219432398 0.000148716175246867)
(3.24102729172578e-05 0.000401343328099341 0.000185223050650191)
(1.85432296271379e-05 0.000537615146985725 0.000219151177319072)
(9.26021893217815e-06 0.00066378204023087 0.000253719091888894)
(2.83135607741827e-06 0.000797302235621452 0.000291502196382613)
(0.000198116666882724 -0.00195618198735738 1.89124136890296e-05)
(0.00013850734820197 -0.000830069424593104 5.57614549744729e-05)
(8.99532307540532e-05 -0.00017589499778604 9.8058755500091e-05)
(6.13120616754023e-05 0.000153777766599002 0.000139789794031906)
(4.17053888966949e-05 0.000346980116960629 0.000178925888217505)
(2.70037238653645e-05 0.000488322861377327 0.000214415605285836)
(1.61157133512926e-05 0.000607184789754275 0.000247040789320993)
(8.43992393230829e-06 0.000725808216237164 0.000280154902786955)
(2.71112785710328e-06 0.000856261162764518 0.000316592181791768)
(0.000221694527942812 -0.00194780864350437 7.90361694014649e-06)
(0.000151697985078031 -0.000869934657800296 3.6659129331962e-05)
(9.75422628140354e-05 -0.000232192397179029 8.08169312279012e-05)
(6.784995305283e-05 9.61707392614527e-05 0.000126768586592028)
(4.86116771806149e-05 0.000293556302359842 0.000169001393282753)
(3.42278925266494e-05 0.000440887001540321 0.00020676367268951)
(2.30514899601322e-05 0.00056484097260023 0.000240764963467931)
(1.44426839623944e-05 0.000677014598018459 0.000271667179947545)
(8.01018838965073e-06 0.000792634691172512 0.000302974481312368)
(2.69981575232595e-06 0.00092152956188902 0.000337681979444291)
(1.17225818343275e-05 -9.8648000412766e-05 3.68737147951539e-05)
(3.83536357384314e-05 -0.00093746267168377 3.33772535323035e-05)
(7.99728836486948e-06 0.000253489034987486 7.38027669059438e-05)
(6.48366718824924e-05 -0.00115695878178618 3.57500143602364e-05)
(2.71446327961453e-05 -0.000234512162266212 7.07988100884132e-05)
(5.70869983745138e-06 0.000514310450574707 0.000112074955916753)
(9.32016168726722e-05 -0.00126680539628867 3.88958053128261e-05)
(4.78836209473577e-05 -0.000430912277785867 7.24945290152551e-05)
(1.8930212554548e-05 0.000259103311093881 0.000110087701502111)
(4.710306141273e-06 0.000609800774122889 0.000150495510777566)
(0.000121399481621445 -0.00137885665554965 4.22189582202047e-05)
(6.92777518511443e-05 -0.000518412823621744 7.5920521590685e-05)
(3.44816940238137e-05 0.000125531111005044 0.000111865963075059)
(1.46622463458224e-05 0.000454483293240215 0.000148532524149784)
(3.99989929725975e-06 0.00066463424508284 0.000187869648723216)
(0.000147106206942676 -0.00149924728648156 4.47480670494652e-05)
(9.00425746744624e-05 -0.000595475550717358 7.85193219778191e-05)
(5.08809746370435e-05 4.71814960757675e-05 0.000114633389903188)
(2.67528291179811e-05 0.000358902141262442 0.000149518756417004)
(1.20751528530038e-05 0.000551016933150257 0.00018501113956196)
(3.45322766670599e-06 0.00071107104698195 0.000223219516790673)
(0.000167401869241889 -0.00163010760424977 4.54006476446887e-05)
(0.000108275542121304 -0.000673628504869191 7.86781406920411e-05)
(6.66702908486208e-05 -2.42028357676135e-05 0.000115293722307163)
(3.98606149618275e-05 0.000293848016636509 0.000150793516451663)
(2.18906356073603e-05 0.000474739201408836 0.000184434891332002)
(1.03905031035235e-05 0.0006184200532244 0.00021864104935886)
(3.05152718103645e-06 0.000758310923072678 0.000255860514399876)
(0.000178934230367034 -0.00177766142278694 4.04005912841877e-05)
(0.000123306424255272 -0.000754510079838108 7.48521877471248e-05)
(8.04897704309871e-05 -9.61820094879985e-05 0.000112219156349699)
(5.23643019785754e-05 0.000230760750930631 0.000148921519348021)
(3.26515379626425e-05 0.000417773315463533 0.00018363342399973)
(1.86150386952339e-05 0.00055293329415811 0.000216028354612692)
(9.2582758781469e-06 0.00067773958112804 0.000249151669936239)
(2.78274506892377e-06 0.000809558468835023 0.000285382043366815)
(0.000190008485478702 -0.00192859146813982 3.10836376622564e-05)
(0.00013852443747316 -0.000836281945630098 6.48642635644369e-05)
(9.22752232444165e-05 -0.000169512353707994 0.000104217042132465)
(6.30556256898674e-05 0.000165603820709046 0.000142707746340796)
(4.27588740843877e-05 0.000360073780275249 0.000179238858176714)
(2.75799645615073e-05 0.000501154421603221 0.00021296445235654)
(1.63806661200886e-05 0.000619224021989293 0.000244315324874297)
(8.51780525276874e-06 0.00073686818050691 0.000276295714573566)
(2.67998455955631e-06 0.000865960551440029 0.000311463356617932)
(0.000219893689494318 -0.00208255287448848 1.12731794427246e-05)
(0.000151222713505977 -0.000907556513380174 5.05885099274613e-05)
(0.000102213714454923 -0.000238409160116471 9.07100088367982e-05)
(7.12638343092358e-05 0.00010092484187094 0.000131803627984091)
(5.0852033395115e-05 0.000301379080862147 0.000170902120560036)
(3.56990193091532e-05 0.000449220497944813 0.000206724838301393)
(2.39207857012843e-05 0.000572845862102156 0.000239411174799452)
(1.4906231246203e-05 0.000684548588275056 0.000269449568390308)
(8.15932880842423e-06 0.000799757105855877 0.000300002663412384)
(2.69288990541816e-06 0.000927968222891352 0.00033382337149348)
(0.00026110432128912 -0.00208529768425892 -9.92209159593933e-07)
(0.000159428267699068 -0.000943038260736956 3.24793271173234e-05)
(0.000108209596422171 -0.000297640861437873 7.38772328134622e-05)
(7.63189612385425e-05 3.82754111691421e-05 0.000117196726065113)
(5.61821117610073e-05 0.000242360581036464 0.000158959099178277)
(4.17151997895727e-05 0.000396195446499802 0.000196990482471562)
(3.04264810408955e-05 0.000526573682884113 0.000231589182002753)
(2.13303538899556e-05 0.000643856644686927 0.000262957032420334)
(1.40138348390376e-05 0.000753819488163822 0.000291433964733406)
(8.0709674169279e-06 0.000868297766936714 0.000320249815142836)
(2.795451025972e-06 0.000995912342211419 0.000352384101926797)
(1.18471534814944e-05 -8.22148654159769e-05 3.58678928552211e-05)
(3.81834393911317e-05 -0.000926653052318527 3.22676932766678e-05)
(7.84095252455088e-06 0.000270027726745886 7.12803762322852e-05)
(6.43698733620069e-05 -0.00114610878482322 3.43283970954649e-05)
(2.66763631626019e-05 -0.000221613453543872 6.816947215863e-05)
(5.51968388987639e-06 0.000532230046395295 0.00010786735737811)
(9.29904955770208e-05 -0.00125353249491645 3.78194151063804e-05)
(4.72197853314025e-05 -0.000418757891973862 6.97043577518822e-05)
(1.84448540849785e-05 0.0002752796976098 0.00010588242298382)
(4.52089186125888e-06 0.00062762063861864 0.000144871317543851)
(0.000121960237979584 -0.00136238059021241 4.03819740774259e-05)
(6.87538749558227e-05 -0.00050539471710048 7.31165943804185e-05)
(3.37893769496988e-05 0.000141333897406426 0.000107820801934428)
(1.4231788483913e-05 0.000471363876767542 0.000143250370854582)
(3.83578261354495e-06 0.000681672799877683 0.000181249805137165)
(0.000149220966223055 -0.00147817762580255 4.29884036877178e-05)
(9.017399180435e-05 -0.000581076784644409 7.61924910403595e-05)
(5.02817806815486e-05 6.34586618330138e-05 0.000111124183625096)
(2.61905192247921e-05 0.000375585410733339 0.000144908990679253)
(1.17332952162355e-05 0.000567433921548902 0.00017919171800869)
(3.31827837520329e-06 0.000726908084842923 0.000216067176759224)
(0.000170875942549109 -0.00160257496565017 4.42360021306342e-05)
(0.000109299382908137 -0.000657605895204624 7.75035702398692e-05)
(6.65342518010958e-05 -7.14601074378176e-06 0.000113064611762267)
(3.94018900184167e-05 0.000310898842959222 0.00014737080107432)
(2.15076169978809e-05 0.000491084536802927 0.000179830480976998)
(1.01460612215581e-05 0.000633865253998179 0.00021276913040505)
(2.94683856942864e-06 0.000772612823955715 0.00024861996678108)
(0.000182047920130415 -0.00174057722712925 4.25237061703433e-05)
(0.000124360327607424 -0.000737590462558185 7.62013073732225e-05)
(8.09732873363399e-05 -7.86203248627909e-05 0.000112221739755918)
(5.23433247543525e-05 0.000248300575344768 0.000147445060339422)
(3.24588311253867e-05 0.000434425195656149 0.00018072960662477)
(1.84223682842092e-05 0.000568364198113633 0.000211813254709782)
(9.10632207328564e-06 0.000691800750605864 0.000243625905172229)
(2.70122865607348e-06 0.00082198107044961 0.000278458715986402)
(0.000175576552181131 -0.00190771488123102 3.29806573920273e-05)
(0.000135577284443623 -0.000824821684174797 6.95004011057311e-05)
(9.29963005791596e-05 -0.000153922786963913 0.000107249734225182)
(6.37641606535444e-05 0.000182574735399329 0.000143826339076209)
(4.30852171743316e-05 0.000376540175198732 0.000178506435498885)
(2.76738239651877e-05 0.000516418670696671 0.000210693075276184)
(1.63485633559579e-05 0.000632986351677974 0.000240738502009144)
(8.43999876548799e-06 0.000748987443991592 0.000271473077828277)
(2.60705635693831e-06 0.000876129727153473 0.000305279482419738)
(0.000216361782201683 -0.0020137050014921 2.74321403752239e-05)
(0.000150099103011897 -0.000914145294495779 6.0692407872498e-05)
(0.000103878071071452 -0.000232919699497513 9.7748556746933e-05)
(7.31164204445361e-05 0.000112675016557995 0.000135771576414306)
(5.21173509999508e-05 0.000314446528617645 0.000172233797647816)
(3.64539751781096e-05 0.000461838252975435 0.000206171677677294)
(2.4288817948728e-05 0.000584407489553444 0.000237466860838076)
(1.50330452548619e-05 0.000694911279935267 0.000266475429251702)
(8.13033330650728e-06 0.000808802412974874 0.000296044596027631)
(2.63464769744017e-06 0.000935386302825349 0.000328750784793323)
(0.000283456277424751 -0.00217657494290938 1.66162855576465e-05)
(0.000163428241689717 -0.000997635507223667 4.73385005432435e-05)
(0.000111862973718668 -0.000306555190656658 8.46547188155088e-05)
(8.00006170915991e-05 4.25131720235666e-05 0.00012344782662922)
(5.88038868297131e-05 0.000250196629990296 0.000161978328386202)
(4.34929224365331e-05 0.000404467936541363 0.000197960050152753)
(3.15507505539738e-05 0.00053421832936375 0.000231111478323784)
(2.19747420666554e-05 0.000650564654764684 0.000261418341852384)
(1.42843693566451e-05 0.000759599626896779 0.000289121464923203)
(8.10731586386114e-06 0.000873307406608766 0.000317288141581703)
(2.74851459712693e-06 0.000999916477754841 0.000348638735914437)
(0.000298207066974064 -0.00223244557892137 6.54595445865728e-06)
(0.000168081904632137 -0.00102769576758415 2.51010895459943e-05)
(0.000113795437254609 -0.000367734006434542 6.77754284857685e-05)
(8.29979070076653e-05 -2.46748693482171e-05 0.00010810815432774)
(6.24813325556033e-05 0.000185445778198221 0.000148333649540192)
(4.80178648268584e-05 0.000345280900442227 0.000186214929034303)
(3.69816083092816e-05 0.000481796866595034 0.00022127254714417)
(2.80480279896836e-05 0.000605271198293209 0.000253415694236656)
(2.05247255454636e-05 0.000720220114084376 0.000282508747007011)
(1.40513092671762e-05 0.000829688287006794 0.00030872784534051)
(8.33712264311187e-06 0.000943586700958078 0.000335207456616961)
(2.95097717351863e-06 0.00106993273180901 0.000364872081388052)
(1.23047684570077e-05 -6.68697941612673e-05 3.54455145732595e-05)
(3.8411427765323e-05 -0.000916446258520694 3.16821514428675e-05)
(7.72877514099466e-06 0.000285940640227963 6.94024069958544e-05)
(6.39549928215118e-05 -0.00113634972969281 3.33164991372371e-05)
(2.62459135568784e-05 -0.000209389879393066 6.60516342935187e-05)
(5.33789783774739e-06 0.000549734150921485 0.00010433702276852)
(9.24566742810028e-05 -0.00124254985385165 3.69023510509607e-05)
(4.65159837409308e-05 -0.000407498704096542 6.72806125101947e-05)
(1.79409238290738e-05 0.000290941427978602 0.000102139443786193)
(4.32850947036497e-06 0.000645245140415815 0.00013981745384669)
(0.000122227573049036 -0.00134901331888617 3.89774996174295e-05)
(6.80858644567429e-05 -0.000493538101254895 7.04986492132667e-05)
(3.30215848708957e-05 0.000156514245454461 0.000103966884270979)
(1.37577844251046e-05 0.000487966068907239 0.000138216387880494)
(3.66005549735721e-06 0.000698687565895357 0.000174992092475953)
(0.0001515670972822 -0.00146131685985632 4.15510766139991e-05)
(9.01207536302222e-05 -0.000567993274522726 7.36748946383989e-05)
(4.9498619620775e-05 7.9044966024905e-05 0.000107414206724905)
(2.55061289039973e-05 0.000391911019565595 0.000140139517647665)
(1.13230208082657e-05 0.000583718497844704 0.000173310285068356)
(3.16424858135414e-06 0.000742828694864343 0.000209007962869837)
(0.000176483833866658 -0.00158008210755707 4.34195889275818e-05)
(0.000110433093763204 -0.00064267909577421 7.56892713226033e-05)
(6.61263371550214e-05 9.26634935306451e-06 0.000110051399426035)
(3.87001103118966e-05 0.000327530338095599 0.000143266546104164)
(2.09565062742517e-05 0.000507185861305576 0.000174681121554753)
(9.80912475585162e-06 0.000649246207874364 0.000206513792125269)
(2.81512815523484e-06 0.000787070720668866 0.000241183446767246)
(0.000192367362659319 -0.00170841669614569 4.42871239439642e-05)
(0.000126708377689261 -0.000720062210906273 7.61277287474572e-05)
(8.12006825351154e-05 -6.11000505022388e-05 0.00011069494651938)
(5.19225762579626e-05 0.000265564381060757 0.00014467670628624)
(3.19495232995661e-05 0.000450815949415425 0.000176779615416197)
(1.80221083859346e-05 0.000583656319756634 0.000206751705612854)
(8.83893589445454e-06 0.000705883581643354 0.000237422177061323)
(2.59709816321867e-06 0.000834642628656591 0.000271052019074176)
(0.000192551792900862 -0.00184829867124672 4.04426544027809e-05)
(0.000137158701989871 -0.00080400514898263 7.27799779964938e-05)
(9.35670797553801e-05 -0.000135515123919635 0.000108210224778919)
(6.38657912756864e-05 0.000200487482397825 0.000143164353478991)
(4.28932783653036e-05 0.000393409318947527 0.00017638543111656)
(2.74012338126722e-05 0.000531948360076558 0.000207264871479989)
(1.60845265605811e-05 0.000647003832878079 0.000236136607584713)
(8.23859481461316e-06 0.000761393492003344 0.000265729647516412)
(2.50301066033282e-06 0.000886663774746456 0.000298309284333903)
(0.000204939335211892 -0.00200539507955553 2.49525051634679e-05)
(0.000144417531555999 -0.000901601621977024 6.3211936465004e-05)
(0.000103648456790555 -0.000216758081860091 0.000101338635259116)
(7.38128202547658e-05 0.000129979791263167 0.000137790190387941)
(5.25648104651895e-05 0.000331179027714776 0.000172417390147146)
(3.66027085176847e-05 0.000477260196756185 0.000204772537755148)
(2.42420664567189e-05 0.000598233485611387 0.00023475121368338)
(1.48837022360917e-05 0.000706984670433221 0.000262644310513852)
(7.96424209835198e-06 0.000819013101207427 0.000291123747534968)
(2.53719135129098e-06 0.000943444063310119 0.000322631781640883)
(0.000293420586778772 -0.00217574465380476 3.13338276520858e-05)
(0.000164857361521479 -0.000989932134078894 5.89663693604261e-05)
(0.000113288182823996 -0.000302280533518253 9.20404808143521e-05)
(8.18236547309863e-05 5.40937422166857e-05 0.000128344865401987)
(6.02660903968956e-05 0.000263444031035428 0.000164354020445819)
(4.44204348064529e-05 0.000417227212493572 0.00019839638126161)
(3.20504035097133e-05 0.000545757298910749 0.000230078838231433)
(2.21320854388609e-05 0.000660608280048159 0.000259206153273985)
(1.42589099699598e-05 0.000768133480514428 0.000286023549859265)
(7.99270183980609e-06 0.000880278971473539 0.000313334510993939)
(2.66166668404952e-06 0.00100503004692762 0.000343700423086929)
(0.000321910239783564 -0.00227034342506604 2.49717908127606e-05)
(0.00017978853017891 -0.00106646855731991 4.46121596911943e-05)
(0.000118304505779724 -0.000379319520240133 7.87930957772421e-05)
(8.67109174325344e-05 -2.12769255426073e-05 0.000115511649772106)
(6.54322128722491e-05 0.000193280835591905 0.00015253000168224)
(5.01115856415573e-05 0.000353739631477501 0.000188271501310794)
(3.83751383334541e-05 0.000489540466040124 0.000221796518679437)
(2.88607426938512e-05 0.000611789864457542 0.000252718207325006)
(2.08988496561714e-05 0.000725387742620503 0.000280858153851391)
(1.4127984491523e-05 0.000833589034163051 0.000306388338028353)
(8.25815019437369e-06 0.000946402904248013 0.000332297072900515)
(2.86706813022162e-06 0.00107146789565921 0.000361285358627901)
(0.000296819904106365 -0.00245227361097721 1.25768662110368e-05)
(0.000174794770273136 -0.00110816156267823 2.26277142773347e-05)
(0.000116548779148601 -0.000442080827044854 5.98012034081831e-05)
(8.67643008899044e-05 -9.20109304885217e-05 9.93733379184538e-05)
(6.71752746301628e-05 0.000123434863332308 0.000137648497997124)
(5.30640331101511e-05 0.000288536526396086 0.000174731612875263)