/*--------------------------------*- C++ -*----------------------------------*\
  =========                 |
  \\      /  F ield         | OpenFOAM: The Open Source CFD Toolbox
   \\    /   O peration     | Website:  https://openfoam.org
    \\  /    A nd           | Version:  12
     \\/     M anipulation  |
\*---------------------------------------------------------------------------*/
/*   Windows 32 and 64 bit porting by blueCAPE: http://www.bluecape.com.pt   *\
|  Based on Windows porting (2.0.x v4) by Symscape: http://www.symscape.com   |
\*---------------------------------------------------------------------------*/
FoamFile
{
    format      ascii;
    class       volScalarField;
    location    "700";
    object      k;
}
// * * * * * * * * * * * * * * * * * * * * * * * * * * * * * * * * * * * * * //

dimensions      [0 2 -2 0 0 0 0];

internalField   nonuniform List<scalar> 
10103
(
2.74214656738768e-10
2.7667586177195e-10
4.61524234494742e-09
4.95303569519081e-09
2.78493182863079e-10
4.66381123512717e-09
4.99634924206673e-09
2.43423394254855e-08
1.30141478728652e-07
2.90180521243441e-08
2.79318744492259e-10
4.70114779672206e-09
5.01223109129373e-09
2.4608170110657e-08
1.31487511831554e-07
2.92988937375991e-08
6.34736658669252e-08
7.12427744702884e-07
8.08255341598225e-07
8.97463405957559e-08
2.77845600428856e-10
4.71052062455961e-09
5.00844639572227e-09
2.47816598378817e-08
1.32098356388535e-07
2.9341593546253e-08
6.40768888032694e-08
7.19991138476254e-07
8.16489444194381e-07
9.0694550538839e-08
1.15144954129893e-07
1.82593829545474e-06
4.00121100414966e-06
2.36821988048338e-06
1.85402081014612e-07
2.74246229744844e-10
4.67889205827177e-09
4.96986188771981e-09
2.47374004864883e-08
1.31993999279215e-07
2.9179944741697e-08
6.42632054150803e-08
7.22966685910734e-07
8.18421655394725e-07
9.07268285643698e-08
1.16000053803498e-07
1.84095032733771e-06
4.03238996933596e-06
2.389550945024e-06
1.8726446006046e-07
1.7630884409012e-07
3.21153914946332e-06
8.32623590571688e-06
8.96601802543757e-06
4.49295544941602e-06
3.09537948104305e-07
2.68726327762919e-10
4.61268499895545e-09
4.89394919873571e-09
2.44835615196323e-08
1.30807628518414e-07
2.88318238364647e-08
6.38682640081738e-08
7.20137149582606e-07
8.13863160866319e-07
8.99777445917409e-08
1.15979565613125e-07
1.84240742929837e-06
4.03498778608099e-06
2.39169951731612e-06
1.87316376673479e-07
1.77320361844806e-07
3.23041661904307e-06
8.36472763700919e-06
9.00770480276063e-06
4.52562125343771e-06
3.12408278142497e-07
2.4667025252079e-07
4.72679148546113e-06
1.26005328445334e-05
1.56926797352015e-05
1.40732414937564e-05
6.8658000596969e-06
4.62237990979932e-07
2.61406157361863e-10
4.51490299237331e-09
4.78424080923342e-09
2.40467088592579e-08
1.28654304399169e-07
2.82775965996676e-08
6.29913954787513e-08
7.11493691640019e-07
8.02947856909737e-07
8.87287650806443e-08
1.14966562308769e-07
1.8289888478923e-06
4.00830682285812e-06
2.37398933406104e-06
1.85690155647745e-07
1.7691262534647e-07
3.22515269287528e-06
8.35416189822528e-06
8.99972662264773e-06
4.52606237385197e-06
3.1251321894246e-07
2.47797054136677e-07
4.74653453692529e-06
1.26370900790049e-05
1.5732882213507e-05
1.41169577796957e-05
6.90459179089177e-06
4.66198512336263e-07
3.25390417566323e-07
6.31631624773981e-06
1.66649316173139e-05
2.18410298851201e-05
2.2602014366604e-05
1.90558341265534e-05
9.3732628136532e-06
6.47239476834212e-07
2.52391689871634e-10
4.38736646120198e-09
4.64317137277093e-09
2.34481632696455e-08
1.25629567076658e-07
2.75355791297946e-08
6.16944617978894e-08
6.97708176614655e-07
7.8647800358652e-07
8.68851541927973e-08
1.13119327980149e-07
1.80272551961657e-06
3.95581801757719e-06
2.33984146615493e-06
1.83046341780458e-07
1.75043717711279e-07
3.19658231087597e-06
8.29642226593533e-06
8.94238663997904e-06
4.4945770231108e-06
3.09963811563817e-07
2.46883106694218e-07
4.7321979137612e-06
1.26089722845528e-05
1.57027146731345e-05
1.40955849005571e-05
6.90137645744442e-06
4.66336740060434e-07
3.26620839477403e-07
6.33610044247194e-06
1.66972541287635e-05
2.18768156708024e-05
2.26411000580976e-05
1.91012465423191e-05
9.41562055696068e-06
6.52296391845621e-07
4.10419173809526e-07
7.94453788362353e-06
2.05175612654444e-05
2.75413762108289e-05
3.01223925804678e-05
2.91565910152266e-05
2.38881138821785e-05
1.19870408942023e-05
8.64345591060332e-07
2.41752487580814e-10
4.2318142683866e-09
4.47274723074951e-09
2.26988620372524e-08
1.21795873694026e-07
2.66196657394592e-08
6.00037281021368e-08
6.793336034036e-07
7.65009060775623e-07
8.44859368485324e-08
1.10552520802725e-07
1.76498764033002e-06
3.88021292869863e-06
2.2914270685639e-06
1.79222191857613e-07
1.71966988960984e-07
3.14763417315493e-06
8.19604466943185e-06
8.83891821904542e-06
4.43319419194911e-06
3.05456461524628e-07
2.44049951274865e-07
4.68660820041615e-06
1.25200643916843e-05
1.56044583295623e-05
1.40095089730058e-05
6.85600939230375e-06
4.62597689919651e-07
3.25132158269856e-07
6.31246181054824e-06
1.66514458269003e-05
2.18236628830152e-05
2.25906030650561e-05
1.90651275796332e-05
9.40640766509917e-06
6.52344023711006e-07
4.11763247980276e-07
7.96400356304198e-06
2.05469208102279e-05
2.75729817999788e-05
3.01551672884405e-05
2.91931464344836e-05
2.39333791854872e-05
1.20309879994164e-05
8.70395458433244e-07
4.99575135193338e-07
9.57577416916291e-06
2.41747872053683e-05
3.28652518800981e-05
3.70099215895242e-05
3.78238663257509e-05
3.54084602176119e-05
2.85950110304715e-05
1.46583984010251e-05
1.09721352026295e-06
2.29584980379512e-10
4.27465965274204e-09
4.04933875096236e-09
2.18084629164681e-08
1.1720623601809e-07
2.55429859707279e-08
5.7937605984887e-08
6.56729871123901e-07
7.38911665698152e-07
8.15695580518353e-08
1.07303447323054e-07
1.71649428336967e-06
3.78327228815525e-06
2.22977358197286e-06
1.74278115741745e-07
1.67831698071338e-07
3.08002187400242e-06
8.05568109283292e-06
8.693625868482e-06
4.3473243740267e-06
2.99096648906358e-07
2.3958669387651e-07
4.61328300122985e-06
1.23737082948101e-05
1.54405725215251e-05
1.3861200493864e-05
6.77051522082324e-06
4.55690215360998e-07
3.21247290764633e-07
6.24995174798517e-06
1.65319329341813e-05
2.16846953385954e-05
2.24527290751962e-05
1.89492042966908e-05
9.34408725913869e-06
6.46957861495738e-07
4.09669424166835e-07
7.93169746285191e-06
2.04849699879928e-05
2.74982306789304e-05
3.00771707906414e-05
2.91216005124654e-05
2.38810454860679e-05
1.20134076723926e-05
8.70040906922912e-07
5.00994619412328e-07
9.59496782393458e-06
2.42024652962598e-05
3.28939816385757e-05
3.70378354444766e-05
3.78518861149353e-05
3.54406712179555e-05
2.86377838968578e-05
1.47030977539244e-05
1.1040124378819e-06
5.91150136571927e-07
1.11804959979108e-05
2.7646548518709e-05
3.78644879236107e-05
4.341708637768e-05
4.56597811203558e-05
4.50879579360561e-05
4.14017866018666e-05
3.31935306823131e-05
1.72636671944462e-05
1.28239744187399e-06
2.16021778170897e-10
4.05087006454322e-09
3.84167309731174e-09
2.43179882886406e-08
1.11902391742062e-07
2.0785452967395e-08
5.55237073223096e-08
6.30207845385716e-07
7.08530628815552e-07
7.8175063032737e-08
1.03407950011134e-07
1.65789389693363e-06
3.66624100648668e-06
2.15558571280712e-06
1.68274660901817e-07
1.62701417354087e-07
2.9947401073289e-06
7.87717480417225e-06
8.50856131575005e-06
4.23836275629362e-06
2.90853139548141e-07
2.33649908786965e-07
4.51409540232149e-06
1.21728205311581e-05
1.52136281091374e-05
1.36538103936032e-05
6.64843372348512e-06
4.45851309996787e-07
3.15247269708665e-07
6.15236969719341e-06
1.63422022945876e-05
2.1462097453603e-05
2.22288830551057e-05
1.8754973144401e-05
9.23197048539864e-06
6.37306824061077e-07
4.04641166945566e-07
7.85304909513364e-06
2.03371285285021e-05
2.73207628758198e-05
2.98905887286233e-05
2.89435120318583e-05
2.37334938442494e-05
1.19310430106811e-05
8.62654376468273e-07
4.98298621349861e-07
9.55494100125357e-06
2.41265461130357e-05
3.27998562794378e-05
3.69347753905899e-05
3.77481844548022e-05
3.53466724184422e-05
2.85672749571047e-05
1.46743984133427e-05
1.10304312185777e-06
5.9268431548561e-07
1.12005323849319e-05
2.7674041264524e-05
3.7891911558896e-05
4.34418641641646e-05
4.56816341138932e-05
4.51091931942263e-05
4.14276245215178e-05
3.32314428141803e-05
1.73081693648886e-05
1.28971475661262e-06
6.84116265649316e-07
1.27420937760167e-05
3.09405434004059e-05
4.25767903888884e-05
4.94276280465483e-05
5.29168072242805e-05
5.37272424557099e-05
5.19855035439291e-05
4.71782433882318e-05
3.77049841776548e-05
1.96461568464166e-05
1.23348481242421e-06
2.01200685633651e-10
3.803795366145e-09
3.61101889000079e-09
2.29593287110066e-08
1.0593826712714e-07
1.96405180684598e-08
7.43437754823284e-08
6.74198634326378e-07
6.00044902226312e-07
5.27914322962031e-08
9.89110278062808e-08
1.58987177535704e-06
3.53024325904305e-06
2.06964908289587e-06
1.61302453575741e-07
1.56610778189877e-07
2.89271022634464e-06
7.66201063782498e-06
8.28517132482581e-06
4.10706943811801e-06
2.80812240335127e-07
2.2632376809162e-07
4.39029965379076e-06
1.19192125258192e-05
1.49255593576289e-05
1.33892551462194e-05
6.49212429806428e-06
4.33330309328752e-07
3.07350765292374e-07
6.02183429971617e-06
1.60847525862795e-05
2.11581040985066e-05
2.1921156917231e-05
1.84847563058223e-05
9.07198743035827e-06
6.23254708499839e-07
3.97008258432163e-07
7.73223825972594e-06
2.01068735841214e-05
2.7042950352432e-05
2.9596908984494e-05
2.86597384011599e-05
2.3491593267516e-05
1.17872022487584e-05
8.49458263298393e-07
4.92164408358228e-07
9.46125259998832e-06
2.39530359014145e-05
3.25871078185637e-05
3.67032928162941e-05
3.75140916672745e-05
3.51273045215602e-05
2.83858642944594e-05
1.45692230116263e-05
1.09320592277726e-06
5.89410915816177e-07
1.11539057608826e-05
2.75862819036798e-05
3.7780938753415e-05
4.3316673028623e-05
4.55495658300204e-05
4.49785946145206e-05
4.13095093352141e-05
3.31408396647543e-05
1.72668563336875e-05
1.28801318586341e-06
6.85823977496884e-07
1.27637494331263e-05
3.09693242561186e-05
4.2604544181211e-05
4.94511270633503e-05
5.29347989431834e-05
5.37407685126567e-05
5.19980000323954e-05
4.71957608390131e-05
3.77365951211545e-05
1.96902320635374e-05
1.24067088642867e-06
7.77803931879577e-07
1.4252887501598e-05
3.40657184802552e-05
4.70302562730201e-05
5.50953694393159e-05
5.97227747580502e-05
6.16825135330842e-05
6.1320714296324e-05
5.85617759593986e-05
5.27843612460547e-05
4.2305999264814e-05
2.28662422194408e-05
1.85272098055007e-10
3.53611316604e-09
3.35953580542982e-09
2.14836918536911e-08
9.93739784060612e-08
1.83878271431337e-08
7.01226198758509e-08
6.36304367270778e-07
5.66571705348916e-07
4.97704801704466e-08
1.53443354461938e-07
1.97283025158474e-06
3.3764013781244e-06
1.51318257454077e-06
9.38655459247859e-08
1.49618086466815e-07
2.77495369234595e-06
7.41155958104493e-06
8.02484478722154e-06
3.95464335014782e-06
2.69112287604187e-07
2.17681925932344e-07
4.24289881408936e-06
1.16144385585691e-05
1.45780151015992e-05
1.30690547178241e-05
6.30246928400266e-06
4.18052719504893e-07
2.97634536792946e-07
5.85960630461316e-06
1.57613861025797e-05
2.07745976118339e-05
2.15313650046181e-05
1.81403691094459e-05
8.86497363114954e-06
6.05022551365083e-07
3.87052398210021e-07
7.57155456472761e-06
1.97967599316387e-05
2.66669963073013e-05
2.91979816018773e-05
2.8271929857981e-05
2.31569838831997e-05
1.1582842098986e-05
8.30242462739787e-07
4.82980986098725e-07
9.31875716444353e-06
2.36856632667298e-05
3.22583818618912e-05
3.63451701631594e-05
3.715058363545e-05
3.47829366887479e-05
2.80936794828404e-05
1.43900026658807e-05
1.07580712354169e-06
5.82282377141648e-07
1.1046751519041e-05
2.73897896195441e-05
3.75363524043007e-05
4.30445009601036e-05
4.52651193559477e-05
4.46966357794068e-05
4.10474836328289e-05
3.29231295646289e-05
1.71366536890566e-05
1.27562488215967e-06
6.82077758645748e-07
1.27115462175112e-05
3.08717498349757e-05
4.24792266989803e-05
4.93067897980284e-05
5.27781281331333e-05
5.35787649525144e-05
5.18392634472161e-05
4.70517841242265e-05
3.76234696940399e-05
1.96341861953452e-05
1.23765981513966e-06
7.79742964357873e-07
1.42767685682613e-05
3.40970155932337e-05
4.70598563634631e-05
5.51193493206135e-05
5.97391167684313e-05
6.16912934199132e-05
6.13240452915182e-05
5.85638749262559e-05
5.27922176636456e-05
4.23311649189374e-05
2.29166011004889e-05
9.8786952450902e-07
8.71652798944096e-07
1.57098571915362e-05
3.70318018145888e-05
5.12469510245133e-05
6.04575401204758e-05
6.61504245327002e-05
6.91338550831531e-05
6.98647125549569e-05
6.84924509835617e-05
6.48395587810382e-05
5.82994571018016e-05
4.76815636925804e-05
1.68403566356403e-10
3.25042361355531e-09
3.08959779870235e-09
1.9906154615832e-08
9.22778971744131e-08
1.70395483095604e-08
6.55628419799918e-08
5.95264759767165e-07
5.30164127633284e-07
4.6493180147139e-08
1.44788505007688e-07
1.8660801926977e-06
3.2059393109786e-06
1.4286244956482e-06
8.83307055261765e-08
2.55919174895452e-07
3.78234832802933e-06
7.72901639997559e-06
7.12731225457645e-06
2.64264029854548e-06
1.41820395263905e-07
2.07827919958047e-07
4.07311669132418e-06
1.12600656963232e-05
1.41726076090821e-05
1.26948717480977e-05
6.08075322211486e-06
4.00190963901623e-07
2.86215089288093e-07
5.66689559930043e-06
1.53736691586611e-05
2.0313299342671e-05
2.10612240422903e-05
1.7723353368641e-05
8.61238956444999e-06
5.82942225456554e-07
3.74848292345414e-07
7.37234900152265e-06
1.94085932072167e-05
2.61948120507405e-05
2.86956072333446e-05
2.77817296056499e-05
2.27309918218957e-05
1.13187423387771e-05
8.05118123740373e-07
4.70910895303529e-07
9.12895021156227e-06
2.33271075589282e-05
3.18160176800784e-05
3.58623434325772e-05
3.66591847331201e-05
3.43147829645987e-05
2.76916490470728e-05
1.41366984545549e-05
1.05045609854546e-06
5.71489614686132e-07
1.0882774939215e-05
2.70886017399785e-05
3.71611349955461e-05
4.26274774709922e-05
4.48295894341968e-05
4.42638108945273e-05
4.06413692318734e-05
3.25778088036339e-05
1.69192221960036e-05
1.25407485411708e-06
6.7391197125556e-07
1.25914121448185e-05
3.06548097641625e-05
4.22061582830322e-05
4.8998067431832e-05
5.24486445577505e-05
5.3241808953955e-05
5.15088956417764e-05
4.67454290929598e-05
3.73664834699475e-05
1.94756990144396e-05
1.22394704570532e-06
7.7556714268051e-07
1.42194536383796e-05
3.39913753421822e-05
4.69225384062873e-05
5.49587062820906e-05
5.95613545130578e-05
6.15025422098448e-05
6.1131296148365e-05
5.83758456444429e-05
5.26204833654142e-05
4.2191623785679e-05
2.28322555891128e-05
9.8329131014429e-07
8.7388383179947e-07
1.57365664057661e-05
3.70666263772569e-05
5.12797386756866e-05
6.04836236244562e-05
6.61671346671927e-05
6.91405146056448e-05
6.98624739439488e-05
6.8484234135158e-05
6.48304373978824e-05
5.82980916973054e-05
4.77069788409737e-05
3.49159300693365e-05
1.63206620519969e-05
9.65139859658298e-07
1.71116190189864e-05
3.9847890431415e-05
5.52444685862063e-05
6.55415395158814e-05
7.22448841723454e-05
7.61784831013068e-05
7.78525715460661e-05
7.75323507499327e-05
7.52519138756665e-05
7.08095800263455e-05
6.37580852492072e-05
1.50774856607031e-10
2.94941563498444e-09
2.80384370624233e-09
1.82417754242575e-08
8.47169644098312e-08
1.56100499670002e-08
6.0714516597809e-08
5.51456777304092e-07
4.91161048797599e-07
4.29952325397012e-08
1.3543572548137e-07
1.75044076820409e-06
3.02017127652608e-06
1.33707281757939e-06
8.23755628177409e-08
2.41427799099671e-07
3.59161520099969e-06
7.39924636324789e-06
6.81083121580939e-06
2.49706020134256e-06
1.33315842756749e-07
3.80074373364303e-07
5.82888346449352e-06
1.22685065133276e-05
1.37110176686824e-05
1.08577279800685e-05
3.88255327120311e-06
1.96890196271714e-07
2.73224755423253e-07
5.44529456220328e-06
1.49232482738039e-05
1.97759651016265e-05
2.0512547111525e-05
1.72355831980967e-05
8.31588657033016e-06
5.57226420476568e-07
3.60525008181835e-07
7.13599440969518e-06
1.8944024468602e-05
2.56281899489206e-05
2.80915984299522e-05
2.71908521360871e-05
2.22151174773176e-05
1.09963079695038e-05
7.74269685827488e-07
4.56138454298458e-07
8.89433392338882e-06
2.28793078416128e-05
3.12620216349522e-05
3.52567024576865e-05
3.60415615163023e-05
3.37242017967635e-05
2.71805904191568e-05
1.38092268146038e-05
1.01694284152816e-06
5.57327631909799e-07
1.06658562388102e-05
2.66855351613848e-05
3.66578494358638e-05
4.20677497582546e-05
4.42446617941263e-05
4.36813125933943e-05
4.00918684861072e-05
3.21049346243375e-05
1.66132442132059e-05
1.22298815438909e-06
6.61561325410878e-07
1.24086471958028e-05
3.03227621977333e-05
4.17886831354869e-05
4.85274495025798e-05
5.19479965145962e-05
5.27307128365464e-05
5.10068979706015e-05
4.62759746771396e-05
3.69645706210204e-05
1.92161667473736e-05
1.20087187960805e-06
7.66396616613993e-07
1.40880838331906e-05
3.3756242919315e-05
4.66241244806654e-05
5.46173170193197e-05
5.91916676875092e-05
6.11170626392986e-05
6.07421187667755e-05
5.79963858470515e-05
5.22676747747798e-05
4.18902307091405e-05
2.26269586975611e-05
9.7123105925269e-07
8.69289027993787e-07
1.56749795031291e-05
3.69544281403096e-05
5.11325457923355e-05
6.03092945138618e-05
6.59714829205552e-05
6.8929089922543e-05
6.96412593400054e-05
6.82601959763003e-05
6.46121436339626e-05
5.80962410431126e-05
4.75319100830657e-05
3.47686030608242e-05
1.62522657005367e-05
9.67633049365242e-07
1.71415435039151e-05
3.98870705005785e-05
5.52815800613421e-05
6.55711795816128e-05
7.22637891151213e-05
7.61853532853418e-05
7.78478317346925e-05
7.75180129818508e-05
7.52318748794882e-05
7.0790816059077e-05
6.37586432059178e-05
5.39559765342235e-05
4.38507241212906e-05
2.72434621055567e-05
1.0576935707254e-06
1.84568212289067e-05
4.25212437565206e-05
5.90365060034789e-05
7.03678912489818e-05
7.80366035182563e-05
8.28720592723283e-05
8.54088936058984e-05
8.59711699039732e-05
8.46986700071271e-05
8.15676848986807e-05
7.63865775789099e-05
1.32509939169697e-10
2.63620750722848e-09
2.5052669068337e-09
1.65060668575679e-08
7.67652662248641e-08
1.41128617679457e-08
5.56222690701137e-08
5.05286057910787e-07
4.49992667181754e-07
3.93152515315602e-08
1.25497136722091e-07
1.62697621831118e-06
2.81995874824977e-06
1.23940762967137e-06
7.60624949581573e-08
2.25821696994631e-07
3.3840276498315e-06
7.03715607156885e-06
6.46373532520169e-06
2.3395949405612e-06
1.24201419373827e-07
3.58163940539949e-07
5.54961416022951e-06
1.17918943999102e-05
1.31950321882273e-05
1.04092154828407e-05
3.6729619450893e-06
1.85010967047161e-07
5.28441516162198e-07
7.97872876074025e-06
1.66793851322418e-05
1.98873213338735e-05
1.91644591022567e-05
1.44119590936329e-05
5.19663417710344e-06
2.58803256576052e-07
3.44250023388894e-07
6.86420168137878e-06
1.84048062642679e-05
2.49689986571261e-05
2.73878918645443e-05
2.650128427764e-05
2.16114961479056e-05
1.0618165497088e-05
7.38260779547086e-07
4.38807872140287e-07
8.61627689494232e-06
2.23439704546553e-05
3.05982911745109e-05
3.45301713564933e-05
3.52995439320092e-05
3.30127935861519e-05
2.65617595785991e-05
1.34085348437588e-05
9.75592786763987e-07
5.39962949633002e-07
1.0398549277393e-05
2.61827826799619e-05
3.60286470968577e-05
4.13673731217984e-05
4.35121526686823e-05
4.29506059560029e-05
3.93999032562301e-05
3.15044052496904e-05
1.62169696778863e-05
1.1811383053211e-06
6.4531994446929e-07
1.21678643233382e-05
2.98789033497664e-05
4.12295998282156e-05
4.78973428241942e-05
5.12781372899756e-05
5.204690340357e-05
5.03340950250565e-05
4.56435062754578e-05
3.64166595294457e-05
1.88526913574159e-05
1.16906210088463e-06
7.52529523675103e-07
1.38889856733597e-05
3.33963583916058e-05
4.6168301615509e-05
5.40980154876678e-05
5.86320514178691e-05
6.05360220885341e-05
6.01568730470137e-05
5.74250743153773e-05
5.17327516842169e-05
4.14258152173867e-05
2.2301492773212e-05
9.50247649191182e-07
8.59159549523515e-07
1.55335608440287e-05
3.67032951700599e-05
5.08116506183549e-05
5.99388018787283e-05
6.55659409608011e-05
6.85006159842738e-05
6.92008854878085e-05
6.78190794713919e-05
6.41828100318878e-05
5.76940581837717e-05
4.71758038993667e-05
3.44741545976347e-05
1.60897951445615e-05
9.62647272940053e-07
1.70763849918254e-05
3.97696904318703e-05
5.51264017401764e-05
6.53855392262355e-05
7.20531409439971e-05
7.5954831227307e-05
7.76027775368269e-05
7.72643342771292e-05
7.49764120778182e-05
7.05414249801004e-05
6.35218871071563e-05
5.37304501815457e-05
4.36541778426811e-05
2.7117589803456e-05
1.06043614921549e-06
1.84900065806361e-05
4.25653757932154e-05
5.90788795357721e-05
7.04023514347235e-05
7.80593246730341e-05
8.2881202238979e-05
8.54042995640535e-05
8.59541795425266e-05
8.46724199648993e-05
8.15383666024661e-05
7.63726505579012e-05
6.88800509687338e-05
5.94438288420085e-05
4.92378094365984e-05
3.27503112835409e-05
1.14861917002567e-06
1.97434066384953e-05
4.50568602196626e-05
6.26332311142949e-05
7.49517689495367e-05
8.35469022633631e-05
8.92487183693164e-05
9.26017330791054e-05
9.39592943540688e-05
9.35166121382135e-05
9.13373253963322e-05
8.736129571373e-05
1.13765161435774e-10
2.31339696706014e-09
2.19626338300737e-09
1.47181645962235e-08
6.85036578509346e-08
1.25610948193739e-08
5.03325834956842e-08
4.572274868053e-07
4.0704559446002e-07
3.548542062965e-08
1.15072577312906e-07
1.49663999653315e-06
2.60711426780443e-06
1.13659350345616e-06
6.94581505429102e-08
2.09270757817376e-07
3.16135122038782e-06
6.6442312257363e-06
6.08767183135084e-06
2.17173651622244e-06
1.14582121761861e-07
3.34765164985086e-07
5.24528232816524e-06
1.12670565041792e-05
1.26264778878416e-05
9.91637738864807e-06
3.4461643482657e-06
1.72311638627237e-07
4.97290485233752e-07
7.60679509604444e-06
1.60574952106803e-05
1.91877026700067e-05
1.84807780505779e-05
1.38417485768634e-05
4.92298898466176e-06
2.43150187312685e-07
6.98303559132573e-07
1.01890802504446e-05
2.09232827087988e-05
2.57153887341395e-05
2.6586634338925e-05
2.42192416203018e-05
1.77928836546481e-05
6.55890996985819e-06
3.26212886627708e-07
4.19118215110559e-07
8.29643260898837e-06
2.17228921484766e-05
2.9826792511342e-05
3.36848142977061e-05
3.44352255225958e-05
3.21826803916443e-05
2.58376037104514e-05
1.29379806532999e-05
9.27277292613028e-07
5.19589621263859e-07
1.00817319643626e-05
2.5582141491988e-05
3.52755189564168e-05
4.05284057326106e-05
4.26340407207815e-05
4.207344490248e-05
3.85667926924194e-05
3.07767967118144e-05
1.57304102570464e-05
1.12976932422691e-06
6.25377530253085e-07
1.18700134150451e-05
2.93254636813557e-05
4.05312534716605e-05
4.71099984516503e-05
5.04411011911738e-05
5.11920741367756e-05
4.94916547882755e-05
4.48482530589786e-05
3.57210993678512e-05
1.83804599643884e-05
1.124759977002e-06
7.34238910987622e-07
1.36257636616272e-05
3.29151508855372e-05
4.55581392991487e-05
5.34034774115419e-05
5.78847530351136e-05
5.9761171944553e-05
5.93767307219598e-05
5.66623551086022e-05
5.10150808850028e-05
4.07957621358173e-05
2.18504290843923e-05
9.20624356024505e-07
8.43818095833959e-07
1.53196595721549e-05
3.63181788965231e-05
5.03210862663938e-05
5.93752979047142e-05
6.49528243054751e-05
6.78566026586116e-05
6.85420997482329e-05
6.71609304384572e-05
6.35419303853545e-05
5.70909068204261e-05
4.66375043733357e-05
3.40267502227178e-05
1.583178553541e-05
9.51619953677216e-07
1.6926242215882e-05
3.95044696060231e-05
5.47856385319422e-05
6.49891788020237e-05
7.16156453218043e-05
7.54881372557653e-05
7.71173865231687e-05
7.67701987436896e-05
7.44837486691364e-05
7.00613632514993e-05
6.30666298021428e-05
5.33142367457758e-05
4.32896299493739e-05
2.68716609489292e-05
1.05507549420285e-06
1.8421763989412e-05
4.24439911443573e-05
5.89173937623989e-05
7.02075347434015e-05
7.78362790378399e-05
8.2634739731219e-05
8.51393284550664e-05
8.5675955831965e-05
8.43867845206874e-05
8.12516464354851e-05
7.60889983261587e-05
6.85941897643738e-05
5.91805954626973e-05
4.90057077400837e-05
3.25901499636121e-05
1.15160704624005e-06
1.97798966143196e-05
4.51062875747434e-05
6.26815959326891e-05
7.49921113243072e-05
8.35748540960457e-05
8.92619368280093e-05
9.25995675710217e-05
9.39425645594088e-05
9.34879168051993e-05
9.13024438699298e-05
8.73396437124425e-05
8.1428663893969e-05
7.34679877241464e-05
6.40126955136613e-05
5.29079254121081e-05
3.61091062338416e-05
1.23665510281247e-06
2.09681791904299e-05
4.74573377391109e-05
6.60415952461984e-05
7.93040176750445e-05
8.87907046580089e-05
9.53302470540369e-05
9.94697506574135e-05
0.000101576077200544
0.000101874119570594
0.000100475483496591
9.73911092964222e-05
9.47653875573174e-11
1.98395485478696e-09
1.87983558226671e-09
1.28940379965133e-08
6.00077939800854e-08
1.09671074606679e-08
4.48966630005951e-08
4.07745777010839e-07
3.62679707273748e-07
3.15477189106469e-08
1.04249655280843e-07
1.36038096600194e-06
2.3832341397551e-06
1.02947300618565e-06
6.26347848241513e-08
1.91917955233184e-07
2.92504983274369e-06
6.22180645381001e-06
5.68430268504302e-06
1.99495087963466e-06
1.04561779679334e-07
3.10120506893643e-07
4.91830633782481e-06
1.06957591460022e-05
1.20070713741626e-05
9.38105208597077e-06
3.20410829198719e-06
1.58923555418879e-07
4.6486753769107e-07
7.20278159780165e-06
1.53726177086666e-05
1.84159290563536e-05
1.77269665241977e-05
1.32147017419142e-05
4.62650214708693e-06
2.26488523892779e-07
6.55923961512077e-07
9.7158117771418e-06
2.01546394839688e-05
2.48358875401589e-05
2.56901673898009e-05
2.33810763983253e-05
1.71103333429942e-05
6.22228244113336e-06
3.06618438615295e-07
8.73637574034443e-07
1.24056732246469e-05
2.50122950719023e-05
3.12367097477731e-05
3.34510563299773e-05
3.27229068994779e-05
2.89496146179242e-05
2.10180471342197e-05
7.93709373616022e-06
3.97279646302107e-07
4.96422976611558e-07
9.71700749278457e-06
2.48853556277168e-05
3.44005256634385e-05
3.95530366039724e-05
4.16125672797121e-05
4.10520273265289e-05
3.7594704767225e-05
2.99245807352459e-05
1.51577669859395e-05
1.06788531054143e-06
6.01962980910128e-07
1.15166897551455e-05
2.86643808326286e-05
3.96956997979416e-05
4.61676243378319e-05
4.94390549019563e-05
5.01681990980236e-05
4.84811381342235e-05
4.38909305819828e-05
3.48770090834266e-05
1.77976585088256e-05
1.07279164783085e-06
7.11750242636672e-07
1.32995013856168e-05
3.23151997964989e-05
4.47961304167478e-05
5.25361529662372e-05
5.69520487131747e-05
5.87944943405398e-05
5.84032189031343e-05
5.57089716590614e-05
5.01138162869853e-05
3.99959070182241e-05
2.12626721110716e-05
8.80130145339184e-07
8.23529238115084e-07
1.50356239490544e-05
3.58030640281498e-05
4.96641439530481e-05
5.86217102203367e-05
6.41346667521244e-05
6.69991368841329e-05
6.76664850330788e-05
6.62867263491662e-05
6.26896107839925e-05
5.62852292435731e-05
4.59119779052239e-05
3.34165325169355e-05
1.54723068942754e-05
9.34854769376437e-07
1.669855761279e-05
3.90966533796245e-05
5.42636092786464e-05
6.43855390247536e-05
7.0953911041567e-05
7.47871003355407e-05
7.63927760836794e-05
7.60361218117381e-05
7.37540507649013e-05
6.93509390068919e-05
6.23928933705259e-05
5.26994045936274e-05
4.27490711260977e-05
2.64978306657778e-05
1.04321837605537e-06
1.82640643960263e-05
4.21663214623571e-05
5.85591207993446e-05
6.9788234566013e-05
7.73703320827901e-05
8.21339980833758e-05
8.46140570241966e-05
8.51354988618863e-05
8.38401613660869e-05
8.07078741368384e-05
7.55569210344949e-05
6.80843742163897e-05
5.87115612967704e-05
4.85917913586132e-05
3.22960869214266e-05
1.14583525392679e-06
1.9709513004488e-05
4.49819090599177e-05
6.25152904799992e-05
7.47900220301175e-05
8.33417594853e-05
8.90023449524916e-05
9.231807845006e-05
9.36440037714623e-05
9.31775085099113e-05
9.09856465738709e-05
8.70190018678626e-05
8.10949001113958e-05
7.31476640888747e-05
6.37156218730737e-05
5.26465952173377e-05
3.59234911859132e-05
1.2401227579249e-06
2.10079318631398e-05
4.7512162185013e-05
6.60964603734847e-05
7.93511050926485e-05
8.88250893966483e-05
9.53490997523235e-05
9.94719743368322e-05
0.000101562066444044
0.000101846076529766
0.000100438943371761
9.73666240269859e-05
9.25706107224622e-05
8.58977552855157e-05
7.74949587547564e-05
6.7545313824451e-05
5.53905751207486e-05
3.82210709145515e-05
1.31993301989707e-06
2.21249095772992e-05
4.97225481426131e-05
6.92655460515307e-05
8.34318558499852e-05
9.37781643188225e-05
0.000101130640418663
0.000106035392841564
0.00010886424418821
0.000109857274507395
0.000109154192624975
0.000106807493952347
7.61203380414386e-11
1.65267594906683e-09
1.56101153797167e-09
1.1049935318089e-08
5.13700574147571e-08
9.35410866436395e-09
3.93656935106565e-08
3.57272000190456e-07
3.17282639556382e-07
2.75518200089835e-08
9.31232505397815e-08
1.21925647093517e-06
2.14955259341359e-06
9.19070141272487e-07
5.56688446725493e-08
1.73855224857165e-07
2.67611604432539e-06
5.77109531609176e-06
5.25525636047473e-06
1.81073769936879e-06
9.42311200480179e-08
2.84810494750525e-07
4.57025050187624e-06
1.00794317743459e-05
1.13383697506018e-05
8.80506684485622e-06
2.94879770760875e-06
1.45006448542286e-07
4.31992531984375e-07
6.76974270398836e-06
1.46270281803486e-05
1.75741082483618e-05
1.69050398223755e-05
1.25328387028621e-05
4.30940820310687e-06
2.08977176406395e-07
6.1325358723716e-07
9.20526015057657e-06
1.93094488699091e-05
2.3865656905667e-05
2.47009689716109e-05
2.24567474921044e-05
1.63593138036197e-05
5.85681904819916e-06
2.85689884898704e-07
8.1743094494398e-07
1.18221351138106e-05
2.40917251232274e-05
3.01784284242023e-05
3.23498453023711e-05
3.1646957587794e-05
2.79690435481343e-05
2.02315187474751e-05
7.54053173344419e-06
3.73542715341341e-07
1.00016078585518e-06
1.45078146900084e-05
2.89531992615149e-05
3.64870170150397e-05
3.988913648146e-05
4.04503083078117e-05
3.84436642714221e-05
3.34057907518362e-05
2.40944354308388e-05
9.30649910169885e-06
4.70715664539955e-07
5.75311448757212e-07
1.11095572012728e-05
2.78972940015097e-05
3.87251197409632e-05
4.50725268985123e-05
4.82744020398243e-05
4.89776517251521e-05
4.73047505114836e-05
4.27734385011299e-05
3.38858927347368e-05
1.71046028757087e-05
1.00372175632716e-06
6.85306465088495e-07
1.29120523289395e-05
3.15982086868226e-05
4.38844115041518e-05
5.14984005801624e-05
5.58363057445705e-05
5.76382205929229e-05
5.72382400471332e-05
5.45660966741486e-05
4.9028512218805e-05
3.90223948098087e-05
2.0532157990203e-05
8.31812011359363e-07