/*--------------------------------*- C++ -*----------------------------------*\
  =========                 |
  \\      /  F ield         | OpenFOAM: The Open Source CFD Toolbox
   \\    /   O peration     | Website:  https://openfoam.org
    \\  /    A nd           | Version:  12
     \\/     M anipulation  |
\*---------------------------------------------------------------------------*/
/*   Windows 32 and 64 bit porting by blueCAPE: http://www.bluecape.com.pt   *\
|  Based on Windows porting (2.0.x v4) by Symscape: http://www.symscape.com   |
\*---------------------------------------------------------------------------*/
FoamFile
{
    format      ascii;
    class       volScalarField;
    location    "700";
    object      nut;
}
// * * * * * * * * * * * * * * * * * * * * * * * * * * * * * * * * * * * * * //

dimensions      [0 2 -1 0 0 0 0];

internalField   nonuniform List<scalar> 
10103
(
7.33714299849883e-11
7.40299297996493e-11
1.15762132083272e-09
1.62505944574029e-09
7.45164007222356e-11
1.16979669751502e-09
1.63927103753313e-09
5.79067589927154e-09
1.58196906558435e-07
9.58214125116772e-09
7.47373564274011e-11
1.17917803383264e-09
1.64448019468374e-09
5.85384881799015e-09
1.60080423319397e-07
9.67487694455397e-09
1.46343439081023e-08
1.02163179456989e-06
1.50828413181419e-06
2.99910518788431e-08
7.43435176229848e-11
1.1815242266055e-09
1.64323690655064e-09
5.89525100987762e-09
1.60851044774769e-07
9.68896660696373e-09
1.4773316757914e-08
1.03488349496041e-06
1.52468491895012e-06
3.03078920471374e-08
2.6132015039407e-08
2.60730998582554e-06
1.44244706375664e-05
4.73429181703681e-06
6.2321196335402e-08
7.33811532135922e-11
1.17359619920845e-09
1.63058470084389e-09
5.88467420316644e-09
1.60610441221372e-07
9.6355628330287e-09
1.48164539570131e-08
1.03982340623923e-06
1.52821621118526e-06
3.03185983040723e-08
2.63260113654479e-08
2.63368777459613e-06
1.45766937980223e-05
4.77807913190124e-06
6.29470664352769e-08
3.97532867841943e-08
4.53603960014369e-06
3.34445795141272e-05
4.23315352300429e-05
9.04469454194519e-06
1.040868799049e-07
7.19052398973344e-11
1.15699970061232e-09
1.60566331687381e-09
5.82429999733048e-09
1.58967590506582e-07
9.52060623500705e-09
1.4725352489684e-08
1.03607316328078e-06
1.51723894744411e-06
3.00680826209487e-08
2.632141384227e-08
2.63720708563614e-06
1.46003627959721e-05
4.78167031540031e-06
6.29641366927479e-08
3.9981268256706e-08
4.56846710010392e-06
3.36772309040954e-05
4.25808167513046e-05
9.11258828299684e-06
1.05051539174186e-07
5.55599124640551e-08
6.62204157531993e-06
5.03908634594542e-05
9.59075126141011e-05
6.92810135487936e-05
1.3700087876046e-05
1.55531578632863e-07
6.99480638518432e-11
1.13248941137884e-09
1.56965939762267e-09
5.72040520416212e-09
1.56163546475203e-07
9.33745341189386e-09
1.45231774541901e-08
1.02384270633821e-06
1.49243931553825e-06
2.96503229054396e-08
2.60915580760717e-08
2.61898776848817e-06
1.45060849318988e-05
4.73971512225889e-06
6.24166443052428e-08
3.98893303592688e-08
4.56267877778968e-06
3.36738296335328e-05
4.25824406974297e-05
9.11401001891952e-06
1.05085517427933e-07
5.58136007048604e-08
6.65497053996852e-06
5.06088600643165e-05
9.62840900332981e-05
6.95622481869664e-05
1.37799296981927e-05
1.56862689187208e-07
7.34001246981999e-08
8.79787337288105e-06
6.52151415720319e-05
0.000141060840253898
0.000157349465965063
9.26714510525404e-05
1.84812919890202e-05
2.18505552638539e-07
6.75380663632012e-11
1.1005215472922e-09
1.52336133448356e-09
5.57806525042834e-09
1.52321314540934e-07
9.09228324697335e-09
1.42241686413025e-08
1.00419200481148e-06
1.45758060146633e-06
2.90335620040414e-08
2.56723123021196e-08
2.58235824811668e-06
1.43157974119174e-05
4.65879065441265e-06
6.15262603985905e-08
3.94680381658366e-08
4.52362340735833e-06
3.34843126229096e-05
4.23453122695522e-05
9.04769938029398e-06
1.04225368618207e-07
5.56076426683848e-08
6.63656633335345e-06
5.05488046647308e-05
9.624513674537e-05
6.95359718839748e-05
1.37770525089336e-05
1.5690550143619e-07
7.36776127628747e-08
8.82995837707765e-06
6.53929423260817e-05
0.00014142973385653
0.000157810630268998
9.30045453446841e-05
1.8568127654202e-05
2.20209279378756e-07
9.27591099366217e-08
1.10147850621021e-05
7.84642187933707e-05
0.000177681609701507
0.000237087741839193
0.000209123503464857
0.000113470794961549
2.33853016985468e-05
2.92676312959974e-07
6.46938855731469e-11
1.06153318332296e-09
1.46742753554509e-09
5.39987738190197e-09
1.47516650199873e-07
8.78962499897564e-09
1.38344113842803e-08
9.77941974314247e-07
1.41403230723317e-06
2.82307392407983e-08
2.50897623354669e-08
2.52933763798903e-06
1.40460937563924e-05
4.55137436945616e-06
6.02378253068074e-08
3.87742829268211e-08
4.4559014610773e-06
3.31357696799441e-05
4.1888550547543e-05
8.90923238208461e-06
1.02704068454404e-07
5.49697195756374e-08
6.57444130205989e-06
5.02640369959417e-05
9.5845852786252e-05
6.92167766316268e-05
1.36915751015712e-05
1.55639348901548e-07
7.33417299738307e-08
8.79886042618684e-06
6.52728887332999e-05
0.000141304009138614
0.000157738958456682
9.29569877878641e-05
1.85576136989735e-05
2.20216379010605e-07
9.30628894156184e-08
1.1045151282193e-05
7.86096546457537e-05
0.000177994850884249
0.000237570732882301
0.000209668190051664
0.000113849820048269
2.34760972654942e-05
2.94717657344338e-07
1.13070298421269e-07
1.32151947902355e-05
9.04645512199093e-05
0.000208397762390075
0.00030268504223602
0.000321606518950823
0.000253043040378299
0.000132641769972181
2.82940944983549e-05
3.67732286275337e-07
6.14413497998441e-11
1.40241509992388e-09
1.01579876880937e-09
5.1881396276073e-09
1.41812663298619e-07
8.43381931722069e-09
1.33581060555164e-08
9.45607376776589e-07
1.36241723096466e-06
2.72546449204135e-08
2.43524253420287e-08
2.46091531506292e-06
1.37044111075228e-05
4.41969818800498e-06
5.85712045439029e-08
3.78418696233633e-08
4.361972157551e-06
3.26410459234549e-05
4.12612375366138e-05
8.72556115641869e-06
1.00555567896632e-07
5.39643385303475e-08
6.47392020791439e-06
4.97752593672664e-05
9.51161818812042e-05
6.86133541603841e-05
1.35194774270435e-05
1.53299445180259e-07
7.24655339975479e-08
8.71432202226075e-06
6.48972108336326e-05
0.000140735699577525
0.000157182509745139
9.25730752920589e-05
1.84464708167009e-05
2.18378436141998e-07
9.25896461368706e-08
1.10024882293727e-05
7.84378844479098e-05
0.000177765282263708
0.000237397114413243
0.000209577629580231
0.000113780434160992
2.34542688837738e-05
2.94578748909049e-07
1.13391483349493e-07
1.32433662357532e-05
9.05881520377254e-05
0.000208656960650591
0.000303121168787266
0.000322201662107295
0.000253656412552658
0.00013305092113099
2.83909942634945e-05
3.6999883926786e-07
1.33905289013628e-07
1.53492235668319e-05
0.000101379648577281
0.000234914220263104
0.000356819229513198
0.000418098397369142
0.000393618047766854
0.000291816692786977
0.00015066049164955
3.27181441770109e-05
3.99457616155123e-07
5.78160883702255e-11
1.32896955512602e-09
9.63748710491485e-10
8.02900522979692e-09
1.35260999911184e-07
4.94487257743313e-09
1.28016288786411e-08
9.07620536520544e-07
1.30333034196996e-06
2.61183868131985e-08
2.34683701835577e-08
2.37795765033924e-06
1.32944926449629e-05
4.26471210860397e-06
5.65465522901862e-08
3.66851092858951e-08
4.24315261771557e-06
3.20062383462789e-05
4.04741480238472e-05
8.49960525594332e-06
9.77679441046224e-08
5.26271228745856e-08
6.33761224040647e-06
4.90939312532885e-05
9.40813867280952e-05
6.77681051006966e-05
1.32751399379044e-05
1.49961424523691e-07
7.11120933938315e-08
8.58187852846729e-06
6.42841676207605e-05
0.000139752328894251
0.000156166264617733
9.18588930274966e-05
1.82411642152585e-05
2.1508210677086e-07
9.14532264888546e-08
1.08970942199017e-05
7.79841934333048e-05
0.000177031974759109
0.00023659784403529
0.000208897426629068
0.000113329006917344
2.33119998207039e-05
2.92036645874195e-07
1.12781394578442e-07
1.31906463107274e-05
9.03752424235015e-05
0.000208332081266441
0.000302806190358018
0.000321993625839972
0.000253543025039644
0.000132952816780194
2.83527932355971e-05
3.69642142227595e-07
1.34252572336773e-07
1.53777792101843e-05
0.000101490588494363
0.00023513417728791
0.000357195253348885
0.000418660225649033
0.000394306147545971
0.000292474777005796
0.000151084463960884
3.28214038767299e-05
4.01722894515867e-07
1.55023697070308e-07
1.73936373038278e-05
0.000111320498232664
0.000258223041732528
0.000402478836657958
0.000498894797635025
0.000518883340442487
0.000456292012573657
0.000327587335159482
0.000167731467194044
3.55273782974556e-05
2.52887676622387e-07
5.38550054649677e-11
1.24788569138693e-09
9.05955933882494e-10
7.58006188643108e-09
1.27930031539635e-07
4.67259637021338e-09
2.48359935383435e-08
1.23736860805064e-06
8.64362338699888e-07
1.21717611377317e-08
2.24478281320233e-08
2.28140980684704e-06
1.28192709297784e-05
4.08767041217857e-06
5.41946799698351e-08
3.53117906995612e-08
4.10062759998185e-06
3.12348419297339e-05
3.95299190727138e-05
8.23151240550039e-06
9.43697047254355e-08
5.09769563956967e-08
6.16717632602462e-06
4.82246146852763e-05
9.27505258717818e-05
6.66909267660044e-05
1.29675568810474e-05
1.4570544311375e-07
6.93307514973956e-08
8.40446220032191e-06
6.34423598108585e-05
0.000138369767529702
0.000154716947936701
9.083854326185e-05
1.7945081370191e-05
2.10271713870817e-07
8.97282746735749e-08
1.07348466455414e-05
7.72641303965624e-05
0.000175816869446063
0.000235199158130406
0.00020765422232318
0.000112510026111043
2.30563695310125e-05
2.87487627376196e-07
1.11393063221386e-07
1.30663257202139e-05
8.9856488934362e-05
0.000207453582142378
0.000301761222913513
0.000321001856179456
0.000252746439846999
0.000132424824028034
2.81750905577667e-05
3.66273296366444e-07
1.33511381720835e-07
1.53167965731846e-05
0.000101245790421384
0.000234730442350318
0.000356739128459544
0.000418277888784347
0.000394059724480864
0.000292323734241629
0.000150952252378541
3.27653058917744e-05
4.01154670945668e-07
1.5541055099764e-07
1.74237225778783e-05
0.000111427273226769
0.000258418246866433
0.000402803470789499
0.000499395551803131
0.000519551877553233
0.000457042204545446
0.000328268233885341
0.000168166282846364
3.56309662779157e-05
2.54352800304468e-07
1.76281901622814e-07
1.93412575509558e-05
0.000120397805168751
0.000278955478265438
0.000441772467415829
0.000566959861149866
0.000626199063117595
0.000606963063681616
0.000513142124308345
0.000362631650107844
0.000185493018778864
3.7385697101456e-05
4.95986197127808e-11
1.16004312430211e-09
8.42930187746829e-10
7.09252434276417e-09
1.19894564504766e-07
4.37477381842255e-09
2.34234622738064e-08
1.16530777215538e-06
8.16300422531698e-07
1.14753513811698e-08
5.15441984707468e-08
3.89018390712491e-06
1.228152820876e-05
2.17230150819301e-06
2.1302795199033e-08
3.37351642148546e-08
3.93573061075018e-06
3.03295121873176e-05
3.84301408334058e-05
7.92302171233601e-06
9.04088027072126e-08
4.90303826641721e-08
5.96379101351894e-06
4.71697484741501e-05
9.11261070114292e-05
6.53825164336388e-05
1.25965334601574e-05
1.40505454513542e-07
6.71389581261224e-08
8.18357945214829e-06
6.23753999364244e-05
0.00013659390537108
0.000152843897782662
8.95237165999907e-05
1.7556700921283e-05
2.04013463623755e-07
8.74779544857214e-08
1.05187928199273e-05
7.62853873181721e-05
0.00017413144398992
0.000233218414519157
0.000205869731151414
0.000111332794592104
2.26876600281308e-05
2.80839916278201e-07
1.09314766647188e-07
1.28770080536806e-05
8.90463075464665e-05
0.000206039070564577
0.000300005714101447
0.000319252038368382
0.000251297607529272
0.000131480878033772
2.7862600721969e-05
3.60298061172103e-07
1.31896736374203e-07
1.51755579419179e-05
0.0001006733575519
0.000233729491776517
0.000355467992209952
0.000416960987388952
0.000392889239963441
0.000291401941237087
0.000150337457008397
3.25501706201069e-05
3.97201977380787e-07
1.54561876969133e-07
1.73558156762995e-05
0.00011115864109991
0.000257952117050849
0.000402223245378778
0.00049882812628665
0.00051910138931556
0.000456738614509791
0.000328060785632325
0.000167986628960581
3.5555550175894e-05
2.53713921491912e-07
1.76721587561189e-07
1.93735854734335e-05
0.000120505738780333
0.00027913838378941
0.000442058935190778
0.000567398196933253
0.000626807372660096
0.000607703772290806
0.000513923102203773
0.000363322479777611
0.000185941209941181
3.74989342182869e-05
3.1028115276549e-07
1.97563310810189e-07
2.11929781398076e-05
0.000128718585884681
0.000297563924661485
0.000476122888612528
0.000625069537996642
0.000717498644744433
0.000738697619931916
0.000685978165787454
0.000567837500711282
0.000401617154114998
0.000215733412358214
4.5091619923407e-11
1.06629116139074e-09
7.75284653351496e-10
6.57135827259052e-09
1.11238790221383e-07
4.05414706382067e-09
2.18981529208803e-08
1.08792197262361e-06
7.63971362816303e-07
1.07198540637535e-08
4.86273587017395e-08
3.67419784070443e-06
1.16847420658508e-05
2.05172945519434e-06
2.00467047826846e-08
8.59450960849708e-08
7.57613727223199e-06
3.71767648963165e-05
2.92927604257185e-05
3.75002591772325e-06
3.19770268858723e-08
4.68109876347322e-08
5.72897537508951e-06
4.59311378696333e-05
8.92082772705964e-05
6.38437714029911e-05
1.21632897425346e-05
1.34424139914325e-07
6.45628954808356e-08
7.92064382758222e-06
6.10845097526776e-05
0.00013442548739819
0.0001505478988379
8.79139123435001e-05
1.70797746928598e-05
1.96417829974537e-07
8.47196211974762e-08
1.02505173929161e-05
7.50505097670186e-05
0.000171979161064797
0.00023066139712365
0.00020355180646389
0.000109796461774551
2.2205438324133e-05
2.72113979599421e-07
1.0658265206415e-07
1.26225649901894e-05
8.7951513084155e-05
0.000204097521694141
0.000297550803763034
0.000316760045282425
0.000249212028449024
0.000130124378768712
2.74126822935304e-05
3.51543995735618e-07
1.29452262531722e-07
1.49566269385625e-05
9.97864790074324e-05
0.000232146892738196
0.000353396089412636
0.000414726381661269
0.000390819760900623
0.000289740137054486
0.000149253923939255
3.21786912410793e-05
3.90287805020863e-07
1.52711603359468e-07
1.71961813345021e-05
0.000110540514722908
0.000256849809889037
0.000400755008798285
0.000497200338217632
0.000517530818989755
0.000455381841957807
0.000326995376710141
0.000167270315831636
3.5304205472124e-05
2.50842309590535e-07
1.757753249032e-07
1.92977617884928e-05
0.000120218570492112
0.000278624563387602
0.000441375815026932
0.000566659305348339
0.000626131012887631
0.000607166039706754
0.000513535253378097
0.000363033849580184
0.000185690329094148
3.73853214490939e-05
3.0883028471243e-07
1.98069455529027e-07
2.12283016955552e-05
0.000128831165628433
0.000297744288775452
0.000476385210425682
0.000625454907226195
0.000718035274702312
0.000739377669650381
0.000686752234759244
0.000568623611482594
0.000402315025901117
0.000216239154712242
0.000131883857296478
3.36786540327414e-05
2.1875672942321e-07
2.29519883992198e-05
0.000136377777792183
0.000314393109847348
0.000506526546787984
0.000675362582309184
0.000795565206504374
0.000852144598510613
0.000839218942107875
0.000759819422245075
0.000625186816100938
0.000455682979093949
4.03814349271885e-11
9.67502802089428e-10
7.03667580518736e-10
6.02147390036926e-09
1.02040706561526e-07
3.71419775241142e-09
2.02767588020742e-08
1.00592036654407e-06
7.07853357270872e-07
9.91343814981482e-09
4.54783944865288e-08
3.44178204323379e-06
1.10325232913529e-05
1.92089990105189e-06
1.86952317378352e-08
8.10501976942553e-08
7.19338198396862e-06
3.57722331145397e-05
2.81271686795864e-05
3.54524175403296e-06
3.00594351346433e-08
1.27584577735604e-07
1.1670645914835e-05
6.20757291262401e-05
8.69960174586325e-05
4.45104343253293e-05
5.46478808859924e-06
4.434748788039e-08
6.16327421561235e-08
7.61756816606549e-06
5.95704814873395e-05
0.000131862732551762
0.000147827003125156
8.60087549992213e-05
1.65153938261029e-05
1.87568998688138e-07
8.14822477961535e-08
9.9315251599976e-06
7.35601932598618e-05
0.00016935867291642
0.000227526671208282
0.000200699014896958
0.000107901345866078
2.16109514117319e-05
2.61369626759453e-07
1.03239055421342e-07
1.23087810170469e-05
8.65746583282508e-05
0.000201630457008559
0.000294398351386743
0.000313529395768085
0.000246490924521045
0.000128350912305881
2.68222648815183e-05
3.39910477921877e-07
1.26244002946698e-07
1.46675362846308e-05
9.85888838645211e-05
0.000229990131125647
0.000350530378195664
0.000411582732946483
0.000387863542571293
0.000287348376578019
0.000147699046547931
3.16443811243486e-05
3.80249397728008e-07
1.49913201175204e-07
1.69538240524918e-05
0.000109582683803946
0.000255125616590001
0.0003984106303814
0.000494522579619112
0.000514853601816669
0.000452993616509307
0.000325099828848286
0.000166028956702881
3.4878131967239e-05
2.45949746045253e-07
1.73697229648779e-07
1.91239541737181e-05
0.000119559072437605
0.000277438364626098
0.000439740869930391
0.000564751970499476
0.000624167018192142
0.000605336747659856
0.000511968396530131
0.000361794225624991
0.000184842195980225
3.70780862986526e-05
3.04993536084514e-07
1.97028236834566e-07
2.1145711371926e-05
0.000128527920778025
0.000297194459803478
0.000475620165508787
0.000624567833796854
0.000717141568877761
0.000738575133135919
0.000686096256994719
0.000568117202772022
0.000401908575556605
0.000215863372139777
0.000131569244559686
3.35969075702754e-05
2.19322378757957e-07
2.29906975704702e-05
0.000136497889389492
0.000314578040266645
0.000506777491506102
0.000675709203367042
0.000796035090384735
0.000852744738747379
0.000839928447558697
0.000760591372617565
0.000625961637788737
0.000456423723028792
0.000321397702245294
0.000240154093652146
0.000102210888004953
2.39736549780766e-07
2.46209081805991e-05
0.000143452696796033
0.000329709121028816
0.000533707061554679
0.000719431091896708
0.00086293306758195
0.000949717925976818
0.000972556350528841
0.000931154471849889
0.000832491548894502
0.000691691346484168
3.54994503007047e-11
8.6468429163519e-10
6.28810419324479e-10
5.44788712762865e-09
9.23891457645237e-08
3.35807135178694e-09
1.85738127304394e-08
9.19932099747805e-07
6.48561897570852e-07
9.06495932365832e-09
4.21350756713065e-08
3.19514246152668e-06
1.03270544887323e-05
1.78107145475769e-06
1.72624444794456e-08
7.57912778011154e-08
6.77803931892718e-06
3.42189950319201e-05
2.68352889365047e-05
3.32325721256944e-06
2.80043376889197e-08
1.20160266734433e-07
1.11238811525979e-05
6.0079470733752e-05
8.44873200824091e-05
4.29091713270974e-05
5.17350249386531e-06
4.1671737549878e-08
1.77689226440874e-07
1.58696510507548e-05
8.38096303966101e-05
0.000144677711776643
0.000128902175491426
5.7834205701016e-05
7.27661237384423e-06
5.83797001795121e-08
7.78041184056823e-08
9.56377299201328e-06
7.18145589958717e-05
0.000166266096691305
0.000223808870981876
0.00019730730470858
0.000105646430448538
2.09082936666097e-05
2.48825327598009e-07
9.93163623911194e-08
1.19364648709014e-05
8.49156729628221e-05
0.000198634837614394
0.000290543531681407
0.000309555174249271
0.000243129645811586
0.000126156101334668
2.60907283511141e-05
3.25496563014708e-07
1.22310358132917e-07
1.43132207225555e-05
9.70876453183556e-05
0.00022725970950849
0.000346869333922221
0.000407528238871331
0.000384018947908715
0.000284221425322568
0.000145661119241724
3.09395485151018e-05
3.66592648506319e-07
1.46232409728935e-07
1.66368525348483e-05
0.000108296412411469
0.000252785826901632
0.000395194615707587
0.000490797712396687
0.000511073866682299
0.000449580265288962
0.000322376471216504
0.000164251216362805
3.42669636699473e-05
2.39193201435453e-07
1.70554377323832e-07
1.88625079782282e-05
0.000118543663408283
0.000275593252907043
0.00043716508510886
0.000561683325296269
0.000620920557644939
0.000602223398645162
0.000509238195158835
0.000359626718872985
0.000183403864014606
3.65742808917073e-05
2.98243856206882e-07
1.94732886510789e-07
2.09594020796883e-05
0.000127836313136126
0.000295938793241675
0.000473846637922792
0.000622418592494045
0.000714815094803489
0.000736273287171869
0.000683983580234172
0.000566300160538506
0.000400441013345918
0.000214793219838507
0.000130745753720736
3.32975232442488e-05
2.18192577344377e-07
2.29023468581927e-05
0.000136182725451787
0.000314001370816066
0.000505949230111102
0.000674699968398146
0.000794947681628869
0.000851681585460381
0.000838968941285609
0.000759777850078512
0.000625291192556429
0.000455832681690548
0.000320792181105672
0.000239622801011145
0.000101940132968956
2.40358779095342e-07
2.46628191653247e-05
0.000143582260489797
0.000329904286242502
0.000533957313078361
0.000719754198392604
0.000863349887045231
0.000950239394061083
0.000973177777955145
0.000931853766529759
0.000833237417447895
0.00069249182349056
0.000545994561889041
0.000423668066493028
0.000304260839358761
0.000137271982606728
2.60345400959149e-07
2.62006415329265e-05
0.000150003105967692
0.000343716389979264
0.000558201441651455
0.000758458532005032
0.000921665295910292
0.00103405798700742
0.00108802698191537
0.00108134030634941
0.00101767319278375
0.000907548206915038
3.04876230089252e-11
7.58656813940961e-10
5.51282431563937e-10
4.85676965736704e-09
8.23793418748569e-08
2.98878351819791e-09
1.68042527021479e-08
8.30835895363076e-07
5.86646554836194e-07
8.18169974960575e-09
3.86293239443465e-08
2.93593196032704e-06
9.57323290603179e-06
1.6336168809704e-06
1.57633607298113e-08
7.02263537500428e-08
6.33407073524885e-06
3.25182607885249e-05
2.54194923508567e-05
3.08607990005993e-06
2.58353371446677e-08
1.12271534592159e-07
1.05287698620423e-05
5.78563424389836e-05
8.16785439203746e-05
4.11285942400936e-05
4.85747467323063e-06
3.88113065822574e-08
1.6706370944159e-07
1.51641043358238e-05
8.13211926850398e-05
0.00014109474042715
0.000125538566375683
5.58762158547404e-05
6.90033440763802e-06
5.48487488318793e-08
2.34957813623701e-07
2.01075137327593e-05
0.000103038490303014
0.000193371990156862
0.000219499792948422
0.000162695651469143
6.98135111645439e-05
9.14945392959702e-06
7.37276039703099e-08
9.48601864831012e-08
1.15072520119567e-05
8.29737888905754e-05
0.000195104901155044
0.000285977058224353
0.000304827888442003
0.000239121882926691
0.000123540775893194
2.52238455892927e-05
3.08645072842728e-07
1.17695423804096e-07
1.38931103702576e-05
9.52816640053546e-05
0.000223950934512337
0.000342404812625627
0.000402552833394866
0.000379275545961588
0.000280348342168015
0.000143129451504611
3.00609417571067e-05
3.49809368469925e-07
1.41712932882612e-07
1.62456007375828e-05
0.000106685280349073
0.000249831822096571
0.000391102968542735
0.000486018903105128
0.000506183578394264
0.000445132169392686
0.000318809536575882
0.000161913399432652
3.34539162521271e-05
2.29508137016938e-07
1.66408626826402e-07
1.85198568887628e-05
0.00011718072150001
0.000273097837522069
0.000433651742376611
0.000557452479004993
0.000616388349295911
0.000597822684639583
0.000505341440189379
0.000356521701188668
0.000181351508470482
3.58610590094509e-05
2.88709414864612e-07
1.9125526892165e-07
2.06812926511286e-05
0.000126771047242448
0.00029399315065143
0.000471075674500393
0.000619013012536908
0.00071105642778148
0.000732469370478011
0.000680412992199583
0.000563180108914464
0.000397930131702795
0.000213026600896642
0.000129406914731659
3.28004305350317e-05
2.15693728565415e-07
2.27054293505878e-05
0.000135464877200014
0.000312690277086279
0.000504062056647188
0.000672346626983619
0.000792301521755563
0.00084893752809587
0.000836307691798195
0.00075733977969815
0.000623162400257955
0.000454040608527141
0.000319273016222775
0.000238356886745348
0.000101263159007746
2.39144034547178e-07
2.45689139974811e-05
0.00014325857423065
0.00032930908780524
0.000533081896408163
0.000718647975487504
0.000862098682645521
0.000948939465145538
0.000971917330892556
0.000930698232926
0.000832218034124768
0.000691583231977454
0.000545084677564738
0.000422825599854346
0.000303574316312065
0.000136887768260948
2.6102324183389e-07
2.62457684227086e-05
0.000150142657419929
0.000343926124934449
0.000558459735799825
0.00075877226017817
0.000922046176792606
0.00103451401503428
0.0010885599425714
0.0010819436949378
0.00101833735123856
0.000908317147812883
0.000772987337702244
0.000635800457289238
0.000499020068277649
0.000339258588444266
0.000154086288023328
2.80299358561667e-07
2.768993105136e-05
0.00015607270263761
0.00035657071701677
0.000580412782172044
0.000793329495690292
0.000973373420723611
0.0011075169622519
0.00118824013017698
0.00121228054967317
0.00118096464341039
0.00110099714147787
2.53981380560467e-11
6.50363162784407e-10
4.71812150426976e-10
4.25320964469846e-09
7.20964932570856e-08
2.6091240656444e-09
1.4984577348088e-08
7.39514002200106e-07
5.22607327282069e-07
7.27308824340346e-09
3.4987931401581e-08
2.66557721564873e-06
8.77571793257496e-06
1.4797080865972e-06
1.42141735466169e-08
6.43974383503088e-08
5.8639201327537e-06
3.06686801962102e-05
2.38817415116021e-05
2.83574503998591e-06
2.35756345985297e-08
1.04004125214521e-07
9.89145095689727e-06
5.54056621140486e-05
7.85631695309384e-05
3.91691981798418e-05
4.51930008688253e-06
3.57956485526832e-08
1.56112437779096e-07
1.44011591698222e-05
7.8547094156045e-05
0.000137069931067752
0.000121764135064653
5.36965060164711e-05
6.49136816437153e-06
5.10901892273655e-08
2.20391795978659e-07
1.92248546699027e-05
0.000100099979119798
0.000188888095404243
0.000214588072414972
0.000158639440676559
6.75564267717619e-05
8.69086826288154e-06
6.92991735742085e-08
2.90022852848009e-07
2.4240712352547e-05
0.000120517737492185
0.000234464762625837
0.000299335019784501
0.000280686040646626
0.000191032521968302
8.07475909680956e-05
1.10235143051562e-05
8.99174964909541e-08
1.12447982714441e-07
1.34082766205328e-05
9.3168544269912e-05
0.000220056437444241
0.000337123783626331
0.000396640597672327
0.000373618547514391
0.000275720087216835
0.000140104636288737
2.90167959417624e-05
3.29430180293217e-07
1.36407320421537e-07
1.57818702207647e-05
0.0001047493084034
0.000246256961459017
0.000386124711990659
0.000480170899977782
0.000500164967214632
0.000439630013040194
0.000314377275234071
0.000158994473474967
3.24351597293514e-05
2.18345229010573e-07
1.61311278372348e-07
1.80954181569569e-05
0.000115476714149051
0.000269951720043728
0.000429195378142139
0.00055204862379345
0.000610555671963831
0.000592116833809926
0.000500255425108052
0.000352445881766454
0.000178640038329872
3.48999787162411e-05
2.75304267379206e-07
1.86656477596078e-07
2.03151840814735e-05
0.000125345977937454
0.000291365178625622
0.000467310557110928
0.000614348060349627
0.000705857112345094
0.000727151028222342
0.000675369760991245
0.000558739043658074
0.000394347190521718
0.000210520231002733
0.000127503441126907
3.20939346743201e-05
2.11893268142755e-07
2.24118956775044e-05
0.000134357836653681
0.000310660585642427
0.000501127988943939
0.000668654876268259
0.000788095018285742
0.000844503802029053
0.000831931275854986
0.000753265237064374
0.000619573912210299
0.000451051201435813
0.000316800978864471
0.000236317527159712
0.00010017184925461
2.36457136190459e-07
2.43626220358658e-05
0.000142517585128965
0.000327953889270186
0.000531102956407218
0.000716125552148588
0.00085917884678618
0.000945800238917261
0.000968739430585925
0.000927639753728786
0.000829394970257697
0.000689053266855018
0.0005428350964292
0.00042087660069656
0.000302032976770607
0.000136029104139141
2.5971530298858e-07
2.61485090259454e-05
0.000149812623579916
0.000343319347735167
0.000557550832773493
0.000757591761260664
0.000920662060856501
0.00103301065632565
0.00108702396935015
0.00108045087903064
0.00101694025106035
0.000907018816997662
0.000771693339486611
0.000634594476318633
0.000497962716268173
0.000338450468752095
0.000153634465050469
2.81085938966103e-07
2.77383275517777e-05
0.000156222538231508
0.000356798002842281
0.000580686124994235
0.000793645986465128
0.000973735570880281
0.00110792624284714
0.00118869818626777
0.00121278871512963
0.0011815283266806
0.00110169109871908
0.000986706730863459
0.000853075153398966
0.000709388099917224
0.000547296209117623
0.000358141748837902
0.000162598973850131
2.99174581411993e-07
2.90831858370561e-05
0.000161690508979375
0.00036838954021508
0.000600645481268046
0.00082470945647587
0.00101929633256509
0.00117203134439001
0.00127568661871649
0.00132652995487912
0.00132436367865782
0.0012730757325482
2.04086529645644e-11
5.41322638930457e-10
3.91643044275056e-10
3.6423741699916e-09
6.16453885251911e-08
2.22449034656364e-09
1.3131376482037e-08
6.46607366874811e-07
4.56979027995689e-07
6.35021259281395e-09
3.12405415464858e-08
2.38577529683171e-06
7.93775864253627e-06
1.32078908410028e-06
1.26317863899735e-08
5.8325028628391e-08
5.36759972565018e-06
2.86664664141881e-05
2.22234627204887e-05
2.57433232469841e-06
2.12454018256915e-08
9.5533201067031e-08
9.21423340264515e-06
5.27210025920448e-05
7.51305766659424e-05
3.70307907332309e-05
4.16166092757427e-06
3.26605448774476e-08
1.45130294703495e-07
1.35877938302937e-05
7.54870041197e-05
0.000132589745501432
0.000117567418286573
5.12942410148071e-05
6.05258224042442e-06
4.71399043263011e-08
2.05988399899039e-07
1.82768216037836e-05
9.68362932835673e-05
0.00018384603524465
0.000209057769305588
0.000154086472946485
6.50417407660211e-05
8.19047213658743e-06
6.45689207998262e-08
2.70753814119016e-07
2.31677345408739e-05
0.000117112161004712
0.000229159693365741
0.000293060674443554
0.000274653570807664
0.000186407374937828
7.82344161425698e-05
1.04877333064139e-05
8.45452203319574e-08
3.07401432144101e-07
2.78286907280222e-05
0.000136609693782765
0.000270335843607854
0.000367031684003538
0.000389770851266124
0.000331009015167306
0.000215565003380768
9.07445386258494e-05
1.28609221899487e-05
1.06624969954541e-07
1.30368066963827e-07
1.52463204555089e-05
0.000102484085012486
0.000242053063410744
0.000380243340219535
0.000473231617655929
0.000492993526749872
0.000433051127574008
0.000309063467777153
0.000155488571792424
3.12037733706405e-05
2.02986965938859e-07
1.55318321314107e-07
1.75919145982082e-05
0.000113430113708487
0.000266147564331561
0.000423782773213153
0.000545452036608111
0.000603397462445427
0.000585076544545718
0.000493945675916048
0.000347357852489752
0.000175231604229065
3.36985302650205e-05
2.59523984727542e-07