/*--------------------------------*- C++ -*----------------------------------*\
  =========                 |
  \\      /  F ield         | OpenFOAM: The Open Source CFD Toolbox
   \\    /   O peration     | Website:  https://openfoam.org
    \\  /    A nd           | Version:  12
     \\/     M anipulation  |
\*---------------------------------------------------------------------------*/
/*   Windows 32 and 64 bit porting by blueCAPE: http://www.bluecape.com.pt   *\
|  Based on Windows porting (2.0.x v4) by Symscape: http://www.symscape.com   |
\*---------------------------------------------------------------------------*/
FoamFile
{
    format      ascii;
    class       volScalarField;
    location    "700";
    object      omega;
}
// * * * * * * * * * * * * * * * * * * * * * * * * * * * * * * * * * * * * * //

dimensions      [0 0 -1 0 0 0 0];

internalField   nonuniform List<scalar> 
10103
(
3.73734922155493
3.73735139990989
3.98683253486339
3.04791046762875
3.73734077550497
3.98685621615656
3.04790917893939
4.20371297736552
0.822655016206525
3.02834735616194
3.737337763125
3.98680068813873
3.04791210468647
4.20375907813518
0.821384083731499
3.02834794752523
4.33730861222848
0.697342964940534
0.535877375190604
2.99243724289199
3.73732114530662
3.98681679011599
3.04791498764207
4.203664915431
0.82124649282512
3.02835118919333
4.3373393973255
0.69572192617083
0.53551355696271
2.99244006801209
4.40627919263996
0.700315001047567
0.277390491802805
0.500226849549307
2.97494419100702
3.73728427170651
3.9867989189361
3.04790170369421
4.20369924186754
0.82182701370757
3.02835913660116
4.33728647904058
0.695278334352483
0.535540487926096
2.99244799032097
4.40629050079893
0.699000976917247
0.27663268675391
0.500107026078738
2.97495134666853
4.43507589818257
0.708005095317419
0.248956214330631
0.211804697767596
0.496750379858572
2.97384212483954
3.73722872139226
3.98676421136003
3.04792987876444
4.20369169356904
0.822857213231764
3.02836007758106
4.33729950117782
0.695063992683929
0.536410670341229
2.99246698653983
4.40628175629652
0.698620688277859
0.276362159109782
0.500180765205243
2.97496934782962
4.43508596841634
0.707111717838481
0.248379317789812
0.211543730017453
0.496634009228976
2.97385721902173
4.43971636349095
0.713796709322647
0.25005590258782
0.163623050035125
0.203132731074219
0.501150074497075
2.97198803640423
3.73714643361032
3.98670658375187
3.04794837432847
4.20367229261342
0.823843382806357
3.02840564255434
4.33730123297346
0.694924803620163
0.538010389132743
2.99250586118799
4.40627431959321
0.698357155347884
0.276318995902463
0.500871734445008
2.9750102350848
4.43508636903859
0.706855084468089
0.248090638609934
0.21134830402502
0.496604937284076
2.97389427764657
4.43972528214075
0.713231487415081
0.249701140530433
0.163400642910642
0.202939930028609
0.501061467084069
2.97201657546414
4.43310442460738
0.717936708115112
0.255537766469571
0.154834111620262
0.14364214220862
0.205627881188023
0.507175733126337
2.96211912703611
3.73702866342576
3.9866247707707
3.04797769752047
4.20363732171202
0.824766825675581
3.02845593145822
4.33729825297123
0.69479559015772
0.539577710347766
2.99257645964016
4.40627734069788
0.698092730135836
0.276325370061755
0.502242242616914
2.97509292121143
4.43507521138449
0.706642004211992
0.247770421909721
0.21117772335827
0.496764628685614
2.97397663997968
4.43973336842385
0.713049139579688
0.24944155194535
0.163153331213796
0.202709252760233
0.500932725121666
2.97208661131671
4.43310833819501
0.717568551503062
0.255337251006427
0.154683283877171
0.143470056608382
0.2053797099005
0.507085083230236
2.96216578014264
4.42456998660237
0.721261271902417
0.261489397090358
0.155004089939845
0.127051665964656
0.139422831638464
0.210522133825478
0.512588678509424
2.95324750513219
3.73686764118494
3.98651152396347
3.04801915079783
4.20358842097583
0.825641536253722
3.0285325872903
4.33728088860487
0.694656351037558
0.541012434342827
2.99269304030253
4.40628011236471
0.697806261141668
0.276248542548189
0.503458270526251
2.97524339474053
4.43507851029866
0.70639671919359
0.247347345439591
0.21101036210392
0.497595528079807
2.97414178543704
4.43971614115761
0.712852695018777
0.249085929820861
0.16280786153953
0.202400482292967
0.500746578932103
2.97224123066895
4.43311275021557
0.717418109254391
0.25510508497543
0.154444753663055
0.143215114934716
0.205096228194716
0.506875927998194
2.96228657760098
4.42456977819959
0.721040695556752
0.261379100351229
0.154908873279203
0.126931322400644
0.139234980887135
0.210218858276105
0.512478197008491
2.95331968323941
4.41827024575506
0.724603331328747
0.267229394048527
0.157704437433361
0.12227205320792
0.117609140664013
0.139930583210968
0.215580740791295
0.518072716618565
2.98372909100893
3.73665261468742
3.04807018476487
3.98635918382598
4.20352274260704
0.82648638909831
3.0286380357441
4.33726201484686
0.694505867078342
0.542353435426653
2.99286812541596
4.40627353604342
0.697502377616675
0.276062375717734
0.504508110536698
2.9754914056977
4.43507944353046
0.706107641854293
0.246796046662351
0.210697167305454
0.498228629207272
2.97444144727839
4.43972260943726
0.712594973844457
0.248591538288345
0.162333813407372
0.202018989794076
0.50079710975218
2.97254967116919
4.43310458148978
0.717204589412654
0.254740268831611
0.154080985874165
0.142844958460084
0.204694553323501
0.506551489007797
2.96255378015007
4.42457057845584
0.720900336132795
0.26116168395129
0.15468842019522
0.126695603967137
0.138953764153139
0.209887101083459
0.512205591737875
2.95350873117985
4.41827379458625
0.724511249868709
0.267170316998857
0.157646222469705
0.122188217974542
0.117478866705319
0.139719200714463
0.215239275710565
0.51787893081398
2.98382676028519
4.41468847815087
0.728407919086587
0.272703140193215
0.161184316050354
0.121678101364977
0.109208218466436
0.114547486305207
0.141876005126579
0.220320074087667
0.527648117846989
3.21034670515829
3.73636100712315
3.04812856616502
3.986177159555
3.02876727472946
0.827307145559621
4.20343550655953
4.33723769441154
0.694351681157064
0.543630886199289
2.99310457387179
4.4062689143869
0.697192356094782
0.275771411846676
0.50544694645584
2.97586066853844
4.43508062320651
0.705781850698833
0.246113733171273
0.210222122791488
0.49865407023814
2.97493357574233
4.43972415789802
0.712270683514077
0.247949598257986
0.161707098909015
0.201478414857771
0.500818353296743
2.97310666001544
4.43310349426461
0.716902444701954
0.254218151987238
0.153572377815923
0.1423411330835
0.204171556245371
0.506106429197991
2.96308620753859
4.42456961313311
0.720655335877648
0.260785264720282
0.154326713651564
0.126335000432907
0.138553703120778
0.209421175476807
0.511798348594909
2.95392509349629
4.4182697262471
0.724372466380432
0.266959683493605
0.157440256344817
0.121974968037875
0.117232707188939
0.139410943814824
0.214867767746012
0.517564470329464
2.98408378225068
4.41469615940661
0.728358251984399
0.272675936508744
0.161150165390458
0.121619376956651
0.109113862065771
0.114401445361608
0.141645118753939
0.219952746582759
0.527343968280404
3.21045868736685
4.41297865150931
0.732572121255659
0.277941114993387
0.164883776843548
0.12280801757672
0.106068067807339
0.103543972735554
0.113930338711632
0.144017299585967
0.224793742095124
0.552986394941042
4.87759952916195
3.73597001609313
3.04819214804633
3.98586592895936
3.02891045680058
0.828095372542128
4.2033414642153
2.99338842102497
0.544864828426925
0.694205283317707
4.33720574194912
4.40626270054063
0.696881275159537
0.275385650118564
0.506315058261469
2.97635217452197
4.43508457337518
0.705431097024622
0.245303326812458
0.209592418076686
0.498944693975511
2.97566089829504
4.43972696868825
0.711881649185919
0.247160347544639
0.160921560469231
0.200765768231078
0.50064359521359
2.97401593288769
4.43310881036563
0.716504418270275
0.253533327483926
0.152909876747208
0.14168555681566
0.203490232692728
0.505541727184806
2.96404445955458
4.42456137573636
0.720293313452914
0.260235551489699
0.153813171839738
0.125837648483776
0.13801664170621
0.208795554312029
0.511234096630163
2.95476459648408
4.41826801530798
0.72409434775926
0.266569907031551
0.1570814419401
0.121630249446641
0.116865653407008
0.138982390979769
0.214354555520875
0.517095871679824
2.98467273924207
4.41468665981303
0.728214003991533
0.272468433392302
0.160954575704457
0.121423947004836
0.108897857265184
0.114141567433149
0.141314250251977
0.219545181622382
0.526985964688407
3.21076452338719
4.41298208579994
0.732550083719285
0.277933071135036
0.164866624930056
0.122767380743829
0.105997738169785
0.103436770868277
0.113770674820087
0.143771940039431
0.224400483155297
0.552615719426659
4.87775595528554
4.41227332312209
0.736916276723363
0.282943019040159
0.168594130380436
0.124714357509872
0.105338629505314
0.0985030434667078
0.10102874122912
0.114123891189664
0.145559167905937
0.228073269513443
0.611630757008146
3.73542850845234
3.04826009650922
3.98554453769171
3.0290614195225
0.828844733842049
4.20314921555509
2.99369149855641
0.546039752308403
0.694072537157012
4.33716393661953
2.9769277438473
0.507130330772147
0.274917039698376
0.696580363652872
4.40625490917017
4.43507805427943
0.705066979118529
0.244367912522645
0.208816429323253
0.499133221355498
2.97661598811017
4.439735406989
0.711443242137661
0.246226425500956
0.15997627441465
0.199886077053776
0.500333627814131
2.9753486863003
4.43311223617488
0.716019968874982
0.252685932573489
0.152090223611341
0.140871603753752
0.202631992933231
0.504933909331624
2.9656010962143
4.42457074454339
0.719812120491974
0.259509201271668
0.153142911448233
0.125195866981931
0.137329221250051
0.207997867726587
0.510534893621653
2.95628368553332
4.41825931584835
0.723674096156208
0.265992649435464
0.156564392246085
0.121148259699045
0.116367569100945
0.138413322079464
0.213671218986113
0.516463011097686
2.98588096766863
4.41468373781182
0.727930502543682
0.272065919778465
0.160597415922983
0.121092480626723
0.108559603236269
0.113763959999429
0.140862080254408
0.218994854773884
0.526468935879277
3.2115270184991
4.41297538578652
0.732408459192709
0.277726945287393
0.164678728690591
0.122585629658464
0.105804234669006
0.103214451078928
0.113498753554819
0.143423981728069
0.223967049799353
0.552211570295341
4.87817068871056
4.41226776602996
0.736919275362766
0.282949309620751
0.168589699935235
0.124687784665694
0.105286053236188
0.098421454677699
0.100911082154963
0.11395454820989
0.145304022189762
0.227658865575458
0.611126731418229
3.18378836646791
4.41201757233935
0.741276525078266
0.287695840970204
0.172221653155076
0.126978856859109
0.105828904644295
0.0963539869929343
0.0945782288582386
0.0998464009491282
0.11418682052492
0.145161770368773
0.221020764337643
3.73469763655541
3.04834526558004
3.98511409370256
3.02922984717811
0.829547831208566
4.20299215625941
2.99398959432219
0.547157585512901
0.693958116020067
4.33710942990764
2.97751119685036
0.507887782204979
0.274369711621458
0.69630257148737
4.40624563905747
2.97770537882038
0.499244957175257
0.207899111757876
0.243313096853747
0.704699209159041
4.43507133324402
4.43972516836721
0.710967742859348
0.24515102866127
0.15887099317132
0.198842760524999
0.499926693421657
2.97707661850531
4.43312040385567
0.715458960490874
0.251678686149842
0.151111963481299
0.139897163659306
0.201598960803744
0.504244916535719
2.96786816926001
4.42457469765671
0.719217256937445
0.258607080317873
0.152313872730609
0.124405763561563
0.136484809878503
0.207028454783634
0.509728390566192
2.95875325819566
4.41826963566356
0.723224655104375
0.265226904471877
0.155886349897759
0.120525110263649
0.11573171957478
0.1376931249192
0.212809077815412
0.515699204593756
2.98812129146836
4.41467459517049
0.727622276327301
0.271465653557742
0.160075952588582
0.120622380235846
0.108094375994657
0.11325888637904
0.140268344058355
0.218271037328927
0.525789631071276
3.21320532689983
4.41297161728593
0.732221410084535
0.27731741471446
0.164322326348094
0.12226439185067
0.105487950281307
0.102876595944345
0.113111439446786
0.142954403708272
0.223389806399112
0.551653797443974
4.87934849469073
4.41226402572497
0.736844707392886
0.282746460908987
0.168407759300863
0.124516804978852
0.105109638103347
0.0982263151703721
0.100682996331432
0.113674465891951
0.144946493078442
0.227214976630728
0.61072781252403
3.18392126296775
4.41200703796252
0.741301241684402
0.287714748185717
0.172227446869216
0.126963688839983
0.105790415748171
0.0962912506412858
0.0944882119269083
0.0997218948390706
0.114012918367648
0.144906573068524
0.220621371298178
0.264747564903601
0.48459959344368
4.41193220525402
0.74553972062691
0.292187562200468
0.175717809506163
0.129394085920071
0.10697199706464
0.0957539149254988
0.0913607522504251
0.0923863212086156
0.0990392080967292
0.113261473535157
0.139917636107409
3.73376668954166
3.048482783321
3.98461401927223
3.02945354012724
0.830227144289232
4.20280529136216
2.9942910102377
0.548211166256302
0.693874011831023
4.33706569708152
2.97802345510432
0.508585594966795
0.273751633852723
0.696065847495335
4.40623384469903
2.97874411127788
0.499294380446371
0.206843289306433
0.242144216269888
0.704341304369999
4.43507478299561
2.97899934388573
0.499448231659928
0.197637735166635
0.157605118822849
0.243936689107744
0.710467306006426
4.43971475459327
4.43311048421536
0.714833716416325
0.250514145617164
0.14997387600673
0.138760488123799
0.200393357609382
0.503523358745871
2.9707810159132
4.42458348821906
0.718519491692744
0.257530923031694
0.1513249336901
0.123465078976331
0.135480745384063
0.205883599495505
0.508830349946288
2.96235524925807
4.41827419319998
0.722600711725292
0.26427257448554
0.155046127944972
0.119758491484793
0.114954329650678
0.136817214922995
0.211767800717933
0.514841937308544
2.9917960980358
4.4146859961745
0.727174355108725
0.270674888642167
0.159388793147116
0.120011709041584
0.107498828916808
0.112620310493259
0.139523560089513
0.217367243558467
0.524998234218045
3.21627900450719
4.41296243576115
0.731908456604457
0.276711257154313
0.163796500304567
0.121802597124791
0.105046763596937
0.10241884809679
0.112599595472563
0.142343891232053
0.222639299523943
0.550951718556009
4.88259044344408
4.41225584405502
0.736672118392323
0.28233945137816
0.168052188973578
0.124203413314676
0.104810024186652
0.0979178022195408
0.100344343874043
0.11328118344828
0.144467962926961
0.226626991131516
0.610251524722929
3.18443161688371
4.41200226911478
0.741284094321836
0.287520625219886
0.172050804130559
0.12680138246314
0.105627410427949
0.0961164335103439
0.0942913675475578
0.0994906986889826
0.113730306561216
0.144550886884299
0.220194420257123
0.264260870214631
0.483742905996377
4.4119211858135
0.745586055028276
0.29221748906873
0.175732482834733
0.129388500240491
0.106945101169309
0.0957060237740529
0.0912908965572105
0.0922912102895926
0.0989123431949783
0.113091301104572
0.139691781975793
0.167879160794509
0.182594114697069
0.266541682958831
4.4118995275966
0.749640147045851
0.296412996801162
0.17905633250079
0.131847405286341
0.108469879043621
0.0960353269397203
0.0899308007880891
0.0883971091826455
0.0909609227767113
0.097980195723305
0.110434484929122
3.73273214225141
3.04875147233586
3.98413707827085
3.02981072677852
0.830890529289221
4.20266882073121
2.9946608096763
0.549264514249811
0.693831489125669
4.33705768860459
2.97844811532053
0.509203028629213
0.273065156316023
0.695877544025874
4.40624125098417
2.97952090987583
0.499263502408706
0.205650576967689
0.24086699198565
0.704006578760208
4.43507790662619
2.98071858754717
0.498891896101696
0.196271609185226
0.156177662818005
0.242587194320093
0.709956542872969
4.43972288954153
2.97396486408835
0.502766490278987
0.19901513767941
0.137459468287527
0.148674442686434
0.249194381057779
0.714155696376343
4.43310355791921
4.4245732802205
0.717729465882459
0.256282382313674
0.150174925339616
0.122371788680182
0.1343147650655
0.204564376251528
0.507844669985915
2.96698405533615
4.418283770928
0.721844950588931
0.263131288666086
0.154042923899939
0.118846808107079
0.114033125169421
0.13578267461359
0.210546769419704
0.513919529700909
2.9972445107505
4.41469518915327
0.726499610322251
0.269681920846953
0.15853512782701
0.119259239939251
0.106770889765066
0.111845017517762
0.138623973233244
0.216285618383921
0.524150172067659
3.2219366922213
4.41297483687434
0.731380187319134
0.27589929051613
0.163100915638991
0.121199381065542
0.104479169309025
0.101838318874411
0.111957972605192
0.141584483827929
0.221713180187397
0.550171049264865
4.88752227851304
4.41225570098546
0.736327623526565
0.281722003786769
0.167523337848483
0.123747337860242
0.104386313029575
0.0974939891153521
0.0998912914748085
0.112766628389817
0.143851246220913
0.225872096206695
0.609758886011853
3.1861432496099
4.41199000804579
0.741126144007815
0.287111652938367
0.171696485147387
0.126494095518927
0.105340588715509
0.0958298397477259
0.0939880431539477
0.0991530812014128
0.113337086062019
0.144076296535423
0.219633580309639
0.263673225451506
0.483212971323341
4.41191577026331
0.745617254753818
0.292031829293577
0.175561022542376
0.129233399983388
0.106792862485326
0.0955469560860578
0.0911171250636802
0.0920943916692933
0.0986820187901904
0.112813719143716
0.139353516451634
0.167493016807184
0.182178731149423
0.26601485610887
4.41188856594604
0.749711801262064
0.296452888037934
0.17907884801577
0.131850149272872
0.108452753519688
0.0959995518417631
0.0898766143540493
0.0883232041355638
0.0908644929131112
0.0978573032068197
0.11028671814916
0.126155195997597
0.1403075509893
0.161827626389149
0.238579720796833
4.41190497621237
0.75354668753754
0.30037284847533
0.182223580080291
0.134273692894432
0.110153553210749
0.0968341964977308
0.0895517797286172
0.0863575039183881
0.0864821292511737
0.0897511362626024
0.0962607771665274
3.73151955475405
3.04933261594638
3.98391687682987
3.03044320290094
0.831563548480383
4.20274494385181
2.99522890948021
0.550322259013004
0.693851504120189
4.33716974658718
2.97889182525409
0.509766580682761
0.27233373442338
0.695752790446804
4.40630343576115
2.97994622591734
0.499102607552996
0.204323080774385
0.239488332313043
0.703720119553697
4.43509295505786
2.98174569539078
0.498185675714616
0.19474194235596
0.154587450777168
0.241106645434072
0.709455958104608
4.43972784740026
2.97665176294687
0.501631677518474
0.197457694365989
0.135991622451113
0.147211957122984
0.247721653392695
0.713442087562086
4.43310362571774
2.97203803679816
0.506729990881195
0.20306278408455
0.132984041345799
0.121123733110638
0.148862255392826
0.254863039515545
0.716863544024324
4.42456921235463
4.41827315177398
0.720974269127666
0.261804269021925
0.152875670138289
0.117788519494735
0.112966125568749
0.134586931140513
0.20914231373121
0.51292657210017
3.00434827639555
4.41469688854442
0.725664138244061
0.268489659149428
0.157514497687767
0.118364007274988
0.105909180569502
0.110931077287912
0.137567400592317
0.215027699668247
0.523284013659604
3.22967143266788
4.41298840925913
0.730660171130809
0.27487825485768
0.162234150683948
0.120454208330824
0.103784237339145
0.1011334154679
0.111184178972729
0.140674126441334
0.220618549749549
0.549426256282317
4.90074117467561
4.41226470640602
0.735738064471482
0.28089220192704
0.166819846369041
0.123148305870665
0.103838004520911
0.0969537662624822
0.0993216420982035
0.112126872253674
0.14309109575915
0.224954082157289
0.609307970482236
3.18875765259067
4.41199921231785
0.7407496151513
0.286486383811795
0.17116414499757
0.126041952745035
0.104929658973207
0.0954306859588155
0.093576745336808
0.0987061258506321
0.112827014625627
0.143469675382778
0.218928078357517
0.26294383335911
0.482670052714742
4.41190367474504
0.74547113619958
0.291621492024791
0.175207361874017
0.128930908297888
0.106515958357815
0.0952770317650034
0.0908398839383855
0.0917965953160391
0.0983491831088328
0.112428739639134
0.138900857363231
0.166986353486808
0.181616862598239
0.265364632233857
4.41188297337482
0.749799685541682
0.296275398329885
0.178912140430342
0.131701217423534
0.108309327644093
0.0958529938563853
0.0897205054507967
0.0881514848112493
0.0906704037197812
0.097632643254284
0.110021462071306
0.125841346469012
0.139964551538705
0.161429031070294
0.238079343228722
4.41189465792056
0.753641360228015
0.300422866824496
0.18225308107849
0.134283828388995
0.110144846460809
0.0968085320179
0.0895102108094238
0.0862998544090253
0.0864073770590932
0.0896583472646689
0.0961554495836016
0.105342817304124
0.115551957979678
0.128276796030667
0.155951616891196
0.234343410416732
4.41190842946719
0.757249238054712
0.304071992969222
0.185213176782244
0.136633823566514
0.111921597697247
0.0979380010018847
0.0898132977170504
0.0854844695284064
0.0840351019391173
0.0850791630869128
0.0884571863335578
3.73119428472262
3.05053386832833
3.98428819725289
3.03160179573688
0.832326112812538
4.20336756119692
2.99619148125814
0.551369921053242
0.693981290235523
4.33759606027879
2.9795889926814
0.510351363305324
0.271571415360636
0.695727093411422
4.40650204661802
2.98021101692259
0.498821567573105
0.202871672794672
0.238018767696715
0.703501496610069
4.43516288998876
2.98180967585644
0.497227996100541
0.193044514547732
0.152833337120318
0.239500743489783
0.708983300597201
4.43974510435196
2.97777386801731
0.500152905253291
0.195712112253659
0.134354259266759
0.145584465530718
0.24609984377495
0.712716029954965
4.43311186194363
2.97617231439773
0.505377644927132
0.20134509178916
0.131484662847635
0.119718524430011
0.147385015344297
0.253274694364774
0.715956363958312
4.42456125810728
3.01230598021972
0.511770159400594
0.207540363703925
0.133225604555433
0.111751228954299
0.116581882106047
0.151542859402378
0.260293178808569
0.720014826165525
4.41826854400994
4.41468992709466
0.724702194606009
0.267100401994296
0.156325922854019
0.117324966451531
0.104912526664981
0.109876845246682
0.136350982428274
0.213587369611205
0.522379073704814
3.24161347205935
4.412981495787
0.729741760263155
0.27364744712432
0.161196254362733
0.119566613853373
0.102961372511837
0.100303304682463
0.110277134627274
0.139612287654391
0.219359882901325
0.548714995003402
4.91328183671417
4.41227823508888
0.734965131518869
0.279841698256049
0.165941266866133
0.1224061479731
0.103164913847305
0.0962966966655627
0.0986346200079192
0.111361054499366
0.142188684503322
0.22389105707853
0.609245990776974
3.19693607991513
4.41200460182899
0.740117534192871
0.28563392792719
0.170453257960732
0.125444866006786
0.104394676066244
0.0949188379805925
0.0930569887228274
0.0981487922288328
0.112198371485842
0.142730138812725
0.218088198395658
0.262083377684492
0.48209442224158
4.41191349574454
0.745075644339666
0.290989006323461
0.174671689253506
0.128481227241842
0.106114400058755
0.0948960450203288
0.0904587710560139
0.0913971189911027
0.0979124578380063
0.111933278080554
0.138327740114455
0.166348616669434
0.180896743630896
0.264523724608772
4.41187097527514
0.749675645303637
0.295867498906894
0.178559006967898
0.131402459210759
0.108040177941782
0.0955959267277167
0.0894629262528646
0.0878827641096364
0.0903800866975341
0.0973093363608922
0.109653236794526
0.125423677769276
0.139498278591876
0.160882403895646
0.237420419150829
4.4118896373895
0.753752842463467
0.300254464443863
0.182090787753164
0.134140274991754
0.110008798599678
0.0966721110129072
0.089367982687061
0.0861471378845906
0.0862394675392446
0.0894700022729967
0.0959395772580613
0.105086950945237
0.115266783463376
0.127952595227552
0.155551846069091
0.233824429786066
4.411898946231
0.757361157550879
0.304131290675895
0.185248963971084
0.136650596040049
0.111920290547014
0.0979209372685498
0.0897821267246186
0.0854397420786227
0.0839767679722189
0.0850076473866141
0.0883792418221338
0.0938177553947102
0.100691896772831
0.109241977365844
0.123416374349369
0.154661039380301
0.235063420202026
4.41191565696349
0.760745734709332
0.307516801428065
0.188022564405848
0.138903660232071
0.113710548099634
0.0992161329219784
0.0904714650756633
0.0853377644564003
0.0828155248988743
0.0824201043746514
0.0838972036161274
3.72980706632655
3.05303312703156
3.9858017671708
3.03371779020565
0.833315494374165
4.20505698251919
2.99783450459337
0.55253314220224
0.694304596313718
4.33872403581603
2.98084623152946
0.511052517206602
0.270800951529911
0.695849286109567
4.40704449504757
2.98079964889272
0.49856848146426
0.201318684790374
0.236473335707027
0.703381487306972
4.4353653944105
2.98127239084857
0.495998994399713
0.19118437204885
0.150915516075649
0.237776905934517
0.708562701028969
4.4398049416014
2.97658412991545
0.498222359607441
0.193768826183041
0.132545003249681
0.143790176468527
0.244332276975193
0.711994985268418
4.4331268676292
2.97712680683831
0.503657602516125
0.199403015286479
0.129813280302228
0.118153795736261
0.14574120013704
0.251520233175649
0.715077098185382
4.42457271021127
3.01909300005156
0.510284468813872
0.205714973718724
0.131691694909179
0.110386169566405
0.115224999604887
0.150042580436867
0.258601262014998
0.7189858392788
4.41825941046303
3.2535983286712
0.521325808382341
0.211941030389511
0.134969216542248
0.108680362540787
0.103779716149665
0.116140837590152
0.154968525632285
0.265519399797524
0.723626110495577
4.41468508493501
4.41297828644528
0.728671369180004
0.272210987668094
0.159986075760793
0.118536006107272
0.102010094504977
0.0993474540082586
0.109235948135014
0.138396940954442
0.217931725425931
0.548158156147948
4.94475963855479
4.4122706148914
0.733976524093325
0.278569840527792
0.164887518750619
0.121520750335597
0.102367031374176
0.0955228090607621
0.0978303447313475
0.11046983369771
0.141146981038097
0.222690392988688
0.609289420895474
3.20514503594968
4.41201799720138
0.739271445840449
0.284553763811806
0.169562900660599
0.124703022343356
0.103735928468031
0.0942946050778878
0.0924291179041713
0.0974816930286244
0.111452984856494
0.141864663296673
0.217153334083229
0.261153286192311
0.481727039393169
4.41191902232994
0.744415060059448
0.290116884384971
0.173953106866789
0.127884518092437
0.10558853866933
0.0944044037551978
0.0899742187798478
0.0908964858585757
0.0973726393845721
0.111329001933194
0.137639006130337
0.16558962163883
0.180024593267036
0.263481359161301
4.41188085684322
0.749281263113899
0.295227230815981
0.178020491514104
0.130954199964414
0.107645460674271
0.0952284520265058
0.0891040167300434
0.0875173336881749
0.089994154405023
0.096888576918957
0.109183652119671
0.124899306376863
0.13890941293437
0.16018135675582
0.236562466965056
4.41187795539698
0.753650972426734
0.299852282105171
0.181738558419938
0.133844530306323
0.109745774626792
0.096425079783115
0.0891254798277356
0.0859001539108793
0.0859798817041312
0.089189666436675
0.0956297074474443
0.104739894383703
0.114879983190742
0.127508671804098
0.15500888603354
0.233151700716031
4.4118952858957
0.757523171066302
0.30396940569658
0.185090948231778
0.136511875038634
0.111790541629451
0.0977928797061935
0.0896510362906432
0.0853018272314824
0.0838285049649586
0.0848454188444566
0.0881976935350135
0.0936044849024458
0.100454020757209
0.108973615772083
0.12309750496078
0.154254858848232
0.23452824377302
4.41191028755742
0.760858106331848
0.307583689711467
0.188063704444641
0.138926423115329
0.113715874345447
0.0992065394178466
0.0904490360070568
0.0853035661815462
0.0827701093696837
0.0823646066251452
0.0838388904128056
0.0869848446005026
0.0914867402314133
0.0973506019704841
0.105967014586679
0.12166387512245
0.15496042341548
0.237247221696734
0.764006108674132
0.310715319444135
0.190650241099459
0.141067833515666
0.115479396785927
0.100585100696296
0.0913741120795165
0.0856534377519526
0.0823710426601174
0.080988836762424
0.0812079447416488
3.73222390316149
3.05702376403129
3.98802086140757
3.03739650218479
0.834728778645803
4.20832058114266
3.00059479822098
0.553930136735024
0.694912079378351
4.34115802681052
2.9830000182944
0.511998750710177
0.270082252876509
0.696192781076275
4.40834345907444
2.98228923855998
0.498528803009659
0.19969758542387
0.234872023777038
0.703414201176956
4.43591004973567
2.9812211633034
0.494738184677992
0.189183642117756
0.148835961552183
0.235945572605072
0.70823486502913
4.43999119860972
2.97371997420901
0.49627293556853
0.191636221668321
0.130563220680475
0.141827466460248
0.242424339852295
0.711306997740473
4.43317923465626
2.97269085907046
0.501456001958843
0.197230404911839
0.127967966783228
0.116427543624264
0.143928679270242
0.249601606448725
0.714189972360551
4.42458602420099
3.02013570071261
0.508196048063675
0.203639844053426
0.129981249391669
0.108869130968523
0.113716007839408
0.148372750677679
0.256733330499845
0.71791400431443
4.41827085300465
3.26799751162666
0.519870367225048
0.210047885665968
0.133414243159693
0.107339441504839
0.10250956594916
0.114810164436164
0.15344030682665
0.263749223722605
0.722453391710206
4.41467513577452
4.96589621338643
0.547419454145169
0.216302396193746
0.137021920249638
0.108059233276095
0.0982653818910412
0.100929922731335
0.117361553110809
0.158604211394641
0.270568840338042
0.727464146203459
4.41297355357068
4.41226721043568
0.732801317300008
0.277080416346005
0.163657513926056
0.120491883949763
0.101444439351179
0.0946324103704318
0.0969093400469665
0.109454163922672
0.139967960745742
0.221368244064927
0.610301954952082
3.22819544540167
4.41201010782603
0.738232551800489
0.283243529807284
0.168491915046847
0.123816478412291
0.102953803447424
0.0935586336793189
0.091694107074603
0.0967065968626763
0.110594883014259
0.140883277753202
0.21613333791678
0.260177647260376
0.481419340041935
4.41193244564022
0.743511561837195
0.289007604516848
0.173050039504752
0.127140887100757
0.104938975739182
0.0938028945219577
0.089387260353423
0.0902962549502079
0.0967325774882266
0.110622118230393
0.136850496980029
0.164741016659604
0.179030501317861
0.262253525901287
4.41188593691433
0.748621266778572
0.294339496846612
0.177294048703764
0.130356620212214
0.107125716576687
0.0947512842975447
0.0886447064865595
0.0870564983044728
0.0895146505655225
0.096373830259183
0.10861872338924
0.124278056995197
0.138212205792175
0.159334719202968
0.23549751494741
4.41188734811947