/*--------------------------------*- C++ -*----------------------------------*\
  =========                 |
  \\      /  F ield         | OpenFOAM: The Open Source CFD Toolbox
   \\    /   O peration     | Website:  https://openfoam.org
    \\  /    A nd           | Version:  12
     \\/     M anipulation  |
\*---------------------------------------------------------------------------*/
/*   Windows 32 and 64 bit porting by blueCAPE: http://www.bluecape.com.pt   *\
|  Based on Windows porting (2.0.x v4) by Symscape: http://www.symscape.com   |
\*---------------------------------------------------------------------------*/
FoamFile
{
    format      ascii;
    class       surfaceScalarField;
    location    "700";
    object      phi;
}
// * * * * * * * * * * * * * * * * * * * * * * * * * * * * * * * * * * * * * //

dimensions      [0 3 -1 0 0 0 0];

internalField   nonuniform List<scalar> 
28828
(
1.00261349807262e-06
-8.71727462906219e-09
3.41818493183865e-09
1.00759015675305e-06
-4.7948365767816e-09
-1.79772757666588e-10
8.81248667682701e-07
-1.65422709080236e-08
4.93490060554204e-09
9.26813825980475e-07
-1.08176281622673e-08
1.09705988420327e-08
1.01086539571126e-06
-5.66002949556095e-12
-3.27837220376165e-09
8.84925616833951e-07
-8.30848426538963e-09
-1.74131919464707e-10
9.30801542914572e-07
-6.90272748396464e-09
2.76691980786989e-09
8.78506662967526e-07
-2.42046275955926e-08
4.90932478904971e-09
4.91510573972483e-07
-1.81375938670641e-08
1.4954805461972e-08
9.45557504789513e-07
-1.02588696705557e-08
1.8244678207518e-08
1.01184497806977e-06
5.4146446810081e-09
-6.39421709687878e-09
8.88037785095905e-07
9.27520415996465e-10
-4.05038974646274e-09
9.3455694761023e-07
-1.80010093629374e-09
-5.25756332606975e-09
8.82425803426977e-07
-1.1512856361842e-08
-6.90001657847419e-10
4.92171770767568e-07
-1.10462124199662e-08
3.32706775001752e-09
9.50237230789167e-07
-6.93799184263845e-09
5.02733765278067e-09
9.53429193059183e-07
-3.21603375799725e-08
3.71037675876385e-09
3.47223860812107e-07
-2.32732966399477e-08
1.3604192528618e-08
2.7868840310519e-07
-1.3617791846508e-08
2.21537060259205e-08
1.04555096270187e-06
-8.30392732117167e-09
2.23869666561505e-08
1.01027942140686e-06
1.10831548919178e-08
-9.52045206414694e-09
8.89862232044108e-07
1.10596759170056e-08
-7.45536235752731e-09
9.37282610277504e-07
4.32054339061375e-09
-1.34348418223903e-08
8.85851373766152e-07
2.25774804815133e-09
-4.74778414608845e-09
4.95347948211674e-07
-1.63602851887534e-09
-7.39316043466276e-09
9.55265202953856e-07
-2.34551205337781e-09
-7.92166089919507e-09
9.58639384553068e-07
-1.49060732932758e-08
-1.81378500368489e-09
3.47070047798889e-07
-1.30550966630993e-08
1.43718376671729e-09
2.79402189950813e-07
-9.06810570430572e-09
4.73397164167415e-09
1.05211126963604e-06
-7.2212829664438e-09
5.64579432652017e-09
1.02636042565825e-06
-3.9893442491583e-08
2.42663807045665e-09
3.12399085581846e-07
-2.64841545906239e-08
8.8369690240636e-09
-2.60284946538087e-07
-9.35362593326836e-09
1.73798509894928e-08
1.51347426258464e-07
-7.08305272344945e-09
2.39965564897624e-08
1.10950079287249e-06
-6.18198299250472e-09
2.37252521773649e-08
1.00649043101846e-06
1.65721838924513e-08
-1.28049028153019e-08
8.90328997075314e-07
2.12655967478477e-08
-1.06557456187058e-08
9.38526010653651e-07
1.08755708259489e-08
-2.1634414836045e-08
8.88019764137752e-07
1.70341202623573e-08
-8.16717771843693e-09
5.00244128549357e-07
9.43729501583897e-09
-1.74259725706703e-08
9.59105625028739e-07
3.4533287461807e-09
-2.07490814796426e-08
9.62928933003397e-07
3.00847012438109e-09
-5.03297943968631e-09
3.50115324070702e-07
-5.79274624988024e-10
-8.82092315374523e-09
2.83205196755301e-07
-2.09647802309239e-09
-1.14347285603682e-08
1.0585575507601e-06
-3.20393260993152e-09
-1.11802866821443e-08
1.03219618449344e-06
-1.8845860384643e-08
-1.90180680216189e-09
3.13319077469278e-07
-1.40805645600916e-08
-1.71888162569531e-09
-2.638610030754e-07
-6.37938360027766e-09
2.34957538603575e-09
1.51711171959341e-07
-7.20885578992197e-09
4.37395859427218e-09
1.11676091169416e-06
-6.52859698682677e-09
4.9380434459854e-09
1.07557665162866e-06
-4.72462277494197e-08
1.4189915429821e-09
2.86928491832457e-07
-2.84015993026356e-08
4.94407437012502e-09
-5.10814838564254e-07
-4.6771774247948e-09
1.04445610623281e-08
-6.48384277319225e-07
1.35848037183517e-09
1.59931639952474e-08
3.24078321897652e-08
-1.06824182867381e-09
2.24453851474229e-08
1.10400535187893e-06
-4.03266540162732e-09
2.33266781845365e-08
1.00070255663481e-06
2.19148533446135e-08
-1.61074969366512e-08
8.89526668071114e-07
3.15488373145961e-08
-1.41757920823699e-08
9.38522632420637e-07
1.70273644694215e-08
-2.98025341396664e-08
8.88805959128345e-07
3.18997810905975e-08
-1.142973157412e-08
5.07141075146491e-07
2.04696327312158e-08
-2.71513690455345e-08
9.61301241704973e-07
1.00069188681634e-08
-3.38632633566327e-08
9.65383871458432e-07
2.17942439833428e-08
-7.19136850162927e-09
3.56212872688772e-07
1.34808626273898e-08
-1.82877778318633e-08
2.89592296027974e-07
6.31865141415249e-09
-2.66459309651447e-08
1.06303730987586e-06
2.72796914366991e-09
-2.79508518589661e-08
1.0370464237053e-06
2.58633509041046e-09
-4.41350818342225e-09
3.17099189444422e-07
-2.58077630602819e-10
-9.130752188304e-09
-2.62211335717031e-07
-1.69094620008071e-09
-1.09017059309754e-08
1.54945150150287e-07
-3.64476514291528e-09
-1.42130577118175e-08
1.1235073801967e-06
-3.76977172607005e-09
-1.42073346204158e-08
1.08162996515773e-06
-2.3185230155415e-08
-1.68409848258784e-09
2.89078494921465e-07
-1.50580587045464e-08
-3.06903696163365e-09
-5.14093271232039e-07
-3.84728230724119e-09
-9.64636695394319e-10
-6.53080928313492e-07
-1.98372389722665e-09
1.82486908736869e-09
3.17918208699082e-08
-4.96025973467065e-09
3.39103306210953e-09
1.11064121057608e-06
-5.48997753517924e-09
3.75580343872017e-09
1.10602751505743e-06
-5.45081369073039e-08
8.38385386718519e-10
2.59119359463063e-07
-2.91557681365462e-08
2.19464873546706e-09
-5.86034311190868e-07
-6.08898756105376e-10
5.44805346128208e-09
-8.61643847619578e-07
7.72446694350729e-09
9.20815610419636e-09
-7.84388071619629e-07
7.71994018029016e-09
1.32511963525169e-08
-8.12220035490273e-08
3.41895346397945e-09
1.97478031764103e-08
1.0439818172867e-06
-2.22892474029741e-09
2.23827667326695e-08
9.92971308008361e-07
2.71181343617878e-08
-1.93931672876642e-08
8.87543496300177e-07
4.17527929173153e-08
-1.78419780845776e-08
9.37442340479516e-07
2.29311453864774e-08
-3.79535078936445e-08
8.88269272402964e-07
4.66965105394536e-08
-1.46264089599989e-08
5.15544616943219e-07
3.13911765010874e-08
-3.69529980391056e-08
9.62290501708595e-07
1.63196970153352e-08
-4.71056679976922e-08
9.66030817100869e-07
4.07655951148035e-08
-9.5352487365581e-09
3.64947326305297e-07
2.76561467062148e-08
-2.73398615118376e-08
2.99261646360773e-07
1.49598398333542e-08
-4.17347959777506e-08
1.06532481303606e-06
8.92748810792747e-09
-4.51093037682362e-08
1.03975786451267e-06
2.46812798098823e-08
-5.58821435032567e-09
3.23746101588226e-07
1.479513813035e-08
-1.51402041934473e-08
-2.55045419659598e-07
4.15498164848399e-09
-2.32750735081764e-08
1.61395588083677e-07
1.60961063654512e-09
-3.19773696221581e-08
1.12797955498314e-06
8.75705550228889e-10
-3.3298976558053e-08
1.0867213319965e-06
1.00060973596303e-09
-3.51397793861954e-09
2.93295453070642e-07
-1.06463938322899e-09
-7.7794685387336e-09
-5.12756312882556e-07
-2.22796515819797e-09
-9.91906140767733e-09
-6.52880894744461e-07
-3.52433010842024e-09
-1.12521248822527e-08
3.38918768345995e-08
-5.03667659197934e-09
-1.50219869367771e-08
1.1166937671122e-06
-4.00248553023021e-09
-1.62799245281496e-08
1.11223704006406e-06
-2.79060249414279e-08
-1.46539659348307e-09
2.61901007627236e-07
-1.59556122768065e-08
-3.58952868455438e-09
-5.8838660001809e-07
-1.95044219440744e-09
-2.60503708067765e-09
-8.6570561551009e-07
1.73425629793675e-09
-6.17227581139787e-10
-7.88981469130128e-07
5.00404740560394e-10
9.5768513349757e-10
-8.30284667275823e-08
-2.83203605148341e-09
2.56115642715617e-09
1.04920228121966e-06
-4.43660157698861e-09
2.95701382771371e-09
1.12896578902743e-06
-6.1778945337405e-08
4.20326755005076e-10
2.36258297347754e-07
-2.90534934255304e-08
5.5738836811625e-10
-6.02240679749057e-07
3.23121905940524e-09
2.29567726572338e-09
-8.83874648698596e-07
1.26097877022168e-08
4.67649539187559e-09
-9.51534266445934e-07
1.42965714864035e-08
7.28558467029013e-09
-8.32579116238656e-07
1.20332961784255e-08
1.0656124627932e-08
-1.78067013813306e-07
6.43293154162783e-09
1.69487074346099e-08
9.52446520549569e-07
-7.1486535704108e-10
2.15147820976942e-08
9.83299387206052e-07
3.22008573747581e-08
-2.25369803626189e-08
8.84406390891341e-07
5.17789687063177e-08
-2.15498689357807e-08
9.35401879269772e-07
2.86565192826974e-08
-4.60375877348347e-08
8.86592636742237e-07
6.14204286573724e-08
-1.80140253266983e-08
5.25327355849748e-07
4.21531402937055e-08
-4.68431918283299e-08
9.62489274859169e-07
2.21817342636807e-08
-6.0329288755469e-08
9.6519163074226e-07
5.97757611374016e-08
-1.22165417102474e-08
3.76040770773253e-07
4.18050165734417e-08
-3.6079212121886e-08
3.11825152717012e-07
2.36861889573794e-08
-5.68741848098804e-08
1.06635321624513e-06
1.43798191840154e-08
-6.25227804724162e-08
1.04033912990811e-06
4.69456258766386e-08
-6.74866633335092e-09
3.32928163007309e-07
3.00852399741636e-08
-2.11345151803269e-08
-2.42706105752429e-07
1.03923494440275e-08
-3.51263941754208e-08
1.7170972036718e-07
6.58729845636987e-09
-4.96477901946438e-08
1.13005542324269e-06
5.69102079273934e-09
-5.2921334914346e-08
1.08947837427711e-06
2.566288402831e-08
-3.73308788007196e-09
3.00013478690137e-07
1.36864861077793e-08
-1.12053737786999e-08
-5.0636454627677e-07
2.59186608545129e-10
-1.76178377395071e-08
-6.47143228130014e-07
-4.03110501763406e-09
-2.33668197653936e-08
3.94823271610794e-08
-3.79018794130455e-09
-3.29011131498794e-08
1.12068690653034e-06
-1.13334916617534e-09
-3.60990230634071e-08
1.11716773539994e-06
-1.38366707458515e-09
-2.55019361928248e-09
2.66292461226173e-07
-2.69317454936225e-09
-6.25914195575284e-09
-5.86967641444749e-07
-3.15916464433013e-09
-8.2707539967908e-09
-8.66044466488799e-07
-3.79339773873169e-09
-9.3084586061582e-09
-7.89504673393122e-07
-4.98697036089271e-09
-1.0773308844279e-08
-8.20561787056887e-08
-5.77275344151197e-09
-1.42413204220354e-08
1.05425289376494e-06
-4.29833306603223e-09
-1.70280661940304e-08
1.13537172150794e-06
-3.29855899875792e-08
-1.33271511244813e-09
2.39264570791878e-07
-1.6715922625022e-08
-3.69338289830042e-09
-6.04185104531274e-07
-3.41803017157985e-10
-3.26045641352167e-09
-8.87015715304726e-07
4.20033747090751e-09
-1.94586315310857e-09
-9.55313053522466e-07
4.53015977269449e-09
-8.64772058383996e-10
-8.37194513989253e-07
2.4391440494563e-09
3.00036042133867e-10
-1.80812458529741e-07
-1.19631487605856e-09
2.08581317764789e-09
9.55982310560526e-07
-3.41843076268643e-09
2.84414112308335e-09
1.15287771362267e-06
-6.91474499708883e-08
2.42163134907434e-11
2.2193343021652e-07
-2.84160471261003e-08
-4.47576529608925e-10
-5.92055697628576e-07
7.10167092561627e-09
3.93069625580622e-10
-8.60149129331845e-07
1.70770278090404e-08
1.66085988768765e-09
-9.59017116107461e-07
1.95855704153673e-08
3.43929309107838e-09
-9.68888094093078e-07
1.86829995606733e-08
5.54404525560054e-09
-8.45714681962637e-07
1.49705277797851e-08
8.38932110516564e-09
-2.55199449305027e-07
8.44549670656086e-09
1.43256912602703e-08
8.49381108633279e-07
3.84903772485422e-10
2.10027461503932e-08
9.71554148845355e-07
-2.53999393241826e-08
3.71326203127077e-08
8.8015491882394e-07
6.16157368367587e-08
-2.51327537788664e-08
9.32443832824357e-07
3.42700433197646e-08
-5.38602736447799e-08
8.83881988179038e-07
7.60053258927496e-08
-2.14941656707439e-08
5.36528532039074e-07
5.27377140517948e-08
-5.68015411249522e-08
9.62149319239772e-07
2.77667871506362e-08
-7.34373827121794e-08
9.63001918499973e-07
7.87198354180448e-08
-1.51037243855051e-08
3.89327191500738e-07
5.58508554593695e-08
-4.49644832233702e-08
3.27200913963025e-07
3.20968192247475e-08
-7.21291467073301e-08
1.06673532133861e-06
1.92931451980869e-08
-7.99853108826092e-08
1.03913866429247e-06
6.92548866377036e-08
-8.29117953862576e-09
3.44622063387567e-07
4.539481524333e-08
-2.7497685943293e-08
-2.25288092240678e-07
1.6808121634739e-08
-4.66261653611511e-08
1.85716858638632e-07
1.10357131630805e-08
-6.74723445253104e-08
1.13095694644412e-06
9.65726998920861e-09
-7.30687192154578e-08
1.08992485388093e-06
5.05108274145516e-08
-4.00072442411853e-09
3.09176020036858e-07
2.87531228262741e-08
-1.45867764907997e-08
-4.95157200001313e-07
3.00118024341548e-09
-2.49786508386263e-08
-6.3620368330775e-07
-4.4785438269159e-09
-3.49784293435251e-08
4.9193052069316e-08
-2.98322064074548e-09
-5.07080164548199e-08
1.12249485584198e-06
1.90329733632878e-09
-5.66720393088815e-08
1.11973048881468e-06
2.5592423933135e-08
-2.4814501509919e-09
2.72970146991773e-07
1.10961153416034e-08
-7.80371403161617e-09
-5.81353900201186e-07
-3.94661348247958e-09
-1.26342269959801e-08
-8.61839211193871e-07
-8.83305773312015e-09
-1.70167798977241e-08
-7.85203455794019e-07
-9.72128516757787e-09
-2.17542116350622e-08
-7.75139896102457e-08
-7.78875422776243e-09
-3.07749924351559e-08
1.05763414035312e-06
-2.61640213976118e-09
-3.68829410852393e-08
1.14004076664211e-06
-4.3542947899673e-09
-1.70180670879538e-09
2.43747075156407e-07
-4.67451756710907e-09
-5.04966867608476e-09
-6.02833319392806e-07
-4.16261233119263e-09
-6.61630193060713e-09
-8.87186832153885e-07
-4.41636337925482e-09
-7.46910265801105e-09
-9.56059867770957e-07
-4.96614791426336e-09
-8.58100659175824e-09
-8.38266121224901e-07
-5.76272533873376e-09
-9.70483844427244e-09
-1.80680465572953e-07
-6.18654742808628e-09
-1.24958398405439e-08
9.59801024519163e-07
-4.43382296998867e-09
-1.63774933778663e-08
1.159506088854e-06
-3.83232004264902e-08
-1.26136674746743e-09
2.2494177071811e-07
-1.73517550862109e-08
-3.69718569918546e-09
-5.93910122764378e-07
1.27177381177389e-09
-3.45495878366984e-09
-8.62878187403193e-07
6.27444429138368e-09
-2.61230926359171e-09
-9.61942438951969e-07
7.36430238050708e-09
-1.85066255068523e-09
-9.72630003629048e-07
6.50685113539896e-09
-1.19342623581809e-09
-8.50483865665059e-07
3.92941751394715e-09
-5.30739165472242e-11
-2.58543095712547e-07
1.03689491621636e-11
1.9767348830836e-09
8.51336522258892e-07
-2.68425958600658e-09
3.54763939287852e-09
1.18212580533538e-06
-7.66749348076318e-08
-4.41426587108837e-10
2.17096052444698e-07
-2.76071286458642e-08
-1.09702124192799e-09
-5.67838526028933e-07
1.09658893760377e-08
-7.69523595849665e-10
-8.21325265112453e-07
2.14594835517875e-08
-2.34708022281348e-10
-9.2743703336025e-07
2.43944123137402e-08
7.77595190878272e-10
-9.70988789089785e-07
2.42217546898445e-08
2.33447831444481e-09
-9.61056791998668e-07
2.17328177538574e-08
4.09976925787042e-09
-8.42114356765723e-07
1.69580040486686e-08
6.35275364492349e-09
-3.12000054467721e-07
9.73326327865841e-09
1.19420836465187e-08
7.51713619983718e-07
1.05608953084369e-09
2.11976128319101e-08
9.57521299725329e-07
-2.78478054475589e-08
4.18609764742851e-08
9.28452390395916e-07
-6.11792561908059e-08
3.97723828696815e-08
8.74655420969585e-07
-2.84868957763178e-08
7.11444475536456e-08
8.80087089750062e-07
9.02973667245666e-08
-2.49078038101043e-08
5.49214297849476e-07
6.30892385418783e-08
-6.66269002722591e-08
9.61315925260644e-07
3.31689804793315e-08
-8.62330234306029e-08
9.59523627809902e-07
9.74781618651533e-08
-1.79689565873311e-08
4.04854893632708e-07
6.97394525493151e-08
-5.39933247146023e-08
3.4546245344789e-07
4.02113374521216e-08
-8.75109017687674e-08
1.06683370982078e-06
2.38950903193961e-08
-9.74031604235369e-08
1.03634070081662e-06
9.1526114541503e-08
-1.00104702746032e-08
3.58787575896932e-07
6.06511507147613e-08
-3.40484550842961e-08
-2.03131184359317e-07
2.30879023025212e-08
-5.81380180824575e-08
2.03348773176175e-07
1.49731748996055e-08
-8.5460794639388e-08
1.13150540346996e-06
1.30037879425904e-08
-9.35202567607717e-08
1.08832688729208e-06
7.54755164404275e-08
-4.59708035573468e-09
3.20743652121674e-07
4.37905227859221e-08
-1.82648517432069e-08
-4.79266464341948e-07
5.69527288709326e-09
-3.22733601078431e-08
-6.20278767263259e-07
-5.18105421137979e-09
-4.6327383425047e-08
6.29754466691297e-08
-2.85954809440603e-09
-6.87466746299673e-08
1.12330704269515e-06
4.28842743301315e-09
-7.81552375507329e-08
1.11992719270455e-06
5.27963367636441e-08
-2.48042412048118e-09
2.81848568023709e-07
2.51480038924618e-08
-9.27172819822866e-09
-5.71568268339096e-07
-4.6780096146336e-09
-1.67004082230044e-08
-8.53203941160774e-07
-1.3889123985368e-08
-2.42106295314905e-08
-7.76241973170295e-07
-1.46526974973974e-08
-3.22534931138363e-08
-6.88571457009077e-08
-1.02541236521384e-08
-4.72468087826659e-08
1.05943132848461e-06
-1.10988980656775e-09
-5.73605990694771e-08
1.14236432161624e-06
2.48316218414199e-08
-1.56985455302836e-09
2.50135487319883e-07
7.69055390302464e-09
-5.4975812787265e-09
-5.97888540537034e-07
-7.89288486563083e-09
-8.79058354183241e-09
-8.83602582280227e-07
-1.29930102635554e-08
-1.20548190252483e-08
-9.52937536725846e-07
-1.42598303785296e-08
-1.56103446034702e-08
-8.3513114023719e-07
-1.34657725939476e-08
-1.92041936550783e-08
-1.76999308482763e-07
-1.02474181668117e-08
-2.686004386872e-08
9.62178864233823e-07
-3.47708832193586e-09
-3.57827375525293e-08
1.16393591686668e-06
-7.74446827397734e-09
-1.05254383852933e-09
2.29489564981706e-07
-6.73500473418528e-09
-4.18393784374921e-09
-5.92786910762933e-07
-5.01393979880384e-09
-5.31741889967103e-09
-8.62992027609372e-07
-5.01273531158892e-09
-5.90389834667133e-09
-9.62405573421824e-07
-5.22904498672411e-09
-6.7432381910959e-09
-9.73694494380264e-07
-5.56110693423547e-09
-7.71700373945635e-09
-8.52117916572379e-07
-6.09718499492098e-09
-8.16113198591111e-09
-2.59005302786147e-07
-6.49054414800604e-09
-9.98273291582442e-09
8.53721903994638e-07
-4.55936234559811e-09
-1.42188866070799e-08
1.18896078449131e-06
-4.39548353141532e-08
-1.19253227898363e-09
2.20021266229587e-07
-1.78905258768037e-08
-3.64015196256862e-09
-5.697396322019e-07
2.94066090000545e-09
-3.46454376273623e-09
-8.23940147661879e-07
8.34522098127075e-09
-2.9099382234022e-09
-9.30016519180422e-07
9.77965211635359e-09
-2.44753525462151e-09
-9.73965555007899e-07
9.59302618208297e-09
-1.96241490044507e-09
-9.65000799401426e-07
8.02802104856798e-09
-1.3441702287439e-09
-8.46988057971528e-07
4.99579394541454e-09
-1.60877549581309e-10
-3.15624842687268e-07
7.84426213035461e-10
2.14886188050839e-09
7.52316600236718e-07
-2.42732657850392e-09
5.3673318460303e-09
1.21675885129382e-06
-8.45532136036334e-08
-8.27067076693086e-10
2.21103780880645e-07
-2.69020528171898e-08
-1.46473133782698e-09
-5.35666979801909e-07
1.46892787344789e-08
-1.42686513844431e-09
-7.75897906007072e-07
2.5756201751916e-08
-1.38276580081622e-09
-8.83521543013338e-07
2.9023689427166e-08
-9.60441747231982e-10
-9.37899198802924e-07
2.9239640915554e-08
6.44209138951758e-11
-9.60406248749502e-07
2.74625785118427e-08
1.47647136449046e-09
-9.43588111999014e-07
2.38545562441851e-08
2.85194111959192e-09
-8.31630490341078e-07
1.82366385863389e-08
4.45104138734891e-09
-3.45863887346015e-07
1.05322047923747e-08
9.7916388778431e-09
6.6764677644734e-07
1.40993136955075e-09
2.25306456588352e-08
9.40975822310377e-07
-2.9769855747694e-08
4.63260345543675e-08
9.23165071792342e-07
-6.76862107219244e-08
4.50831696924564e-08
8.67697323984002e-07
-3.15042508487709e-08
8.03007212130805e-08
9.59972371428524e-07
-9.82819843182352e-08
3.84572748267879e-08
5.63384940452569e-07
-7.60936071082111e-08
7.31924062991696e-08
8.75099373473078e-07
-2.80794558028457e-08
1.0417870391816e-07
9.54683967712847e-07
1.15907001231439e-07
-2.07700228638354e-08
4.22692392839844e-07
8.33609911085599e-08
-6.2997126911241e-08
3.66748381587332e-07
4.8082767994734e-08
-1.0283781074276e-07
1.06684716512213e-06
2.83200648080755e-08
-1.1454869485331e-07
1.03198190262219e-06
1.13600638832741e-07
-1.17434806345822e-08
3.75401055107283e-07
7.57332220076207e-08
-4.06253915881681e-08
-1.76238151718549e-07
2.91250370928524e-08
-6.98040132157969e-08
2.24823553690798e-07
1.85333912332173e-08
-1.03638993683469e-07
1.13221872470083e-06
1.60444307330734e-08
-1.14188666241251e-07
1.08486719574449e-06
1.00465726123274e-07
-5.48387258567832e-09
3.34735339970286e-07
5.87547362979268e-08
-2.21050916854654e-08
-4.58803962482578e-07
8.1717233203553e-09
-3.95697880753946e-08
-5.99502370003933e-07
-6.31689612444256e-09
-5.76267002330407e-08
8.08394921757134e-08
-3.34145952155254e-09
-8.70130513063751e-08
1.12413646759498e-06
6.06395322776575e-09
-1.00405958434838e-07
1.11792758826361e-06
8.00376415676264e-08
-2.53477607984767e-09
2.92860640737572e-07
3.90684732945216e-08
-1.09273036091245e-08
-5.57723190789504e-07
-5.66085943806615e-09
-2.07613116377095e-08
-8.40278884379041e-07
-1.92645362459443e-08
-3.11254774965771e-08
-7.62814438082107e-07
-2.00904851663792e-08
-4.2520128635536e-08
-5.5997418929619e-08
-1.33635321428446e-08
-6.39098863921463e-08
1.06025202220345e-06
-3.83902702305477e-11
-7.89460218270067e-08
1.14214488308829e-06
5.4233179509612e-08
-1.24166033968226e-09
2.58379825887725e-07
2.01733768818804e-08
-5.75127942599494e-09
-5.89368504596947e-07
-1.17991416542632e-08
-1.06772712932384e-08
-8.76227515512584e-07
-2.17954464612693e-08
-1.6170526844766e-08
-9.4587615024845e-07
-2.37952554109906e-08
-2.21197123376602e-08
-8.27888219405465e-07
-2.15035952466315e-08
-2.82457620503644e-08
-1.69425331012535e-07
-1.48734508951643e-08
-4.10513975760419e-08
9.63814465843694e-07
-3.26861262970137e-09
-5.57299665744015e-08
1.16596275834055e-06
2.34375042763019e-08
-6.139349783567e-10
2.354925451896e-07
4.02603336580363e-09
-3.92870924785132e-09
-5.88572502668469e-07
-1.14570887825121e-08
-6.15181568096308e-09
-8.59872936784618e-07
-1.65536423877336e-08
-8.3474752799579e-09
-9.59675698495234e-07
-1.8027098404881e-08
-1.10204771771255e-08
-9.71398213180843e-07
-1.76257772748585e-08
-1.37466609190609e-08
-8.49956007716448e-07
-1.57660511991435e-08
-1.58632608939974e-08
-2.55933461323495e-07
-1.18997507628925e-08
-2.15062617544869e-08
8.5479922096004e-07
-4.70812850670009e-09
-3.21828174637635e-08
1.19320527770754e-06
-1.14802474639884e-08
-4.9503234797167e-10
2.24485037768966e-07
-8.71632644334471e-09
-3.54463128921495e-09
-5.68891926390035e-07
-5.66110787582928e-09
-4.37990057471182e-09
-8.2416262142489e-07
-5.36338005404636e-09
-4.73539930385478e-09
-9.30391738159448e-07
-5.42885548371495e-09
-5.32602006824881e-09
-9.74710437807214e-07
-5.47682714445913e-09
-6.07937567383595e-09
-9.66493461546521e-07
-5.73859683157864e-09
-6.5820571423712e-09
-8.49103594402995e-07
-6.28692793820702e-09
-6.24684855173688e-09
-3.16327465976381e-07
-6.82996507396102e-09
-6.98569566551929e-09
7.53342460441654e-07
-5.01548542785987e-09
-1.02308088717766e-08
1.22391505507808e-06
-4.99317533149145e-08
-1.1627013369854e-09
2.23940035932395e-07
-1.84381011837248e-08
-3.52051600354677e-09
-5.37634127555409e-07
4.63600282819635e-09
-3.3648912678281e-09
-7.78497571657358e-07
1.04899119067537e-08
-3.01062347234632e-09
-8.86025147714233e-07
1.21654305115474e-08
-2.79034074386804e-09
-9.40577760951989e-07
1.22952971503795e-08
-2.47721588099699e-09
-9.63662334970324e-07
1.13031249079603e-08
-1.98298300508379e-09
-9.47756446928945e-07
9.12711947148034e-09
-1.30894532158853e-09
-8.36524525478058e-07
5.64839511327874e-09
-1.27982211203868e-10
-3.49514466526395e-07
1.02159823099446e-09
2.34744929134227e-09
6.6690865546371e-07
-2.5301443435229e-09
8.64093275001868e-09
1.25577945962535e-06
-9.28812360042724e-08
-1.11986396602565e-09
2.32296048720263e-07
-2.64637283842735e-08
-1.62375535769219e-09
-4.98974437295227e-07
1.81841412517972e-08
-1.72112825312166e-09
-7.27125533930972e-07
2.99122901659454e-08
-2.00620177106143e-09
-8.34333691406024e-07
3.35262413586528e-08
-2.03083439792053e-09
-8.93479986358563e-07
3.40109027206454e-08
-1.48227574424918e-09
-9.27007669899683e-07
3.26321315486354e-08
-4.00703055172331e-10
-9.41716269394941e-07
2.9719260022824e-08
8.34050581509123e-10
-9.24017250915206e-07
2.52348066841187e-08
1.73646861310644e-09
-8.25817371252299e-07
1.8966666402018e-08
2.76483896475876e-09
-3.45185872000276e-07
1.11664908549991e-08
8.00623700320255e-09
4.70342501712879e-07
2.02593921503325e-09
9.21560915937858e-07
-3.10783292772343e-08
5.04948986785915e-08
9.16297680690438e-07
-7.30627922352406e-08
5.01756983543006e-08
8.59045367717921e-07
-3.40558558058378e-08
8.90342881399318e-08
9.57843039393567e-07
-1.09118515770121e-07
4.35459529307223e-08
5.7887103958764e-07
-8.49156622013382e-08
8.29698313703333e-08
8.68750099252739e-07
-3.09113984181217e-08
1.17578511257947e-07
1.0667957316007e-06
-1.30825382745654e-07
3.26113213399683e-08
3.91123780496897e-07
-1.17807912536008e-07
5.57763399813915e-08
4.42819592129118e-07
-7.16823782700158e-08
9.66603892265848e-08
9.48384103290296e-07
-2.33882615707699e-08
1.33886714278449e-07
1.02597180066783e-06
1.3530526919605e-07
-1.33673506312283e-08
3.9447102747035e-07
9.06043614907831e-08
-4.71224659003353e-08
-1.44482176096869e-07
3.48968036191107e-08
-8.15455643588253e-08
2.50356494108304e-07
2.1829353431741e-08
-1.21885161769013e-07
1.13356134023204e-06
1.88692722682398e-08
-1.34751935978857e-07
1.07958447236158e-06
1.25242276128074e-07
-6.38233838785072e-09
3.51133300318798e-07
7.35712758891848e-08
-2.59597990719973e-08
-4.33758391405101e-07
1.03148325716834e-08
-4.68810554250451e-08
-5.73793322785038e-07
-7.94704885222415e-09
-6.90143327050181e-08
1.0304031905278e-07
-4.25712180038791e-09
-1.05564080293065e-07
1.12578631811489e-06
7.58779792658821e-09
-1.23405863725308e-07
1.11382792981172e-06
1.07255821817674e-07
-2.68861853243927e-09
3.06090402968596e-07
5.28672121936802e-08
-1.28427247387981e-08
-5.39864289056335e-07
-6.98990160853313e-09
-2.48097508113588e-08
-8.23151820294387e-07
-2.51478464029927e-08
-3.78812767281214e-08
-7.44972807629426e-07
-2.61518769269029e-08
-5.26604998004378e-08
-3.89166607516372e-08
-1.71671745495554e-08
-8.08782335960541e-08
1.06141659713023e-06
5.16017979181275e-10
-1.02109471917848e-07
1.13959939192992e-06
8.37330052729412e-08
-1.12517265658075e-09
2.68624868574942e-07
3.25510257164244e-08
-6.22913812330117e-09
-5.77328202476969e-07
-1.60777340576213e-08
-1.25526908450521e-08
-8.65136097091011e-07
-3.10644385440573e-08
-2.00459052973655e-08
-9.34964632602628e-07
-3.38516406547921e-08
-2.82791278959219e-08
-8.16626895434846e-07
-3.0158472339552e-08
-3.69823508649918e-08
-1.57797419069873e-07
-2.02003483262639e-08
-5.53824628697497e-08
9.64967739222522e-07
-3.0731234888238e-09
-7.70342847575658e-08
1.16538180605459e-06
5.48276718195709e-08
-3.19080961912493e-11
2.43101365996044e-07
1.4780475873707e-08
-3.46456017926534e-09
-5.81202384332162e-07
-1.82017017189503e-08
-6.71719555370422e-09
-8.53474782999845e-07
-2.85081665655153e-08
-1.03600251569159e-08
-9.53578915444495e-07
-3.12387697612577e-08
-1.48194008399124e-08
-9.6562895638235e-07
-3.00844331427756e-08
-1.9304161020792e-08
-8.44143825371142e-07
-2.58635308285106e-08
-2.30663676271055e-08
-2.49261819805513e-07
-1.81253594943555e-08
-3.28653507303256e-08
8.55378476032367e-07
-5.51785156892944e-09
-5.08208745529692e-08
1.19494293862547e-06
2.15951360763705e-08
8.55133384379038e-11
2.30060807762854e-07
5.47949412159717e-10
-2.70367136891903e-09
-5.65304005700992e-07
-1.45773264954335e-08
-4.39446166924005e-09
-8.21537497202945e-07
-1.9519101777968e-08
-5.81135064967839e-09
-9.28019485121006e-07
-2.10937668961752e-08
-7.65392159186074e-09
-9.72684029119917e-07
-2.09090956983972e-08
-9.76754363650603e-09
-9.6498129406759e-07
-1.96313915362348e-08
-1.13921665879422e-08
-8.47663150953856e-07
-1.7329304469248e-08
-1.18746712805342e-08
-3.13649197758678e-07
-1.33287520748985e-08
-1.55608868515346e-08
7.53166559037039e-07
-6.07672594197885e-09
-2.59364653410885e-08
1.22798082969435e-06
-1.55320784213274e-08
-2.54044205098028e-11
2.28305979241546e-07
-1.05781336536476e-08
-3.00548746114073e-09
-5.37070069044996e-07
-6.07290703658665e-09
-3.67694384215117e-09
-7.78902832871218e-07
-5.43298298631377e-09
-3.90361741824036e-09
-8.86503239754476e-07
-5.36138071939702e-09
-4.32350767888957e-09
-9.41244618000029e-07
-5.27529505082123e-09
-4.86262660251236e-09
-9.64830780405904e-07
-5.36742357247614e-09
-5.28530809462805e-09
-9.49654948604166e-07
-5.80367022106227e-09
-5.17056104316149e-09
-8.38941456732012e-07
-6.57660812561678e-09
-4.08628870477594e-09
-3.50404728204076e-07
-7.53777301834766e-09
-3.58175581844173e-09
6.66811362910246e-07
-5.915135083882e-09
-4.2467758893994e-09
1.26330828563839e-06
-5.63147480394082e-08
-1.14252315769742e-09
2.35096890384046e-07
-1.90642859521669e-08
-3.34716353938914e-09
-5.00993480124981e-07
6.30836403577837e-09
-3.17192490184932e-09
-7.29727102077774e-07
1.26879395672115e-08
-2.96536788487436e-09
-8.36849914597306e-07
1.46177716060619e-08
-2.94825681515237e-09
-8.96100875749714e-07
1.49512052170117e-08
-2.82294659800888e-09
-9.29988002547868e-07
1.42375865491822e-08
-2.43084628113447e-09
-9.45275964112755e-07
1.25474521972641e-08
-1.84426758279703e-09
-9.28343926718139e-07
9.8103622769203e-09
-1.14208762741048e-09
-8.30632291484801e-07
5.80617805943099e-09
-9.84673802224491e-11
-3.49495957839013e-07
6.28260126726426e-10
3.50635110922736e-09
4.67974337322153e-07
-3.81408444764302e-09
1.48165010638725e-08
1.29842373669154e-06
-1.01709494962641e-07
-1.35861192242557e-09
2.4907438860775e-07
-2.64016541346662e-08
-1.64598907929951e-09
-4.59788854204936e-07
2.13698760633411e-08
-1.7612939572928e-09
-6.76794253472958e-07
3.38594678156349e-08
-2.24353463159005e-09
-7.82330170690139e-07
3.78697315028149e-08
-2.59860026146288e-09
-8.441527332755e-07
3.86067392275112e-08
-2.45400707709511e-09
-8.82846381577177e-07
3.7486945849223e-08
-1.73606341936312e-09
-9.08412105857969e-07
3.49870978677522e-08
-6.46270398403243e-10
-9.20821172425294e-07
3.11831858091307e-08
3.51953315968484e-10
-9.09851546139787e-07
2.59637455222681e-08
8.10623377449097e-10