/*--------------------------------*- C++ -*----------------------------------*\
  =========                 |
  \\      /  F ield         | OpenFOAM: The Open Source CFD Toolbox
   \\    /   O peration     | Website:  https://openfoam.org
    \\  /    A nd           | Version:  12
     \\/     M anipulation  |
\*---------------------------------------------------------------------------*/
/*   Windows 32 and 64 bit porting by blueCAPE: http://www.bluecape.com.pt   *\
|  Based on Windows porting (2.0.x v4) by Symscape: http://www.symscape.com   |
\*---------------------------------------------------------------------------*/
FoamFile
{
    format      ascii;
    class       volVectorField;
    location    "700";
    object      U;
}
// * * * * * * * * * * * * * * * * * * * * * * * * * * * * * * * * * * * * * //

dimensions      [0 1 -1 0 0 0 0];

internalField   nonuniform List<vector> 
10103
(
(-3.1190444593764e-07 -1.29794046731185e-06 -7.20556120650382e-05)
(-3.20243167427204e-07 -1.00316937096341e-06 -7.18926927898645e-05)
(-6.34246835311563e-07 -2.4381178947194e-06 -0.000234138879451792)
(-3.21743226294169e-06 -1.64454141000057e-06 -0.000269208635202927)
(-2.42968070216512e-07 -7.35292318258903e-07 -7.29529520025663e-05)
(-4.70852324370681e-07 -2.27642645427931e-06 -0.000235708605104232)
(-2.26505353112854e-06 -1.32358908606158e-06 -0.000271072747780306)
(-6.95541002141269e-07 -2.90719599443541e-06 -0.00025891174632879)
(-4.72443986092675e-06 -2.24077442456887e-06 -0.000637419684367381)
(-6.82241778699776e-06 -1.16909624403597e-06 -0.000326929896394426)
(-1.02792182431519e-07 -5.66812682221004e-07 -7.2755136657506e-05)
(-2.22142794915022e-07 -2.05817627768746e-06 -0.000237772242771959)
(-1.07984452751032e-06 -1.26406525670269e-06 -0.000273378322977562)
(-2.67921836575564e-07 -3.18948890748848e-06 -0.000260668092842057)
(-3.06295508076938e-06 -2.97261954110642e-06 -0.000642902463287512)
(-4.01606266337203e-06 -1.27174700820911e-06 -0.000329400061777842)
(-7.7245951831121e-07 -3.71422120778265e-06 -0.000242863497970023)
(-4.61844633764646e-06 -1.5125830201505e-06 -0.000678195736230983)
(-8.89194202421043e-06 -8.38951367871931e-07 -0.00073002134293604)
(-9.25016678601032e-06 -3.3840442586163e-07 -0.000330929218376797)
(-8.40039744230124e-08 -3.04565750085679e-07 -7.10268742562903e-05)
(-8.77879852443315e-08 -1.60476856666443e-06 -0.000237534561149417)
(1.89757194916046e-07 -1.26633968897063e-06 -0.000272871241747317)
(6.38498014991308e-08 -2.82106924903088e-06 -0.000262442202824762)
(-1.06687677575406e-06 -3.6162636166952e-06 -0.000646660445375737)
(-1.40446133861807e-06 -1.49385623454157e-06 -0.000331545573900994)
(-2.09058579742297e-07 -3.55174872021443e-06 -0.000244022846604344)
(-2.87261803718734e-06 -3.90065898039592e-06 -0.000683926192584099)
(-4.30209039844075e-06 -1.86771567060034e-06 -0.000735984756164649)
(-5.11177995612446e-06 -1.06264094990795e-06 -0.000332955242899756)
(-7.21730938266729e-07 -4.48191252629193e-06 -0.00022306445855154)
(-3.35636077873282e-06 -8.09697771695729e-07 -0.000624819692957697)
(-7.16009827153472e-06 1.8618333644881e-06 -0.000727371200502491)
(-1.04180429434415e-05 8.69535602722626e-07 -0.00068781235608234)
(-1.03017650992137e-05 1.08850697459321e-07 -0.00032404895484261)
(3.05168473704586e-08 -1.0239072237211e-07 -6.84356163959399e-05)
(-1.70370555591708e-07 -1.05078453219969e-06 -0.000234629858521538)
(1.26802806750591e-06 -1.04643931102355e-06 -0.000269492508256689)
(1.34552838221957e-07 -1.70933533498461e-06 -0.000261924773485444)
(8.29000301431339e-07 -3.80454899105624e-06 -0.000645723705838758)
(9.03188963023637e-07 -1.58058912975511e-06 -0.000330597250066816)
(2.28993136687657e-07 -2.69835131115577e-06 -0.000245055174239817)
(-2.81259808198589e-07 -5.00604859538617e-06 -0.000687219461499856)
(-1.5321235729858e-07 -3.47503344342637e-06 -0.000739258742406484)
(-1.44876867251882e-06 -1.58124922463831e-06 -0.000334520170632826)
(-4.50539565451634e-08 -3.78681954599188e-06 -0.000223868415646986)
(-1.05261459743329e-06 -3.35720774784164e-06 -0.000629459784309576)
(-2.73351759771884e-06 -1.47860985695584e-06 -0.000733645069496228)
(-4.29804035232664e-06 -1.66860955780276e-06 -0.000692911175297122)
(-5.63338183592872e-06 -9.74190687577363e-07 -0.000325702871427521)
(-7.00204742350381e-07 -4.78561099332225e-06 -0.000207323548284953)
(-2.26778432119454e-06 5.72493287534869e-08 -0.000573206140516242)
(-4.38518168190955e-06 3.69492595079087e-06 -0.000650384850036733)
(-6.67467478251455e-06 4.07424183631887e-06 -0.000663883859158633)
(-9.9514003736155e-06 2.32207241942935e-06 -0.000635405068517267)
(-1.04570327506623e-05 4.18338217285123e-07 -0.000319368717277371)
(1.62645328825243e-07 9.37246924583931e-08 -6.52661024780124e-05)
(-1.60995290834257e-07 -4.99002506407527e-07 -0.000230083381592631)
(2.31480806854447e-06 -9.41852059120031e-07 -0.000264312707360291)
(5.60717934524575e-08 -6.33717285527357e-07 -0.000258940917977222)
(2.35286357997161e-06 -3.8300689457363e-06 -0.000639648290235655)
(2.99841231223952e-06 -1.48502911852001e-06 -0.000326691481961039)
(3.81653988771337e-07 -1.13903873174105e-06 -0.000244293183790811)
(2.29811660181156e-06 -4.95133553959918e-06 -0.000685930079137987)
(3.24387982304028e-06 -4.84777539026792e-06 -0.000737929374681639)
(1.69859608486284e-06 -1.81830975097001e-06 -0.000333223964072694)
(4.00562234640527e-07 -2.59883797954712e-06 -0.000224383289462091)
(1.01836344733474e-06 -4.71018343060687e-06 -0.000631820173808443)
(1.20709792764552e-06 -4.07400789775086e-06 -0.000737012211163094)
(9.08506490866208e-07 -3.70341511934327e-06 -0.000695644317097256)
(-1.38503721442898e-06 -1.72970991415126e-06 -0.000326881534310352)
(6.26399079462796e-08 -3.92927352456399e-06 -0.000207887883056027)
(-1.8269861337817e-07 -2.5940159021258e-06 -0.000576860512939659)
(-1.08017978402051e-06 -2.47994958750083e-07 -0.000655561763881971)
(-2.02105794313307e-06 1.6713412720004e-07 -0.000669269337140261)
(-3.88608385082519e-06 -9.22783592632396e-07 -0.000639838664336616)
(-5.71090537562772e-06 -9.08278041188184e-07 -0.000320906479274845)
(-6.0694940697098e-07 -4.63206025606048e-06 -0.000195036285007142)
(-1.31421018639136e-06 1.61217298070941e-06 -0.000533098025712641)
(-2.52027945632378e-06 5.49050831728278e-06 -0.000590996225267794)
(-3.76962908773732e-06 6.00616710394138e-06 -0.000586832463505005)
(-5.68999637555176e-06 5.43320289873281e-06 -0.000605979070970447)
(-8.92920615430671e-06 3.33819954966381e-06 -0.000598634678618405)
(-1.00821596797339e-05 6.42288987285328e-07 -0.000318340393400017)
(3.10231123617627e-07 2.8068402878561e-07 -6.15004468398305e-05)
(-9.0876700215285e-08 1.80720150652517e-08 -0.000224330823600185)
(3.37970461214978e-06 -8.62279821437344e-07 -0.000257769412999573)
(5.16677346795561e-09 3.85055777924838e-07 -0.000254297237722594)
(3.74001604311461e-06 -3.80621634155346e-06 -0.000630319467709174)
(5.08924714520662e-06 -1.44944916542861e-06 -0.000320909930514785)
(3.61569123431468e-07 3.96694070906049e-07 -0.000241479286376483)
(4.19711579249659e-06 -4.90036309128987e-06 -0.000680138535595038)
(6.23022212971268e-06 -5.66461076855403e-06 -0.000731631631331804)
(4.73394934602008e-06 -1.96623446558952e-06 -0.000329243286096082)
(7.19911747089147e-07 -8.74406753376622e-07 -0.000223466421610137)
(2.47034340282371e-06 -5.05367075032861e-06 -0.000630547556074661)
(4.47266526730137e-06 -5.80240195611804e-06 -0.000736060399606004)
(5.21719367937397e-06 -4.95693157820789e-06 -0.00069441553222873)
(2.34680125626203e-06 -2.08830879974e-06 -0.000325420808200065)
(5.67435065080111e-07 -2.75896285706815e-06 -0.000208066585736881)
(1.43341225860356e-06 -4.45713242747153e-06 -0.000578567499638646)
(1.78120235059148e-06 -3.56733249475211e-06 -0.000658280051085874)
(2.04145025591445e-06 -3.31828482987391e-06 -0.000672249501243232)
(1.37724964076473e-06 -3.53929496767847e-06 -0.000642231815740705)
(-1.32781962042342e-06 -1.84809098760792e-06 -0.00032188588293229)
(1.26417400076334e-07 -3.99082830080733e-06 -0.000195410740356543)
(2.7961769749215e-07 -1.54361629691007e-06 -0.00053618816635721)
(-1.39830317349846e-07 9.2375529468038e-07 -0.000595281998294169)
(-6.11293215739328e-07 1.38473119314302e-06 -0.00059132541960245)
(-1.42225636978893e-06 1.0160100764862e-06 -0.000610596216521063)
(-3.50959956863515e-06 -2.79113437348907e-07 -0.000602777380453358)
(-5.62469868934392e-06 -8.62367912347547e-07 -0.000319952327596069)
(-4.56380432282102e-07 -4.26888021768699e-06 -0.000184550889083069)
(-7.84467297320133e-07 3.61090323633894e-06 -0.000499692583488813)
(-1.28012311618928e-06 7.55782657876571e-06 -0.000547834857669996)
(-1.96108450488687e-06 7.80993233972028e-06 -0.000532745820086415)
(-3.01132830583761e-06 7.3325261685256e-06 -0.000536895215395365)
(-4.682264772824e-06 6.38950948664912e-06 -0.000567747690737431)
(-7.75457654512281e-06 3.98958619091479e-06 -0.000572256852447118)
(-9.47098684320464e-06 7.83120403454505e-07 -0.000320232931076377)
(4.56153182058694e-07 4.68683327689171e-07 -5.71084082545717e-05)
(1.40713858433429e-08 5.13570275082784e-07 -0.000217360336673936)
(4.47471402473223e-06 -7.91865897478422e-07 -0.00024985589958711)
(1.170614451989e-08 1.33209064453874e-06 -0.00024839725517448)
(5.15443577500522e-06 -3.84248081358999e-06 -0.000618363928721172)
(7.21220999236302e-06 -1.47227184111813e-06 -0.000313634758631802)
(3.82141784483219e-07 1.80007046738342e-06 -0.000237131610760764)
(5.43419273752353e-06 -5.0199419301234e-06 -0.00067122522386706)
(9.13503390661119e-06 -6.05405421477132e-06 -0.000722169673606073)
(7.76862696640696e-06 -2.11489233891443e-06 -0.000323556077521487)
(9.73330752678404e-07 7.78607779099738e-07 -0.000220833635877404)
(3.57146862446724e-06 -5.46646314526631e-06 -0.000625856916054902)
(7.22135795045765e-06 -7.35700999843485e-06 -0.000731369522949877)
(9.1997052500512e-06 -6.04708189951238e-06 -0.000689262263640427)
(5.98349538198921e-06 -2.38006504120465e-06 -0.000321588853223012)
(9.54455649933682e-07 -1.26179526439947e-06 -0.000207114594832252)
(2.41264157706028e-06 -5.67778896945006e-06 -0.000577480020862288)
(3.96858653705276e-06 -6.25135799900796e-06 -0.000657647488133758)
(5.39768768950159e-06 -6.18635039943766e-06 -0.000671692045552443)
(5.88350298356169e-06 -5.4172877351847e-06 -0.000641320646707229)
(2.55019572471285e-06 -2.37859156694245e-06 -0.000320485254438379)
(6.30871235644728e-07 -3.20987993647514e-06 -0.00019543752692454)
(1.43052735563138e-06 -4.35764438413994e-06 -0.000537563291675195)
(1.79088099644607e-06 -3.32531877762293e-06 -0.00059742113707865)
(2.14420328208803e-06 -2.99382353560045e-06 -0.000593704488406092)
(2.38120865493972e-06 -3.10342738729639e-06 -0.000613084920300596)
(1.32521951239205e-06 -3.35896225871122e-06 -0.000605009910236084)
(-1.49593719882192e-06 -1.96618932535773e-06 -0.000320840688092398)
(1.35626437075354e-07 -4.04874024445677e-06 -0.000184714330404423)
(4.46943958426524e-07 -4.59187547717125e-07 -0.000502500745888266)
(3.74726963978662e-07 2.148965793754e-06 -0.00055162560981479)
(1.31851820140573e-07 2.43741101922811e-06 -0.000536476023195257)
(-2.30123393764978e-07 2.15119567059058e-06 -0.000540726094322591)
(-1.01657810649848e-06 1.57829194586469e-06 -0.000571914498876543)
(-3.17544035152149e-06 1.30700854074088e-07 -0.000576316115784429)
(-5.53250593740241e-06 -8.61990600091606e-07 -0.000321989758811592)
(-3.74907520338461e-07 -3.76024520684555e-06 -0.000174633530469045)
(-4.77535558014702e-07 5.85279301113972e-06 -0.000470216334768107)
(-5.45308362585276e-07 9.80644064344997e-06 -0.000512125265982284)
(-7.76545007779877e-07 9.7790227359619e-06 -0.000494520221728692)
(-1.37696291118769e-06 9.2071401120735e-06 -0.000490859333467405)
(-2.32758534619683e-06 8.35744875170318e-06 -0.000505850988163894)
(-3.81477515755529e-06 7.05470550376619e-06 -0.000540248779207181)
(-6.56702816513299e-06 4.45332344751762e-06 -0.000551492166887452)
(-8.73494723840322e-06 7.43837258090311e-07 -0.000323114270076901)
(6.02586916920382e-07 6.63596887512001e-07 -5.20525464699278e-05)
(1.19236961749358e-07 1.02345415083986e-06 -0.00020912512712995)
(5.60745822214956e-06 -7.07574663541444e-07 -0.000240496000348842)
(6.06941130496436e-08 2.22940071939077e-06 -0.000241197063016581)
(6.6370254850388e-06 -3.94104795327102e-06 -0.000603699738223829)
(9.41213692251453e-06 -1.52866805947166e-06 -0.000304793962608345)
(4.67079953010037e-07 3.10536906969521e-06 -0.000231573059603763)
(6.67293378343576e-06 -5.26913128051753e-06 -0.000659688310747695)
(1.20714718264789e-05 -6.58335040047056e-06 -0.00070997306308259)
(1.08564335905976e-05 -2.31372663649186e-06 -0.00031639992769498)
(1.19774340018792e-06 2.26391750838695e-06 -0.000216808062958003)
(4.56115651403182e-06 -6.09631533538796e-06 -0.000618418498476199)
(9.68614736709512e-06 -8.92530833719806e-06 -0.00072390289205454)
(1.31348840244608e-05 -7.22595303181166e-06 -0.000681421193579397)
(9.64192294922803e-06 -2.70740883794443e-06 -0.000316204655876418)
(1.22953322845712e-06 1.42079464899372e-07 -0.000204744164050112)
(3.08411324598802e-06 -6.94073966680042e-06 -0.000573648338502522)
(5.73753329041442e-06 -8.88496809129867e-06 -0.000654198268582063)
(8.3562840499851e-06 -8.9450766435448e-06 -0.000668255791747266)
(1.00927486520986e-05 -7.20217654605536e-06 -0.000637228024271402)
(6.36061769490344e-06 -2.83715978423301e-06 -0.00031683472025133)
(1.00260947858801e-06 -2.22248385623418e-06 -0.000194555996816425)
(2.04842863910873e-06 -6.84939290271092e-06 -0.000536667821407005)
(3.12041133977274e-06 -7.2415283923685e-06 -0.00059693421059166)
(4.34552618149819e-06 -7.0457995189109e-06 -0.000593355708947084)
(5.62554302553688e-06 -6.8142464874579e-06 -0.000612713054543144)
(5.57927582306121e-06 -5.8859440446046e-06 -0.000604410252209476)
(2.15030494279224e-06 -2.73675613484631e-06 -0.000319548268173785)
(6.12093991796888e-07 -3.83376521714356e-06 -0.000184713831915268)
(1.29656558775497e-06 -4.48534621985146e-06 -0.000503712053773906)
(1.61274554455695e-06 -3.23070897183634e-06 -0.000553459894079921)
(1.89235500347682e-06 -2.91155220917881e-06 -0.000538329212415202)
(2.28428487353121e-06 -2.95815571310722e-06 -0.000542647788056878)
(2.32607282646892e-06 -3.03921044172478e-06 -0.000574127454555092)
(9.4929401586123e-07 -3.2831390539132e-06 -0.000578473283774622)
(-1.90408742149654e-06 -2.13262887316821e-06 -0.00032285091282582)
(1.13360411990818e-07 -4.09380250805408e-06 -0.000174580415546405)
(4.97292454598227e-07 6.48473119671394e-07 -0.000472877885344829)
(6.11319296121218e-07 3.36761830323323e-06 -0.000515636029615261)
(5.58230808340428e-07 3.51729824586196e-06 -0.000497799000501054)
(3.59630543378726e-07 3.19473371701944e-06 -0.000494029639369698)
(3.00553775438316e-08 2.69542048430803e-06 -0.000509294556807089)
(-7.84187767176725e-07 1.95924454716576e-06 -0.000544191181058336)
(-2.89970385956896e-06 3.94641341273825e-07 -0.000555509157574525)
(-5.3582253200068e-06 -9.80451033385719e-07 -0.000325007726258861)
(-4.05073611285131e-07 -3.17969418469596e-06 -0.000164439845129461)
(-2.91141351585159e-07 8.19767838603102e-06 -0.000443376339528488)
(-1.25896064535906e-07 1.21214490169001e-05 -0.000480145035028461)
(-4.33046554820355e-08 1.18539482796849e-05 -0.000462789445827662)
(-2.87181623612478e-07 1.1174332406183e-05 -0.000457888025713045)
(-9.14322697265425e-07 1.03607001890743e-05 -0.000465069811933771)
(-1.78396418086593e-06 9.15350094871315e-06 -0.000483760559855326)
(-3.05962009819821e-06 7.50504996548505e-06 -0.000517931077315367)
(-5.41653005277933e-06 4.72326801330384e-06 -0.000533723701819637)
(-7.91072144728692e-06 4.91158143689806e-07 -0.000323072233645623)
(7.63690747199248e-07 8.54580359232673e-07 -4.63676155162513e-05)
(6.78287602113308e-06 -6.07909920376091e-07 -0.000229645117502037)
(2.71769018467025e-07 1.51284686772147e-06 -0.000199565190304807)
(1.40556619813068e-07 3.06904416016386e-06 -0.000232652667455502)
(8.21650672181162e-06 -4.05448667404482e-06 -0.000586279635488018)
(1.16863058654713e-05 -1.57243130283794e-06 -0.000294333774641445)
(5.61517009811343e-07 4.29639112605144e-06 -0.00022480357342263)
(8.04584739242776e-06 -5.62416844195295e-06 -0.000645454319195142)
(1.51222859049895e-05 -7.28984212134386e-06 -0.000694958019869249)
(1.40143338233921e-05 -2.54037917869042e-06 -0.000307679844836226)
(1.44592609789191e-06 3.58179970445307e-06 -0.000211647167735228)
(5.53084855560061e-06 -6.93902778839263e-06 -0.000608599419688935)
(1.20791157573274e-05 -1.06271880243714e-05 -0.000713957147323968)
(1.70999283744089e-05 -8.59829875211118e-06 -0.000671176272571678)
(1.33254605310277e-05 -3.08275541902918e-06 -0.000309354498543478)
(1.46881215055679e-06 1.32673444816809e-06 -0.00020105204970443)
(3.6815928539451e-06 -8.51217929144985e-06 -0.000567420567113154)
(7.33039561219721e-06 -1.16852612931481e-05 -0.000648431116389074)
(1.11300641294872e-05 -1.18026687473274e-05 -0.000662555171477493)
(1.42587283097908e-05 -9.15692223340515e-06 -0.000630803828252803)
(1.0191921733649e-05 -3.33121818682741e-06 -0.00031177377772956)
(1.26548894199213e-06 -1.36176233208838e-06 -0.000192465384472263)
(2.34124604548954e-06 -9.44312258064563e-06 -0.000533489367018981)
(4.10043222479069e-06 -1.12119373813845e-05 -0.000594185772048107)
(6.19365345748474e-06 -1.10972773975569e-05 -0.000590814138105828)
(8.53039801324694e-06 -1.04895733714942e-05 -0.000610027720821439)
(9.53338607403192e-06 -8.31205652203747e-06 -0.000601101314128218)
(5.71051908547498e-06 -3.37795267797292e-06 -0.00031607010928417)
(9.57738608665387e-07 -3.45392222216931e-06 -0.000183965040991856)
(1.69874575620654e-06 -8.39295349700022e-06 -0.000503055533440075)
(2.34042532757014e-06 -8.52680520319812e-06 -0.000553101284844585)
(3.18347999817721e-06 -8.16157873183917e-06 -0.000538006258429288)
(4.38059861760686e-06 -7.91692185061591e-06 -0.000542357453032049)
(5.26233628202093e-06 -7.39304883529026e-06 -0.000573949119761599)
(4.59247768526494e-06 -6.23782856760286e-06 -0.000578125845237239)
(1.28519154384293e-06 -3.15575169742954e-06 -0.000321704573469849)
(5.92611886534069e-07 -4.53647609091888e-06 -0.000174624946291233)
(1.14644887977762e-06 -4.68792351833214e-06 -0.000474001629329832)
(1.41081136098031e-06 -3.21251840609182e-06 -0.000517347826290312)
(1.61623345179794e-06 -2.88451656897911e-06 -0.000499373861614381)
(1.90813417991153e-06 -2.92065157922156e-06 -0.000495500789917344)
(2.21387469954678e-06 -2.99117717532993e-06 -0.000510985029422143)
(1.99840370540744e-06 -3.03617510781694e-06 -0.000546308258858267)
(3.60687064450495e-07 -3.29790085899311e-06 -0.000557602622511514)
(-2.43419046222623e-06 -2.38221478412787e-06 -0.000325859797523338)
(7.46135508710725e-08 -4.11843817457394e-06 -0.000164179554589997)
(4.93173582088789e-07 1.78966309060988e-06 -0.000445949550991358)
(7.09278247945444e-07 4.59302362138402e-06 -0.000483490658275133)
(7.93342279696222e-07 4.62328290533431e-06 -0.000465824407497421)
(7.29621964944883e-07 4.26668034469893e-06 -0.000460673765192632)
(5.23284905434153e-07 3.79454874358169e-06 -0.000467933976955322)
(1.62171478651712e-07 3.12229601608763e-06 -0.000487018298331703)
(-6.71109176857887e-07 2.19936830112172e-06 -0.000521742149654366)
(-2.6344135341031e-06 5.25480018288078e-07 -0.000537685145506442)
(-5.12665264983376e-06 -1.26785206438156e-06 -0.000325086219414547)
(-4.55456064836764e-07 -2.6103568044181e-06 -0.000154163413622167)
(-2.25769286766035e-07 1.05413591358259e-05 -0.000418503320886786)
(8.96923202342569e-08 1.44482229143253e-05 -0.000450598587547377)
(3.72745440777885e-07 1.39593240881585e-05 -0.000433864444136945)
(3.98363113364604e-07 1.31943681102383e-05 -0.000429785622540677)
(4.95019124523105e-08 1.23828388988059e-05 -0.0004351448523534)
(-5.73096266824368e-07 1.12792045868791e-05 -0.000446340843587012)
(-1.35407089529688e-06 9.74187987670995e-06 -0.00046555590193018)
(-2.36465559812428e-06 7.7746435165542e-06 -0.000498565112640875)
(-4.31783802782426e-06 4.77558575651455e-06 -0.00051714765930498)
(-7.16028416547468e-06 -2.41038442079109e-07 -0.000312305084694219)
(9.17380851165822e-07 1.03658560826649e-06 -4.00829758251254e-05)
(7.98068390825818e-06 -5.08019107036533e-07 -0.000217303934719374)
(4.3079127147361e-07 1.98362156814201e-06 -0.000188692817008227)
(1.4069303435827e-05 -1.60598468477262e-06 -0.000282158523739507)
(9.87386041286898e-06 -4.15937080912907e-06 -0.000565946533000079)
(2.29766557868343e-07 3.86525481583246e-06 -0.00022273760769793)
(6.53672419135833e-07 5.37768753035535e-06 -0.000216765920377411)
(9.49559265502476e-06 -6.08280470640571e-06 -0.000628409358115853)
(1.83099559946457e-05 -8.06966388338242e-06 -0.000677008420193071)
(1.72921683408517e-05 -2.74827363108651e-06 -0.000297333258476397)
(1.68872624540632e-06 4.75249405847168e-06 -0.00020533480068881)
(6.49421882311691e-06 -7.98791848819816e-06 -0.000596355050449996)
(1.45420327906117e-05 -1.24982103365268e-05 -0.000701460801617873)
(2.11566377434211e-05 -1.01357845765178e-05 -0.000658427848013415)
(1.70638362935639e-05 -3.47096199143197e-06 -0.000300987890463377)
(1.73620255207562e-06 2.32955072630484e-06 -0.000196300396624198)
(4.28045638816951e-06 -1.03857350159288e-05 -0.000559048166565506)
(8.85395220611382e-06 -1.47196942472238e-05 -0.000640513255385038)
(1.38409145385716e-05 -1.48670695308579e-05 -0.000654758550449142)
(1.84186463741606e-05 -1.13253870493755e-05 -0.000622227779221487)
(1.40373277355697e-05 -3.88757074361728e-06 -0.000305262972763514)
(1.49928111104677e-06 -7.17854332870058e-07 -0.000189145619306509)
(2.58352758836316e-06 -1.23930390031013e-05 -0.00052820116774771)
(4.94480176359864e-06 -1.54304690407731e-05 -0.000589439683628322)
(7.85071679845906e-06 -1.53224090576906e-05 -0.000586399608522896)
(1.12578112003821e-05 -1.43166618645002e-05 -0.000605419056454057)
(1.33708161464029e-05 -1.08744872142363e-05 -0.000595731649024986)
(9.25219164815107e-06 -4.03308369735039e-06 -0.000311273041727799)
(1.13423579634015e-06 -3.26758309282347e-06 -0.000182182809817302)
(1.82900983349766e-06 -1.25026843634609e-05 -0.000500471687250459)
(2.76653693321457e-06 -1.39751247617785e-05 -0.000550827053430501)
(4.16906023131997e-06 -1.35279484239085e-05 -0.00053589775558289)
(6.17715725699773e-06 -1.29484075205567e-05 -0.00054028284214098)
(7.90532310443677e-06 -1.17732963222766e-05 -0.000571816266505068)
(7.92028153076072e-06 -9.12393699959129e-06 -0.000575410749002542)
(4.28479640430572e-06 -4.01224820531271e-06 -0.000318434345315956)
(9.22462936790559e-07 -4.86592835884939e-06 -0.000174049156170337)
(1.40289683806114e-06 -1.00502260644307e-05 -0.000473584005937086)
(1.77934537064013e-06 -9.86521142615449e-06 -0.000517164673970932)
(2.27083836994981e-06 -9.36048513082468e-06 -0.000499115868652069)
(3.11682745735777e-06 -9.0752477684371e-06 -0.000495196706930872)
(4.10108955229241e-06 -8.63484527946921e-06 -0.000510819284291824)
(4.45715351624978e-06 -7.85123181772085e-06 -0.000546347047543692)
(3.16504176061794e-06 -6.6732410077446e-06 -0.000557438990742799)
(4.13859815705534e-08 -3.59718559111403e-06 -0.000324835850634153)
(5.31793092296095e-07 -5.28308747953893e-06 -0.000164325946762816)
(1.01392700060414e-06 -4.88065933067002e-06 -0.000447068358204502)
(1.24792728121821e-06 -3.17626793731784e-06 -0.00048516547946531)
(1.39927865080311e-06 -2.83763714504572e-06 -0.000467286365392402)
(1.59779144226912e-06 -2.85346793305205e-06 -0.000461928153288207)
(1.83672330405297e-06 -2.93150447927577e-06 -0.000469249390651785)
(1.97274763187838e-06 -2.99956318595323e-06 -0.00048866382189868)
(1.48952636658543e-06 -3.07883287430745e-06 -0.000523822107237814)
(-3.13883676730305e-07 -3.41479940190326e-06 -0.00053971213626352)
(-3.04250048938318e-06 -2.79245491493951e-06 -0.000325889663080542)
(9.74791861421039e-09 -4.17427956613961e-06 -0.000153672899377231)
(4.41659593392682e-07 2.95225756421059e-06 -0.000421040040218269)
(7.20766671071505e-07 5.83929730747873e-06 -0.000453819566618077)
(9.04870948311338e-07 5.75983990028468e-06 -0.000436749731086898)
(9.52188843315761e-07 5.37404290386252e-06 -0.00043236236334733)
(8.41069232421752e-07 4.92200168253221e-06 -0.000437671535154043)
(5.97709705247369e-07 4.29920251986848e-06 -0.000449074840770186)
(1.91702078983336e-07 3.42783350982411e-06 -0.000468715192504136)
(-6.04718730630856e-07 2.30620526375728e-06 -0.000502289618089921)
(-2.36350082374417e-06 4.64231458428614e-07 -0.000521020778244665)
(-5.00675420574322e-06 -1.78486052107931e-06 -0.000314701476949544)
(-4.8938855891667e-07 -2.11411989336173e-06 -0.000143973163232248)
(-2.29187315613913e-07 1.28046509091159e-05 -0.000395365883398586)
(1.513401790614e-07 1.67186977951906e-05 -0.000422968032578208)
(5.75060311515371e-07 1.60500107530445e-05 -0.000406570841425045)
(7.97905135630021e-07 1.52113962610942e-05 -0.00040353031172501)
(6.77823257879673e-07 1.44035340638409e-05 -0.000409073577921883)
(2.51863050092561e-07 1.33772982542238e-05 -0.000418233573282519)
(-3.44762969032892e-07 1.19613450392356e-05 -0.000430524870846353)
(-9.91972552204521e-07 1.01276166041497e-05 -0.000449431096195879)
(-1.72723725929042e-06 7.87385884622896e-06 -0.000481383626186882)
(-3.36482795790475e-06 4.59581167283424e-06 -0.000497344255951146)
(-5.35158691035423e-06 -1.55386270780877e-06 -0.000299786545302006)
(1.04853685980069e-06 1.21707591371899e-06 -3.32124434589803e-05)
(9.18353112146695e-06 -3.87673524269821e-07 -0.00020348131757387)
(6.11094985764522e-07 2.43870709014135e-06 -0.000176496043493662)
(1.64897715984974e-05 -1.63101677039752e-06 -0.000268243788481844)
(1.16427435269168e-05 -4.27154307303173e-06 -0.000542645780201852)
(3.37877475669662e-07 4.60568660102292e-06 -0.000211389196867817)
(2.06703513133512e-05 -2.8896206342432e-06 -0.000285256936130009)
(2.16518055545379e-05 -8.85068699073403e-06 -0.000655952134499618)
(1.09751675451609e-05 -6.61077486116574e-06 -0.000608424493984277)
(7.40934978352115e-07 6.34369161971254e-06 -0.000207444230622226)
(1.87664164610239e-06 5.75685915872893e-06 -0.0001978628342116)
(7.45529115005642e-06 -9.22154422688827e-06 -0.000581594910540001)
(1.71048222701647e-05 -1.45404862986537e-05 -0.000686291887191549)
(2.5376376347271e-05 -1.17477075498689e-05 -0.000643059672161382)
(2.0900929759082e-05 -3.84453697628342e-06 -0.00029098052795095)
(2.00411856188781e-06 3.12282824762042e-06 -0.00019046244026537)
(4.87213789094427e-06 -1.25670333051939e-05 -0.000548488219355296)
(1.03706536894211e-05 -1.80255003912335e-05 -0.0006304265939256)
(1.6579236098845e-05 -1.81705489509809e-05 -0.000644803242110629)
(2.26318594837865e-05 -1.36556500728199e-05 -0.000611466541580778)
(1.79293893068996e-05 -4.45819773233492e-06 -0.000297222479414504)
(1.74019785021855e-06 -2.88333975488247e-07 -0.000184812572668732)
(2.92115857434427e-06 -1.56916097937223e-05 -0.000521001310167802)
(5.72680158390146e-06 -1.99758396183198e-05 -0.000582813074312629)
(9.41712456916309e-06 -1.98160962250823e-05 -0.000580204285797254)
(1.38876991158007e-05 -1.83889926272418e-05 -0.000598987817481158)
(1.71289527113655e-05 -1.36720741730911e-05 -0.00058841005925477)
(1.27648862716896e-05 -4.74726989059354e-06 -0.000305033653687422)
(1.28959110623836e-06 -3.33388905482775e-06 -0.000179254887601023)
(1.88576375553202e-06 -1.70203497068443e-05 -0.000496004760590864)
(3.08911494236589e-06 -1.972889557832e-05 -0.000546824103885188)
(4.99217867874216e-06 -1.91446402063863e-05 -0.000532171982568488)
(7.7891142271164e-06 -1.81944233792871e-05 -0.000536618487011485)
(1.03527244583184e-05 -1.63432462908813e-05 -0.000568004338396949)
(1.10449068830568e-05 -1.21935293785173e-05 -0.000570848792744154)
(7.1755738696734e-06 -4.84524022660006e-06 -0.00031367581699744)
(1.07954516541977e-06 -5.3795160561036e-06 -0.000172617848549123)
(1.41720720410031e-06 -1.56913192498317e-05 -0.000471518058419938)
(1.90160349105808e-06 -1.67593611817061e-05 -0.000515329593637446)
(2.66197001887379e-06 -1.60389345927106e-05 -0.000497333484066454)
(4.06803186655575e-06 -1.54002203270766e-05 -0.000493429751390682)
(5.74017016919514e-06 -1.44108357242155e-05 -0.000509142071566717)
(6.63625188366418e-06 -1.27480791086604e-05 -0.000544668132190022)
(5.62188361788123e-06 -1.00086326676519e-05 -0.000555144743561898)
(2.23288045602548e-06 -4.63444792468058e-06 -0.000321797163622617)
(8.86751234994952e-07 -6.34427314729269e-06 -0.000163911456282573)
(1.20639167328926e-06 -1.16596947051846e-05 -0.000446893453195788)
(1.40813830053195e-06 -1.11241980778615e-05 -0.000485154117994329)
(1.66278551963626e-06 -1.04819576267441e-05 -0.000467146723650862)
(2.18212930662062e-06 -1.01391383411132e-05 -0.00046168149866033)
(2.92081515380174e-06 -9.77648809717164e-06 -0.000469060111034685)
(3.55013550922754e-06 -9.14687695659798e-06 -0.000488688817196639)
(3.35125205751427e-06 -8.27221141683078e-06 -0.000524044550316082)
(1.53419131269691e-06 -7.15688771733278e-06 -0.000539622789082311)
(-1.50131825274143e-06 -4.13270290839699e-06 -0.000324938024097617)
(4.53537053264556e-07 -6.05394376605082e-06 -0.000153959630605406)
(8.76473182803903e-07 -4.99486029772662e-06 -0.000422189503829721)
(1.10315576209351e-06 -3.07337854377792e-06 -0.000455501102155809)
(1.24542602880259e-06 -2.71695992606535e-06 -0.000438182112224576)
(1.38673083483637e-06 -2.70924955787347e-06 -0.000433544721462471)
(1.54011744292891e-06 -2.7747921009753e-06 -0.000438818739171802)
(1.674623083589e-06 -2.88583164963359e-06 -0.000450395883704128)
(1.59447986914148e-06 -3.02825536166826e-06 -0.000470379251871852)
(8.95535255649427e-07 -3.21897594480225e-06 -0.000504345321547406)
(-9.8098815013753e-07 -3.74913727989956e-06 -0.000522947493731)
(-3.81984561399063e-06 -3.44945520620336e-06 -0.000315365266828563)
(-6.47494532434505e-08 -4.24600423828979e-06 -0.000143350359049319)
(3.53932648309174e-07 4.10865791844058e-06 -0.000397870320293812)
(6.68507371595317e-07 7.09435539465749e-06 -0.000426094133774284)
(9.27862507983146e-07 6.93014803906212e-06 -0.000409347412602845)
(1.06866856167577e-06 6.51839825101935e-06 -0.000405982483040247)
(1.04970811263219e-06 6.08571293459663e-06 -0.000411416689824051)