/*--------------------------------*- C++ -*----------------------------------*\
  =========                 |
  \\      /  F ield         | OpenFOAM: The Open Source CFD Toolbox
   \\    /   O peration     | Website:  https://openfoam.org
    \\  /    A nd           | Version:  12
     \\/     M anipulation  |
\*---------------------------------------------------------------------------*/
/*   Windows 32 and 64 bit porting by blueCAPE: http://www.bluecape.com.pt   *\
|  Based on Windows porting (2.0.x v4) by Symscape: http://www.symscape.com   |
\*---------------------------------------------------------------------------*/
FoamFile
{
    format      ascii;
    class       volScalarField;
    location    "400";
    object      nut;
}
// * * * * * * * * * * * * * * * * * * * * * * * * * * * * * * * * * * * * * //

dimensions      [0 2 -1 0 0 0 0];

internalField   nonuniform List<scalar> 
10116
(
1.42715751630499e-05
1.50759594838959e-05
1.51730911488844e-05
0.000242390800151994
1.5829494389987e-05
1.60246860066478e-05
0.000249036853105253
1.63523457187796e-05
0.000248549145116349
0.000685764236237798
1.65381425132293e-05
1.68222801156246e-05
0.000255113573515859
1.72634699531609e-05
0.000255328883293202
0.00070025370195453
1.70553003900261e-05
0.000256378020115868
0.000693594330618895
0.00120656298882877
1.72039010959156e-05
1.7572689552105e-05
0.00026069114457129
1.81176089512175e-05
0.00026152902880148
0.000713433159499349
1.80016720027795e-05
0.000263322214192494
0.000708223413407053
0.00122950955731675
1.68296332644475e-05
0.000261081332868373
0.000702867553389794
0.0012122897683324
0.00173252375193191
1.7827468164084e-05
1.82780116300152e-05
0.000265813560455555
1.8920908539883e-05
0.000267221940920608
0.000725467590147138
1.88894718409544e-05
0.0002696780741347
0.000721523408021063
0.00125034404838351
1.77642715988088e-05
0.000268121884997728
0.000717645730527184
0.00123535441729035
0.00176402661845767
1.591541042347e-05
0.000259793877970829
0.000707505359894766
0.00121715287873291
0.00173444554244949
0.00223034332966703
1.84095835086006e-05
1.89387992785602e-05
0.000270514283664567
1.96768002942839e-05
0.000272451568086764
0.000736465470163825
1.97243666379454e-05
0.000275516689176762
0.000733668248068157
0.00126931724449712
1.86412269240534e-05
0.00027457067401157
0.000731086680184043
0.00125627388029363
0.00179258351207173
1.68025953157918e-05
0.000266800101974321
0.000722349535873742
0.00124029219085073
0.00176603040790908
0.00227020150205317
1.47396136676057e-05
0.000253446483735041
0.000703378207435268
0.0012161048400356
0.00173238350151771
0.00222823369427621
0.00268692697332794
1.89511445357156e-05
1.95556526196947e-05
0.000274822161631391
2.03849314502364e-05
0.00027725045156423
0.000746512391531317
2.05104760123964e-05
0.000280883078442805
0.000744767385846009
0.00128660838923779
1.946629582256e-05
0.000280497815553705
0.000743363912540018
0.00127532190565991
0.00181852886750079
1.76352303698071e-05
0.000273219422721326
0.000735857649080528
0.00126128032897986
0.00179461972278791
0.00230626599810302
1.556521364965e-05
0.000260304340601171
0.000718135667052411
0.00123920470101171
0.00176394217090626
0.00226813278006252
0.00273476191278956
1.34949776458154e-05
0.000244376487065494
0.000690881220717524
0.00120538796307768
0.0017225468259526
0.00221895191496941
0.00268177491186617
0.00309945435949402
1.94532802480824e-05
2.01294403633496e-05
0.000278762938079841
2.10460087722522e-05
0.000281647764021455
0.000755681368426543
2.12474106452677e-05
0.00028580873304132
0.000754906560877851
0.00130236243408057
2.02431464644942e-05
0.000285948471229369
0.000754586676483231
0.0012926808514135
0.00184211698995398
1.84187867561027e-05
0.00027912255885356
0.000748202325191914
0.00128039217974461
0.00182058783843302
0.00233895924278259
1.63402894253509e-05
0.000266587777990807
0.000731567559196973
0.00126016638221338
0.00179250081823404
0.00230417266051522
0.00277796414376922
1.42551254671896e-05
0.000251024148344639
0.000705402135971984
0.00122827736279161
0.00175391600554534
0.00225871555263268
0.00272961977475998
0.00315479479801146
1.21909814412439e-05
0.000233909268898521
0.000672552897908772
0.00118472548987439
0.00170220072978867
0.00219968503471351
0.00266654468102777
0.00309245663122102
0.00346986332665518
1.99171242090172e-05
2.06613252724412e-05
0.000282360080816751
2.16608845258184e-05
0.000285669872685313
0.000764036593073887
2.19356539679547e-05
0.000290322341634171
0.000764159176183548
0.00131670329092856
2.09722964042104e-05
0.000290954253232224
0.000764840170002925
0.00130849634130073
0.001863556870982
1.91569455952637e-05
0.000284553487728162
0.000759490761376179
0.00129781079770876
0.0018441952067898
0.00236861333693305
1.70697547593047e-05
0.000272367923481272
0.000743849167755082
0.00127925948102933
0.00181843857100447
0.00233683278892515
0.00281704603532412
1.49686307659983e-05
0.000257112409204511
0.00071861566476978
0.00124905680819764
0.00178231264139536
0.00229461769578695
0.00277275165122335
0.00320469009535885
1.28823824528298e-05
0.000240314978898892
0.000686726226413677
0.00120722581956387
0.00173317959108824
0.00223909261135438
0.00271415746228458
0.00314779091455815
0.00353219631684815
1.0810603287469e-05
0.000222232178197955
0.000650132388180497
0.00115573283034291
0.00167084749549216
0.00216857757611239
0.00263891142126818
0.00307292305264289
0.00346175760268786
0.00380165959015175
2.03437932202439e-05
2.11525315395628e-05
0.000285634671387394
2.22307011527605e-05
0.000289340871261387
0.000771635182035855
2.25759202050885e-05
0.000294450712179019
0.000772590036985403
0.00132973887896436
2.16538842357532e-05
0.000295542558133764
0.00077419758079106
0.00132289270480547
0.0018830273177091
1.98504820283254e-05
0.000289544466230568
0.000769807241889333
0.00131368169095247
0.00186565200866314
0.00239550378215812
1.77573351267818e-05
0.000277688439422176
0.000755084554225288
0.00129666467099266
0.00184201840923633
0.00236645441972476
0.00285241836161147
1.56403310985898e-05
0.000262713447236832
0.000730701905261451
0.00126799111352416
0.00180810699302734
0.00232714673009727
0.00281175574723182
0.00324974325154011
1.35309798102698e-05
0.000246175786166911
0.000699618093079208
0.00122765783154915
0.00176123543607369
0.00227468176722057
0.00275705722432348
0.00319758646422405
0.00358831393520878
1.14285445037935e-05
0.000228365674550322
0.000663875364497221
0.00117769100652833
0.00170122694634325
0.00220738607897143
0.00268600936602684
0.00312794979118267
0.00352407824137224
0.00387045381477022
9.36311678950511e-06
0.000209162035367454
0.000624074204210747
0.0011196526159101
0.00162915879950044
0.00212513549043494
0.00259745468918603
0.00303845380443207
0.00343907412472574
0.0037927347128955
0.00409846563673645
2.07344161900925e-05
2.16042390882192e-05
0.000288605608095556
2.27567819444558e-05
0.000292682436262148
0.000778527800375093
2.31693154458386e-05
0.000298218428799307
0.000780256871442852
0.00134156411765092
2.22883463652295e-05
0.000299739790906947
0.00078272384669741
0.00133597828308185
0.00190068329862567
2.04995252871072e-05
0.000294122300292468
0.000779223901732725
0.00132812899141391
0.00188513742667344
0.00241986649046378
1.84038324662748e-05
0.000282581051810002
0.00076535660112432
0.00131252601240608
0.0018634508167675
0.0023933146721973
0.00288442281958101
1.62737425887128e-05
0.000267871459129119
0.000741764633570625
0.00128525675682425
0.00183155934648263
0.00235664833407681
0.00284705408933346
0.00329043958692876
1.41413657363642e-05
0.000251567558640041
0.000711411249015971
0.00124628292531665
0.00178672800294505
0.00230692938501787
0.00279584187331853
0.00324253156236317
0.00363890337085323
1.20079208497281e-05
0.000233972444484724
0.000676372798493029
0.00119763273314497
0.00172875250931963
0.00224244916973499
0.00272845281010993
0.00317743926097263
0.00358007670471365
0.00393231451781764
9.90322156502564e-06
0.000214977861262377
0.000637312225816972
0.00114093167018867
0.00165874192725804
0.00216309746226234
0.00264374005627386
0.00309282469657438
0.00350102792606837
0.00386151352113357
0.00417317977972724
7.87836038484716e-06
0.000194535950073359
0.000594192521871136
0.00107678979260552
0.00157758433513493
0.00206938047156102
0.00254172718627029
0.00298765406575217
0.00339895651569596
0.00376748438615401
0.00408878702908657
0.00436359166505507
2.10900320407024e-05
2.20176771568105e-05
0.000291289730001299
2.3240463445665e-05
0.000295713940232922
0.000784759284478484
2.37171392717654e-05
0.0003016477749969
0.000787210997442902
0.0013522626310625
2.28765573160872e-05
0.000303570420654846
0.000790477143924562
0.00134784839237163
0.00191666005611837
2.11042836294773e-05
0.000298310951080651
0.0007878049722264
0.00134126097623912
0.00190280663258205
0.00244190549954919
1.90096179422115e-05
0.00028707185632383
0.000774735965410923
0.00132696638541279
0.00188291464203999
0.00241764968071633
0.00291335277734659
1.68695916921718e-05
0.000272617426418259
0.000751883337395878
0.00130099498088079
0.00185287827960136
0.00238340022182005
0.00287899080142119
0.00332718632798137
1.47175149071621e-05
0.000256534385808371
0.000722211342411717
0.00126327308537024
0.00180991149048898
0.00233617811805045
0.00283093947205984
0.00328312624500995
0.00368452209829008
1.25532042036525e-05
0.000239128990549964
0.000687802929629456
0.00121581765462093
0.00175377300273394
0.0022742285072709
0.00276682581495003
0.00322209547330833
0.00363053799644429
0.00398800627444836
1.04094301088535e-05
0.000220298843774917
0.000649345068395745
0.00116026105605282
0.00168555779289347
0.00219741234235533
0.00268546814651933
0.00314173125316761
0.00355666156204313
0.0039232399531587
0.00424030271472912
8.33822587049119e-06
0.000199990059762836
0.000606845355802133
0.00109726010422555
0.00160618328352401
0.00210625304033696
0.00258690121769819
0.00304100581607049
0.00346012899443932
0.00383584537495837
0.00416348208818118
0.00444367922078597
6.39790918024241e-06
0.000178263333588317
0.00056009676787182
0.00102680359383324
0.00151593985196358
0.0020010594911946
0.00247143074472974
0.00292011261749382
0.00333978010787698
0.00372245189103047
0.0040612229647054
0.00435316275182796
0.00460000654381916
2.14113923008677e-05
2.23938620440484e-05
0.000293701666449276
2.36830223180447e-05
0.000298452530508944
0.00079036903114585
2.42207147585589e-05
0.000304758680367467
0.000793497767409728
0.00136190794148504
2.34196939732154e-05
0.000307056909461836
0.00079750931384602
0.00135858704376266
0.00193107607229995
2.16653581713868e-05
0.000302134218172319
0.000795608208856001
0.00135317302341653
0.00191879499908335
0.00246179736271654
1.95746312808592e-05
0.000291183534416415
0.00078328480244264
0.00134009310048981
0.00190056464545222
0.00243966330112662
0.00293946145758099
1.74283822114084e-05
0.000276976698001802
0.000761126517004348
0.00131532645905042
0.00187224092858612
0.00240763786044936
0.00290785929554521
0.00336033274331716
1.52596451831991e-05
0.000261106531843727
0.000732095183259053
0.00127876524147132
0.00183099023388941
0.0023627032208185
0.00286269504615539
0.00331978013251568
0.00372563897235475
1.30677055064511e-05
0.000243880712741348
0.00069827317718003
0.00123241304768684
0.00177653460588046
0.00230305860665805
0.00280155298566588
0.00326242630255268
0.00367603622923316
0.00403815225769861
1.08858358464019e-05
0.000225192587493746
0.000660352508592765
0.0011778913121013
0.00170994386782488
0.00222852544877185
0.00272320358932438
0.00318586133472103
0.00360677885007562
0.00397878735133799
0.00430066644852023
8.76855546712623e-06
0.000204987057502749
0.000618340269674841
0.00111585804538108
0.00163211814642247
0.00213960076978315
0.00262764744751975
0.00308901467527214
0.00351506741204322
0.00389715621968099
0.00423045643709506
0.00451558386401449
6.77696416059023e-06
0.000183325196365742
0.000572096914496707
0.00104633470876725
0.00154336316914153
0.00203660064952364
0.00251519841177614
0.00297208419824932
0.00339973692563225
0.00378991659480698
0.00413545271888381
0.00443322661745708
0.00468492493879373
4.96903698427587e-06
0.00016029852969819
0.000521318180593346
0.000968951013065523
0.00144346272435257
0.00191941067728563
0.00238584984551566
0.00283545459634085
0.00326114179225352
0.0036556678720315
0.00401172390024908
0.00432341741313357
0.00458883818251681
0.004810392427969
2.16983904778619e-05
2.27335179579829e-05
0.000295853582628083
2.40855074073899e-05
0.000300912988424847
0.00079539111453225
2.46814747164635e-05
0.000307568650988091
0.000799156947096991
0.00137056422553858
2.39191143199177e-05
0.00031021945978423
0.000803866241064242
0.00136826808449314
0.00194403486388871
2.2183654078503e-05
0.000305614074359705
0.000802685403326028
0.00136394927739427
0.0019332210713252
0.00247969666947496
2.00993885494566e-05
0.000294937359611772
0.000791059391157062
0.00135200073618081
0.00191653580984261
0.00245953231421472
0.00296296787272058
1.79499859820834e-05
0.000280970691127784
0.000769554206050143
0.00132835625570062
0.00188980055447715
0.00242956414796063
0.0029339124144984
0.00339018017756677
1.57681273320031e-05
0.000265308647121469
0.00074112814269008
0.00129287673893309
0.00185013805498776
0.00238673769535169
0.00289140097253818
0.00335284259952747
0.00376265610707552
1.35522870042946e-05
0.000248255728134081
0.000707860529121233
0.00124755095531654
0.0017972354448748
0.00232920891419794
0.0028329762687266
0.00329884241180405
0.00371704317837325
0.0040832779565775
1.13355834983365e-05
0.000229704616896009
0.000670435078115349
0.0011939871663024
0.00173213689888741
0.0022567600675092
0.00275736071500463
0.00322571892742624
0.00365196313810385
0.00402879774108872
0.00435495326896176
9.1734626359598e-06
0.000209584123960968
0.000628856620259209
0.00113282585151316
0.00165571433962528
0.00216985103958359
0.0026645092240209
0.00313234488816889
0.00356455736297034
0.00395231184794892
0.00429066069329179
0.00458019542458364
7.1312484843465e-06
0.00018795436621329
0.000582969109897564
0.0010640760303064
0.00156824662734642
0.00206876286640853
0.0025546979798864
0.00301887447488061
0.0034536046067858
0.00385042936564273
0.00420196416323146
0.00450496829325337
0.00476113808922327
5.26883329328146e-06
0.000164933176266564
0.000532570947068248
0.00098739761517444
0.00146951779010949
0.00195337087398939
0.00242791219992311
0.0028856914642881
0.00331945360869174
0.00372173070584542
0.004084949891937
0.00440297084462664
0.00467372715433584
0.00489961293088735
3.62476960583606e-06
0.000140541803947909
0.000477201065231369
0.000902092638299871
0.00135887392597113
0.00182315006311985
0.00228373973058203
0.00273273281402078
0.00316270951852416
0.00356670638839581
0.0039379546815058
0.00426977939113828
0.00455703092511039
0.00479851694386968
0.00499717333720543
2.19503796323091e-05
2.30365744616996e-05
0.000297755146700002
2.44485988491039e-05
0.000303107523104454
0.000799854213033384
2.51004800116482e-05
0.000310092618757435
0.000804222838143617
0.00137828668077917
2.43760949112465e-05
0.000313075900653586
0.00080958805093542
0.0013769559546946
0.00195562599126896
2.26603289701016e-05
0.000308770709666037
0.000809082600280393
0.00137366373855211
0.00194618839475348
0.00249573771009517
2.05846323662228e-05
0.000298354485496409
0.000798110620694967
0.00136277291191838
0.00193094625654282
0.002477410799153
0.00298406189959278
1.84350228495077e-05
0.000284619511428307
0.000777220141679025
0.00134017707615509
0.00190569078688624
0.0024493550121762
0.00295736878087881
0.00341698811383966
1.62430779966912e-05
0.000269161248150843
0.0007493676196373
0.00130570971309733
0.00186750531314538
0.00240848211706312
0.00291730856981368
0.00338261447604001
0.00379592061913923
1.40068793883456e-05
0.000252278321834825
0.000716627372718661
0.00126134448062117
0.00181604444011472
0.00235290772411002
0.00286138471056046
0.00333169184389157
0.00375396126679411
0.00412383560934413
1.17589866885732e-05
0.000233858293080688
0.000679669429928506
0.00120867545566942
0.00175232733282112
0.00228237710183237
0.0027882739699129
0.00326171096661624
0.00369268741638425
0.00407379992245054
0.00440374025561359
9.55602147951092e-06
0.000213824159188379
0.000638496336008269
0.00114832125354675
0.00167719786606554
0.00219731352400958
0.00269788633841956
0.00317148795171089
0.00360917783688123
0.00400196503464169
0.00434479766522444
0.00463824653392194
7.46424737961048e-06
0.000192218880661797
0.000592919556473206
0.00108026926184765
0.00159089660564179
0.00209795358522043
0.00259044936670562
0.00306112156993385
0.00350214112730876
0.00390486507556501
0.00426173251925966
0.00456940516962602
0.00482958195625539
5.54839138660512e-06
0.000169160804330481
0.000542750925127947
0.00100415336257268
0.00149316868136673
0.00198412305750664
0.00246589743477307
0.0029309460783182
0.00337186990214611
0.00378100876048123
0.00415056681756951
0.0044742047051164
0.00474976298907434
0.0049796742001925
3.84836931890156e-06
0.000144711237998312
0.000487601799205043
0.000919294883275639
0.00138334247104621
0.00185526937306403
0.00232378824689992
0.00278087755427568
0.00321895861219104
0.00363086882383599
0.00400960338664242
0.00434822837182722
0.00464136639812831
0.00488770203408817
0.0050901901309694
2.38133157583499e-06
0.000118617522686484
0.000426655482621463
0.000824518621249604
0.00126027053463796
0.00171043496842952
0.0021633554663295
0.00261038303539031
0.00304345955706368
0.00345531756166576
0.00383944612197597
0.00418957577032688
0.004499554249458
0.00476478620492848
0.00498464005248983
0.00516252177482276
2.21688981468324e-05
2.33028274519926e-05
0.000299415240609237
2.47722488718288e-05
0.000305046170373391
0.000803781968155052
2.54782328133569e-05
0.000312342819772238
0.000808724290607211
0.00138512134642471
2.47916173073117e-05
0.000315641245387602
0.000814709226422512
0.00138470601580432
0.00196592600578745
2.30965554617297e-05
0.000311621808863848
0.000814840163739442
0.00138238094630122
0.00195778662937209
0.00251003489936048
2.10310800121197e-05
0.000301454268310229
0.000804484137729577
0.00137248330117165
0.0019438991494306
0.00249343253647674
0.00300290681805071
1.88841309008721e-05
0.000287942115264233
0.0007841734434141
0.00135087105871542
0.00192002855280933
0.00246716346214248
0.00297841776183624
0.00344098130763999
1.66853879228252e-05
0.00027268390700193
0.000756865219383179
0.0013173539666182
0.00188322310476067
0.00242811029656488
0.00294063494632923
0.00340935476497771
0.00382573168247354
1.44318073469586e-05
0.000255968682536038
0.000724628252331098
0.00127389215726087
0.00183310783745145
0.0023743515708749
0.0028870264015359
0.00336127338919551
0.00378713681086003
0.00416021521230778
1.21566097341771e-05
0.000237677619105455
0.00068811855896069
0.0012220643640381
0.00177067783053219
0.0023055979879009
0.00281622614863064
0.00329418131745528
0.00372935284450188
0.00411424624239467
0.00444752453952551
9.91635157069689e-06
0.00021773191728679
0.000647323297803604
0.00116246744884249
0.00169675018961112
0.00222223835798385
0.00272810208681203
0.00320684154332172
0.00364939746276039
0.00404664609729734
0.00439344817304103
0.0046903591297645
7.77881174206792e-06
0.000196153862259042
0.000602043372792701
0.00109506202442154
0.00161152832534255
0.00212446654793891
0.00262283464136447
0.00309929903467416
0.00354591081236462
0.00395387166569951
0.00431547204872888
0.00462729221613977
0.00489103102151977
5.81073676184167e-06
0.000173054198072092
0.000552050295179543
0.00101944622797313
0.00151470982625835
0.00201205151176105
0.00250029835663728
0.00297182759879441
0.00341911777826544
0.00383434566482384
0.0042095285802902
0.00453816312817095
0.00481801723645046
0.00505154759237553
4.05621247202745e-06
0.000148506558734084
0.000496999851083974
0.000934919382174596
0.00140557212031614
0.00188437648622052
0.00235998222614134
0.00282427723870784
0.00326955078834942
0.00368847090287434
0.00407383075073585
0.00441847738018762
0.00471685153503957
0.00496757229449304
0.00517365860528067
2.53310878594094e-06
0.000122263171570612
0.00043608207020772
0.000840294384069541
0.00128292030868639
0.0017404297260455
0.00220106565040604
0.00265606709187839
0.00309722880548798
0.00351709853030131
0.00390895253111388
0.00426628390246721
0.00458269225824085
0.00485337795915539
0.00507761570816954
0.00525885933224533
1.29545065932993e-06
9.36799764729109e-05
0.000367704489191414
0.000733580380229752
0.00114491980039401
0.00157872491174853
0.00202240055108056
0.00246633136678136
0.0029016532760842
0.00332048462695772
0.00371603569147227
0.0040822896744682
0.00441344293332288
0.00470377817961813
0.00494914380635727
0.0051493890721361
0.00530836069711932
2.2362935973641e-05
2.35335291094709e-05
0.000300845099607394
2.50559934565947e-05
0.000306738731325081
0.000807193897424522
2.58145710454527e-05
0.000314329696259559
0.000812685287998228
0.00139110556188715
2.51661667008855e-05
0.000317927680676687
0.000819258761616121
0.00139156451702464
0.00197499779585177
2.3493332111987e-05
0.000314182193721653
0.000819992630497817
0.00139015626477151
0.0019680923388013
0.00252268592308181
2.14396375586352e-05
0.00030425408488844
0.000810220004854151
0.00138119619529159
0.00195548387490389
0.00250771226229306
0.00301964365892417
1.92978145675024e-05
0.000290956636545569
0.000790458415826517
0.00136051083626975
0.00193291600620901
0.00248312225722177
0.00299722255807447
0.0034623536039481
1.70957016174824e-05
0.000275894698173812
0.000763667552260147
0.00132788925236869
0.00189740615967788
0.00244577325584509
0.00296156803642578
0.00343328756052767
0.00385234791027898
1.48280805121424e-05
0.000259346113711186
0.000731912445900633
0.00128528060623284
0.00184855306416055
0.00239371071545299
0.00291011544559721
0.00338784437091516
0.00381686840360921
0.00419275284009433
1.2528518052996e-05
0.000241183204745621
0.000695834671323558
0.00123424839898089
0.00178732944128187
0.00232661353127242
0.00284145994217977
0.00332342462625012
0.00376230314120239
0.0041505259642292
0.00448673517103803
1.02545210151889e-05
0.000221325304438104
0.00065540083670788
0.00117536764463426
0.00171452651801793
0.00224483822613429
0.00275543019634054
0.00323874171555824
0.00368561245295245
0.00408680542559651
0.0044371095329484
0.00473707017529547
8.07505160055413e-06
0.000199781625514388
0.000610406921222547
0.00110857005714994
0.00163031328006827
0.0021485390755211
0.00265216299861811
0.00313379065936511
0.00358537129966605
0.00399797482517137
0.00436376534216391
0.0046792554603016
0.00494614520417806
6.05862951308555e-06
0.000176649128751192
0.000560581517653762
0.00103342297733756
0.00153434008163469
0.00203743167374669
0.00253147611985729
0.00300878756144867
0.00346174023633047
0.00388237263248551
0.00426254418929299
0.0045956140885122
0.00487928831286275
0.00511604105774116
4.2509503032063e-06
0.000151991801873529
0.000505568220124589
0.000949179544475093
0.00142582585154334
0.00191082847310453
0.00239278378976669
0.0028635076696949
0.00331517883717303
0.00374032101917474
0.00413155622871947
0.0044815473957716
0.00478458691806318
0.00503924188554228
0.00524857597329395
2.67355932423767e-06
0.000125579008332131
0.000444577828951702
0.000854619630834642
0.0013035113853108
0.0017676398814972
0.00223517804769143
0.00269728304474878
0.00314562509014208
0.00357259610150262
0.003971290744987
0.00433499859662707
0.00465710797511594
0.00493265766675637
0.00516088057178065
0.00534531885075743
1.38217920109907e-06
9.6748918103539e-05
0.000376001181741438
0.000747711977949185
0.00116548812541589
0.0016062929889787
0.00205743199675755
0.00250917246970347
0.00295251677999371
0.00337940861848328
0.00378285798499027
0.00415663031576994
0.00449469032279443
0.00479108751242423
0.00504149017671959
0.00524568032312387
0.00540757827568121
4.96201564332784e-07
6.490517840401e-05
0.000297091135904427
0.000625250586883915
0.00100895229647307
0.00142462270144945
0.00185793678677451
0.00229800313657046
0.00273503367129549
0.00316040054941452
0.00356675498726154
0.00394784270507932
0.00429814062476694
0.00461228080178578
0.00488492178603501
0.00511229541613877
0.00529469006218477
0.00543637120253521
2.37399127786078e-05
0.000302059180829881
2.53021336765027e-05
0.000308198016088214
0.00081010819395012
2.61088047857977e-05
0.000316064537668039
0.000816126232541137
0.00139626715824714
2.54995550231626e-05
0.000319945782369829
0.000823261069044993
0.00139756894287402
0.00198289153438987
2.38511517272422e-05
0.000316463937435415
0.000824568991037113
0.0013970360115545
0.00197716861783364
0.00253377088005248
2.18113865222804e-05
0.000306768601097679
0.000815352472043496
0.00138896669187176
0.00196577661845351
0.0025203472913768
0.00303439083212765
1.96769339617911e-05
0.000293679490845793
0.00079611437973667
0.00136915985790304
0.00194444166465181
0.00249734572610413
0.00301392345313457
0.00348126997236215
1.74746247591412e-05
0.000278809025703527
0.000769816834193203
0.00133738623869789
0.00191015479063186
0.00246160200635975
0.00298026980913507
0.00345460579718789
0.00387599020680505
1.5196174850381e-05
0.000262427942378162
0.000738524674642282
0.00129558647852717
0.0018624916695279
0.00241113306160615
0.0029308369830966
0.00341162663987398
0.00384341343989633
0.00422173738268192
1.28752191456744e-05
0.000244393968732434
0.000702864048487338
0.00124531071781628
0.00180240511569038
0.00234558904598125
0.00286418470253741
0.00334969457017383
0.0037918345121879
0.0041829743196668
0.00452174196779026
1.05704562191744e-05
0.000224621984000082
0.000662781962023731
0.00118711185251732
0.00173066176166992
0.00226529666289289
0.00278010574257341
0.00326747629178714
0.0037181618071758
0.0041228296415304
0.00447621004484906
0.00477884313363642
8.35300984836786e-06
0.000203120029277301
0.000618060634071053
0.00112089350869057
0.00164739816194307
0.00217037335211814
0.00267869660401183
0.00316492111541372
0.00362090939162067
0.00403761898134084
0.00440710777145641
0.00472583200830909
0.00499549570437816
6.29239294857851e-06
0.00017996365661184
0.000568404042365879
0.00104619110845509
0.00155222112168761
0.00206048606317969
0.00255972308798675
0.00304219212718141
0.00350017832057373
0.00392560280904314
0.00431019068615171
0.00464718556021448
0.0049342405636931
0.00517384579600518
4.43493878919379e-06
0.00015521170600199
0.000513414941167516
0.000962210579828549
0.00144429328840704
0.00193488160003259
0.00242252983158205
0.00289899441668232
0.00335635949592018
0.00378702588546286
0.00418347069196096
0.00453820111255061
0.00484538512484666
0.00510354412992794
0.00531577601635447
2.80442910143827e-06
0.00012862548987933
0.000452318457045816
0.000867691413386865
0.00132228648731849
0.00179238682581371
0.00226611830697224
0.00273456779906097
0.00318930166212494
0.00362257937139109
0.00402734113835508
0.00439670366466823
0.00472387834753397
0.00500377073657645
0.00523558107826051
0.00542291556007833
1.46259487357164e-06
9.95223609882741e-05
0.000383449419648047
0.000760535913400016
0.0011842010453588
0.00163132959166741
0.00208915471697615
0.00254786266504276
0.00299833817573059
0.00343237859653982
0.00384282497366216
0.00422325656433325
0.00456743787042975
0.00486922027564288
0.00512412829750697
0.00533192493429023
0.00549664050248356
5.32708710985511e-07
6.72746744655962e-05
0.000304054308043593
0.000637472621856595
0.00102713439212948
0.00144943299381121
0.00188992314957893
0.00233760512381998
0.0027825552642932
0.00321598769656526
0.00363036246377671
0.00401921762882733
0.00437681457030478
0.00469756366205176
0.00497590974907165
0.00520792564803652
0.00539385690197991
0.00553806437483714
9.81366678330045e-08
3.23171907542356e-05
0.00021065683103586
0.000494390301113339
0.000847329026603117
0.00124378012424864
0.00166632114561776
0.00210230323158241
0.00254091427829242
0.00297274420698505
0.00338979773798714
0.00378533525582775
0.00415365123317851
0.00448971136279451
0.00478855409754076
0.00504517939567072
0.00525616843510979
0.0054222236070747
0.00554800311835966
2.55230325729208e-05
0.000309438038539407
0.000812529148707841
2.6364442200928e-05
0.000317561833102169
0.000819065931639834
0.00140062853396715
2.57910504723564e-05
0.00032170761767344
0.000826737824245943
0.00140274768595578
0.00198964424738016
2.41696028485562e-05
0.000318477519445148
0.000828593820760702
0.00140305764979952
0.0019850655541217
0.00254335351815925
2.21471294269023e-05
0.000309009645010812
0.000819910313093738
0.00139584087034323
0.0019748405399534
0.00253141797098224
0.00304724641327206
2.00222592095251e-05
0.000296125075904343
0.000801175025751491
0.00137687250286439
0.00195468095062404
0.00250993031767492
0.00302863876788613
0.00349786922692766
1.78225862335891e-05
0.000281442380828727
0.000775350755684392
0.00134590691954425
0.00192155595013665
0.00247570934113011
0.00299687914903127
0.00347347417255886
0.00389684796911442
1.55367141769736e-05
0.000265229044524824
0.000744504236286543
0.00130487772012959
0.00187502122226062
0.00242674688631852
0.00294935074661866
0.00343281136908203
0.00386699275636684
0.00424741790947064
1.31974941865151e-05
0.00024732631522887
0.000709249229493722
0.00125532474801215
0.00181601238660574
0.00236266814351574
0.00288458138675644
0.00337320935989154
0.00381820194652939
0.00421187971539093
0.00455286306400653
1.08654798800127e-05
0.000227641215550094
0.00066951146988939
0.00119777929886596
0.00174527368166937
0.0022837727915429
0.0028023315836296
0.00329329291761905
0.00374733683792796
0.00415505122930583
0.00451111862185505
0.00481607897709588
8.61295142869642e-06
0.000206184911689521
0.000625052687264418
0.00113211716278048
0.00166291075400644
0.0021901442136726
0.00270266087768011
0.00319296862126505
0.00365285613713889
0.00407318508267419
0.00444592469875249
0.00476748491523428
0.00503957688011149
6.51189463218939e-06
0.000183013818314259
0.00057556787939361
0.00105784150711384
0.00156849030776748
0.00208140465781272
0.00258528755510651
0.00307235141616801
0.00353480511563893
0.00396446992519561
0.0043529571378529
0.00469341258040244
0.0049834454135576
0.00522556187025483
4.60843565964853e-06
0.000158179313666197
0.000520614396843083