/*--------------------------------*- C++ -*----------------------------------*\
  =========                 |
  \\      /  F ield         | OpenFOAM: The Open Source CFD Toolbox
   \\    /   O peration     | Website:  https://openfoam.org
    \\  /    A nd           | Version:  12
     \\/     M anipulation  |
\*---------------------------------------------------------------------------*/
/*   Windows 32 and 64 bit porting by blueCAPE: http://www.bluecape.com.pt   *\
|  Based on Windows porting (2.0.x v4) by Symscape: http://www.symscape.com   |
\*---------------------------------------------------------------------------*/
FoamFile
{
    format      ascii;
    class       volScalarField;
    location    "400";
    object      omega;
}
// * * * * * * * * * * * * * * * * * * * * * * * * * * * * * * * * * * * * * //

dimensions      [0 0 -1 0 0 0 0];

internalField   nonuniform List<scalar> 
10116
(
2.46684080289412
2.46683937620765
2.38167915593664
0.675417546926383
2.46684296055528
2.38166561584907
0.680455033003767
2.28699598870675
0.660271523258092
0.377564354153605
2.46683873864376
2.38168115142711
0.685019651991869
2.28698408871966
0.665211780880046
0.381397616126407
2.21611155685982
0.641153648848438
0.373158673673867
0.276041837841462
2.46684018393712
2.3816768863936
0.689166806723083
2.28699529407819
0.669715075086983
0.384886916866391
2.21610866980698
0.645966238976796
0.376926916403514
0.279061527603811
2.18722004162014
0.625320785413071
0.366614376872682
0.27444572371558
0.228662810809969
2.46684036137273
2.38167831457462
0.692934922931141
2.28700715071431
0.673811499787145
0.388068594031291
2.21610777623832
0.650369367891675
0.380378473427911
0.281819435408328
2.18721680669061
0.630014225273561
0.370301876952272
0.277421918897642
0.231181504939714
2.18619056140802
0.615751622628119
0.360125277947684
0.271669387958253
0.228040317920048
0.202813974944082
2.46684027355081
2.38167882394126
0.696355097470238
2.28699488805213
0.67753461347135
0.390967796278618
2.21611981621152
0.654381732075825
0.383530723079048
0.284343424721321
2.18721638577025
0.634316778016927
0.373694622059672
0.280158368753317
0.233491750121998
2.18618866139388
0.620354901956371
0.363735513143612
0.274593691272226
0.23052650667671
0.205000192731026
2.19192356688865
0.610287766031024
0.354892135347602
0.268397831621494
0.22669896470031
0.202566025922795
0.187422809623809
2.46683995439073
2.38167884349941
0.699454064197017
2.28699535625915
0.680915563275277
0.393605143890502
2.21610859319903
0.658029296522195
0.386404717323807
0.286650427276965
2.18721731502461
0.638242715837478
0.376798971061653
0.282667183572046
0.235615151550359
2.18619094853945
0.624581256012586
0.367065409207714
0.277295570871785
0.232823542441092
0.207015869031902
2.19192438861071
0.614822852379064
0.358438305966179
0.27127305743938
0.229148260669754
0.204725533228676
0.189372550870813
2.19484406644401
0.605422537014898
0.350620792095717
0.265162800694013
0.224843544168865
0.201832593515032
0.187308347002504
0.177787069914107
2.46683978504417
2.38167839094607
0.702254697969768
2.28699536226502
0.683980173506103
0.395998364927569
2.21610912826935
0.661342918273124
0.389020037466907
0.288754115035751
2.18721854171178
0.641814038520305
0.379631549477266
0.284961789791216
0.237563096099282
2.18619249795843
0.628440164146799
0.370116556880137
0.279778155954068
0.234938961633868
0.208877514646723
2.19192763990854
0.61899397263109
0.361714140968973
0.273936210404366
0.231423364635434
0.206732193186435
0.191180407978133
2.19484900882524
0.609890526902255
0.354113210101661
0.267996656922419
0.227259822423211
0.203963470184936
0.189234484123626
0.17955918972729
2.19511644958611
0.599298286490838
0.346423901971097
0.262039681057387
0.222712694397147
0.200662619654486
0.18683329854222
0.177714367068754
0.171604206555872
2.46683990677036
2.38167804636786
0.704777433884565
2.28699488697729
0.686750512906591
0.398163130972929
2.21610902010285
0.66434767983097
0.391393926170835
0.290666499993665
2.18721893297476
0.645058975421038
0.382210361623299
0.28705483603189
0.239344670659874
2.18619332334242
0.63195360401004
0.37290295186775
0.282051128577597
0.236880953796793
0.210592434238714
2.19192922591298
0.622804854547133
0.364718209554518
0.27638738624687
0.233523786703208
0.208589436856046
0.192858771984589
2.19485127197041
0.614010690095992
0.357344507479694
0.270624076052615
0.229510168975347
0.205955056962364
0.191035390819105
0.181212112483259
2.19512173051142
0.603689210634847
0.349865986364065
0.264838927999249
0.225102431641066
0.202769971858703
0.188735505257945
0.179464578768726
0.173237382620621
2.19479106206845
0.591659521404929
0.341708980360131
0.25883264941735
0.22043732648678
0.199177594189034
0.186008462744104
0.177351277285203
0.17154664041016
0.16763152651663
2.46684022002074
2.38167802958593
0.707040617147941
2.28699449508457
0.689246509420562
0.400113547379933
2.21610859564203
0.66706492511962
0.393541697110547
0.29239857097789
2.18721863028617
0.648002353010672
0.384551982658956
0.28895792736212
0.240968136671071
2.18619296407863
0.635146261215997
0.375440913355563
0.284125612261274
0.238657659549782
0.212166371878608
2.19192935559213
0.626275583508978
0.36746349116488
0.278633975707927
0.235454280322596
0.210301576598953
0.194411742969667
2.19485490421041
0.617778706549539
0.360309685743346
0.273044712951167
0.231591705882442
0.207803302083616
0.192711044807587
0.182754811789961
2.19512424883346
0.607751563743776
0.353056184958152
0.267435501143702
0.22732986075871
0.204745122838793
0.190525124313444
0.181111550663882
0.174769842057804
2.1947964491521
0.595964275731493
0.345099239535889
0.261600824481034
0.222806279450528
0.201268251171016
0.187893018441254
0.179080354131034
0.173158911333301
0.169152958797687
2.19479622405428
0.582688965434645
0.336292263645247
0.25536709203433
0.218037192379924
0.197504403754917
0.184917955830575
0.176714545268484
0.171242244583002
0.167585068428892
0.165143860998794
2.46684052630004
2.38167823826378
0.709060717875354
2.28699438130914
0.691486029028034
0.40186254484741
2.21610826886637
0.669513725363002
0.395477186632241
0.293960510077427
2.18721838558272
0.650665102614306
0.386671279333474
0.290681837397104
0.242441374397541
2.18619245882425
0.638042113274619
0.377746323593882
0.286012534992315
0.240276980962922
0.213604832468944
2.19193017652708
0.629430205106685
0.369965010746837
0.280685725229453
0.237221567612478
0.211873476476227
0.195842469198498
2.19485246846861
0.621210997701285
0.363020197007265
0.275265069617178
0.233507117932808
0.209509285166936
0.194262717242138
0.184188825889693
2.19512998790003
0.611471531457781
0.355986003292507
0.269828864914515
0.229392316492303
0.206581874209758
0.192195015338673
0.182652338183143
0.176207772947641
2.19479898194182
0.599958351613956
0.348245868140369
0.264169748255952
0.225014383961782
0.203229233051275
0.189671325471405
0.180718214333769
0.17468597998164
0.170588961840649
2.19480165421141
0.586913627071687
0.339627211992655
0.258105940923421
0.220389650686607
0.199584398873231
0.18679263792285
0.178429848527162
0.172835204045609
0.1690862650457
0.166573929230326
2.19511835084351
0.57244882970828
0.330178709271495
0.251583859424186
0.215506548317535
0.195730945570948
0.183678808534644
0.175884101719131
0.170725808753481
0.167322949978052
0.165109498839694
0.163687191519973
2.46684067564232
2.38167846466504
0.710852636258515
2.28699446389101
0.69348534617437
0.403421983786215
2.21610812657094
0.671711420577584
0.397213068693105
0.295361834038614
2.18721828147891
0.65306574976543
0.388581703750483
0.292236608206379
0.243771980126061
2.1861925995857
0.640663132773767
0.379833633338637
0.287722295776142
0.241746629283463
0.214913397928101
2.19192560145426
0.632291927937812
0.372237862871486
0.282552831884106
0.238832914952804
0.213310318143049
0.19715428501973
2.1948527181049
0.624331213688351
0.365490761690763
0.277294021339178
0.235261893405357
0.211076538451827
0.195692710561069
0.185515157573067
2.19512531012005
0.61486108614997
0.358664626251
0.272025163661651
0.231291785916529
0.208279372800097
0.193743369215321
0.184085725289921
0.177550545246332
2.19480477306468
0.603620711719021
0.351138968192786
0.266538217476134
0.227059696203614
0.205054707691742
0.1913342194166
0.182255060309826
0.176122421944175
0.171943443537606
2.19480411277543
0.590832557592463
0.342727790901924
0.260648174552415
0.222581809820348
0.201534994903029
0.188562880037227
0.180059747749972
0.174354563909381
0.170517262404188
0.167931233024129
2.19512371954644
0.576592388207884
0.333454768216639
0.254293884778478
0.217845849018305
0.197805459110224
0.185550598669284
0.177594548406188
0.172307780840192
0.168806155409314
0.166519815591675
0.165041947119928
2.1948478584119
0.560818176650376
0.323415316192159
0.247518487606156
0.212875162582347
0.19392365063129
0.182397191751803
0.174971355759799
0.170084900229427
0.166897734833648
0.164884659443611
0.163665668997247
0.162958967090802
2.46684064221503
2.38167856149577
0.712429750308493
2.28699458411622
0.695259241813974
0.404802691780533
2.21610811195761
0.673673803058551
0.398761028712336
0.296611414138694
2.18721813548526
0.655220910436914
0.390295579747798
0.293631645094419
0.244967259577957
2.18619290281801
0.64302727227765
0.381715972255572
0.289264689513101
0.243074108222231
0.216097774635273
2.19192819025174
0.634882240416433
0.374296427270528
0.284245260336952
0.240295709963424
0.214617545034117
0.198350973273392
2.19484585270533
0.627162022798362
0.367735929967775
0.27914113039197
0.236862615108068
0.212509660136772
0.197004060572107
0.186735365051603
2.1951233359375
0.617942939019912
0.36110634717521
0.274032915271613
0.233033049358474
0.209840009339572
0.19517122151057
0.185411908953776
0.17879739638953
2.19480015470226
0.606959290040176
0.353785163163479
0.268712126267018
0.228944205264212
0.206743221432818
0.192878057487299
0.18368669976956
0.177464924341167
0.17321394694487
2.19480992350875
0.594427133037096
0.345579946770776
0.262992765200574
0.224612318681282
0.203351275263101
0.190219919434499
0.181592508093318
0.175788223572023
0.171870549386987
0.16921779416785
2.19512596666166
0.580433231919596
0.336507169988663
0.256809957302437
0.220024904400245
0.19974971211479
0.187317401896841
0.179220857550419
0.17382158224264
0.170230477790729
0.167872427246631
0.166334287307716
2.19485291589123
0.564856440363502
0.326622218175224
0.250199354097849
0.215204732245275
0.195997541356059
0.184272363541029
0.176685098931904
0.171665919283453
0.168372108840135
0.166278009321171
0.165001044640456
0.164251498665453
2.19192765331609
0.547490301941503
0.316055895288127
0.243278382004104
0.210235992649361
0.192168514160347
0.181170504241174
0.174085531781483
0.169429977315582
0.166407467302332
0.164536303977053
0.16347534118057
0.162950036731294
0.162747297410013
2.46684050039522
2.38167850858917
0.713804050916234
2.28699462096519
0.696821049713166
0.406014540046577
2.21610814042867
0.67541533745136
0.400131774723755
0.297717470842711
2.18721799056135
0.65714585580258
0.391824289236319
0.294875734261215
0.246034194189756
2.18619273279667
0.645150614931078
0.383405305182504
0.290648925421631
0.244266664378209
0.217163648648586
2.19193103762335
0.637220023938749
0.376153618426895
0.285772531673916
0.24161726632921
0.215800776077226
0.199436725495305
2.1948509122686
0.629725022026954
0.369769748823847
0.280816033977762
0.2383162780587
0.213813811103004
0.198200423355772
0.18785176806354
2.19511801965706
0.620739360764492
0.363325550656756
0.275861285758604
0.23462216850683
0.211267760854937
0.196481064820389
0.186632159218557
0.179948329506301
2.19479808419679
0.609996371470519
0.35619736862414
0.270699826675911
0.23067245184514
0.208296552256761
0.194302802747335
0.185012112609472
0.178711927589439
0.17439814325288
2.19480540488336
0.597701045808223
0.348190762149783
0.265144981312662
0.226483420642733
0.205031908149797
0.191759575682945
0.183022178890984
0.177129971986862
0.173141042371254
0.170429675268832
2.19513163075226
0.583956686566762
0.339316420079584
0.259130749411111
0.222042810703261
0.201559675101768
0.188971427646944
0.180751720694578
0.175253237515299
0.171581842128669
0.169158063919217
0.167564848725369
2.19485255486382
0.568621794192053
0.329626544778261
0.252690330121616
0.217373353656989
0.197939543439658
0.186040715209981
0.178313504605072
0.173179606364542
0.169792745992795
0.167624777348221
0.166288969927436
0.165489994608022
2.19193032253663
0.551402305543488
0.319191419781583
0.2459316411777
0.212559123756818
0.194247032023724
0.183055321092194
0.175810053888604
0.171019368124734
0.167884051808375
0.165922564642546
0.164794577978733
0.164223454561361
0.163988521584099
2.18619316583205
0.532047602777159
0.308219337319481
0.239067180971777
0.207765943609918
0.190607637393603
0.180118992786754
0.173337818428592
0.168870476259206
0.165964656206845
0.164172434294054
0.163194430817012
0.162791311964317
0.162750036279955
0.162898226040932
2.46684034403216
2.38167837977611
0.714986415429599
2.28699455104593
0.698182814244134
0.407066537986239
2.21610812019581
0.676949236175721
0.401335092719321
0.298687629977156
2.18721795804653
0.658854485220853
0.393178313503451
0.295977028604103
0.24697940194842
2.18619237837851
0.647047776716557
0.384912652356575
0.291883625082132
0.245331235159403
0.218116676671785
2.19192892420189
0.639320708895901
0.37782115640933
0.287143624542137
0.242804705030778
0.216865671468913
0.200415968344032
2.19485649617563
0.63203829113303
0.371605256923609
0.282328017264779
0.239629959196059
0.214994451529629
0.199285924681602
0.188867215496078
2.19512317259869
0.623271862416524
0.365336066292386
0.277519622571557
0.23606580684572
0.212567445251927
0.19767629945854
0.187748681058977
0.181004365458685
2.1947923848653
0.612752752482569
0.358389760632359
0.272510288881031
0.232250218484653
0.209718237710694
0.195610378951631
0.186232057198125
0.179863185314025
0.175494801864183
2.19480323613488
0.600684138028478
0.350571798987092
0.267113023541427
0.228199688148081
0.206578524593544
0.193181266459945
0.184346720796045
0.178377055780925
0.174325631463407
0.171563294839778
2.19512717403219
0.587164094765131
0.341886757453356
0.261261551118198
0.22390214047247
0.203234437065677
0.190508683825971
0.18218070105993
0.176594832414581
0.172852330016745
0.17037016636364
0.168728487657615
2.19485558276338
0.572069949587377
0.332392567580585
0.25498779788517
0.21938097120223
0.199746441962272
0.187695437395849
0.179846272746667
0.174612436121831
0.171143739251739
0.168909232717067
0.167518845331063
0.16667406416447
2.19193053319912
0.555078772997868
0.322140040008256
0.248398382886042
0.214720872443503
0.196191287582119
0.184830500753205
0.177446602838277
0.172539688925022
0.169307401201534
0.167267182830369
0.166077386533486
0.165457768537639
0.165182360252183
2.18619326213848
0.535820000290066
0.311281588903458
0.241695972459989
0.210088457410264
0.192696932085401
0.182020333532157
0.175080676758034
0.170476895421616
0.167453847931854
0.165563524897321
0.164508009058646
0.164049247256992
0.163972332037245
0.16409732039878
2.1872225768608
0.514560024599435
0.300252771308404
0.235274332414893
0.205778262615075
0.189476484404812
0.17942149736592
0.172869514794165
0.168524745696307
0.165679398955424
0.163908925883515
0.162939441225382
0.162570005873095
0.162619626591923
0.162911438106779
0.163296936968311
2.46684022555632
2.38167825929687
0.71598506743117
2.28699443818413
0.699355087254221
0.407966939650323
2.21610802160031
0.678287419198394
0.402379926044328
0.299528984743458
2.18721794616756
0.660359732989199
0.39436728541851
0.296943095996732
0.247809221743583
2.18619237164844
0.64873221608949
0.386248163262335
0.292976813765364
0.246274402982569
0.218962296245196
2.19192635636024
0.64119858982017
0.379309690108384
0.288366953304411
0.24386486604905
0.217817860452901
0.201293222698709
2.19485263827251
0.634117882900096
0.373254035362282
0.283685868015323
0.240810614791238
0.216057154815094
0.200264983859501
0.189785105956595
2.19512727738939
0.62555782265458
0.367150695367771
0.27901708357252
0.23737082307534
0.213744325001834
0.198760915768524
0.188764284960119
0.181967359073132
2.19479722313122
0.615249320593964
0.360375996216257
0.274152659248881
0.2336839424507
0.211012814561039
0.196803882518984
0.187348485618248
0.180919588734687
0.176503862805518
2.19479727009853
0.603393927748461
0.352735733253787
0.268905766392621
0.229766820811628
0.207994471950354
0.194486538823197
0.185566361757983
0.179528776495033
0.175422815124357
0.172616342566202
2.19512508842636
0.590079453357487
0.344233261482802
0.263210146419729
0.225607635571148
0.204775775159403
0.191928512359562
0.183505267095709
0.177842635139474
0.174037684260338
0.171504384134911
0.169820586132974
2.1948532106827
0.575207875360543
0.334923411790062
0.257097313487644
0.221230440885493
0.201417877896424
0.189233041923782
0.181277206692288
0.175956048987246
0.172415498557241
0.170121977442946
0.168682918656915
0.167797636219373
2.19192744641621
0.558449466264443
0.324864544467714
0.250674868028132
0.216721098393708
0.197998922435501
0.186490212924708
0.178985927940242
0.173978456061483
0.170662075090741
0.168552635955803
0.167306710123745
0.166641364259959
0.166327719439753
2.18619471361911
0.539389772380241
0.314173302565673
0.24414180210006
0.212247718169382
0.194648899259888
0.18380830103258
0.17673179431065
0.172010937962659
0.168887628300251
0.166913216095761
0.165789985813976
0.165279046925644
0.16516218014094
0.165254195652341
2.18721940471083
0.518164770698729
0.303243101979185
0.237884842369932
0.2081081419215
0.19158498387277
0.181347642374848
0.174639099288916
0.170156969026086
0.167190930559874
0.165316186043509
0.164260029995505
0.163823480005639
0.163826954246771
0.164091722575283
0.164461631429317
2.2161134346418
0.49689846997227
0.293216775263876
0.23270406975542
0.204838701183322
0.189169639350353
0.179358659268746
0.172886034434337
0.168547836440664
0.165674777656038
0.163857241869685
0.162829821620929
0.162409685504883
0.162450750119237
0.162805973238527
0.163319388414851
0.163856152841789
2.46684015387546
2.38167818723332
0.716805012702748
2.28699435520286
0.700345300083031
0.408723114936338
2.21610791189308
0.679439930775022
0.403274366958424
0.30024836654914
2.18721777354698
0.661673355539771
0.395399994704411
0.297780975409822
0.248529423769403
2.18619245982691
0.650216526670885
0.387421233555883
0.293935949238901
0.247102450585237
0.219705742765799
2.19192844307735
0.642866663941421
0.380629048975003
0.289450367095356
0.244804258897669
0.218662781111444
0.202073062331495
2.19485008024361
0.635977987384249
0.374726571527527
0.28489780079183
0.241864955200495
0.217007465155898
0.20114209762181
0.190609113794844
2.19512818885931
0.627612337882236
0.368781148032632
0.280362326525994
0.238544018218329
0.214803848624172
0.199739280689414
0.189682340039647
0.182839800148224
2.19479932936694
0.617503036385403
0.362168615257312
0.275635936918297
0.234980330509915
0.212185366712724
0.197887141576622
0.188364155725147
0.181882949413142
0.17742627831395
2.19480176472533
0.605849430059027
0.354695874719693
0.27053219538766
0.231191142511773
0.209284130190688
0.195678256070339
0.186682773264413
0.180585782074662
0.176432423027941
0.173587842455333
2.19511913237263
0.592730910245941
0.346367069698604
0.26498523396111
0.227165045280738
0.206187051957845
0.19323234039425
0.184725315277783
0.178995443312733
0.175135911176052
0.172558138000589
0.170837935405403
2.19485171209349
0.578058787154421
0.33723129500569
0.259026928720722
0.222926722944942
0.202955946902424
0.1906530978918
0.182603757162191
0.17720626192688
0.1736028512052
0.171257524080283
0.169775806405284
0.168855263426483
2.19192862319553
0.561514119134459
0.327357482450945
0.252764899491734
0.218563340076723
0.19967021962304
0.188031632406991
0.180422402270272
0.175327593482774
0.17193806833211
0.169767885334385
0.168471990612044
0.167765564352153
0.167417840761431
2.18619094240793
0.542676359094171
0.316854942511425
0.246400259039729
0.214245190750742
0.196462131062614
0.185478082779657
0.178282987081824
0.17346122326409
0.170251623243577
0.168204454133363
0.167021485154465
0.166462639966998
0.166307249144556
0.166367312144391
2.18721884687694
0.521612046032063
0.306087442330059
0.240317221528556
0.210272791795693
0.193552000420303
0.18315564776128
0.176312049213698
0.17171223705179
0.168643188787462
0.166679521532997
0.165549083376632
0.165053547447191
0.16501278800774
0.16524475953386
0.165588031442547
2.21610968677025
0.500298734331866
0.296144747293213
0.23530932383378
0.20718879213218
0.191309034009066
0.181320116208646
0.174692305301479
0.170215582877881
0.167218532692636
0.165291359564064
0.164169577507155
0.163672010427141
0.163654583342088
0.163971680533795
0.164465337528033
0.164992993947023
2.2869972684867
0.485291467248167
0.290250127465958
0.233162315463716
0.206035389363908
0.190373974191562
0.180385103955168
0.173701498874446
0.169164196588584
0.166115460738602
0.164144164776463
0.162978690965756
0.162433053224892
0.162372852950729
0.162682878967275
0.163235656624015
0.163886692810213
0.164508438975635
2.38167816861927
0.717455652103802
2.28699432764512
0.701156119165531
0.409342263798631
2.2161078606209
0.680412428288581
0.40402546194158
0.30085188252157
2.18721759841153
0.662804981959112
0.396284264126431
0.298497379739235
0.249145654569007
2.18619214144988
0.651512203636882
0.38844044594347
0.29476797128031
0.247821179045867
0.220352090942332
2.19193069383333
0.644337034656728
0.381788358805004
0.290401177378196
0.245629051381685
0.219405642266098
0.202760005334943
2.19485224688886
0.637631550398099
0.376032370933571
0.28597148040222
0.242799383903176
0.217850843009256
0.201921836460992
0.191343097481574
2.19512591424171
0.629451138778488
0.370237914045999
0.281563439129839
0.23959197472718
0.215751476115819
0.20061586785964
0.190506516796996
0.183624652929382
2.19480698275924
0.619529126058775
0.363779063070243
0.276968725437462
0.236146069197848
0.213241223648861
0.198864413086646
0.189282341468069
0.182755745337391
0.178263791090183
2.19480358136484
0.608066540393315
0.356464710514852
0.272001148006369
0.232479260795245
0.210452472309218
0.196760105175185
0.187698609630821
0.181549788937952
0.177355364146604
0.174477969611158
2.1951233616461
0.595139147566893
0.348299999595512
0.266595661298113
0.228580664799343
0.207472619102888
0.194422934109962
0.185842326569087
0.180053693642258
0.17614663423772
0.173530345354114
0.171778786340638
2.19484823000087
0.580646602547269
0.339331329826115
0.26078483486692
0.224475684968869
0.204364177500126
0.191957127250108
0.183825755177264
0.178361569701126
0.174703303736724
0.172312820961636
0.170794032374396
0.16984300247197
2.1919282280851
0.564299141944171
0.329630782135999
0.254676550448261
0.220252734658471
0.20120770170753
0.189454744076927
0.181753770660829
0.176582944838785
0.173129791955652
0.170906506379559
0.169566710255519
0.16882415613068
0.168446635643796
2.18619182441514
0.545661745062668
0.319315862391858
0.248475205158732
0.216084228347235
0.198137550813792
0.187027635468434
0.179729373279137
0.174820299818784
0.171536144845423
0.169425838743472
0.168190321917581
0.167588545526877
0.167398169516123
0.167429427688692
2.18721766922195
0.524795168422853
0.308730408783419
0.242565123930212
0.212274132676102
0.195377443127482
0.184841881717585
0.177881345530662
0.173180310097413
0.170022942998975
0.167982958831024
0.166788197446377
0.166240325061718
0.166158324876306
0.166357739830484
0.166674324413956
2.21610871984906
0.503599555776363
0.298959993840493
0.237743209103076
0.209371310899646
0.193301812691742
0.183157655573874
0.176395860671892
0.171800516199981
0.168697755424803
0.166677241277181
0.165475002202959
0.164910854231683
0.164841606002842
0.16512110941183
0.165588014256787
0.16609443778604
2.28698419106163
0.488463710093794
0.293145226548118
0.235787845643192
0.20842789437066
0.192561825900861
0.182396542507874
0.175556992226399
0.170878922529784
0.167702342799595
0.165616009366381
0.164349133695492
0.163717065424738
0.163587046379374
0.163845864954854
0.164367314750922
0.165004807409986
0.165623174494782
2.38167969099607
0.511121438818469
0.301427539122515
0.241100263745013
0.211641251137542
0.194363453679857
0.183273047413037
0.175814898062754
0.170712680963885
0.16723977324904
0.164941496339036
0.163515888808547
0.162754822152268
0.162511385487325
0.162676552707296
0.163152283493791
0.16382178667255
0.164546087746445
0.165200482140093
2.28699435779735
0.701797583982747
0.409835350620006
2.21610786296679
0.681206233935536
0.404639783941732
0.301345938693373
2.18721763936476
0.663759129098621
0.397026629184531
0.29909843451448
0.249663355151061
2.18619183029496
0.652628593890465
0.389313378165183
0.295479371584866
0.248436164724899
0.220906200245534
2.19192815865758
0.645620940906315
0.382795972252105
0.291226190669851
0.246345101741765
0.220051497506336
0.203358455885746
2.19485451046682
0.639090061473189
0.377180283513527
0.286914060868136
0.24361996846085
0.218592418680517
0.202608703259611
0.191990975453713
2.19512590061767
0.631087110975033
0.371530433030935
0.282627926254001
0.240520984308242
0.216592584461811
0.201395195524092
0.191240662156702
0.184325153732293
2.19480490985426
0.621342001996291
0.365218191611217
0.278159060313923
0.23718764713582
0.214185761904865
0.199740166328696
0.190106693006479
0.183540922851311
0.179018711377796
2.1948049626262
0.610060931178255
0.358053478520677
0.273321116355238
0.233637794916844
0.211504749128993
0.197736254883728
0.188617059575079
0.18242322811387
0.178193362728652
0.175287803960058
2.1951248445159
0.597316723127433
0.350043894124213
0.268050135649489
0.229861047325766
0.208637416009619
0.195503913851739
0.186858835682793
0.181018954568187
0.177070669582118
0.174421138680297
0.17264264105882
2.19485011945575
0.582993805772902
0.3412360651314
0.262379777833905
0.225883662055101
0.205646997476499
0.193147939416073
0.18494463095927
0.179422287396808
0.175716253872958
0.173286583665347
0.171735740593236
0.17075845503126
2.19192921889522
0.566827626600026
0.331697978872242
0.256418664694076
0.221795295268881
0.202615169268983
0.190761325426358
0.182980024192134
0.177742985673457
0.174234510561351
0.171964983455612
0.17058692633542
0.169812928620599
0.169409575100687
2.18619271536672
0.548376697989415
0.321559726490318
0.250373279218457
0.217770482707974
0.199678186442123
0.188457493274542
0.181069191681273
0.176084359254113
0.172735659479241
0.170570524564353
0.169289055079665
0.1686494175671
0.16842808536464
0.168433980831659
2.18721426789469
0.527698479585023
0.311164360487797
0.244631623079068
0.21411682578465
0.197063054232606
0.18640517931905
0.179342990996687
0.174554548848334
0.171321170231581
0.169215444675485
0.167964796404843
0.167370700895999
0.167251384604705
0.167420801042599
0.167712952304683
2.21610684513456
0.506663767673621
0.301588845194567
0.239995467769594
0.211388653149475
0.195149264165836
0.184868866157338
0.177990978698824
0.173293658624777
0.170100412516993
0.168000081861942
0.166728807025404
0.166106799559871
0.165991186925861
0.166234952374873
0.166674294797698
0.167158465786148
2.28700717368183
0.491615745045264
0.295970322803803
0.238252583923705
0.210649825394387
0.19459694798814
0.18427668429277
0.177302377775083
0.172503609297305
0.169218023039983
0.167033802040927
0.165680582311403
0.164974627107638
0.16478427263099
0.164997241872223
0.165486702402929
0.166102602896028
0.166704468430327
2.38166628498341
0.51422343663039
0.30430012078141
0.243790684109564
0.214115465508952
0.196628355639146
0.185355607824249
0.177736523637706
0.172488660711019
0.168882558863648
0.166463025777924
0.164928755495935
0.1640727461675
0.16374936940882
0.163851132223117
0.16428182680432
0.164925803959699
0.165642059975941
0.16629901801159
3.68516441843931
0.823172222933468
0.370847693090772
0.269165205206207
0.226910553329453
0.203706224622243
0.189422222158839
0.180059623696747
0.173725165461554
0.169405051256801
0.166497967380317
0.164618728164042
0.163507348210416
0.162982399597833
0.162914720660132
0.163207875659959
0.163772716836623
0.164497519685029
0.165244662298559
0.165887923189347
2.21610790843142
0.681833040065845
0.405128896495809
0.301739909178975
2.18721771688427
0.664536622695885
0.397632951786649
0.299590298401336
0.250087930384501
2.18619206547132
0.653569905160312
0.390046146129052
0.296076299527883
0.24895282419389
0.221372818116171
2.19192566944164
0.646727647710072
0.38365924275057
0.291931728237723
0.24695785116781
0.220605202376279
0.20387274055343
2.19485167505948
0.640364073857003
0.378178440710092
0.287732202066881
0.244332507489751
0.219237215237834
0.20320710616574
0.192556646183006
2.19512581305032
0.632531303427012
0.372667357881241
0.283562798092279
0.24133702573117
0.217332322660254
0.2020817487677
0.191888685603744
0.184944713332955
2.19480438151785
0.622955419847245
0.36649558913789
0.279214383122668
0.2381112630874
0.215024272423632
0.200518844719359
0.190841033897215
0.184241719592261
0.179693758863851
2.19480280664187
0.611845316346934
0.359472861520887
0.274500175151933
0.234673181250823
0.21244627562283
0.198611142321267
0.189441730880815
0.183209020891882
0.178948728425481
0.176019104956478
2.1951262419407
0.59927586204031
0.351610185145418
0.269357059237538
0.231012770891538
0.209686666417212
0.196479412303448
0.18777802994402
0.181893605637393
0.177909700394684
0.175231584389873
0.173430009733241
2.19484918081457
0.585125093557331
0.342956023891709
0.263820258180048
0.22715719940023
0.206809382713447
0.194229179018709
0.18596288734797
0.180389880312515
0.176642408575136
0.17417885743185
0.172600395733682
0.171600557527753
2.19192707562473
0.569119402526509
0.333571883135984
0.257999723619473
0.223197461692707
0.203897212452527
0.191954347109759
0.184102691696693
0.178808012312958
0.175251462984335
0.172941813326276
0.171530584661293
0.170729378922831
0.170303731885428
2.18619628736204
0.550843505582465
0.323600897770086
0.25210276401108