/*--------------------------------*- C++ -*----------------------------------*\
  =========                 |
  \\      /  F ield         | OpenFOAM: The Open Source CFD Toolbox
   \\    /   O peration     | Website:  https://openfoam.org
    \\  /    A nd           | Version:  12
     \\/     M anipulation  |
\*---------------------------------------------------------------------------*/
/*   Windows 32 and 64 bit porting by blueCAPE: http://www.bluecape.com.pt   *\
|  Based on Windows porting (2.0.x v4) by Symscape: http://www.symscape.com   |
\*---------------------------------------------------------------------------*/
FoamFile
{
    format      ascii;
    class       volScalarField;
    location    "400";
    object      p;
}
// * * * * * * * * * * * * * * * * * * * * * * * * * * * * * * * * * * * * * //

dimensions      [0 2 -2 0 0 0 0];

internalField   nonuniform List<scalar> 
10116
(
83333.3280961711
83333.3280927564
83333.328096197
83333.3280962098
83333.3280891688
83333.3280927838
83333.3280927886
83333.3280962513
83333.3280962552
83333.3280965111
83333.3280854118
83333.3280891975
83333.3280891856
83333.328092842
83333.3280928368
83333.3280930861
83333.3280963369
83333.3280963246
83333.3280965858
83333.3280972582
83333.3280814861
83333.3280854425
83333.3280854135
83333.3280892594
83333.328089235
83333.3280894555
83333.3280929349
83333.3280929119
83333.3280931664
83333.3280938416
83333.3280964578
83333.3280964197
83333.3280966867
83333.3280973465
83333.3280985287
83333.3280773894
83333.3280815188
83333.3280814758
83333.3280855085
83333.3280854647
83333.3280856581
83333.3280893587
83333.3280893129
83333.3280895386
83333.3280902077
83333.3280930659
83333.3280930152
83333.328093277
83333.3280939389
83333.3280951364
83333.3280966179
83333.3280965473
83333.3280968097
83333.3280974719
83333.3280986001
83333.3281002987
83333.3280731176
83333.3280774241
83333.3280773672
83333.3280815889
83333.3280815292
83333.3280817033
83333.3280856145
83333.3280855456
83333.3280857447
83333.3280864086
83333.3280894993
83333.328089422
83333.3280896533
83333.3280903096
83333.3280915281
83333.3280932385
83333.3280931532
83333.3280934116
83333.3280940762
83333.3280952178
83333.32809695
83333.3280968201
83333.328096714
83333.3280969588
83333.3280976207
83333.3280987363
83333.3281003535
83333.3281025203
83333.3280686663
83333.3280731545
83333.3280730824
83333.3280774985
83333.3280774231
83333.3280775793
83333.3280817018
83333.328081614
83333.3280817932
83333.328082458
83333.328085765
83333.3280856606
83333.3280858625
83333.3280865144
83333.3280877572
83333.3280896847
83333.3280895692
83333.3280897944
83333.3280904516
83333.3280916147
83333.3280933916
83333.3280934551
83333.3280933329
83333.3280935732
83333.3280942394
83333.3280953688
83333.3280970144
83333.3280992354
83333.328097066
83333.328096924
83333.3280971436
83333.3280977941
83333.3280988988
83333.3281004851
83333.3281025687
83333.3281051479
83333.3280640306
83333.3280687056
83333.328068617
83333.3280732336
83333.3280731412
83333.3280732787
83333.3280776189
83333.3280775127
83333.3280776734
83333.3280783415
83333.3280818627
83333.3280817354
83333.3280819158
83333.3280825674
83333.3280838384
83333.3280859638
83333.3280858171
83333.3280860091
83333.3280866598
83333.3280878471
83333.328089674
83333.3280899168
83333.3280897618
83333.3280899652
83333.3280906224
83333.3280917721
83333.3280934609
83333.3280957485
83333.3280937173
83333.3280935578
83333.3280937723
83333.328094428
83333.328095547
83333.3280971629
83333.328099294
83333.3281019462
83333.3280973564
83333.3280971794
83333.3280973721
83333.3280980027
83333.32809909
83333.3281006502
83333.3281026917
83333.3281052006
83333.3281081382
83333.3280592049
83333.3280640725
83333.328063966
83333.3280687897
83333.3280686789
83333.3280687963
83333.3280733617
83333.328073236
83333.3280733772
83333.3280740497
83333.3280777906
83333.3280776413
83333.3280778024
83333.3280784557
83333.3280797578
83333.3280820754
83333.3280819021
83333.3280820692
83333.3280827176
83333.328083931
83333.328085812
83333.3280862125
83333.328086023
83333.3280861889
83333.3280868364
83333.3280880088
83333.3280897461
83333.3280921077
83333.3280901964
83333.3280900029
83333.3280901774
83333.3280908214
83333.3280919589
83333.3280936173
83333.3280958126
83333.3280985511
83333.3280940257
83333.3280938299
83333.3280940172
83333.3280946533
83333.328095755
83333.3280973444
83333.3280994322
83333.328102009
83333.3281050393
83333.3280976915
83333.3280974802
83333.3280976484
83333.3280982569
83333.3280993204
83333.3281008515
83333.3281028519
83333.3281053112
83333.3281081953
83333.3281114523
83333.3280541826
83333.3280592494
83333.3280591234
83333.328064162
83333.3280640312
83333.328064126
83333.3280689261
83333.3280687793
83333.3280688993
83333.328069576
83333.3280735449
83333.3280733724
83333.3280735133
83333.3280741692
83333.3280755047
83333.3280780177
83333.3280778187
83333.328077964
83333.3280786123
83333.3280798542
83333.328081793
83333.3280823411
83333.3280821219
83333.3280822593
83333.3280829015
83333.3280840981
83333.3280858863
83333.3280883272
83333.3280865108
83333.3280862808
83333.3280864145
83333.3280870449
83333.3280882023
83333.3280899079
83333.3280921748
83333.3280950086
83333.3280905235
83333.328090293
83333.3280904393
83333.3280910612
83333.3280921786
83333.3280938081
83333.3280959579
83333.3280986194
83333.3281017557
83333.3280943797
83333.328094149
83333.3280943121
83333.3280949263
83333.3280960041
83333.3280975635
83333.3280996096
83333.3281021334
83333.3281051036
83333.3281084714
83333.3280980703
83333.3280978262
83333.3280979738
83333.3280985627
83333.3280996008
83333.3281010989
83333.3281030569
83333.3281054653
83333.3281082959
83333.3281115034
83333.3281150398
83333.3280489563
83333.3280542297
83333.3280540826
83333.3280593445
83333.328059192
83333.3280592619
83333.328064307
83333.3280641374
83333.3280642344
83333.3280649139
83333.3280691212
83333.328068924
83333.3280690428
83333.3280697013
83333.328071072
83333.328073787
83333.328073561
83333.3280736842
83333.328074333
83333.3280756055
83333.3280776062
83333.3280783013
83333.3280780531
83333.3280781656
83333.3280788053
83333.3280800281
83333.3280818703
83333.3280843956
83333.3280826594
83333.328082397
83333.3280824993
83333.3280831209
83333.3280842997
83333.3280860543
83333.3280883967
83333.3280913324
83333.3280868579
83333.3280865903
83333.328086694
83333.3280872987
83333.3280884323
83333.3280901061
83333.3280923251
83333.3280950802
83333.328098332
83333.3280908976
83333.3280906322
83333.3280907541
83333.3280913526
83333.3280924434
83333.32809404
83333.3280961455
83333.3280987508
83333.3281018246
83333.3281053164
83333.3280947782
83333.3280945151
83333.3280946581
83333.3280952534
83333.3280963055
83333.3280978311
83333.3280998334
83333.3281023049
83333.3281052179
83333.3281085295
83333.3281121925
83333.3280984916
83333.3280982175
83333.3280983484
83333.3280989228
83333.3280999378
83333.3281014022
83333.3281033162
83333.328105671
83333.3281084437
83333.3281115977
83333.3281150865
83333.3281188633
83333.3280435178
83333.3280490062
83333.3280488363
83333.3280543306
83333.3280541546
83333.3280541971
83333.3280594987
83333.3280593045
83333.3280593759
83333.3280600575
83333.3280645146
83333.328064291
83333.3280643855
83333.3280650459
83333.3280664533
83333.3280693791
83333.3280691244
83333.3280692237
83333.3280698729
83333.3280711777
83333.3280732445
83333.3280740892
83333.3280738107
83333.3280738979
83333.3280745361
83333.3280757873
83333.3280776872
83333.3280803027
83333.3280786404
83333.3280783465
83333.3280784209
83333.3280790369
83333.3280802397
83333.3280820457
83333.3280844681
83333.3280875122
83333.3280830281
83333.3280827269
83333.328082797
83333.3280833897
83333.3280845414
83333.3280862611
83333.3280885528
83333.3280914068
83333.3280947816
83333.3280872532
83333.328086951
83333.3280870296
83333.3280876086
83333.3280887124
83333.3280903494
83333.3280925208
83333.3280952166
83333.328098404
83333.32810203
83333.3280913175
83333.3280910202
83333.3280911224
83333.3280917014
83333.328092765
83333.328094325
83333.3280963833
83333.3280989327
83333.3281019457
83333.3281053787
83333.3281091824
83333.3280952186
83333.3280949275
83333.3280950552
83333.328095637
83333.3280966663
83333.3280981575
83333.3281001143
83333.3281025302
83333.3281053831
83333.3281086367
83333.3281122458
83333.328116164
83333.3280989556
83333.3280986535
83333.3280987722
83333.3280993384
83333.3281003346
83333.3281017671
83333.3281036371
83333.3281059373
83333.328108648
83333.32811174
83333.3281151747
83333.3281189065
83333.3281228902
83333.3280378567
83333.3280435706
83333.3280433763
83333.328049113
83333.3280489118
83333.3280489249
83333.3280544944
83333.3280542735
83333.3280543169
83333.3280549999
83333.3280597195
83333.3280594672
83333.328059535
83333.3280601964
83333.3280616425
83333.3280647892
83333.3280645037
83333.3280645767
83333.3280652259
83333.3280665647
83333.3280687018
83333.3280697008
83333.32806939
83333.3280694503
83333.3280700867
83333.3280713681
83333.3280733296
83333.3280760413
83333.3280744501
83333.3280741232
83333.3280741692
83333.3280747809
83333.3280760099
83333.3280778709
83333.3280803787
83333.3280835383
83333.3280790324
83333.3280786977
83333.3280787378
83333.3280793219
83333.3280804945
83333.3280822629
83333.3280846312
83333.32808759
83333.3280910953
83333.3280834459
83333.3280831103
83333.3280831543
83333.328083719
83333.3280848378
83333.328086517
83333.3280887576
83333.3280915489
83333.3280948567
83333.328098625
83333.3280876957
83333.3280873618
83333.3280874213
83333.3280879799
83333.3280890542
83333.3280906511
83333.328092771
83333.3280954068
83333.3280985301
83333.3281020953
83333.3281060501
83333.3280917801
83333.3280914556
83333.3280915441
83333.3280921098
83333.3280931499
83333.3280946734
83333.3280966831
83333.3280991729
83333.3281021216
83333.3281054926
83333.3281092395
83333.3281133132
83333.3280957024
83333.3280953846
83333.3280955033
83333.3280960785
83333.3280970899
83333.3280985487
83333.3281004602
83333.3281028193
83333.3281056076
83333.3281087961
83333.3281123465
83333.3281162135
83333.3281203518
83333.3280994582
83333.3280991343
83333.3280992455
83333.3280998106
83333.3281007932
83333.3281021966
83333.3281040237
83333.3281062695
83333.3281089168
83333.328111941
83333.3281153114
83333.3281189892
83333.3281229304
83333.3281270919
83333.3280319616
83333.3280379124
83333.3280376926
83333.3280436836
83333.3280434554
83333.3280434373
83333.328049287
83333.3280490373
83333.3280490504
83333.3280497343
83333.3280547292
83333.3280544459
83333.3280544843
83333.3280551459
83333.3280566328
83333.3280600115
83333.328059693
83333.328059737
83333.3280603852
83333.3280617598
83333.3280639716
83333.3280651313
83333.328064786
83333.3280648173
83333.3280654509
83333.3280667641
83333.3280687913
83333.3280716052
83333.3280700844
83333.3280697224
83333.3280697385
83333.3280703458
83333.3280716026
83333.3280735223
83333.3280761212
83333.3280794037
83333.3280748667
83333.328074497
83333.3280745062
83333.3280750832
83333.3280762791
83333.3280780995
83333.3280805496
83333.3280836199
83333.328087264
83333.3280794745
83333.3280791054
83333.3280791178
83333.3280796717
83333.3280808085
83333.3280825328
83333.3280848465
83333.3280877389
83333.3280911738
83333.3280950929
83333.3280839115
83333.3280835454
83333.3280835707
83333.3280841136
83333.3280852006
83333.3280868364
83333.3280890212
83333.3280917484
83333.3280949884
83333.3280986932
83333.3281028081
83333.3280881824
83333.3280878213
83333.3280878687
83333.3280884141
83333.3280894636
83333.3280910216
83333.3280930889
83333.3280956603
83333.3280987146
83333.3281022142
83333.3281061101
83333.3281103501
83333.328092285
83333.3280919364
83333.3280920184
83333.3280925788
83333.328093601
83333.3280950911
83333.3280970529
83333.3280994823
83333.3281023617
83333.3281056629
83333.3281093468
83333.3281133665
83333.3281176738
83333.3280962266
83333.328095887
83333.328096002
83333.3280965787
83333.3280975779
83333.3280990078
83333.3281008753
83333.3281031781
83333.3281059002
83333.3281090176
83333.3281124999
83333.3281163081
83333.3281203979
83333.3281247258
83333.3280999904
83333.3280996574
83333.3280997681
83333.3281003406
83333.328101315
83333.3281026921
83333.3281044777
83333.3281066697
83333.3281092535
83333.3281122078
83333.3281155068
83333.3281191195
83333.3281230077
83333.3281271291
83333.3281314428
83333.3280258244
83333.3280320191
83333.328031771
83333.3280380316
83333.3280377753
83333.3280377227
83333.3280438679
83333.3280435878
83333.3280435689
83333.3280442527
83333.3280495365
83333.3280492197
83333.3280492263
83333.3280498878
83333.3280514173
83333.3280550397
83333.3280546856
83333.3280546978
83333.3280553438
83333.3280567563
83333.3280590471
83333.3280603753
83333.3280599931
83333.3280599924
83333.3280606223
83333.3280619688
83333.3280640658
83333.3280669881
83333.3280655389
83333.3280651396
83333.3280651233
83333.3280657255
83333.3280670112
83333.3280689936
83333.3280716893
83333.3280751023
83333.3280705268
83333.3280701201
83333.3280700966
83333.3280706665
83333.3280718872
83333.3280737631
83333.3280763005
83333.3280794895
83333.3280832809
83333.3280753352
83333.3280749301
83333.3280749102
83333.3280754546
83333.3280766117
83333.3280783845
83333.3280807765
83333.3280837763
83333.3280873462
83333.3280914253
83333.3280799646
83333.3280795665
83333.3280795603
83333.3280800909
83333.3280811935
83333.3280828711
83333.3280851249
83333.3280879489
83333.3280913122
83333.3280951645
83333.3280994485
83333.3280844227
83333.3280840299
83333.3280840452
83333.3280845748
83333.3280856357
83333.3280872298
83333.3280893581
83333.3280920159
83333.3280951823
83333.3280988177
83333.3281028709
83333.3281072867
83333.3280887102
83333.3280883273
83333.328088371
83333.3280889119
83333.3280899434
83333.3280914662
83333.3280934826
83333.328095989
83333.3280989686
83333.3281023932
83333.3281062222
83333.3281104062
83333.3281148933
83333.3280928321
83333.3280924623
83333.3280925448
83333.328093109
83333.32809412
83333.3280955807
83333.3280974967
83333.3280998666
83333.3281026755
83333.3281059005
83333.3281095111
83333.3281134675
83333.3281177235
83333.3281222322
83333.3280967817
83333.3280964335
83333.3280965508
83333.3280971387
83333.3280981319
83333.3280995362
83333.3281013616
83333.3281036087
83333.3281062645
83333.3281093086
83333.3281127157
83333.3281164546
83333.3281204866
83333.3281247686
83333.3281292591
83333.3281005347
83333.3281002188
83333.3281003394
83333.328100929
83333.3281019007
83333.3281032541
83333.3281049995
83333.328107138
83333.3281096582
83333.3281125419
83333.328115767
83333.3281193069
83333.3281231305
83333.3281272007
83333.3281314768
83333.3281359205
83333.3280194621
83333.3280258842
83333.3280255958
83333.3280321439
83333.3280318558
83333.3280317597
83333.3280382264
83333.3280379144
83333.3280378605
83333.3280385421
83333.3280441328
83333.3280437807
83333.3280437536
83333.3280444142
83333.3280459877
83333.3280498665
83333.3280494742
83333.3280494519
83333.3280500951
83333.3280515472
83333.3280539212
83333.3280554262
83333.3280550046
83333.3280549688
83333.3280555943
83333.3280569754
83333.3280591463
83333.3280621831
83333.3280608081
83333.3280603692
83333.3280603177
83333.3280609133
83333.3280622294
83333.3280642782
83333.3280670766
83333.3280706277
83333.3280660082
83333.3280655623
83333.3280655038
83333.3280660657
83333.3280673123
83333.3280692474
83333.3280718776
83333.3280751925
83333.3280791401
83333.3280710234
83333.3280705802
83333.3280705261
83333.3280710604
83333.3280722395
83333.3280740643
83333.3280765396
83333.3280796538
83333.3280833673
83333.3280876159
83333.328075852
83333.328075419
83333.3280753806
83333.3280758995
83333.3280770201
83333.3280787429
83333.3280810705
83333.3280839977
83333.328087492
83333.3280915006
83333.3280959635
83333.328080501
83333.3280800773
83333.328080064
83333.3280805804
83333.3280816553
83333.3280832886
83333.3280854819
83333.3280882317
83333.3280915166
83333.3280952956
83333.3280995145
83333.3281041158
83333.328084975
83333.3280845617
83333.3280845765
83333.3280851027
83333.328086145
83333.3280877023
83333.3280897763
83333.3280923646
83333.3280954509
83333.3280990062
83333.3281029885
83333.3281073454
83333.3281120223
83333.3280892816
83333.3280888786
83333.3280889262
83333.3280894736
83333.3280904945
83333.3280919871
83333.3280939555
83333.3280963986
83333.3280993026
83333.3281026451
83333.3281063953
83333.328110512
83333.3281149458
83333.3281196464
83333.3280934114
83333.328093034
83333.3280931222
83333.3280937011
83333.3280947078
83333.3280961432
83333.3280980161
83333.3281003277
83333.3281030665
83333.3281062132
83333.328109743
83333.3281136247
83333.3281178183
83333.3281222784
83333.32812696
83333.3280973495
83333.3280970199
83333.3280971498
83333.328097759
83333.3280987523
83333.3281001341
83333.3281019193
83333.3281041115
83333.3281067011
83333.3281096712
83333.3281130001
83333.328116662
83333.3281206249
83333.3281248509
83333.3281292983
83333.3281339276
83333.3281010587
83333.3281008113
83333.3281009591
83333.3281015753
83333.3281025494
83333.3281038815
83333.3281055876
83333.3281076731
83333.3281101297
83333.3281129425
83333.3281160923
83333.3281195563
83333.3281233076
83333.328127315
83333.3281315426
83333.3281359514
83333.3281405056
83333.3280128839
83333.3280195297
83333.3280191913
83333.3280260146
83333.3280256796
83333.3280255182
83333.3280323491
83333.3280319997
83333.3280319023
83333.328032576
83333.3280385072
83333.3280381181
83333.3280380542
83333.3280387114
83333.32804033
83333.3280444833
83333.328044051
83333.3280439918
83333.3280446316
83333.3280461241
83333.3280485853
83333.3280502771
83333.3280498137
83333.3280497396
83333.3280503598
83333.3280517771
83333.3280540254
83333.3280571829
83333.3280558857
83333.3280554046
83333.3280553149
83333.3280559023
83333.3280572504
83333.3280593691
83333.3280622762
83333.3280659734
83333.3280613056
83333.3280608185
83333.3280607221
83333.3280612745
83333.3280625479
83333.3280645457
83333.3280672744
83333.3280707227
83333.3280748357
83333.3280665342
83333.3280660506
83333.3280659604
83333.3280664838
83333.3280676857
83333.3280695655
83333.3280721297
83333.3280753653
83333.3280792309
83333.3280836592
83333.3280715694
83333.3280710982
83333.3280710261
83333.3280715325
83333.3280726725
83333.3280744436
83333.3280768503
83333.3280798873
83333.3280835207
83333.3280876951
83333.3280923476
83333.3280764146
83333.3280759582
83333.328075915
83333.3280764189
83333.3280775099
83333.3280791856
83333.3280814486
83333.3280842967
83333.3280877077
83333.3280916388
83333.3280960332
83333.3281008303
83333.3280810793
83333.328080636
83333.3280806251
83333.32808114
83333.3280821957
83333.3280837902
83333.3280859258
83333.3280886014
83333.3280918009
83333.3280954946
83333.3280996386
83333.3281041776
83333.3281090544
83333.3280855707
83333.3280851393
83333.3280851613
83333.3280856973
83333.3280867295
83333.3280882557
83333.3280902792
83333.3280928002
83333.3280958056
83333.3280992729
83333.328103171
83333.3281074566
83333.3281120774
83333.3281169798
83333.3280898868
83333.3280894768
83333.3280895342
83333.3280900995
83333.3280911177
83333.3280925851
83333.3280945087
83333.3280968906
83333.32809972
83333.3281029784
83333.3281066417
83333.3281106779
83333.3281150452
83333.3281196951
83333.3281245788
83333.3280940045
83333.3280936474
83333.3280937517
83333.3280943555
83333.3280953648
83333.3280967788
83333.3280986108
83333.3281008656
83333.3281035349
83333.328106603
83333.3281100492
83333.328113848
83333.328117967
83333.3281223666
83333.3281270023
83333.3281318314
83333.3280978966
83333.3280976384
83333.3280977985
83333.3280984389
83333.3280994379
83333.3281008002
83333.3281025464
83333.3281046847
83333.3281072086
83333.3281101043
83333.328113354
83333.3281169353
83333.3281208213
83333.32812498
83333.328129374
83333.3281339632
83333.3281387106
83333.3281015127
83333.3281014078
83333.3281016194
83333.3281022744
83333.3281032558
83333.3281045695
83333.3281062378
83333.3281082712
83333.3281106648
83333.3281134066
83333.3281164808
83333.3281198675
83333.328123543
83333.32812748
83333.3281316476
83333.328136011
83333.3281405334
83333.3281451818
83333.3280129624
83333.3280125997
83333.328019671
83333.3280192774
83333.3280190418
83333.3280262311
83333.3280258265
83333.3280256637
83333.328026321
83333.3280326463
83333.3280322132
83333.3280321031
83333.3280327523
83333.3280344167
83333.3280388792
83333.3280384047
83333.3280383052
83333.3280389393
83333.3280404725
83333.3280430251
83333.3280449194
83333.3280444122
83333.3280442973
83333.3280449107
83333.3280463654
83333.3280486943
83333.3280519791
83333.3280507647
83333.328050239
83333.3280501082
83333.3280506859
83333.3280520671
83333.3280542593
83333.3280572806
83333.3280611322
83333.328056413
83333.3280558818
83333.3280557452
83333.328056286
83333.3280575872
83333.3280596512
83333.3280624839
83333.3280660733
83333.328070361
83333.3280618625
83333.328061336
83333.3280612079
83333.3280617183
83333.3280629437
83333.3280648819
83333.3280675401
83333.3280709043
83333.328074931
83333.3280795495
83333.3280671116
83333.3280665991
83333.3280664915
83333.3280669846
83333.3280681446
83333.3280699671
83333.3280724579
83333.3280756115
83333.3280793924
83333.3280837425
83333.3280885956
83333.3280721603
83333.328071668
83333.3280715921
83333.3280720834
83333.3280731918
83333.3280749128
83333.3280772505
83333.3280802033
83333.3280837484
83333.3280878408
83333.328092421
83333.3280974253
83333.3280770199
83333.3280765455
83333.3280765071
83333.3280770119
83333.3280780827
83333.3280797175
83333.3280819194
83333.3280846884
83333.3280880084
83333.3280918491
83333.3280961641
83333.3281008956
83333.3281059832
83333.3280816988
83333.3280812411
83333.3280812411
83333.3280817688
83333.328082815
83333.3280843773
83333.3280864598
83333.3280890639
83333.3280921772
83333.3280957771
83333.3280998315
83333.328104295
83333.3281091124
83333.3281142271
83333.328086202
83333.3280857643
83333.3280858009
83333.3280863583
83333.3280873896
83333.3280888903
83333.3280908673
83333.3280933238
83333.3280962498
83333.3280996274
83333.3281034323
83333.3281076318
83333.328112182
83333.328117031
83333.328122127
83333.328090507
83333.3280901185
83333.3280901962
83333.32809079
83333.328091813
83333.3280932597
83333.3280951416
83333.3280974643
83333.3281002204
83333.3281033951
83333.3281069687
83333.3281109154
83333.3281152024
83333.3281197876
83333.3281246235
83333.3281296634
83333.3280945773
83333.3280942946
83333.3280944328
83333.3280950717
83333.3280960895
83333.3280974852
83333.3280992785
83333.328101478
83333.3281040788
83333.3281070685
83333.3281104304
83333.3281141429
83333.3281181788
83333.3281225054
83333.3281270834
83333.3281318699
83333.3281368241
83333.3280983725
83333.3280982613
83333.3280984888
83333.3280991732
83333.3281001831
83333.3281015289
83333.3281032382
83333.3281053241
83333.3281077832
83333.328110605
83333.3281137751
83333.3281172745
83333.3281210798
83333.3281251632
83333.3281294928
83333.328134032
83333.3281387427
83333.3281435903
83333.3281018405
83333.3281019293
83333.328102276
83333.3281030035
83333.3281040037
83333.3281053064
83333.3281069408
83333.3281089247
83333.3281112572
83333.3281139293
83333.3281169282
83333.3281202373
83333.3281238357
83333.3281276988
83333.3281317991
83333.3281361064
83333.3281405871
83333.3281452069
83333.3281499347
83333.3280131207
83333.3280126978
83333.3280124349
83333.3280199044
83333.3280194313
83333.3280191925
83333.328019831
83333.3280265471
83333.32802605
83333.3280258683
83333.3280265048
83333.3280282166
83333.3280330411
83333.328032516
83333.3280323649
83333.328032989
83333.3280345647
83333.3280372143
83333.328039342
83333.3280387883
83333.3280386289
83333.3280392325
83333.3280407251
83333.3280431386
83333.3280465577
83333.3280454365
83333.3280448643
83333.32804469
83333.3280452559
83333.328046671
83333.3280489399
83333.3280520814
83333.3280560958
83333.3280513237
83333.3280507454
83333.3280505666
83333.3280510937
83333.3280524233
83333.3280545567
83333.3280574989
83333.3280612371
83333.3280657095
83333.3280570025
83333.3280564302
83333.3280562618
83333.3280567576
83333.3280580067
83333.3280600064
83333.328062764
83333.3280662642
83333.3280704612
83333.3280752805
83333.3280624727
83333.3280619165
83333.3280617707
83333.32806225
83333.3280634302
83333.3280653069
83333.3280678867
83333.328071164
83333.328075101
83333.328079637
83333.3280847023
83333.3280677338
83333.3280672019
83333.3280670899
83333.3280675687
83333.3280686949
83333.3280704639
83333.3280728812
83333.3280759453
83333.3280796327
83333.328083896
83333.3280886729
83333.3280938963
83333.3280727928
83333.3280722861
83333.3280722175
83333.3280727114
83333.3280737987
83333.3280754764
83333.3280777492
83333.3280806179
83333.3280840663
83333.3280880628
83333.3280925591
83333.3280974942
83333.3281028045
83333.3280776633
83333.3280771792
83333.3280771565
83333.3280776765
83333.3280787386
83333.3280803399
83333.3280824857
83333.3280851789
83333.3280884073
83333.3280921481
83333.3280963681
83333.3281010196
83333.3281060444
83333.328111383
83333.3280823564
83333.3280818932
83333.3280819135
83333.3280824666
83333.3280835135
83333.32808505
83333.328087084
83333.3280896201
83333.3280926492
83333.3280961535
83333.3281001085
83333.3281044803
83333.3281092228
83333.3281142811
83333.3281196003
83333.3280868497
83333.3280864348
83333.3280864961
83333.3280870865
83333.3280881249
83333.3280896054
83333.3280915396
83333.3280939342
83333.3280967829
83333.3281000714
83333.3281037804
83333.3281078839
83333.328112348
83333.3281171284
83333.328122174
83333.3281274351
83333.3280911078
83333.3280907964
83333.328090912
83333.3280915448
83333.3280925789
83333.3280940084
83333.3280958513
83333.328098117
83333.3281008014
83333.3281038933
83333.3281073768
83333.3281112307
83333.3281154279
83333.3281199345
83333.3281247087
83333.328129704
83333.3281348761
83333.3280950776
83333.3280949482
83333.3280951576
83333.3280958452
83333.328096876
83333.3280982568
83333.3281000137
83333.3281021601
83333.328104694
83333.3281076063
83333.328110884
83333.3281145089
83333.3281184581
83333.3281227033
83333.3281272114
83333.3281319436
83333.3281368586
83333.3281419182
83333.3280987194
83333.3280988066
83333.3280991735
83333.3280999367
83333.3281009708
83333.3281023077
83333.3281039845
83333.3281060212
83333.3281084182
83333.3281111679
83333.3281142591
83333.3281176764
83333.3281213995
83333.328125404
83333.3281296614
83333.3281341401
83333.3281388046
83333.3281436191
83333.328148551
83333.3281020166
83333.3281022692
83333.32810281
83333.3281036804
83333.3281047514
83333.328106065
83333.3281076784
83333.3281096202
83333.3281118965
83333.3281145024
83333.3281174283
83333.3281206607
83333.3281241818
83333.3281279697
83333.3281319995
83333.3281362437
83333.3281406727
83333.328145255
83333.3281499576
83333.3281547443
83333.3280133762
83333.3280128708
83333.3280125988
83333.3280132349
83333.3280202438
83333.3280196686
83333.328019404
83333.3280200231
83333.328021786
83333.3280269675
83333.32802637
83333.3280261396
83333.3280267478
83333.3280283721
83333.3280311254
83333.3280335326
83333.3280329229
83333.3280327057
83333.3280332944
83333.3280348271
83333.3280373318
83333.3280408941
83333.3280398908
83333.3280392682
83333.3280390462
83333.328039597
83333.3280410463
83333.3280433957
83333.3280466642
83333.328050851
83333.3280460291
83333.3280454014
83333.3280451782
83333.328045689
83333.3280470476
83333.3280492533
83333.3280523106
83333.3280562057
83333.3280608732
83333.3280519474
83333.3280513265
83333.3280511149
83333.3280515952
83333.328052868
83333.3280549322
83333.3280577943
83333.3280614378
83333.3280658146
83333.3280708461
83333.3280576473
83333.3280570449
83333.3280568576
83333.3280573222
83333.3280585227
83333.3280604563
83333.3280631302
83333.3280665379
83333.3280706401
83333.3280753726
83333.328080662
83333.328063129
83333.3280625543
83333.3280624033
83333.3280628689
83333.3280640135
83333.328065833
83333.3280683345
83333.3280715164
83333.3280753544
83333.3280797986
83333.3280847835
83333.3280902386
83333.3280683953
83333.3280678533
83333.3280677514
83333.3280682331
83333.3280693379
83333.3280710609
83333.3280734091
83333.3280763838
83333.3280799685
83333.3280841303
83333.3280888184
83333.3280939688
83333.3280995145
83333.3280734613
83333.3280729495
83333.3280729023
83333.3280734138
83333.3280744929
83333.3280761356
83333.3280783491
83333.3280811374
83333.3280844885
83333.3280883791
83333.3280927746
83333.328097625
83333.328102869
83333.3281084439
83333.3280783471
83333.3280778586
83333.328077863
83333.3280784128
83333.328079477
83333.3280810523
83333.3280831474
83333.3280857687
83333.3280889079
83333.3280925472
83333.3280966615
83333.3281012156
83333.3281061611
83333.3281114399
83333.3281169941
83333.3280830323
83333.3280825928
83333.3280826425
83333.328083234
83333.3280842904
83333.3280858071
83333.328087797
83333.3280902683
83333.3280932157
83333.3280966256
83333.3281004784
83333.3281047478
83333.3281093986
83333.328114384
83333.3281196498
83333.3281251431
83333.3280874788
83333.328087144
83333.3280872472
83333.3280878813
83333.3280889338
83333.3280903981
83333.3280922927
83333.3280946282
83333.3280974016
83333.3281006026
83333.3281042157
83333.3281082199
83333.3281125877
83333.3281172837
83333.3281222637
83333.3281274777
83333.3281328782
83333.3280916342
83333.3280914828
83333.3280916744
83333.3280923594
83333.3280934092
83333.3280948251
83333.3280966318
83333.328098843
83333.328101458
83333.3281044686
83333.3281078628
83333.3281116232
83333.328115727
83333.3281201455
83333.3281248441
83333.3281297814
83333.3281349124
83333.3281401951
83333.328095445
83333.3280955243
83333.3280958809
83333.3280966499
83333.3280977075
83333.3280990801
83333.3281008054
83333.3281029025
83333.3281053728
83333.3281082102
83333.3281114049
83333.3281149426
83333.3281188038
83333.3281229638
83333.3281273936
83333.32813206
83333.3281369248
83333.328141949
83333.3281470962
83333.3280989094
83333.3280991643
83333.3280997302