/*--------------------------------*- C++ -*----------------------------------*\
  =========                 |
  \\      /  F ield         | OpenFOAM: The Open Source CFD Toolbox
   \\    /   O peration     | Website:  https://openfoam.org
    \\  /    A nd           | Version:  12
     \\/     M anipulation  |
\*---------------------------------------------------------------------------*/
/*   Windows 32 and 64 bit porting by blueCAPE: http://www.bluecape.com.pt   *\
|  Based on Windows porting (2.0.x v4) by Symscape: http://www.symscape.com   |
\*---------------------------------------------------------------------------*/
FoamFile
{
    format      ascii;
    class       surfaceScalarField;
    location    "400";
    object      phi;
}
// * * * * * * * * * * * * * * * * * * * * * * * * * * * * * * * * * * * * * //

dimensions      [0 3 -1 0 0 0 0];

internalField   nonuniform List<scalar> 
28903
(
8.88591314598243e-07
-6.50320345934284e-09
-1.01959585448781e-08
9.08093627991279e-07
-6.36424521817466e-09
-1.31371821096692e-08
1.2943904927387e-06
-1.94427440554164e-08
-1.26272661727832e-08
-1.78745601067947e-07
6.48936174907225e-09
-1.32697790860189e-08
9.29284803717668e-07
-6.29613129349476e-09
-1.48903578304762e-08
1.32366107742663e-06
-1.95895689950268e-08
-1.60405919007768e-08
-1.81249436989774e-07
7.28197098877249e-09
-1.79153176154488e-08
1.44695417658562e-06
-3.33961082386144e-08
-1.32213034999582e-08
-1.83778849824493e-07
1.45179493390436e-08
-1.63983459824741e-08
-1.80288814367753e-07
5.12840497804669e-09
-1.77269285769958e-08
9.52195317499275e-07
-6.22233778257538e-09
-1.66912723590457e-08
1.3548491384869e-06
-1.9610187790699e-08
-1.78763518455719e-08
-1.82240049393254e-07
8.21371309354593e-09
-2.21115408615548e-08
1.47832447057612e-06
-3.37562725336685e-08
-1.72177795616348e-08
-1.870017409207e-07
1.61148077966533e-08
-2.16536055674371e-08
-1.80078838405435e-07
5.64385355111115e-09
-2.37698608567426e-08
1.64628481028718e-06
-4.91065072235511e-08
-1.46258696280456e-08
-2.45539234215331e-07
2.38652928716541e-08
-1.64075763872938e-08
-2.08563899532695e-07
1.15997746791851e-08
-2.15570228134589e-08
-1.54036950232018e-07
3.8435353958921e-09
-2.29021988402227e-08
9.77109796700186e-07
-6.00377600025257e-09
-1.89150424868064e-08
1.38780818787822e-06
-1.95488606985876e-08
-1.96225250853568e-08
-1.81766729662548e-07
9.13227242995477e-09
-2.62977284330958e-08
1.51203878009081e-06
-3.37631239405838e-08
-1.95621852973753e-08
-1.88609270061481e-07
1.81539052827372e-08
-2.62054215549268e-08
-1.78617400817396e-07
6.29153901884917e-09
-2.98640217546677e-08
1.68124876533149e-06
-4.94580564104978e-08
-1.92604516809933e-08
-2.50758420911472e-07
2.6621519918401e-08
-2.25042344801329e-08
-2.09011343761539e-07
1.28046746367364e-08
-2.83672328406117e-08
-1.51704890857598e-07
4.27755737643705e-09
-3.03793774766812e-08
1.83598187265686e-06
-6.84538173411397e-08
-1.5261227692996e-08
-2.844263237541e-07
3.33849013845081e-08
-1.67609673197218e-08
-2.66790818107151e-07
1.96999198260546e-08
-2.19963006296784e-08
-1.73262409541018e-07
8.67191393668143e-09
-2.76417395060569e-08
-1.27075867121971e-07
2.91599585990899e-09
-2.85801119541588e-08
1.00430763451736e-06
-5.76692306852514e-09
-2.14269038370364e-08
1.42310792380408e-06
-1.94187639492451e-08
-2.18920560769021e-08
-1.79981730984531e-07
1.00567576639569e-08
-3.07574720853659e-08
1.54772056717686e-06
-3.3745118777707e-08
-2.14900751802188e-08
-1.88584563101937e-07
2.01869406233119e-08
-3.07020113909002e-08
-1.7581741712992e-07
6.98364708866862e-09
-3.60818875308269e-08
1.71905958835157e-06
-4.9666920186241e-08
-2.19098333246995e-08
-2.54234006561697e-07
2.98086860111484e-08
-2.77400045100723e-08
-2.08047647440838e-07
1.4359595073214e-08
-3.52364846887847e-08
-1.48250666650111e-07
4.8125387663033e-09
-3.81307723481344e-08
1.87550160529051e-06
-6.86641024127397e-08
-2.0334786958873e-08
-2.90892107406524e-07
3.75106837415666e-08
-2.36847795088624e-08
-2.68549843989039e-07
2.18900670350591e-08
-2.9829259752422e-08
-1.70939296337008e-07
9.59764872562528e-09
-3.60094231081721e-08
-1.23262478607413e-07
3.26737517268657e-09
-3.74596309130921e-08
1.98699800709928e-06
-9.29449609487821e-08
-1.48931329546663e-08
-3.09654917813044e-07
4.19878966851038e-08
-1.57644776430565e-08
-3.12542509017973e-07
2.83131850435844e-08
-2.2028796141362e-08
-2.16132548292903e-07
1.45332888596018e-08
-2.86853563904442e-08
-1.40552042740305e-07
6.54028210185497e-09
-3.42255720961801e-08
-1.00183364593627e-07
2.28312656151169e-09
-3.47244148141856e-08
1.0340076554571e-06
-5.52255241099372e-09
-2.4174709205147e-08
1.46114589726231e-06
-1.92499016380946e-08
-2.45481876670197e-08
-1.76831393528417e-07
1.09883513830335e-08
-3.55615103520414e-08
1.58596329651826e-06
-3.37188942817123e-08
-2.3939223099045e-08
-1.87048011224693e-07
2.21941935019752e-08
-3.55616909455638e-08
-1.71675653631633e-07
7.67898348850984e-09
-4.25784398778403e-08
1.75912305020928e-06
-4.98742775326049e-08
-2.39507590968676e-08
-2.5578308583598e-07
3.30469666935184e-08
-3.27966648510809e-08
-2.05504080138736e-07
1.59588053520955e-08
-4.2219374227308e-08
-1.43530351911959e-07
5.3675902185732e-09
-4.6169390374169e-08
1.91807267206578e-06
-6.90871729193761e-08
-2.31515551394884e-08
-2.95412202537738e-07
4.19515279222747e-08
-2.95302199041535e-08
-2.68645811997996e-07
2.44638563637467e-08
-3.77482615830033e-08
-1.67378791035203e-07
1.08011621772939e-08
-4.47849295368005e-08
-1.18335685337854e-07
3.68322072366991e-09
-4.67405208396893e-08
2.03137568755561e-06
-9.28254481490449e-08
-2.02231860423819e-08
-3.16799892207174e-07
4.7573720307219e-08
-2.32497455970584e-08
-3.15229244959274e-07
3.1676164927471e-08
-3.07856144637598e-08
-2.14234641627678e-07
1.62029357326164e-08
-3.83309454497398e-08
-1.36446786171762e-07
7.32424852941646e-09
-4.41719418716626e-08
-9.52698596298433e-08
2.56109894552637e-09
-4.49340829037255e-08
2.10074816652941e-06
-1.23024394508643e-07
-1.40776115706582e-08
-3.25616037084514e-07
4.89740026346475e-08
-1.34252907182787e-08
-3.4582280176e-07
3.64558217637747e-08
-2.001669901829e-08
-2.52390445046717e-07
2.08334006286599e-08
-2.88376640382319e-08
-1.73059304553074e-07
1.07700606870008e-08
-3.5885533250988e-08
-1.10918020497053e-07
4.87076779724386e-09
-4.09892173932741e-08
-7.53780648025101e-08
1.77615374321594e-09
-4.12016391023287e-08
1.06642435216117e-06
-5.26053110969694e-09
-2.71612684085864e-08
1.5022098249562e-06
-1.90943604719298e-08
-2.74918784613736e-08
-1.72217329726351e-07
1.1946255589566e-08
-4.07337348265837e-08
1.62724939728104e-06
-3.36588890424749e-08
-2.68743880948494e-08
-1.83975206576297e-07
2.42290679487462e-08
-4.08586309437147e-08
-1.66125994617658e-07
8.37214340204446e-09
-4.94829113161563e-08
1.80198673441263e-06
-4.99911938157524e-08
-2.65892293674687e-08
-2.556002991977e-07
3.63218171131292e-08
-3.82540693982573e-08
-2.01395216666844e-07
1.75419846482173e-08
-4.95330422896171e-08
-1.3744969745901e-07
5.93159535023285e-09
-5.45906588609556e-08
1.96302595345935e-06
-6.95752348726414e-08
-2.52325705737002e-08
-2.97705915930049e-07
4.64897130706445e-08
-3.51000828462604e-08
-2.66824297866627e-07
2.71125905581099e-08
-4.57723292674455e-08
-1.62376688910539e-07
1.20502332887365e-08
-5.39033349798001e-08
-1.12169426527088e-07
4.11843448770366e-09
-5.64542161635608e-08
2.07862646300928e-06
-9.32641152379909e-08
-2.30772194025722e-08
-3.21886460307609e-07
5.33568921117984e-08
-2.94711791657074e-08
-3.16035780024114e-07
3.53660984382319e-08
-3.96254557792992e-08
-2.10885007350581e-07
1.81849668853247e-08
-4.84816742602781e-08
-1.31139775120108e-07
8.25443798040003e-09
-5.46627849740002e-08
-8.92475824106118e-08
2.8868878189549e-09
-5.56498353628648e-08
2.15012028398619e-06
-1.22591864023048e-07
-1.96102640188558e-08
-3.33080068820873e-07
5.60576855935488e-08
-2.12376047440225e-08
-3.49098208586963e-07
4.1042717202198e-08
-2.93416518974099e-08
-2.50808556864738e-07
2.3373926539237e-08
-3.95376076744166e-08
-1.6884741120311e-07
1.20545803575776e-08
-4.72731611900718e-08
-1.05581562094643e-07
5.46279146962615e-09
-5.24095459898574e-08
-6.96523294450638e-08
1.98551902763573e-09
-5.26451621912182e-08
2.19634730929216e-06
-1.59012732545919e-07
-1.30397586659308e-08
-3.36220223915311e-07
5.37619895677605e-08
-1.02785888780496e-08
-3.69568678934207e-07
4.34772700263859e-08
-1.62492633267683e-08
-2.79566880450594e-07
2.68570534348856e-08
-2.62987602367207e-08
-2.01723267305783e-07
1.52737123374438e-08
-3.63112699491132e-08
-1.36845389886612e-07
7.94934092026008e-09
-4.33962820407526e-08
-8.43972644436926e-08
3.65196933556027e-09
-4.79660395904339e-08
-5.36514966029293e-08
1.30696924496574e-09
-4.78421890629229e-08
1.10183367456741e-06
-4.99342386672714e-09
-3.04142445684933e-08
1.54656732540333e-06
-1.89146993314807e-08
-3.0705862156235e-08
-1.66022715397553e-07
1.29443795623914e-08
-4.63003050896403e-08
1.67193796452145e-06
-3.36032361228168e-08
-3.01668847101303e-08
-1.79270991860631e-07
2.63362484853681e-08
-4.65872232237084e-08
-1.59063067308154e-07
9.06901536729025e-09
-5.68647164385732e-08
1.84822138141573e-06
-5.0093863495607e-08
-2.98052220885799e-08
-2.53709448142537e-07
3.96914394785268e-08
-4.4232439203748e-08
-1.95691510328436e-07
1.91386432615255e-08
-5.7328479217361e-08
-1.29910607743118e-07
6.4972789314123e-09
-6.35190596596184e-08
2.01091667225748e-06
-6.99369498750196e-08
-2.79485761728118e-08
-2.98014525154275e-07
5.11657022111783e-08
-4.11207929752768e-08
-2.63165488681472e-07
2.97862502895769e-08
-5.41564933014304e-08
-1.55814994797068e-07
1.3297029446888e-08
-6.34599897961679e-08
-1.0464814402773e-07
4.5640132109078e-09
-6.6676060964104e-08
2.12812401805034e-06
-9.39811926545838e-08
-2.50945934298729e-08
-3.24553124319657e-07
5.92504233111823e-08
-3.53311752145515e-08
-3.1460999089488e-07
3.91569165390969e-08
-4.85694613179111e-08
-2.05820510435192e-07
2.02405684441172e-08
-5.90257484183904e-08
-1.24461843021446e-07
9.21954506533771e-09
-6.56817442210678e-08
-8.20098378038089e-08
3.22771622383473e-09
-6.69197139346513e-08
2.20200809191414e-06
-1.22728158168417e-07
-2.24292923173594e-08
-3.38436946769581e-07
6.32546401424912e-08
-2.76196446721649e-08
-3.50380526255358e-07
4.58942998371956e-08
-3.87172499653782e-08
-2.47594391817926e-07
2.61935881870561e-08
-5.08483859400033e-08
-1.63275093026372e-07
1.35614552009608e-08
-5.93602935046258e-08
-9.90531933685492e-08
6.17925607651255e-09
-6.44830245124009e-08
-6.28420013464464e-08
2.22827387626734e-09
-6.46882972270892e-08
2.25082826841671e-06
-1.58315231023288e-07
-1.87371836257157e-08
-3.43828170834868e-07
6.23458965330482e-08
-1.82900188993337e-08
-3.73186751082276e-07
4.92660370936884e-08
-2.58437196024791e-08
-2.78228118292434e-07
3.02984971203756e-08
-3.7604383116367e-08
-1.97456840079968e-07
1.71667452497723e-08
-4.8915511500438e-08
-1.31138828975881e-07
8.90751849613971e-09
-5.64238934342404e-08
-7.81590321894567e-08
4.0770976058162e-09
-6.07392607928459e-08
-4.73324778871959e-08
1.4529843062678e-09
-6.04173551138307e-08
2.29417935524625e-06
-2.01503583431461e-07
-1.19934755900188e-08
-3.44475849801798e-07
5.59051567634298e-08
-6.53687284693465e-09
-3.88276168009228e-07
4.89799164660868e-08
-1.14279015679155e-08
-2.99690362963522e-07
3.20814479006126e-08
-2.15674944235264e-08
-2.2403169668538e-07
1.96188627418491e-08
-3.3543746938747e-08
-1.6047980111428e-07
1.12021564585442e-08
-4.41879722604488e-08
-1.05603337997621e-07
5.78486730652029e-09
-5.10712827885131e-08
-6.10231839899222e-08
2.57123717235646e-09
-5.50531437823796e-08
-3.49883796060067e-08
8.99116529074957e-10
-5.45454345517028e-08
1.14048608943793e-06
-4.70329142536341e-09
-3.39509718571708e-08
1.59452879939752e-06
-1.87421432355234e-08
-3.41958357787416e-08
-1.58106024526133e-07
1.39865841440849e-08
-5.23165805807232e-08
1.72032480187472e-06
-3.35352331068128e-08
-3.37697905973697e-08
-1.72809577354763e-07
2.85397269591961e-08
-5.27611215471807e-08
-1.50355059662426e-07
9.78121278043303e-09
-6.47897415562149e-08
1.89824130796554e-06
-5.01801369941889e-08
-3.34480956914348e-08
-2.50023923191084e-07
4.31971210804858e-08
-5.07132309182754e-08
-1.88305117351928e-07
2.07753573142738e-08
-6.56796124694597e-08
-1.20797794449636e-07
7.07113122498917e-09
-7.30485743178735e-08
2.06237889983594e-06
-7.02510238070934e-08
-3.130950056513e-08
-2.96412829131016e-07
5.60230504241351e-08
-4.77428172510252e-08
-2.57685707820961e-07
3.25196232470431e-08
-6.30915509414169e-08
-1.47604417946819e-07
1.45528391071307e-08
-7.35955016475361e-08
-9.56563717126288e-08
5.01059254704098e-09
-7.75210644438503e-08
2.18060608927141e-06
-9.46262250440326e-08
-2.77740873398061e-08
-3.2505676875383e-07
6.53760886717505e-08
-4.16597571546635e-08
-3.11082679519889e-07
4.30415791691823e-08
-5.79014009663037e-08
-1.9894148497401e-07
2.23169668459156e-08
-7.00552462941402e-08
-1.16264127405041e-07
1.01879487556746e-08
-7.72812834451562e-08
-7.34423830615943e-08
3.57441863541356e-09
-7.88177769117464e-08
2.25562840923803e-06
-1.23323216469482e-07
-2.42741704926898e-08
-3.41261714950152e-07
7.05507596920298e-08
-3.35615249609013e-08
-3.49238151634983e-07
5.08604170082711e-08
-4.81775485090821e-08
-2.42418357306619e-07
2.91086168502337e-08
-6.26117324634582e-08
-1.56124629111627e-07
1.5124556618564e-08
-7.20817861545341e-08
-9.11939379079542e-08
6.91646950304636e-09
-7.72294509544922e-08
-5.48529399248565e-08
2.48225157720869e-09
-7.73910122702405e-08
2.30777672262933e-06
-1.58099801998409e-07
-2.15698130390748e-08
-3.49294309663255e-07
7.10124359746191e-08
-2.4718913195426e-08
-3.74760559958079e-07
5.52841848795796e-08
-3.54362629618366e-08
-2.75163655795034e-07
3.39792375164027e-08
-4.95661264665751e-08
-1.91675259520232e-07
1.92703588417024e-08
-6.23380574656628e-08
-1.24085255441014e-07
1.00274329808449e-08
-7.02611014860278e-08
-7.07401010649235e-08
4.579954297871e-09
-7.42532504461361e-08
-3.99664102227311e-08
1.62518366178125e-09
-7.36794965300268e-08
2.3541837100232e-06
-2.00424793292951e-07
-1.78771190815185e-08
-3.52151729720951e-07
6.59661383312931e-08
-1.46785536310823e-08
-3.92086702407483e-07
5.59275044457583e-08
-2.1140373738641e-08
-2.9851699220206e-07
3.63998106583755e-08
-3.3116855072336e-08
-2.19791620695431e-07
2.21480919859386e-08
-4.68248500668079e-08
-1.54497120256703e-07
1.25918402633812e-08
-5.85828551896216e-08
-9.88049018154269e-08
6.46983510566998e-09
-6.56147219241735e-08
-5.41000641278244e-08
2.84051000857161e-09
-6.90495867817806e-08
-2.8235278446791e-08
9.75554289027016e-10
-6.81459633029582e-08
2.40825720133785e-06
-2.50954956095479e-07
-1.12869275154516e-08
-3.51768282775581e-07
5.49339944188422e-08
-2.30999858899945e-09
-4.05567961432326e-07
5.27125217149348e-08
-5.82617551081936e-09
-3.165939386475e-07
3.61892981579306e-08
-1.5536641056315e-08
-2.41347083322647e-07
2.34201631402779e-08
-2.81855163596995e-08
-1.79645369817794e-07
1.43635632748465e-08
-4.13725225239916e-08
-1.25499015907011e-07
8.10477702532086e-09
-5.23888934310154e-08
-7.82589084719254e-08
4.03609972477265e-09
-5.8943355928171e-08
-4.05962732491039e-08
1.67274367435836e-09
-6.22017573515762e-08
-1.89701785841485e-08
4.93812927714569e-10
-6.11988888677293e-08
1.18269098129745e-06
-4.41778354862403e-09
-3.77863948551284e-08
1.64638681168557e-06
-1.85830739326976e-08
-3.7980672115998e-08
-1.48299550265771e-07
1.50669781510975e-08
-5.88264454320993e-08
1.77273604096038e-06
-3.34750827674018e-08
-3.76769919702368e-08
-1.64430339057108e-07
3.0833186588318e-08
-5.94223756544408e-08
-1.39862369958852e-07
1.05207105101571e-08
-7.33294340950566e-08
1.95241560228868e-06
-5.02697639950831e-08
-3.74351534449418e-08
-2.4441970435797e-07
4.6859881480871e-08
-5.76990418706553e-08
-1.79102397495402e-07
2.24600303052584e-08
-7.46420522484082e-08
-1.09975881863821e-07
7.65327849071791e-09
-8.32650265026979e-08
2.11789496388046e-06
-7.05465677748878e-08
-3.51560091944542e-08
-2.92823773780011e-07
6.11015862126242e-08
-5.49401215187592e-08
-2.50308133129083e-07
3.5342080956885e-08
-7.26600925341608e-08
-1.37632794107278e-07
1.58351267605666e-08
-8.44148906104196e-08
-8.5071345893657e-08
5.4601212070728e-09
-8.90936007748208e-08
2.23672294999228e-06
-9.52168837773755e-08
-3.11416063162437e-08
-3.23483194209812e-07
7.17799979047225e-08
-4.86382477301163e-08
-3.05516413255122e-07
4.70549374884705e-08
-6.7844504689157e-08
-1.90172182802508e-07
2.44294145745361e-08
-8.17365105736887e-08
-1.06424890017743e-07
1.11612765337144e-08
-8.95843837951627e-08
-6.3427301393187e-08
3.91964367455978e-09
-9.14554843006429e-08
2.31203137874381e-06
-1.24207822068074e-07
-2.68416662872257e-08
-3.4181729127553e-07
7.81345189678139e-08
-3.99707539463789e-08
-3.45819474080655e-07
5.59923841501209e-08
-5.80281976221419e-08
-2.35194844492505e-07
3.20901265558296e-08
-7.48992546720103e-08
-1.47234089633103e-07
1.67014016939144e-08
-8.54586647920258e-08
-8.18587055803077e-08
7.65054730884318e-09
-9.06928532257922e-08
-4.55759333401344e-08
2.7376164796509e-09
-9.08324659698495e-08
2.36591217089182e-06
-1.58192175698668e-07
-2.32794405016024e-08
-3.52145175462995e-07
7.97553783544364e-08
-3.06274115332662e-08
-3.73810842805259e-07
6.14239565455501e-08
-4.5073416372275e-08
-2.69996714671636e-07
3.77677174443548e-08
-6.20017177980882e-08
-1.84120344895456e-07
2.14479222259673e-08
-7.64895925764753e-08
-1.1551740088756e-07
1.11853808134828e-08
-8.49179167239999e-08
-6.2028462855957e-08
5.10712529863798e-09
-8.85655022709203e-08
-3.14646531307369e-08
1.80235829639158e-09
-8.76950940473242e-08
2.41670632525513e-06
-1.99984089290014e-07
-2.06323742697859e-08
-3.57656480418853e-07
7.60589468978109e-08
-2.11122200454152e-08
-3.93825320636164e-07
6.30950991622849e-08
-3.07890832660794e-08
-2.95581048673269e-07
4.09324206321115e-08
-4.53230980244437e-08
-2.13960665492683e-07
2.48612557646526e-08
-6.0987292188946e-08
-1.47026482556595e-07
1.41311698539041e-08
-7.39121372258921e-08
-9.06770037551415e-08
7.26738979085379e-09
-8.1076380008775e-08
-4.60313556808062e-08
3.18935437676959e-09
-8.38856655081285e-08
-2.04754145657826e-08
1.07549868411647e-09
-8.25148400544542e-08
2.47449058628528e-06
-2.49452690705229e-07
-1.71729543785438e-08
-3.59546393078723e-07
6.63896128414142e-08
-1.05266101931233e-08
-4.09505855412571e-07
6.07658258931173e-08
-1.55785799160556e-08
-3.15519824918222e-07
4.13381537021729e-08
-2.7153883098342e-08
-2.37168320453259e-07
2.65713747072662e-08
-4.17179576602092e-08
-1.73559301345308e-07
1.62057213180827e-08
-5.652425331651e-08
-1.1826396499775e-07
9.0960766393379e-09
-6.84437375843482e-08
-7.06324174581659e-08
4.4894102637109e-09
-7.48897828326951e-08
-3.31683650561994e-08
1.82982792670282e-09
-7.73318261427424e-08
-1.19074061169637e-08
5.27944047524963e-10
-7.57366777446026e-08
2.54764846937097e-06
-3.07663954119924e-07
-1.14577239943236e-08
-3.58570501626954e-07
5.02956829352053e-08
2.22826968585294e-09
-4.2354030540206e-07
5.44542703373361e-08
4.96989202440822e-10
-3.33132911199941e-07
3.89866939995771e-08
-8.5673159685314e-09
-2.5661838130979e-07
2.64146291481128e-08
-2.12825911237503e-08
-1.95165490237554e-07
1.71472292134964e-08
-3.55984146625009e-08
-1.42296033802228e-07
1.03876524578625e-08
-4.9670485047389e-08
-9.48811849566863e-08
5.64896648863028e-09
-6.08796214879094e-08
-5.4265940525821e-08
2.61773355681028e-09
-6.69715169724991e-08
-2.28306014475237e-08
9.31320434614763e-10
-6.94212912768363e-08
-5.20748299153725e-09
1.97784883161072e-10
-6.78029828957835e-08
1.22875197123809e-06
-4.11952626524255e-09
-4.1939795169385e-08
1.70249164644051e-06
-1.8449223879603e-08
-4.20630037276136e-08
-1.36402177309765e-07
1.61851917606035e-08
-6.58679094143429e-08
1.82948969043254e-06
-3.34468813961017e-08
-4.18943655474716e-08
-1.53938752392009e-07
3.32136085368668e-08
-6.66171796672702e-08
-1.27421034413146e-07
1.12743737395167e-08
-8.25416281875584e-08
2.01105836961251e-06
-5.03710357179095e-08
-4.17538025636751e-08
-2.36718536456692e-07
5.06792683430893e-08
-6.52254910834316e-08
-1.67921109515127e-07
2.4197802865272e-08
-8.42804442297858e-08
-9.72945866249447e-08
8.23831755147293e-09
-9.42489118222118e-08
2.17789773163831e-06
-7.08766611383721e-08
-3.93920851472086e-08
-2.87110063799534e-07
6.64123934391586e-08
-6.27009891829808e-08
-2.40890040092937e-07
3.82641895548748e-08
-8.29196225076193e-08
-1.25758009247879e-07
1.71426155198073e-08
-9.60057497913035e-08
-7.27565334439699e-08
5.90971369557594e-09
-1.01489232708288e-07
2.29699988743724e-06
-9.57902374919189e-08
-3.50298986485877e-08
-3.19770627798875e-07
7.8483592903274e-08
-5.62513068017136e-08
-2.97847337888144e-07
5.12220476863156e-08
-7.84896906619723e-08
-1.7939906269571e-07
2.65961789615558e-08
-9.41930879068558e-08
-9.48179362073718e-08
1.21454640649891e-08
-1.02707215143333e-07
-5.18409157879518e-08
4.26307412200163e-09
-1.04942862274813e-07
2.37205472676341e-06
-1.25092525723459e-07
-3.01400620624017e-08
-3.40194747530451e-07
8.60772008164945e-08
-4.70547950942977e-08
-3.40214986719568e-07
6.13280901791784e-08
-6.85170583918787e-08
-2.25866010669496e-07
3.51534483823353e-08
-8.78960810159709e-08
-1.36477346902211e-07
1.82962519840936e-08
-9.96275865578055e-08
-7.09189013832779e-08
8.38271286531012e-09
-1.04987243033988e-07
-3.48958419874122e-08
2.98821977175924e-09
-1.05123680130171e-07
2.42616688016408e-06
-1.58820602555012e-07
-2.56223389963039e-08
-3.52650550674086e-07
8.8794758631882e-08
-3.69960225285439e-08
-3.70492673017779e-07
6.77870047654955e-08
-5.5085014372496e-08
-2.62637985022658e-07
4.16717569639467e-08
-7.49670493000518e-08
-1.74628729117941e-07
2.36682372605953e-08
-9.13568888730909e-08
-1.05275412093564e-07
1.23448719356082e-08
-1.00395047919979e-07
-5.18887978636084e-08
5.62535996186607e-09
-1.03719809889545e-07
-2.17245114552981e-08
1.97563620514715e-09
-1.02548066238828e-07
2.48050309321288e-06
-1.99791036453389e-07
-2.22030848171829e-08
-3.60489747903918e-07
8.62413401946483e-08
-2.69386669352641e-08
-3.92978647891719e-07
7.03864233318474e-08
-4.04339613424961e-08
-2.90480201365973e-07
4.55816622303637e-08
-5.79895126303062e-08
-2.06249533466053e-07
2.76576037179826e-08
-7.59216412485144e-08
-1.37870935677306e-07
1.571813435412e-08
-9.01770252979469e-08
-8.10738530289479e-08
8.08724885107963e-09
-9.75010749668829e-08
-3.67108682316502e-08
3.54589829125153e-09
-9.96298320587003e-08
-1.16270319707954e-08
1.18112588449188e-09
-9.77244759428326e-08
2.54330345428723e-06
-2.49152282238992e-07
-1.9624107169361e-08
-3.65049956122457e-07
7.78266266729007e-08
-1.68917888896421e-08
-4.11352041426286e-07
6.90346089687209e-08
-2.52079666306102e-08
-3.1266489844858e-07
4.6696692909286e-08
-3.94059786249152e-08
-2.31371948230632e-07
2.98884066487837e-08
-5.61464692875801e-08
-1.65913589116343e-07
1.81744814778191e-08
-7.26758461583449e-08
-1.09556308813883e-07
1.01869529544686e-08
-8.5539421061465e-08
-6.16971861155869e-08
5.02617989881843e-09
-9.18479767853097e-08
-2.46333880589637e-08
2.04255219959668e-09
-9.3387552000167e-08
-3.88119585823799e-09
5.76196268450498e-10
-9.11170571328222e-08
2.62103436614551e-06
-3.05581711476588e-07
-1.72302970330209e-08
-3.66531720191799e-07
6.31321553585554e-08
-5.9537212854718e-09
-4.27626050942305e-07
6.35457016247167e-08
-9.21968714505831e-09
-3.32123493672974e-07
4.49164862856484e-08
-2.01653049466533e-08
-2.52491703736412e-07
3.01519395958128e-08
-3.48606905804065e-08
-1.89083722140398e-07
1.94316792802832e-08
-5.10249931955922e-08
-1.34859572181737e-07
1.16995203402445e-08
-6.65636967051208e-08
-8.66798090026093e-08
6.31591787562895e-09
-7.84710329804406e-08
-4.60063439400208e-08
2.88526417538464e-09
-8.4204584466455e-08
-1.50389831155184e-08
9.94465377377941e-10
-8.55899462240829e-08
2.05861448323555e-09
1.9477566761328e-10
-8.31975832091762e-08
2.70972718850358e-06
-3.74304499512819e-07
-1.34169551022498e-08
-3.64919348034833e-07
4.12342215709997e-08
6.82565723894724e-09
-4.43498930668984e-07
5.39693446323858e-08
7.46491026627345e-09
-3.50796028623727e-07
4.03308544038816e-08
-7.10402047354218e-10
-2.7199381165325e-07
2.84417137520016e-08
-1.32919112228666e-08
-2.09259777098635e-07
1.933943291786e-08
-2.80491837444217e-08
-1.56405647756861e-07
1.24015818578263e-08
-4.36279145904195e-08
-1.09508222701677e-07
7.24452571238483e-09
-5.8357052204658e-08
-6.78424594978455e-08
3.67392635180543e-09
-6.95948077790874e-08
-3.32659909863226e-08
1.4735669509262e-09
-7.51053847130876e-08
-7.43985939354868e-09
3.4784626970417e-10
-7.66400311344911e-08
6.56753326893722e-09
-2.73070471059883e-11
-7.43305579027443e-08
1.27898810571897e-06
-3.8096018569966e-09
-4.64282333251322e-08
1.76316625703101e-06
-1.83443673152671e-08
-4.64524675879133e-08
-1.22198737885956e-07
1.73337186982679e-08
-7.34731493433872e-08
1.89096075902239e-06
-3.34764468564931e-08
-4.64387751388901e-08
-1.41105199973445e-07
3.56764693364354e-08
-7.43846271951835e-08
-1.12840747067258e-07
1.20324724793489e-08
-9.24810551199544e-08
2.07455044426772e-06
-5.05470575786407e-08
-4.64151678560333e-08
-2.26700181759649e-07
5.46468361597094e-08
-7.33443282186204e-08
-1.54575970147371e-07
2.59736033573e-08
-9.46611863121354e-08
-8.2583105943843e-08
8.8205907157051e-09
-1.06073176016346e-07
2.24273617472145e-06
-7.12231377877686e-08
-4.39771684060804e-08
-2.79081121330215e-07
7.19549899371115e-08
-7.10624111978366e-08
-2.29255470172777e-07
4.12790274251951e-08
-9.39415146710843e-08
-1.11814879154838e-07
1.84663853826757e-08
-1.08451590427309e-07
-5.85609144753746e-08
6.35385593924108e-09
-1.1479820433559e-07
2.36189335280524e-06
-9.64353035390826e-08
-3.9339610373073e-08
-3.13779476717624e-07
8.5493333810456e-08
-6.44629924947424e-08
-2.87931429890085e-07
5.55454843237291e-08
-8.98984354459096e-08
-1.66468345349637e-07
2.88151797593801e-08
-1.0752256970363e-07
-8.12974192704383e-08
1.31367402772078e-08
-1.16753292361836e-07
-3.85484960958224e-08
4.60210786916209e-09
-1.19383634894932e-07
2.4362363876078e-06
-1.25987885924979e-07
-3.39839656681231e-08
-3.36330611839479e-07
9.43922966479848e-08
-5.47978326187082e-08
-3.32377207710118e-07
6.68813983013942e-08
-7.9746109080132e-08
-2.14325164679491e-07
3.8308186729686e-08
-1.01741683227867e-07
-1.23717013550594e-07
1.99153072188964e-08
-1.14722267835048e-07
-5.8243193345116e-08
9.1144574784715e-09
-1.20233917476929e-07
-2.26921442119978e-08
3.23251911897584e-09
-1.20378880033805e-07
2.48980024317671e-06
-1.59962004738281e-07
-2.87677074905054e-08
-3.50905820145043e-07
9.82424883766351e-08
-4.40463830797107e-08
-3.64906454251411e-07
7.44191333834236e-08
-6.57347666016351e-08
-2.53044518882428e-07
4.57067504773199e-08
-8.86621053655656e-08
-1.63076454778442e-07
2.59320492772638e-08
-1.07083663794995e-07
-9.32171386344726e-08
1.35054176258544e-08
-1.16808094072201e-07
-4.01935744348354e-08
6.13153798963845e-09
-1.19825745664183e-07
-1.06359779494225e-08
2.14003057681933e-09
-1.1835219489292e-07
2.54586414135598e-06
-1.99845088780694e-07
-2.43418037268292e-08
-3.60880951820908e-07
9.67518219311376e-08
-3.31887096340204e-08
-3.89703802966828e-07
7.7941350064619e-08
-5.04239106767226e-08
-2.8311620046129e-07
5.03890589117717e-08
-7.11653369102964e-08
-1.96486041317776e-07
3.05279932177679e-08
-9.15898845056214e-08
-1.2686333865816e-07
1.73228940558284e-08
-1.07341978994759e-07
-6.98485930973607e-08
8.89585993154857e-09
-1.14890276135475e-07
-2.60125205537726e-08
3.88493174488681e-09
-1.16327213378793e-07
-1.59319932430469e-09
1.28045426421366e-09
-1.13862357462023e-07
2.61393565276357e-06
-2.49317863264278e-07
-2.11205704152307e-08
-3.67835478652728e-07
8.93940237247216e-08
-2.25752083766379e-08
-4.10558682283835e-07
7.74329753191324e-08
-3.47773116346669e-08
-3.07608955514133e-07
5.21773243789301e-08
-5.20866740530575e-08
-2.23651545340329e-07
3.32941442826686e-08
-7.13462877627825e-08
-1.56489827460269e-07
2.01935233820949e-08
-8.98202530459502e-08
-9.92115453537473e-08
1.1299728873327e-08
-1.03733832531155e-07
-5.13270715236682e-08
5.56818980737896e-09
-1.09893339377753e-07
-1.48901106747418e-08
2.25359767273576e-09
-1.10445490455009e-07
5.18652995220506e-09
6.23734614913864e-10
-1.0741586124062e-07
2.69719152899571e-06
-3.05997941173185e-07
-1.93114640746308e-08
-3.7204828676944e-07
7.5854659994298e-08
-1.21294979248221e-08
-4.2958205358626e-07
7.28498694497542e-08
-1.87526408543189e-08
-3.29321691670448e-07
5.10576472863286e-08
-3.23694049167547e-08
-2.46733762879302e-07
3.40495358691065e-08
-4.93242597005494e-08
-1.81414549825813e-07
2.18266209692553e-08
-6.74672900530365e-08
-1.25874821235002e-07
1.3088472478772e-08
-8.45620926746898e-08
-7.70304016501238e-08
7.04483005936628e-09
-9.72076052876836e-08
-3.64760925973181e-08
3.20872680605944e-09
-1.02544607087018e-07
-6.18298073120416e-09
1.09678765521363e-09
-1.02764265634817e-07
1.02431706904053e-08
2.00305705762985e-10
-9.95018259107296e-08
2.79672965437549e-06
-3.73084674147284e-07
-1.94723080594685e-08
-3.73222444651008e-07
5.54584083813886e-08
-1.25363883634807e-09
-4.47826067886042e-07
6.40379377640215e-08
-2.12000881571979e-09
-3.49871275147626e-07
4.69797331746366e-08
-1.22056543905456e-08
-2.67907132271543e-07
3.27196252607767e-08
-2.68185285118339e-08
-2.03209473070785e-07
2.20363299543865e-08
-4.35155224336091e-08
-1.48930193406603e-07
1.40239505676657e-08
-6.08246504386866e-08
-1.01022243047989e-07
8.1311631194738e-09
-7.68645157655652e-08
-5.89000425373154e-08
4.07656389350757e-09
-8.86044450561223e-08
-2.45438729625787e-08
1.59001219314064e-09
-9.352203791763e-08
5.9132460791718e-10
3.35093068914252e-10
-9.37613168153353e-08
1.39368411133448e-08
-5.98547431829319e-11
-9.05070014663138e-08
2.87952850327711e-06
-4.48176806873099e-07
-1.76705391648968e-08
-3.70517502272975e-07
2.65923261134385e-08
1.10213004202705e-08
-4.66525517810795e-07
5.09839245034131e-08
1.49139381357864e-08
-3.70502972196861e-07
4.00856809327692e-08
7.99829083145851e-09
-2.88547870792379e-07
2.93948107329435e-08
-4.28467287083134e-09
-2.23607595277908e-07
2.08119459630494e-08
-1.9282711779374e-08
-1.69468306579467e-07
1.3977502627641e-08
-3.55971929720364e-08
-1.22255375053827e-07
8.6440672956417e-09
-5.21554827925275e-08