/*--------------------------------*- C++ -*----------------------------------*\
  =========                 |
  \\      /  F ield         | OpenFOAM: The Open Source CFD Toolbox
   \\    /   O peration     | Website:  https://openfoam.org
    \\  /    A nd           | Version:  12
     \\/     M anipulation  |
\*---------------------------------------------------------------------------*/
/*   Windows 32 and 64 bit porting by blueCAPE: http://www.bluecape.com.pt   *\
|  Based on Windows porting (2.0.x v4) by Symscape: http://www.symscape.com   |
\*---------------------------------------------------------------------------*/
FoamFile
{
    format      ascii;
    class       volVectorField;
    location    "400";
    object      U;
}
// * * * * * * * * * * * * * * * * * * * * * * * * * * * * * * * * * * * * * //

dimensions      [0 1 -1 0 0 0 0];

internalField   nonuniform List<vector> 
10116
(
(2.57243557335644e-06 -0.000189056661254961 -1.24685431289566e-06)
(2.93702627405481e-06 -0.000195336336953183 -6.72570751631746e-09)
(7.31749038164133e-06 -0.000171968255675671 -4.18973931257741e-06)
(2.25896754289808e-06 -0.000223750018877768 -1.54453952573143e-06)
(3.34763912403567e-06 -0.000201007075571535 7.70499364197612e-07)
(8.19254387298715e-06 -0.000177903002090043 -2.90514349013167e-06)
(2.53582427189293e-06 -0.000228705222931712 7.47955715401894e-07)
(1.16489825765631e-05 -0.000193336622873963 -6.18051323578964e-06)
(7.08595984271332e-06 -0.000263104232826841 -4.62653987268107e-06)
(1.51748805048332e-06 -0.000151098596291304 1.84231627282698e-06)
(3.64492990075552e-06 -0.00020634418658745 1.30837622614634e-06)
(9.26450101443722e-06 -0.000183385876050338 -2.12762397142161e-06)
(2.84234087588823e-06 -0.000232621805919142 2.76952209916081e-06)
(1.29989397022271e-05 -0.000200092221021142 -5.01164294516709e-06)
(7.85708711970407e-06 -0.000269510223123298 -2.26864978385791e-06)
(1.68629105046642e-06 -0.000152837509371628 4.94881066538575e-06)
(1.62474864109973e-05 -0.000198568153974934 -6.85841971940234e-06)
(1.23510008234463e-05 -0.000292146229485928 -7.16292421674582e-06)
(4.61483111583914e-06 -0.000175469062303639 -8.46255412450429e-07)
(1.11393153479974e-06 -0.000115112048738122 5.13360339646112e-06)
(3.96430857869951e-06 -0.000211488895530506 2.01016158838162e-06)
(1.01891170902231e-05 -0.000188893030274427 -1.76429837278889e-06)
(3.11645988588354e-06 -0.000235713736383296 4.54552723279066e-06)
(1.45614343260106e-05 -0.000206570989142469 -3.94029646995605e-06)
(8.77325274420201e-06 -0.000274912122611386 -3.11188685818214e-07)
(1.88359241776823e-06 -0.000153498938754835 7.98264576603767e-06)
(1.81845532867156e-05 -0.000205757693414921 -5.62713418786258e-06)
(1.363407665897e-05 -0.000299597785042616 -4.75487403234175e-06)
(5.11537415612989e-06 -0.000178281655044747 2.27351525268954e-06)
(1.22942603046982e-06 -0.000115002649900166 9.12723860441259e-06)
(2.0959575584253e-05 -0.000198596497250759 -7.27756696863119e-06)
(1.80651518402851e-05 -0.000307164150406303 -8.79791358480834e-06)
(8.15998447969209e-06 -0.000194509068754606 -3.51709254318794e-06)
(3.23809671838128e-06 -0.000128550044318241 2.54634322360229e-06)
(8.65983193056712e-07 -9.12372664825579e-05 8.54905541045903e-06)
(4.30475176489659e-06 -0.00021616491703908 2.87813651604882e-06)
(1.11094346913397e-05 -0.000194241627110702 -1.24393440116712e-06)
(3.38874654376944e-06 -0.000238265925026207 6.39572771309878e-06)
(1.60668933124602e-05 -0.000213122654699185 -3.55846614846178e-06)
(9.64485996241908e-06 -0.000279600629316363 1.33021077534831e-06)
(2.06874018478842e-06 -0.00015342924295674 1.09645241871079e-05)
(2.02459707264146e-05 -0.000212562357521646 -4.43700173574698e-06)
(1.50856525479954e-05 -0.000306148419349334 -2.77151755843232e-06)
(5.72297087377448e-06 -0.000179914709820292 5.29143322117377e-06)
(1.36235165993392e-06 -0.000113976798936242 1.31981892506438e-05)
(2.35316500409206e-05 -0.000205805749047799 -5.9736769004071e-06)
(1.99359664325193e-05 -0.000315221733546367 -6.31601605799262e-06)
(9.0405777299381e-06 -0.000198154332151855 -3.92362363670399e-07)
(3.58940841491208e-06 -0.000129082278686836 6.5095087004953e-06)
(9.50126399450625e-07 -8.99911849981178e-05 1.341839460754e-05)
(2.52031906391594e-05 -0.000197640028547544 -8.03045846994377e-06)
(2.39841658860409e-05 -0.000318091770802843 -1.02138823544134e-05)
(1.21551010486178e-05 -0.000206523786770549 -5.50424541418225e-06)
(5.68339827053046e-06 -0.000140612350907414 -2.55740149710649e-07)
(2.45185269493228e-06 -0.000100303964780534 5.86234954553905e-06)
(6.51076399388966e-07 -7.21083442460303e-05 1.21502369257014e-05)
(4.66567031893462e-06 -0.00022022707485549 3.83641105413579e-06)
(1.20509210357755e-05 -0.000199152085755547 -5.25644716990536e-07)
(3.67163632427215e-06 -0.000240178877912865 8.40375283371488e-06)
(1.75604006019748e-05 -0.000219503964234165 -3.13788872286292e-06)
(1.05047596629707e-05 -0.000283787043270398 3.05259303524427e-06)
(2.25181253958148e-06 -0.00015272515221114 1.40416652076685e-05)
(2.23208005320554e-05 -0.000219463919696699 -4.0313959900203e-06)
(1.65230717130918e-05 -0.000311939005566594 -1.17790627785424e-06)
(6.31587631930774e-06 -0.000180812541756669 8.21725852656835e-06)
(1.48939057054373e-06 -0.000112283673844102 1.73590177142802e-05)
(2.61902065766544e-05 -0.000212655558534681 -4.70555724284641e-06)
(2.1944065028345e-05 -0.000322367755461511 -4.2825014300689e-06)
(1.00535781051211e-05 -0.000200587006547736 2.63804174494289e-06)
(4.01438888792847e-06 -0.000128588435046256 1.05761334239349e-05)
(1.04632953175717e-06 -8.79188097551964e-05 1.84638055419199e-05)
(2.84629787034019e-05 -0.000204590291096368 -6.70706431129275e-06)
(2.65005195607682e-05 -0.00032648938223711 -7.66517749484913e-06)
(1.34833094760032e-05 -0.000210706301754434 -2.34685509270296e-06)
(6.31527570109052e-06 -0.000141700774057805 3.68046037945557e-06)
(2.7090122870807e-06 -9.9467011638477e-05 1.06792128708445e-05)
(7.14147654932299e-07 -7.00552366132366e-05 1.78547793973918e-05)
(2.83848306717551e-05 -0.000197343377773202 -8.98199320500593e-06)
(2.97591696328142e-05 -0.000328093420995002 -1.17893204021959e-05)
(1.63385198470671e-05 -0.00021595064669416 -7.34823521305878e-06)
(8.52224252788175e-06 -0.000149422002523373 -2.52418153592875e-06)
(4.19162839370287e-06 -0.000109162522642389 2.88942317788384e-06)
(1.87446428334408e-06 -7.93837112524613e-05 9.30131871576784e-06)
(4.69111650569339e-07 -5.59864044168897e-05 1.59156523194731e-05)
(5.04868056114911e-06 -0.00022365260409353 4.8692804508111e-06)
(1.30594679760146e-05 -0.000203467894930968 2.99470739528745e-07)
(3.9667388191395e-06 -0.000241382878760905 1.05759550625723e-05)
(1.91049760935312e-05 -0.000225444024996198 -2.50106683965956e-06)
(1.13779065912598e-05 -0.000287375821286084 4.95824250700442e-06)
(2.44082907168716e-06 -0.000151257713127178 1.73085692644382e-05)
(2.44781583153025e-05 -0.000226185696383032 -3.6070241777083e-06)
(1.79682090343875e-05 -0.00031721985927174 4.84287282288557e-07)
(6.90564587193279e-06 -0.000181082857456244 1.12353935761414e-05)
(1.61991639701576e-06 -0.000109932338964341 2.168207646269e-05)
(2.88630494300988e-05 -0.000219602758449702 -4.27038233482894e-06)
(2.39760579138707e-05 -0.000328701082379579 -2.69006190587466e-06)
(1.10763277674989e-05 -0.000202203650216587 5.54861532978121e-06)
(4.43452323173906e-06 -0.000127438458663521 1.4719020293438e-05)
(1.13999348595408e-06 -8.51897133113365e-05 2.37059027998831e-05)
(3.17826755439854e-05 -0.000211311221626139 -5.39545310725931e-06)
(2.91308052834311e-05 -0.000333986034767561 -5.5868029168e-06)
(1.49344862232712e-05 -0.000213625206024599 7.19321287376792e-07)
(7.04358891839479e-06 -0.000141704489114877 7.75009062888306e-06)
(3.01850569091718e-06 -9.77304586515302e-05 1.57065956214669e-05)
(7.85419527520482e-07 -6.72272794097505e-05 2.38050382495255e-05)
(3.24075839901091e-05 -0.000203973772687425 -7.62477213071498e-06)
(3.29576919343674e-05 -0.000336713059115479 -9.1808067150942e-06)
(1.81564821223061e-05 -0.00022045506690758 -4.1482897896279e-06)
(9.4821178031301e-06 -0.000150906951502281 1.41636038026006e-06)
(4.65858343901631e-06 -0.000108700257614669 7.66798941066367e-06)
(2.06482295935164e-06 -7.76351258970015e-05 1.49356933998881e-05)
(5.15162406498913e-07 -5.33203219129318e-05 2.2389860038953e-05)
(3.00945983335928e-05 -0.000197915547866392 -1.01965859839373e-05)
(3.50328236814897e-05 -0.000337980349346617 -1.36623926277346e-05)
(2.03745131920085e-05 -0.000224558439970114 -9.37857356749967e-06)
(1.15255363004527e-05 -0.000156942651972767 -4.73198725076911e-06)
(6.29140157149349e-06 -0.00011623742175398 3.88553523638294e-07)
(3.16250015010854e-06 -8.6720465955261e-05 6.16190310215302e-06)
(1.40246264984895e-06 -6.22840609322272e-05 1.28927160367885e-05)
(3.2511921860799e-07 -4.21866614460452e-05 1.97979298859396e-05)
(5.4434607360808e-06 -0.000226391946200036 5.99814391200238e-06)
(1.41476751318957e-05 -0.000207154028861212 1.20475353848107e-06)
(4.27744019299374e-06 -0.000241840123460238 1.290747476922e-05)
(2.07308306245714e-05 -0.000230780346317715 -1.7200840953136e-06)
(1.22907082367438e-05 -0.000290314317550601 7.02739067886e-06)
(2.63161546318514e-06 -0.000148966941949889 2.0798810477855e-05)
(2.67383709497665e-05 -0.000232462116890994 -2.95084592141557e-06)
(1.94496519920724e-05 -0.000321920155209435 2.34368140574642e-06)
(7.50359178964939e-06 -0.000180605011450292 1.44495363247835e-05)
(1.75406340869065e-06 -0.000106790052430806 2.62509998443543e-05)
(3.17117044417253e-05 -0.000226347077515791 -3.81682992429704e-06)
(2.60611816057793e-05 -0.000334501064979603 -1.03498065934931e-06)
(1.21036906899632e-05 -0.000203182675748125 8.53649727221677e-06)
(4.85662464661524e-06 -0.000125642762881393 1.90181171820383e-05)
(1.23574723301957e-06 -8.1787979645588e-05 2.91905714560348e-05)
(3.51622150356674e-05 -0.00021822091084077 -4.983951303632e-06)
(3.18118908523622e-05 -0.000340646767776011 -3.98409620779739e-06)
(1.64138181010214e-05 -0.000215653686938656 3.65080554808822e-06)
(7.78400554799746e-06 -0.00014100012051206 1.18926243883066e-05)
(3.32768649360321e-06 -9.53582423225435e-05 2.09341291183552e-05)
(8.54865684143699e-07 -6.37444805908737e-05 3.00319677796922e-05)
(3.64283618989128e-05 -0.000210398574982951 -6.296334179162e-06)
(3.6254415866788e-05 -0.000344454362771271 -7.07669833161819e-06)
(2.00849987530149e-05 -0.000223670330780395 -1.04472665283033e-06)
(1.05373869527732e-05 -0.000151241768818881 5.50944861587873e-06)
(5.19467017653885e-06 -0.000107298634502852 1.26844825695921e-05)
(2.29367266233994e-06 -7.50598805203284e-05 2.08443474015024e-05)
(5.67148175473263e-07 -4.99193317626632e-05 2.91702684621726e-05)
(3.4899930164756e-05 -0.000204208943034551 -8.75021288977321e-06)
(3.89314414411643e-05 -0.000346784023043265 -1.10084541421549e-05)
(2.26921333976907e-05 -0.000229268036008265 -6.14061374055633e-06)
(1.28487423899343e-05 -0.000158678294789924 -7.70687503105169e-07)
(7.00499646841626e-06 -0.000116061841870417 5.15714513221508e-06)
(3.50871206631937e-06 -8.5251157036261e-05 1.17411190625856e-05)
(1.54377473822382e-06 -5.98668919269376e-05 1.92808085813325e-05)
(3.57898207706289e-07 -3.90502661452048e-05 2.69743816886066e-05)
(3.00345990403642e-05 -0.000198918225156068 -1.16761816759401e-05)
(3.95348620778402e-05 -0.000348335040699886 -1.59155119110626e-05)
(2.40074450031241e-05 -0.000233020380071406 -1.17512888387058e-05)
(1.44113737342148e-05 -0.000164055165250998 -7.16976705518776e-06)
(8.53092894299948e-06 -0.000122669515386243 -2.1153539412376e-06)
(4.74841145389585e-06 -9.28722397091695e-05 3.47676673144221e-06)
(2.38084802416325e-06 -6.86902443162927e-05 9.60744369111064e-06)
(1.01919657381347e-06 -4.7772859573229e-05 1.66198996595609e-05)
(2.19076113256765e-07 -3.02754481721787e-05 2.37548544846724e-05)
(5.85168740376797e-06 -0.000228352067541086 7.21857482565624e-06)
(1.52944498801633e-05 -0.000210188251479045 2.18640200758401e-06)
(4.60456738256869e-06 -0.000241486940243071 1.54178372415105e-05)
(2.24763827396016e-05 -0.000235520627014165 -8.45299004071136e-07)
(1.32502956760841e-05 -0.000292577372519475 9.24837525042221e-06)
(2.82903381358106e-06 -0.000145788574026102 2.45422915547218e-05)
(2.90829092647141e-05 -0.000238102377543223 -2.13820353931088e-06)
(2.09965762589752e-05 -0.000325998607693339 4.36849063907338e-06)
(8.12470185412502e-06 -0.000179328578454908 1.78886826532765e-05)
(1.89278145782719e-06 -0.000102785639098446 3.11194946641464e-05)
(3.4725537828497e-05 -0.000232678990638972 -3.11556304863621e-06)
(2.82281134656917e-05 -0.000339712118721446 8.27032081143584e-07)
(1.31526607311619e-05 -0.000203418809306195 1.17157411718877e-05)
(5.2847367900377e-06 -0.000123062120930808 2.35594242793197e-05)
(1.33442099733146e-06 -7.7594470643053e-05 3.49916064137673e-05)
(3.8736235934292e-05 -0.00022487507862617 -4.54486083799557e-06)
(3.45941537990149e-05 -0.00034675369968166 -2.32880835541186e-06)
(1.79241407521402e-05 -0.000217025752663124 6.64905423226478e-06)
(8.5302369210669e-06 -0.000139646201719219 1.61770161472991e-05)
(3.63805296131905e-06 -9.23306249786696e-05 2.63964061158771e-05)
(9.24698542889893e-07 -5.95825369637915e-05 3.65787384817639e-05)
(4.05609005011079e-05 -0.000217187813129396 -5.91637524063096e-06)
(3.9626110931664e-05 -0.000351349497563731 -5.4842219881147e-06)
(2.20546535897162e-05 -0.000225953863249586 1.90787128218198e-06)
(1.16215349314576e-05 -0.000150815372615573 9.67644939304455e-06)
(5.74127369444244e-06 -0.000105233902610056 1.79082464596429e-05)
(2.52235769376978e-06 -7.18497808826765e-05 2.70413008499946e-05)
(6.1716395672745e-07 -4.58720859298655e-05 3.62951036840508e-05)
(3.96811125785619e-05 -0.000210347880280735 -7.37579042790894e-06)
(4.29220808170934e-05 -0.000354722935766568 -8.89447021937102e-06)
(2.51109375556299e-05 -0.000232672386611605 -3.01260588994915e-06)
(1.42603118454796e-05 -0.000159217695989108 3.35135720238943e-06)
(7.78698198955809e-06 -0.000114894849538283 1.01825203845757e-05)
(3.9053220901174e-06 -8.29295324301953e-05 1.76181352787912e-05)
(1.71298166859177e-06 -5.66731835425823e-05 2.59980830204148e-05)
(3.94712569887306e-07 -3.52147184553391e-05 3.45120612120809e-05)
(3.5614460845544e-05 -0.000204803736636096 -1.00095846028352e-05)
(4.41346085734169e-05 -0.000357331138494416 -1.32321196757747e-05)
(2.68205521132272e-05 -0.000237882955021252 -8.4907474418682e-06)
(1.61023509770825e-05 -0.000165945894588613 -3.18905998707098e-06)
(9.51468225698237e-06 -0.000122680927640573 2.65900254380077e-06)
(5.28187833325503e-06 -9.16231378593881e-05 9.03736837141716e-06)
(2.63706606069133e-06 -6.64997727575451e-05 1.59269676705683e-05)
(1.11981437781502e-06 -4.48455476131891e-05 2.36957742401537e-05)
(2.43001279916579e-07 -2.67810026499996e-05 3.15693224672659e-05)
(2.79756651236887e-05 -0.000200057917777983 -1.32831943925062e-05)
(4.30800286456577e-05 -0.000359849777475374 -1.86010421542163e-05)
(2.70842947595811e-05 -0.000241878679536431 -1.4556392463553e-05)
(1.69818612816478e-05 -0.000171206726859977 -9.99230024716359e-06)
(1.06928412120525e-05 -0.000128963106127829 -4.895952255911e-06)
(6.45365269382084e-06 -9.86567583570022e-05 7.44481857373145e-07)
(3.58597226392338e-06 -7.4215581440436e-05 6.77790567413397e-06)
(1.76377442023905e-06 -5.3474336153731e-05 1.32172120852339e-05)
(7.14613738262483e-07 -3.52653356045364e-05 2.04479090521454e-05)
(1.44403585187574e-07 -1.99427390783951e-05 2.77478705439154e-05)
(6.26040201284285e-06 -0.000229425052717982 8.56007561323931e-06)
(1.64877252241652e-05 -0.000212472090789632 3.24957170963248e-06)
(4.94454848467923e-06 -0.000240243441601563 1.8133239027517e-05)
(2.43379881468854e-05 -0.00023963848382941 1.0823270938269e-07)
(1.42578876891394e-05 -0.000294109928487198 1.16339173019061e-05)
(3.04087171393147e-06 -0.000141650785885422 2.85772440924823e-05)
(3.15736997163229e-05 -0.000243117934011836 -1.22429339194769e-06)
(2.26247026503162e-05 -0.000329446263578006 6.53582454328339e-06)
(8.77261301797932e-06 -0.000177211337093373 2.15713488156831e-05)
(2.03580644283871e-06 -9.78521122373151e-05 3.63344538288406e-05)
(3.78991463194133e-05 -0.000238383538333239 -2.25068851149822e-06)
(3.04937445420999e-05 -0.000344299749871608 2.86742592708282e-06)
(1.42384883710955e-05 -0.000202871227743362 1.51162252292597e-05)
(5.72716379070795e-06 -0.000119627661993369 2.839709606054e-05)
(1.43591648813582e-06 -7.25299392370746e-05 4.11709778489776e-05)
(4.25267590974919e-05 -0.000231131600176905 -3.8385455196956e-06)
(3.75064357698216e-05 -0.000352255753530407 -4.58126566831896e-07)
(1.94824239960378e-05 -0.000217649572560812 9.83708985252937e-06)
(9.29069784016994e-06 -0.000137511812336125 2.06938422945505e-05)
(3.95214396072114e-06 -8.85163800111349e-05 3.2165342458995e-05)
(9.95509981094932e-07 -5.46370787289154e-05 4.35137229281571e-05)
(4.48800755707599e-05 -0.000223750866733023 -5.52553442544572e-06)
(4.31432564207245e-05 -0.000357675379576079 -3.84523202192044e-06)
(2.40842932181385e-05 -0.000227562671112505 4.91666444283304e-06)
(1.27277098420211e-05 -0.000149729642039353 1.39748397421431e-05)
(6.29085938522842e-06 -0.0001025172561947 2.33565652655572e-05)
(2.74909344794896e-06 -6.79776485733073e-05 3.35505569527289e-05)
(6.66332139533696e-07 -4.11493190364912e-05 4.38103868260107e-05)
(4.45772583843309e-05 -0.000216835450817543 -7.01015940301329e-06)
(4.70022018195672e-05 -0.00036180192394675 -7.3313835275542e-06)
(2.75853512859196e-05 -0.000235118952465116 -5.66388692773193e-08)
(1.57116299709976e-05 -0.000158963400307894 7.54003559382996e-06)
(8.59138758657769e-06 -0.00011303102658234 1.54221676502743e-05)
(4.30808262829435e-06 -7.99570634321082e-05 2.37966128899331e-05)
(1.87954266575157e-06 -5.28488998263057e-05 3.3075185364974e-05)
(4.2886166056283e-07 -3.07471355023983e-05 4.24541814080974e-05)
(4.11318950964558e-05 -0.000210729570328802 -8.67844421508818e-06)
(4.88183904690876e-05 -0.00036546142847321 -1.11173263529529e-05)
(2.97330619158977e-05 -0.000241422166086339 -5.35916452295608e-06)
(1.78770800037967e-05 -0.00016660782179455 9.4943573015174e-07)
(1.05632461888509e-05 -0.000121660381971441 7.69869168698277e-06)
(5.86262851782396e-06 -8.94828996825166e-05 1.4909195142698e-05)
(2.92834230899631e-06 -6.35142212634603e-05 2.25960522038233e-05)
(1.23986817628738e-06 -4.11845286240454e-05 3.11544521687419e-05)
(2.67900808186261e-07 -2.2620299190011e-05 3.97970060971421e-05)
(3.42887619485964e-05 -0.000205556619898026 -1.1555143583642e-05)
(4.83572949713908e-05 -0.000369078587882651 -1.59075876683461e-05)
(3.03799635053953e-05 -0.000246884437946108 -1.12955973711161e-05)
(1.90306006729778e-05 -0.000173206016123072 -6.00781817738311e-06)
(1.19487402848431e-05 -0.000129090025684359 -1.16617231039862e-07)
(7.18864505678611e-06 -9.75539758193182e-05 6.30304729960377e-06)
(3.9779819063269e-06 -7.2203737366646e-05 1.30717219713875e-05)
(1.94549938137935e-06 -5.07394514098531e-05 2.02179103028673e-05)
(7.83309822152809e-07 -3.19502101000027e-05 2.81544565877066e-05)
(1.58234467713099e-07 -1.61843311439232e-05 3.61439244147689e-05)
(2.36242954219009e-05 -0.000201405098304201 -1.4977502472411e-05)
(4.55154959810351e-05 -0.00037327211740022 -2.17669838653401e-05)
(2.9517953643644e-05 -0.000251711101519785 -1.7855481140974e-05)
(1.91347194976144e-05 -0.000178793370930057 -1.32918559143693e-05)
(1.2621444941069e-05 -0.00013541189593757 -8.10038148792593e-06)
(8.11059320047015e-06 -0.00010442200165386 -2.30391775270507e-06)
(4.8865491267758e-06 -7.95019364463389e-05 3.87262265013925e-06)
(2.66635490684827e-06 -5.84773894073128e-05 1.02763838524495e-05)
(1.26434330735409e-06 -4.03777514991754e-05 1.69579344416262e-05)
(4.796136705624e-07 -2.44196636841159e-05 2.434702727845e-05)
(8.45160920623489e-08 -1.09868348872809e-05 3.1749344680903e-05)
(6.71758269640423e-06 -0.000229458934425222 1.00327966169298e-05)
(1.77255207382413e-05 -0.000213854781546365 4.39671986001564e-06)
(5.29887936574545e-06 -0.000238009198317702 2.1078066386788e-05)
(2.63176489692352e-05 -0.000243047022362312 1.1217909971105e-06)
(1.53090692640848e-05 -0.000294831678516848 1.42066672360112e-05)
(3.26002020644219e-06 -0.00013647349956409 3.29335117537001e-05)
(3.42388171950133e-05 -0.000247520840413779 -2.38445267799863e-07)
(2.43348304945751e-05 -0.000332218628041945 8.8554231369599e-06)
(9.44563347904067e-06 -0.000174186585841476 2.55275847726303e-05)
(2.18212146031986e-06 -9.19113041711275e-05 4.19405677152461e-05)
(4.12186164108981e-05 -0.000243404917861096 -1.28890350160734e-06)
(3.28756961994187e-05 -0.000348265051248916 5.04989450815411e-06)
(1.53712545315284e-05 -0.000201509495585676 1.87526445101288e-05)
(6.18351621501458e-06 -0.000115283475891085 3.35700614509939e-05)
(1.53918627819126e-06 -6.6524162907409e-05 4.77836956458587e-05)
(4.65315986595864e-05 -0.000236774470435118 -2.97368675827805e-06)
(4.0562120157825e-05 -0.000357124848012215 1.60083012576011e-06)
(2.11016815790703e-05 -0.000217488645715462 1.32449892848295e-05)
(1.00736425345571e-05 -0.00013453223564469 2.54977475638951e-05)
(4.2733796609895e-06 -8.38364095930353e-05 3.83030696258326e-05)
(1.06732601196544e-06 -4.88286760242823e-05 5.0903634804916e-05)
(4.94476746967912e-05 -0.000229901770192196 -4.85343607915497e-06)
(4.68319349273557e-05 -0.000363380819653695 -1.98635299815814e-06)
(2.61936842651686e-05 -0.000228409776192421 8.1140207571496e-06)
(1.38628964528363e-05 -0.000147859443373916 1.84973880869004e-05)
(6.84718205846204e-06 -9.90194393915322e-05 2.90993306733928e-05)
(2.97609752154778e-06 -6.3327130056351e-05 4.04358138167262e-05)
(7.15100644636396e-07 -3.5657172049132e-05 5.17837785909357e-05)
(4.96781671436511e-05 -0.000223262032627692 -6.67290138884126e-06)
(5.12596576021674e-05 -0.000368296903520703 -5.72817639694658e-06)
(3.01524120411721e-05 -0.000236877026999511 2.94314019821329e-06)
(1.72047446738122e-05 -0.000158040391668227 1.18485040826978e-05)
(9.40935570211858e-06 -0.000110511221001277 2.0878717050199e-05)
(4.70938585207759e-06 -7.63278258345231e-05 3.02798317763031e-05)
(2.04111499651035e-06 -4.83639080088359e-05 4.05359562898033e-05)
(4.61245644456248e-07 -2.56151692591832e-05 5.08503003904194e-05)
(4.67627874980216e-05 -0.000216874289787521 -8.44549461636004e-06)
(5.36006301140445e-05 -0.000372715577542521 -9.59766119395028e-06)
(3.27123290358859e-05 -0.000243978801211117 -2.42251424692725e-06)
(1.97008989001585e-05 -0.000166455653955591 5.14181446515584e-06)
(1.16427162509044e-05 -0.000119921401832407 1.29523555090252e-05)
(6.45704597144898e-06 -8.66687215336675e-05 2.10915547790414e-05)
(3.22015153068036e-06 -5.98853504251907e-05 2.96403016352327e-05)
(1.35493728810223e-06 -3.6903835488583e-05 3.90354870388147e-05)
(2.89121179971051e-07 -1.78469699906762e-05 4.84835994276102e-05)
(4.04662676556012e-05 -0.000211268508891641 -1.04714656395265e-05)
(5.37132081315029e-05 -0.000377442413569284 -1.38217810814708e-05)
(3.3778175943792e-05 -0.0002505427546384 -8.18298511704881e-06)
(2.11637867350018e-05 -0.000173947844465525 -1.87536431641908e-06)
(1.32677844693812e-05 -0.000128155420087262 4.92749763550503e-06)
(7.96759753043252e-06 -9.55283893556077e-05 1.217805349274e-05)
(4.40129384201362e-06 -6.93663032707067e-05 1.97243172918116e-05)
(2.15090227669566e-06 -4.7253478421461e-05 2.76183886678532e-05)
(8.6392735612964e-07 -2.79394315975447e-05 3.62944136710285e-05)
(1.72604031697507e-07 -1.17930661925977e-05 4.5001541719215e-05)
(3.06577278473329e-05 -0.000206520720082527 -1.32914204487484e-05)
(5.14393861628312e-05 -0.000382814782443172 -1.9102859720661e-05)
(3.32743197646551e-05 -0.000256885497099229 -1.46247576420855e-05)
(2.15254066614332e-05 -0.000180891004631 -9.33059101795684e-06)
(1.41396254759773e-05 -0.000135619363902334 -3.33169021029971e-06)
(9.04725908424397e-06 -0.000103411177073237 3.25172721240093e-06)
(5.42741826827465e-06 -7.76098011540945e-05 1.01598109428011e-05)
(2.94440492842175e-06 -5.58911014399005e-05 1.72462918528782e-05)
(1.38380171759302e-06 -3.72261494133948e-05 2.45840085469993e-05)
(5.18951841176797e-07 -2.08160697929435e-05 3.2632374583374e-05)
(9.05220618321467e-08 -7.04567743696823e-06 4.06794736922182e-05)
(1.66072135876496e-05 -0.000204867018194193 -1.6772804229126e-05)
(4.66911309075345e-05 -0.00038942873471636 -2.54778816331381e-05)
(3.12466080007524e-05 -0.000263112081611605 -2.17084219097669e-05)
(2.08205580418107e-05 -0.000187217134150959 -1.71361432085848e-05)
(1.4240766218286e-05 -0.000142303354629564 -1.18209202115663e-05)
(9.59938452541844e-06 -0.000110383526000146 -5.80941898915066e-06)
(6.158661642948e-06 -8.48177395039244e-05 6.21289626312657e-07)
(3.6482375280208e-06 -6.33113707801772e-05 7.24258619221766e-06)
(1.9247399011189e-06 -4.49114213398801e-05 1.39322017213175e-05)
(8.5709277759045e-07 -2.90182788457535e-05 2.0789922567077e-05)
(2.91077783921261e-07 -1.50136883571237e-05 2.82831518607733e-05)
(3.69980625061313e-08 -3.27025643917723e-06 3.57368896380931e-05)
(7.26071874065399e-06 -0.000228314619943445 1.1632480919465e-05)
(1.90592324366829e-05 -0.000214155772157695 5.65305655431866e-06)
(5.67299548991241e-06 -0.000234660785595107 2.42753343841156e-05)
(2.84001815771217e-05 -0.000245595416847693 2.21179412773792e-06)
(1.6409462114212e-05 -0.000294639040223851 1.699151120663e-05)
(3.48542597687136e-06 -0.000130157629629149 3.76413056616391e-05)
(3.7060537542275e-05 -0.000251221432248367 8.0944461134982e-07)
(2.612692372774e-05 -0.000334236754565778 1.13530798125526e-05)
(1.0140276076901e-05 -0.000170171214535592 2.9787523991536e-05)
(2.33068367069286e-06 -8.48758783436216e-05 4.79780565644732e-05)
(4.47446167118561e-05 -0.000247794731646852 -2.57037833264989e-07)
(3.53787913318759e-05 -0.000351568547650763 7.38043291211207e-06)
(1.65511752280166e-05 -0.000199276894884681 2.26524227916523e-05)
(6.64941269812329e-06 -0.000109957879939028 3.91174490872879e-05)
(1.64307921508626e-06 -5.94994325645217e-05 5.4882088249937e-05)
(5.07338849750399e-05 -0.000241738676862565 -2.01343605769437e-06)
(4.37701397906794e-05 -0.000361362368320769 3.8079524961572e-06)
(2.27874003105541e-05 -0.000216521095359858 1.68871545879729e-05)
(1.08815468596411e-05 -0.000130658448381439 3.06269196976359e-05)
(4.59992509829455e-06 -7.82264733267231e-05 4.48622990627505e-05)
(1.13938583538468e-06 -4.20855343385388e-05 5.88103666167067e-05)
(5.42743355301008e-05 -0.000235440987274786 -4.00869010159659e-06)
(5.07056107520235e-05 -0.000368439600573266 6.73413420971212e-08)
(2.83937883029343e-05 -0.000228467153480757 1.15328431987856e-05)
(1.50337797288662e-05 -0.000145143560143563 2.3300436824555e-05)
(7.41415705756122e-06 -9.4662270936752e-05 3.5199124041854e-05)
(3.20483332444494e-06 -5.7817943809967e-05 4.77631932171645e-05)
(7.63433036387341e-07 -2.93188955277917e-05 6.02842690465963e-05)
(5.50080868214073e-05 -0.000229298429559668 -6.02865713900198e-06)
(5.57278971417992e-05 -0.000374159342430476 -3.90326503152317e-06)
(3.28302321453554e-05 -0.000237859884775464 6.1296929089694e-06)
(1.87466748381742e-05 -0.000156324944696606 1.63736921532903e-05)
(1.02426397775922e-05 -0.000107208737872959 2.66196159321516e-05)
(5.11070702227309e-06 -7.192554096047e-05 3.71259915475767e-05)
(2.19931243584315e-06 -4.31145092206112e-05 4.84408617270667e-05)
(4.9212996810319e-07 -1.97330311585063e-05 5.9768922080613e-05)
(5.26777335638726e-05 -0.000222935139562665 -8.1389597976214e-06)
(5.8584310189059e-05 -0.000379365648962634 -8.05086239045841e-06)
(3.58104986476805e-05 -0.00024583374798402 5.45502796422368e-07)
(2.15878061424343e-05 -0.000165627599868982 9.44052407615664e-06)
(1.27493788312626e-05 -0.000117522081051809 1.84130858232654e-05)
(7.05607375987378e-06 -8.31962935442868e-05 2.75725037905058e-05)
(3.50531077922819e-06 -5.55998555889506e-05 3.70618862459311e-05)
(1.46267807411908e-06 -3.197098657141e-05 4.73641248801462e-05)
(3.07906510837022e-07 -1.24267347035411e-05 5.76813984357149e-05)
(4.67130470605827e-05 -0.00021713954709216 -1.03332311594982e-05)
(5.91719421265336e-05 -0.000384897752941934 -1.23683515380772e-05)
(3.7249764151242e-05 -0.000253194887991487 -5.29021125699938e-06)
(2.33530017089857e-05 -0.000173858199613448 2.2948920032476e-06)
(1.46233427392417e-05 -0.000126488231213995 1.01790458211501e-05)
(8.76485048617584e-06 -9.2813138267347e-05 1.83656312827286e-05)
(4.82963240254033e-06 -6.58676123810143e-05 2.67623924091859e-05)
(2.35214316269302e-06 -4.31359725639999e-05 3.54569747739705e-05)
(9.37018237319667e-07 -2.33246742246662e-05 4.49122311947144e-05)
(1.83166391381241e-07 -6.81068628540772e-06 5.43678238027483e-05)
(3.73778463336071e-05 -0.000212071246091329 -1.23758007730748e-05)
(5.74306537806767e-05 -0.000391489775734631 -1.70982320837127e-05)
(3.71380051521518e-05 -0.000260685034961772 -1.15645741577565e-05)
(2.40042940771049e-05 -0.000181702606973248 -5.23320702882431e-06)
(1.57216163872824e-05 -0.000134739442239478 1.69562294609051e-06)
(1.00256889502016e-05 -0.000101453166672516 9.12257687534032e-06)
(5.99458259200233e-06 -7.48665401715045e-05 1.68079964927699e-05)
(3.24150660063033e-06 -5.25288203483824e-05 2.46229903373849e-05)
(1.51885346269499e-06 -3.33633622726036e-05 3.26587608510289e-05)
(5.66683185761705e-07 -1.65523383583748e-05 4.13979982477791e-05)
(9.64718033944996e-08 -2.50441873685962e-06 5.01142792266914e-05)
(2.41116509692777e-05 -0.000208808005140863 -1.5081069218704e-05)
(5.3241584426189e-05 -0.000399411586542073 -2.28768964030054e-05)
(3.54346971114757e-05 -0.000268514910847969 -1.85518661635107e-05)
(2.35323990923153e-05 -0.00018943346155409 -1.32343490381213e-05)
(1.60059463182769e-05 -0.00014258537474336 -7.09059876353852e-06)
(1.07287294806287e-05 -0.000109438427260067 -2.72320054125856e-07)
(6.84717785965467e-06 -8.30025127157108e-05 6.90208321840467e-06)
(4.03283786564284e-06 -6.08251729178659e-05 1.4203199077001e-05)
(2.10949134005294e-06 -4.18856443873911e-05 2.15245891653007e-05)
(9.25859560456683e-07 -2.5554306973066e-05 2.89909212874184e-05)
(3.0671840357141e-07 -1.12062963134921e-05 3.70994422411832e-05)