/*--------------------------------*- C++ -*----------------------------------*\
  =========                 |
  \\      /  F ield         | OpenFOAM: The Open Source CFD Toolbox
   \\    /   O peration     | Website:  https://openfoam.org
    \\  /    A nd           | Version:  12
     \\/     M anipulation  |
\*---------------------------------------------------------------------------*/
/*   Windows 32 and 64 bit porting by blueCAPE: http://www.bluecape.com.pt   *\
|  Based on Windows porting (2.0.x v4) by Symscape: http://www.symscape.com   |
\*---------------------------------------------------------------------------*/
FoamFile
{
    format      ascii;
    class       volScalarField;
    location    "300";
    object      k;
}
// * * * * * * * * * * * * * * * * * * * * * * * * * * * * * * * * * * * * * //

dimensions      [0 2 -2 0 0 0 0];

internalField   nonuniform List<scalar> 
10052
(
0.000116577353217497
0.000112311559032471
0.000346821348862945
0.000119138622808328
0.000107517438059869
0.000337864313503062
0.000114820832756475
0.000347334727743333
0.000122187450472222
0.000102096284251237
0.00032768965453586
0.000109976482476301
0.000497918115134171
0.000338358511897836
0.000117755072227263
0.000347180787645288
0.000122770049709076
9.59836763159761e-05
0.000316279271028639
0.000104477691474482
0.000484087708037019
0.000328170426625162
0.000112784129090493
0.000624478901322558
0.000497468118938249
0.000338183321224083
0.000118266958292267
0.000344157601252945
8.9128201236529e-05
0.000303510494244712
9.82692031336435e-05
0.000468783242707537
0.000316741076500963
0.000107145406027221
0.00060783197082194
0.000483649464638612
0.00032798515808872
0.000113263909160145
0.000732943288938466
0.000623553941860756
0.000494785748358101
0.000335193291303387
0.000115120382405747
8.14543019997906e-05
0.000289246673490498
9.13073501511003e-05
0.000451873151667961
0.000303950473287328
0.000100765614886744
0.000589528349557338
0.000468350416602977
0.000316550239780056
0.000107588813857044
0.000713920235165576
0.000606929747632791
0.000481014485490507
0.000325045162942952
0.000110178923417714
0.0008295923199404
0.000731494475782035
0.000619259621254194
0.000488649183297099
0.00032807669196912
0.000109159700763948
7.33804124672055e-05
0.000273449373044172
8.36293855581236e-05
0.000433225619422269
0.000289682514820048
9.36000844353091e-05
0.000569478020410896
0.000451446631071543
0.000303755966715181
0.000101172587979996
0.000693113345805693
0.000588641595314081
0.000465770172709042
0.000313684883213963
0.000104665881259991
0.000808476344682444
0.00071250541472141
0.000602712426341607
0.000474993155369503
0.000318053289691897
0.00010441073916993
0.000917498158759138
0.000827531607079519
0.000725849608043944
0.00061068442229377
0.000478191701718143
0.000317083114354995
0.00010177194101754
6.46751939473013e-05
0.000255454459253574
7.5437388016148e-05
0.000412680917853424
0.000273786006405166
8.57915373733217e-05
0.000547570032903859
0.000432810129963464
0.000289495053486272
9.39450730902112e-05
0.000670467607222628
0.000568606752399624
0.000448931462977723
0.000300984220028946
9.83984369568555e-05
0.000785478566656331
0.000691723667999358
0.0005845092114162
0.000459886513223402
0.000306891980531425
9.91463442679008e-05
0.000894486554613963
0.000806462335850319
0.000706960492337616
0.000594289351387079
0.000464745858964577
0.000307319405288381
9.72843808401528e-05
0.000998448323455099
0.000914914401155121
0.000820604483937533
0.000715192986967354
0.000597365003615859
0.000463568311138811
0.000303275804743959
9.36788713144125e-05
5.52949230220307e-05
0.000235190868919188
6.65575408728959e-05
0.000390021674914742
0.0002556970514129
7.73793489887726e-05
0.000523718027957729
0.000412259924041143
0.000273547094397613
8.60535718310308e-05
0.000645908450561873
0.000546714379851945
0.000430370324917014
0.000286818619149366
9.13216447724352e-05
0.000760571748255066
0.000669101688621245
0.000564570254525359
0.000443210570559337
0.00029442648800905
9.31677765320576e-05
0.000869509576766655
0.00078350067984822
0.000686285351448243
0.000576261995494017
0.000449885846975988
0.000296469358553532
9.23319556439319e-05
0.000973684092573042
0.000891960131288105
0.000799656426139439
0.000696485338439338
0.00058121470460901
0.000450425357823125
0.00029384630206396
8.94933639085812e-05
0.00107362445471179
0.00099551222435359
0.000906893627751425
0.000808095384537038
0.000699330256472193
0.000579561072862896
0.000445438667710378
0.000287360834178997
8.50049344352236e-05
4.54325101157414e-05
0.000212382053535711
5.6954305282606e-05
0.000365025788238431
0.000235339887885444
6.82203403272269e-05
0.000497806572645236
0.000389615995217096
0.000255463745219666
7.75671744947453e-05
0.000619364627653035
0.000522885097686145
0.000409910668935767
0.000271009755880232
8.35068323806689e-05
0.000733710606211369
0.000644562978717027
0.00054278618628669
0.000424838184302439
0.000280516910383742
8.64185763785143e-05
0.00084256349898813
0.000758627663873363
0.000663779095969921
0.000556524160003995
0.000433497529962856
0.000284372425405503
8.67232260731464e-05
0.000946878034783238
0.000867028182779933
0.000776821055267565
0.000676014460679069
0.000563468686061764
0.000435918136970438
0.000283391226216427
8.48916582327439e-05
0.00104721315954435
0.00097081247369974
0.000884078419031815
0.000787354773438893
0.000680897708014117
0.000563748255967787
0.000432679680659922
0.000278324779699293
8.11528621038243e-05
0.00114380360062798
0.00107046930623729
0.000986659921381656
0.000892824529029
0.000789990575813755
0.000678674982329104
0.000557814140213324
0.000424319108574031
0.000269578660475045
7.57497487172593e-05
3.5387109755078e-05
0.000186712825622226
4.67504434873749e-05
0.000337482290768391
0.00021245823728786
5.83145253118524e-05
0.000469700131612415
0.000364659130299898
0.00023515382902903
6.83344521558105e-05
0.000590806073476973
0.000497006865497353
0.000387385578731666
0.000253113764819518
7.51885080829462e-05
0.000704842044058707
0.000618052941961805
0.000519083480004826
0.000404609131727995
0.000265075075093515
7.8866154649949e-05
0.000813629318123097
0.000731799946356803
0.000639366826006052
0.00053497039786526
0.000415455393524182
0.000270897208105369
8.03981385039914e-05
0.000918047063299225
0.000840123591065323
0.000752080865736927
0.000653734688202539
0.000544052523678542
0.000419940226116398
0.00027176070299364
7.96901066466593e-05
0.00101868587134105
0.000944056908526766
0.00085928880200046
0.000764747209874942
0.000660736406875505
0.0005463875113521
0.000418617040727079
0.000268329231711559
7.69362631950932e-05
0.00111582431316407
0.00104412697410085
0.000962112422647607
0.000870238219617953
0.00076955219574515
0.000660611385915116
0.000542425504593641
0.000412017351462262
0.000260988688082074
7.22648973382107e-05
0.0012094509627282
0.00114050008736636
0.00106099793380785
0.000971341091080403
0.000872808551177711
0.000766816922590526
0.000653758418642294
0.000532526964848139
0.000400461564481006
0.000249965345434446
6.59820990172584e-05
2.59015797159381e-05
0.00015814639838324
3.63625747743109e-05
0.000307158497796727
0.000186773582055107
4.78131546900207e-05
0.000439230959431935
0.000337187650701192
0.000212387842878009
5.83827517091944e-05
0.000560141403575352
0.000468948252034351
0.000362609694813032
0.000233057268788873
6.6170568064161e-05
0.000673976236629646
0.000589529096825033
0.000493356346187215
0.000382362643925229
0.000247602818210067
7.092334726865e-05
0.000782687635954412
0.00070296616567126
0.000612995940137824
0.000511528348218727
0.000395632761928207
0.000255977404691607
7.33336480432106e-05
0.000887196429796792
0.000811229292602156
0.000725393676303602
0.000629576534918602
0.000522873027557856
0.00040237645576978
0.000258829681291315
7.38408914475521e-05
0.000988077055740683
0.000915271658336833
0.000832530594889352
0.000740252782824588
0.000638801154999299
0.000527409158137978
0.000403153404667866
0.000257238145914932
7.21782176232918e-05
0.00108565361609118
0.00101565311262077
0.000935510654523351
0.000845695530406415
0.000747278110978284
0.000640863049999035
0.00052554615695031
0.000398480628473922
0.000251512800520811
6.84748081300186e-05
0.0011799648579939
0.00111259298981995
0.00103481749325978
0.000947039226302118
0.000850547461850222
0.000746775635479928
0.000636154135665121
0.000517645272901515
0.000388686895120394
0.000241876350083554
6.28950916986357e-05
0.0012708086797714
0.00120602846000339
0.00113053965441197
0.00104467250355371
0.000949724191821777
0.000847446167014295
0.000739120043420932
0.000624935052894235
0.000503927593594523
0.000373979135893211
0.000228535382381361
5.58462128395898e-05
1.75001775216704e-05
0.000127376677535535
2.65031354356932e-05
0.000273857582278138
0.000158336559811399
3.7190024225183e-05
0.000406186248373366
0.000306992105708723
0.000186994568736579
4.78725070052982e-05
0.000527228701007424
0.000438550654413306
0.000335392309861546
0.000210672992760137
5.64957676960995e-05
0.000641059995295638
0.000558907088853025
0.000465484192955312
0.000357961054888053
0.000228062207412726
6.23728820430063e-05
0.000749738929554221
0.000672137947926411
0.000584627360278001
0.00048610541059117
0.000373859350619758
0.000239152401833899
6.57951201034478e-05
0.000854339759511914
0.000780323882757941
0.000696707676246399
0.000603474879566893
0.000499836893351944
0.000383113508225795
0.000244497559023779
6.73368670518141e-05
0.000955413224076543
0.000884463953801569
0.000803786909774269
0.000713829284657426
0.000615026921108285
0.000506727597963843
0.000386185191496003
0.000244946540303582
6.68529066537333e-05
0.00105334010984251
0.000985091882216302
0.000906880869396728
0.000819198110461938
0.000723146003245924
0.000619386332777456
0.000507112081554855
0.00038362166213691
0.000241027411268949
6.42012853192972e-05
0.00114820819914641
0.00108247760629181
0.00100650554644117
0.000920698954747846
0.000826358012131457
0.000724938478426286
0.000616917832033022
0.000501338568145422
0.000375753085914416
0.000232979672434822
5.95649773253279e-05
0.00123986612176185
0.00117661749672386
0.00110280229549245
0.0010187511287773
0.000925766650272905
0.000825606711774148
0.000719568959016834
0.000607879173650829
0.00048963446338293
0.000362800739880265
0.000221000930986078
5.31879634944448e-05
0.0013279815302423
0.00126727821699035
0.00119564936890943
0.00111336896895735
0.00102169812618459
0.000922465758035731
0.000817310055754602
0.00070723835122039
0.000592414003767067
0.000472161298461125
0.000344941012001103
0.000205329198435627
4.55462608796846e-05
1.12088980113671e-05
9.61024376375731e-05
1.797575847761e-05
0.000237580644493829
0.0001280449438503
2.71813601318883e-05
0.000370314073770384
0.000273933151728668
0.000159118628758797
3.73184656769014e-05
0.000491851844538446
0.000405618447992506
0.000305575345397599
0.000185876390553682
4.63377051492138e-05
0.000605970826871341
0.000526052651553791
0.000435325477605534
0.000331232113302871
0.000206380709224947
5.32255022676078e-05
0.000714790218076189
0.00063926225154021
0.000554180960121679
0.000458596837245195
0.000350041850955483
0.000220405141779665
5.7826389494872e-05
0.000819482994691497
0.000747416374246869
0.000666035824074325
0.000575408266898654
0.000474886278995691
0.000361998470690305
0.000228561706746946
6.02751046028114e-05
0.000920737179558896
0.000851646534042887
0.000773034904050697
0.000685423253374546
0.000589341441043196
0.000484252165413722
0.000367612591142588
0.000231356999719968
6.09655968730007e-05
0.00101892736441933
0.000952471524833718
0.000876229388512363
0.000790726984089583
0.000697113474593325
0.000596119850395398
0.000487045645501091
0.000367350732420671
0.000229449929625398
5.94355338400228e-05
0.0011142394109215
0.0010502126362857
0.000976105848426067
0.000892340688914886
0.000800237100835716
0.000701281885252864
0.000596008370459075
0.000483549091909371
0.000361582566924217
0.000223161473077417
5.58176295647216e-05
0.00120656821777234
0.00114491789565889
0.00107285546891297
0.000990712294346562
0.000899795765269565
0.000801874715639812
0.000698270110591345
0.000589252624164469
0.000473990011149529
0.000350545173037865
0.000212741706284983
5.03546580602907e-05
0.00129562733570514
0.00123641381312025
0.0011664155005161
0.00108590252530526
0.000996137622741839
0.000898951337614857
0.000795988033130284
0.000688271232395892
0.000575996422143734
0.000458538361731324
0.000334427597187888
0.000198401835822819
4.33361153694472e-05
0.00138100308678887
0.00132434878182495
0.00125652025846849
0.00117773619286325
0.00108921284484223
0.000992780867580786
0.000890177619807399
0.000782744307175553
0.000671371970328902
0.000556350364965512
0.000437339847083375
0.000313404094140039
0.000180398065671873
3.52916473935229e-05
6.71041555311078e-06
6.75108536485941e-05
1.15097674984787e-05
0.000198779340777334
9.77721394647594e-05
1.86585597367976e-05
0.000331379331782669
0.000238080585717786
0.000129706853844503
2.74841164692011e-05
0.00045370990747785
0.00036992974241658
0.000273091797882139
0.000158900475315824
3.62435261743739e-05
0.000568488050094201
0.000490764177483845
0.000402715116843561
0.00030207401460446
0.000182559434941746
4.37320516177951e-05
0.000677745629372465
0.000604223795848641
0.000521536061744092
0.000428884119460003
0.000324053676796564
0.000199706869899735
4.93825911285771e-05
0.000782665025259213
0.000712504870747477
0.000633324919989859
0.000545299912648402
0.000447932598972781
0.000338960904666779
0.000210810624251996
5.29611024213399e-05
0.00088409722205636
0.000816823344512527
0.000740280811940611
0.000655046856490515
0.000561734532223388
0.000459936635423295
0.000347315918143711
0.000216384315027661
5.45250581296154e-05
0.00098248224693214
0.00091783348110633
0.000843565537388576
0.000760258678386178
0.000669127971322062
0.00057099455549898
0.000465266155286733
0.000349581683541737
0.000216705858311606
5.42062983509376e-05
0.00107811382064714
0.00101584319776407
0.000943644757069462
0.000861966341410683
0.000772162891267984
0.000675764368176569
0.000573369324800339
0.000464208481454219
0.000346100057791219
0.000212357827729371
5.16526934523196e-05
0.00117097894371566
0.00111099875640213
0.00104075708886085
0.00096059249274412
0.000871824988701582
0.000776243226243986
0.000675199611962841
0.000569017264255329
0.000456942635673913
0.000337143055263237
0.000203649154658373
4.7164518642126e-05
0.00126082703532279
0.00120317514909494
0.00113489100116463
0.00105623935014813
0.000968482264174356
0.000873455767397524
0.000772817207198866
0.000667613207138571
0.000558078267603184
0.000443645398206244
0.000322924721570879
0.000190837437456066
4.10175697623379e-05
0.00134728096130376
0.00129207603210795
0.00122584050179617
0.00114878478734539
0.00106212271860304
0.000967683035301584
0.000867205103701251
0.000762037482325064
0.000653084953765703
0.000540662267453143
0.000424468982018233
0.000303624150366366
0.000174127818230715
3.35400657504345e-05
0.00142987805091456
0.00137727356665545
0.00131324016968052
0.001237934536952
0.0011525254759522
0.00105882174515806
0.000958576774567005
0.000853224440756611
0.000743949827598882
0.000631679066667628
0.000516878240383646
0.000399552563009157
0.000279408852527833
0.000153759655442228
2.5377006327505e-05
4.17006043838159e-06
4.46942479460266e-05
7.17345136536392e-06
0.00015874410494353
7.07066842709107e-05
1.22075131847259e-05
0.000289306363689412
0.000199945321069348
0.000100837447492055
1.91508108096677e-05
0.000412450255552994
0.000331285069863942
0.000238087553758004
0.000130827760429284
2.69402428235888e-05
0.000528273806392329
0.000452765109779932
0.000367478234982179
0.000270492561778982
0.000156976801072204
3.43990413432237e-05
0.000638397989005716
0.000566815810979704
0.000486517045119004
0.000396840446770528
0.000295836583082324
0.000177188301477481
4.07218704886233e-05
0.000743849494889282
0.000675502330269977
0.000598471575089572
0.000513048284290352
0.000418881287745162
0.000313935526067348
0.000191329664988508
4.5318611989662e-05
0.000845518828408286
0.000780037794748048
0.000705521046560475
0.000622647562604872
0.000532137586657819
0.000433713628452446
0.000325226562406569
0.000199777538808213
4.78603004976855e-05
0.000944088154758739
0.000881223724722592
0.000808888912969483
0.000727785194578092
0.000639191962299255
0.000543996937586957
0.000441729682102007
0.000330232177464401
0.000202709016518316
4.85510637054641e-05
0.00103991499963734
0.000979434210488551
0.000909158499141201
0.000829579682642287
0.00074211226153586
0.000648341384481868
0.00054894453975035
0.000443252331746237
0.000329236985440173
0.000200522289653217
4.71165992948671e-05
0.00113315891304286
0.00107491677761438
0.00100654962892167
0.000928411732240312
0.000841850251545843
0.000748687712182045
0.000650317501765369
0.000547121751326075
0.000438432759096473
0.000322531818761247
0.00019367285804175
4.36218786562299e-05
0.00122364543155533
0.00116763725042506
0.00110114403233533
0.00102442897422245
0.000938759657476275
0.000845986287742168
0.000747787729594538
0.000645240646803231
0.00053862456236937
0.000427436322525925
0.000310368672374148
0.000182526118267484
3.83987577359548e-05
0.00131101641795279
0.00125733761535015
0.0011927841688602
0.00111755481408739
0.00103285669189709
0.000940519502155118
0.000842291243121438
0.00073953444482073
0.000633173229345113
0.000523552508921085
0.000410416765104762
0.000292948198172125
0.000167314657405396
3.17461160653418e-05
0.00139483393439893
0.00134363643138255
0.00128116011096864
0.00120754925162437
0.00112396585200266
0.00103221308783191
0.000934043632716254
0.000830895392330448
0.000723959531510849
0.000614170788025482
0.000502011949453807
0.000387516154866288
0.000270431402758527
0.00014819870543021
2.40716969341513e-05
0.00147460563410349
0.00142605831576561
0.00136583994004666
0.00129403682451699
0.00121176669229891
0.001120806141621
0.00102289405110867
0.000919476591654887
0.000811815105629204
0.000701087120782775
0.00058830343397443
0.000474108240003019
0.000358858075668768
0.000242958515212866
0.000125343306717373
1.61343186228168e-05
2.80145671208191e-06
2.95699865780811e-05
4.75073587368139e-06
0.000119682315848516
4.95530953875066e-05
7.92273995186335e-06
0.000244401094728251
0.00016083946828136
7.53285050124714e-05
1.2836578484746e-05
0.000367774557603066
0.000289625449299445
0.000201158075736215
0.000103673063891755
1.91003094174977e-05
0.000484899394245058
0.000411731376170855
0.000329469733996848
0.000236723468623405
0.000130681741836054
2.58638453677006e-05
0.000596408106357595
0.00052672451780905
0.000448888868815734
0.000362346110122657
0.000265472601040942
0.00015331392794272
3.22831531983387e-05
0.000702879046883553
0.000636214192661643
0.000561293433566317
0.000478510445776954
0.000387644610224893
0.000286898052462899
0.00017032616641262
3.75561626541135e-05
0.000805052122325281
0.000741250761958676
0.000668676579258892
0.000588139603720473
0.000500471980855393
0.000405515600399363
0.000301330003972867
0.000181660626334741
4.10577199073597e-05
0.000903824450337675
0.000842665649908322
0.000772238093413104
0.000693309884710342
0.000607264598723513
0.000515077557567944
0.000416389422925172
0.000309229678719797
0.000187397769598519
4.25314350322769e-05
0.000999751271513341
0.000941065658985615
0.000872685717326989
0.000795174702258382
0.000710058162411347
0.000618985353963042
0.000522691857843458
0.000420622655386472
0.000310932241217935
0.000187609914514732
4.22612434499779e-05
0.00109319942628773
0.00103675316959164
0.000970291280758251
0.000894197435537009
0.000809869257516617
0.000719183494319424
0.000623584795843913
0.000523518007017928
0.000418406960066938
0.000306659569975076
0.000182789218107514
3.97820880984644e-05
0.00118414219672657
0.00112986221639953
0.00106522820692107
0.000990506006378627
0.000906981170007574
0.000816533014021094
0.000720873189263293
0.000621115347457682
0.000517588943122713
0.00040985951359408
0.000296706863394832
0.000173425184435315
3.5480142757077e-05
0.00127227100859066
0.00122020993055549
0.0011574253753932
0.00108410530613279
0.00100145386100205
0.000911309567031644
0.000815438059257279
0.00071522320465676
0.000611613831095676
0.000504989162392313
0.000395141491153222
0.00028131469006384
0.000159837320537694
2.96968982435099e-05
0.00135714689691807
0.00130743690052773
0.00124661219519327
0.00117479950360038
0.001093147563902
0.00100345542600548
0.000907481266365649
0.000806673718805908
0.000702235418631547
0.000595113763918295
0.000485811767157191
0.0003743944866341
0.000260658084177294
0.000142200533028409
2.27788831096761e-05
0.00143829023389396
0.00139110293048071
0.00133240406596157
0.00126226406573344
0.00118178940637533
0.00109274701859804
0.000996872245612765
0.00089561343202988
0.000790235526485246
0.000681918195503207
0.000571674527897164
0.000460157102307241
0.000347739835651105
0.000234855794613681
0.000120559246009433
1.52576708872801e-05
0.00151519105867034
0.00147070314638053
0.0014143256997242
0.00134606841004177
0.00126699315583479
0.00117883832573414
0.00108331329575399
0.000981845175175778
0.000875699650334373
0.000766112531217231
0.000654302246435534
0.000541362515662598
0.000428107675402787
0.000315260693153127
0.000204014024087121
9.52866447164541e-05
8.30874304513976e-06
1.63994485867558e-06
1.81440648603012e-05
3.30380986425089e-06
8.42223956776347e-05
3.36296208522091e-05
5.2354022519564e-06
0.000197535171536855
0.00012292218745696
5.4544637062188e-05
8.49707520140789e-06
0.000319613157549641
0.000245235530215218
0.000163512402420663
7.9576770143666e-05
1.31275380356053e-05
0.000437953642902808
0.000367370945872731
0.000288671732655375
0.000201381246672445
0.000105384263361306
1.86907013870118e-05
0.000551334294644381
0.000483551021574724
0.000408376146633396
0.000325322853164137
0.000233246644395028
0.000128994097963165
2.46018260716071e-05
0.000659483297662189
0.000594324447909177
0.000521518528946379
0.000441501971640766
0.000354156519588551
0.000257980666604418
0.00014826222925553
3.00468321137213e-05
0.000762640936938
0.000700315315655996
0.000629573747723667
0.000551370107177042
0.000466628659753738
0.000375288896339608
0.000275647116344505
0.000162266615099181
3.42171759720396e-05
0.00086173883329824
0.000802209702930319
0.000733574010148264
0.000656760002404041
0.000573276240390349
0.000484177089531836
0.000389206363234905
0.000286585237498454
0.000170739829187886
3.65549947896543e-05
0.000957740117423656
0.000900813023111728
0.000834242213112239
0.000758775047733899
0.000676014780314971
0.000587688670895819
0.000494602126873618
0.00039630237647755
0.000291130785390006
0.000173596778824228
3.71410015768071e-05
0.0010512204311622
0.000996611960968671
0.000932052014203387
0.000857977298690643
0.000775871643447999
0.000687696986912031
0.000594959652673342
0.000498158805335122
0.000396819778912929
0.000289483011055816
0.000170981792478161
3.56990233534762e-05
0.0011424073451554
0.00108993880522025
0.00102721704978849
0.000954517255870916
0.000873163885211472
0.000785088294915221
0.000692048644863637
0.000595201925547416
0.000494930278321266
0.000390871204123378
0.000281901484261155
0.000163525446397689
3.2321145095055e-05
0.00123109800776659
0.00118075434076928
0.00111982313446322
0.00104848106353303
0.000967938078274924
0.000880055923033654
0.00078663079232196
0.00068907626833232
0.000588370641748031
0.000484930560701627
0.000378598295239131
0.000268677813695836
0.000151654421535953
2.73895866951145e-05
0.00131687206943922
0.0012687487199722
0.00120967219742964
0.00113974994708572
0.00106011813153678
0.000972577828907333
0.000878901686589654
0.000780557124938834
0.000678763975296016
0.000574485943558101
0.000468248450991528
0.000360148547865437
0.000250024210609261
0.000135613343829127
2.12710108901513e-05
0.00139922918866066
0.0013534844396042
0.00129640415123274
0.00122803633625953
0.00114946758509482
0.00106245482988702
0.000968735377394216
0.000869766458095491
0.000766822213023592
0.00066108836747604
0.000553582900750899
0.000444968861948166
0.000335640367313955
0.000226066013563508
0.000115479512391245
1.44296388598729e-05
0.00147766166073494
0.00143448033816675
0.00137958058425981
0.00131295355945509
0.00123564575959233
0.00114938151725602
0.0010558634846808
0.000956519188312313
0.000852616867892207
0.000745392786776447
0.000636062353157919
0.000525715151940954
0.000415166419248449
0.000305147808949374
0.000196869219926436
9.13486002315127e-05
7.77504841134715e-06
0.00155165005079394
0.00151121370976797
0.00145869829743925
0.00139403391877396
0.00131822223476802
0.00123295862274596
0.00113991473522079
0.00104048254948074
0.000935903532356981
0.000827410198682469
0.00071625977096649
0.000603707319736409
0.000490914376777247
0.000378860136322853
0.000268700513347852
0.000162671348582931
6.41822103062982e-05
3.04374470429375e-06
6.51213276635524e-06
2.19420429279889e-06
5.22522223263808e-05
2.02111075314329e-05
3.37532546723189e-06
0.000149640741103895
8.82560834772511e-05
3.7338934391766e-05
5.45372160821352e-06
0.000268270439444467
0.000198976521970875
0.000127013791408637
5.87244316088591e-05
8.76620314710382e-06
0.000387258274116559
0.000319572925310653
0.000245368354440693
0.000165477482488756
8.24231126182991e-05
1.31109198251072e-05
0.000502782033599641
0.000436892133287587
0.000364715830331128
0.000285802113020497
0.000199695485675623
0.000105549068993938
1.81117735027783e-05
0.000613344902919155
0.000549423154460725
0.00047879929379947
0.000401810679274908
0.00031839639999254
0.000227471991087324
0.000125922199119871
2.32135620359059e-05
0.000718180478870059
0.000656978617465877
0.000587934945784354
0.00051211662317318
0.000430473319986553
0.000343008269135088
0.000248310705201645
0.000142017633329794
2.76242021018517e-05
0.000817918859402561
0.000759799671423517
0.000692763009174589
0.000617986395265313
0.000537105764430744
0.000451218031141406
0.000360150437264217
0.000262359174154815
0.000152987734182796
3.06160721597036e-05
0.000913991122174489
0.000858719631905834
0.000793869404966962
0.000720345519222531
0.000639916810599256
0.000554391747877629
0.000464627400417368
0.000370270277841269
0.000269843011867265
0.000158438008627381
3.18513379648196e-05
0.00100735619648221
0.000954605115598027
0.000891895101746614
0.000819755992554897
0.000739858432268627
0.000654240975756484
0.000564448971173724
0.00047104414177726
0.000373643675034567
0.000270974914375779
0.000158239979942222
3.1437218356313e-05
0.00109855936438513
0.00104798226179104
0.000987202769421831
0.000916517377880678
0.00083732402182309
0.000751641006466026
0.00066128533026319
0.000567465204542634
0.000470614337494175
0.000370437190636375
0.000265925278035908
0.000152829496795375
2.89816460737055e-05
0.00118757856745351
0.00113905840465098
0.00108005827731906
0.00101074257733782
0.000932342474224646
0.000846765968396928
0.000755857489510357
0.000661069196024342
0.00056341200438953
0.000463341377983529
0.000360751824494169
0.000255010170322994
0.000142765824600268
2.48834994172467e-05
0.00127405227104028
0.00122762718633287
0.00117039877669483
0.00110245050810565
0.00102491018235962
0.000939593110916677
0.000848299998142155
0.000752527112567665
0.000653517310937718
0.000552253471722597
0.000449284610036029
0.000344738682489737
0.00023848721405926
0.00012838990660734
1.95391526587505e-05
0.0013574690980087
0.00131327078265466
0.00125791380383494
0.00119142003262726
0.00111485382436412
0.00102996583392717
0.000938503501031408
0.000841941419465814
0.000741569369010043
0.000638583126248359
0.000534007508697784
0.000428516235434971
0.000322520775023384
0.000216512431089571
0.000109865084227991
1.34260430191265e-05
0.00143728388816611
0.0013954916608759
0.0013421716121417
0.00127728898755689
0.00120186431161046
0.00111760555953963
0.00102621299402526
0.000929120988944496
0.000827606134278146
0.000722909331438628
0.000616245512939419
0.000508701472643794
0.000401094354906975
0.000294166889174583
0.000189158853573616
8.72319809050624e-05
7.33867812411676e-06
0.00151297134480778
0.0014737807619263
0.00142269505749387
0.00135962434080585
0.00128555136247885
0.00120215304243038
0.00111109070190727
0.00101375463839034
0.00091138798050441
0.000805223312419062
0.000696513874083541
0.000586506317388436
0.000476352264135278
0.000367026415379205
0.000259688520782577
0.000156580277572412
6.12471383421179e-05
2.82199398950914e-06
0.00158400905356131
0.00154760576096642
0.0014989636836218
0.00143793384121162
0.00136545479281384
0.00128317491254925
0.00119272286902962
0.00109544669556369
0.00099254831525333
0.00088523252348355
0.000774744135941451
0.000662354528766587
0.000549335172435178
0.000436896784698888
0.000326227796888109
0.000219180773677658
0.000119394182303769
3.39772128390176e-05
6.27239479878328e-07
1.91307209073721e-05
7.64084037666282e-06
2.14793702961374e-06
9.92255262222266e-05
5.58736308452916e-05
2.14340151477594e-05
3.18084311223047e-06
0.000213988728092044
0.000151870103367175
9.27370580437735e-05
4.02701505697312e-05
5.46350640773552e-06
0.000333214596945458
0.000268616129011187
0.000200346814576321
0.000130272822065839
6.161812944066e-05
8.79233343861027e-06
0.000450835333940263
0.000386509019026485
0.000317779481889737
0.000244031674344754
0.000165617965494389
8.36620763998528e-05
1.28932632543491e-05
0.000564402294051034
0.000501126057695267
0.000432759011233054
0.000359226404803511
0.000280424131978822
0.000195799763162798
0.000104193294443117
1.73567425721277e-05
0.000671704216494781
0.000610946343663026
0.000543397296299098
0.000470094016076292
0.000391855009292092
0.000308688509862893
0.000219583736862337
0.00012155705575259
2.16033905963835e-05
0.000772493920874031
0.000715333405323557
0.000649575146575676
0.000576753378163867
0.000498580288674126
0.000416108153726922
0.000329221241859228
0.000236673203523297
0.0001345185457872
2.49138033621104e-05
0.000868616946335072
0.000814865045587486
0.000751508533352983
0.000679764447644815
0.000601642247749698
0.00051900421033747
0.000432716397153941
0.00034251482105815
0.000247138400927937
0.000142329680256574
2.67345425912484e-05
0.000961737346197245