/*--------------------------------*- C++ -*----------------------------------*\
  =========                 |
  \\      /  F ield         | OpenFOAM: The Open Source CFD Toolbox
   \\    /   O peration     | Website:  https://openfoam.org
    \\  /    A nd           | Version:  12
     \\/     M anipulation  |
\*---------------------------------------------------------------------------*/
/*   Windows 32 and 64 bit porting by blueCAPE: http://www.bluecape.com.pt   *\
|  Based on Windows porting (2.0.x v4) by Symscape: http://www.symscape.com   |
\*---------------------------------------------------------------------------*/
FoamFile
{
    format      ascii;
    class       volScalarField;
    location    "300";
    object      nut;
}
// * * * * * * * * * * * * * * * * * * * * * * * * * * * * * * * * * * * * * //

dimensions      [0 2 -1 0 0 0 0];

internalField   nonuniform List<scalar> 
10052
(
4.72577890997873e-05
4.55285002248324e-05
0.000431808448558265
5.00229770358523e-05
4.35850811056416e-05
0.000423036045482143
4.82100930570537e-05
0.000441587618320139
5.34271050985876e-05
4.13874899874711e-05
0.000412889757290527
4.61760858204632e-05
0.00104488379240652
0.00043263950816297
5.14890664116885e-05
0.000453948669253947
5.53989692188897e-05
3.89097531104872e-05
0.000401251607192998
4.38672926848758e-05
0.00102399975102182
0.000422298151029009
4.93155181083726e-05
0.0017420501991211
0.00105559046255435
0.000444753333195559
5.33670230951964e-05
0.000461223136636474
3.61310472316541e-05
0.000387880909416061
4.12604799465986e-05
0.000999973168464252
0.000410425043408869
4.68501507686397e-05
0.00170931346001983
0.001034537751461
0.000434145762862543
5.11095045292309e-05
0.00243003432119101
0.00174948952918217
0.0010681324771457
0.000451840916218969
5.26333181924382e-05
3.30205024416081e-05
0.000372495179905401
3.83370437657144e-05
0.00097222582918862
0.000396775639801836
4.40600269298444e-05
0.0016716419517772
0.0010103043374682
0.000421967352966774
4.85487629997455e-05
0.00238521321603244
0.00171665478423109
0.00104687026034374
0.000441062172239169
5.03740847945964e-05
0.0030706337173437
0.00243229310165214
0.00175539915795962
0.00107404036072502
0.000449397578183562
4.99314755260212e-05
2.97465477483294e-05
0.000355009567711218
3.51119776468017e-05
0.000939933027981881
0.000381088197145242
4.09259750966297e-05
0.00162817009131483
0.000982307141330622
0.000407963442719209
4.5652843034734e-05
0.00233374663562723
0.00167886419122437
0.00102240319661423
0.000428705961857654
4.78533369949642e-05
0.00301406258989298
0.00238747294978183
0.00172249722776005
0.001052687162298
0.000438636502648191
4.77591766660949e-05
0.00365031525094118
0.00306761068867376
0.00242878613807596
0.00175303656013347
0.00106744200526132
0.000438805115510482
4.6430341109794e-05
2.62149706320863e-05
0.000332287414446522
3.16687494568238e-05
0.000901522480834744
0.000362647364387092
3.75093016403525e-05
0.00157757148262643
0.000949650875324994
0.000391867295037759
4.2390383109886e-05
0.0022746059151344
0.00163525106846815
0.00099414247950051
0.000414509124287734
4.49874656022415e-05
0.00294926813430936
0.00233600431348164
0.00168465100740716
0.00102815453866667
0.000426363091269626
4.53510601828708e-05
0.00358257048009981
0.00301114386596313
0.00238407991480756
0.00172022403304784
0.00104622739209167
0.000428251381690667
4.43830221453574e-05
0.004167919493544
0.00364340123827961
0.0030546249138403
0.00241451237146304
0.00173727331215091
0.0010487400779792
0.000423710940400179
4.26812053310332e-05
2.24005959261248e-05
0.000304862549178446
2.79325283857184e-05
0.000855267670013003
0.000339082219185091
3.38257054231692e-05
0.00151821076211885
0.000910589110456873
0.000372486183345649
3.88266872214519e-05
0.00220632565337967
0.00158442697888746
0.000961132456743043
0.000398148841082937
4.17508767982401e-05
0.00287511427172277
0.00227686423934668
0.00164100122693473
0.00099986500836308
0.000412272948447255
4.26160357185503e-05
0.00350513696541136
0.00294646541153079
0.00233276930950553
0.00168254403417352
0.00102193341189265
0.00041626244316678
4.21235551958112e-05
0.00408964621784804
0.00357584241698
0.00299845278687881
0.00237012744937308
0.00170480448445415
0.00102789562805178
0.000413469653593822
4.07742788697024e-05
0.0046277265701612
0.00415869697722686
0.00362277890044307
0.0030279536787731
0.00238578316322448
0.00170757664898879
0.00102139391845088
0.000406219342437631
3.87244349939863e-05
1.83900621950694e-05
0.00027225302318513
2.38857239994527e-05
0.000800120854165392
0.000310727366812381
2.98105767486301e-05
0.00144863635177184
0.000863832953636163
0.000348198047051269
3.49913787875751e-05
0.00212704859615631
0.00152487015900869
0.000921591173013327
0.000378525155579195
3.81753050694389e-05
0.00279003484420531
0.00220854376336967
0.00159015063570486
0.000966884615842433
0.000396025930257928
3.95279001036546e-05
0.00341676860817359
0.00287245258101535
0.00227385202150489
0.0016391673578263
0.000993999849386433
0.000402540223569677
3.95644655489065e-05
0.00400030823237804
0.00349861599965168
0.00293414051598006
0.00231926200102125
0.00166762135921044
0.00100411600037449
0.000401878709931557
3.86775869228914e-05
0.0045395755667829
0.00408066447051155
0.00355566721650423
0.00297234006743511
0.00234200364929472
0.00167571530376762
0.00100108771885286
0.000396345335968703
3.69696816641494e-05
0.00503551709154755
0.00461715340709846
0.0041326578748636
0.00358533410185889
0.00298506596432179
0.00234179626214954
0.0016659877716031
0.00098782763435391
0.000386643479108807
3.45132410598831e-05
1.42858183211982e-05
0.000233984783083389
1.95829731734064e-05
0.000735109027375562
0.000277197229829912
2.54629662902163e-05
0.00136744339737087
0.000808217086482747
0.00031919693359871
3.08142493427546e-05
0.00203543195735578
0.00145519126527629
0.000874449251515422
0.000353986874760502
3.43664492385343e-05
0.00269199532170973
0.00212936559408864
0.00153063812545219
0.000927447083036105
0.000377003017642736
3.60709363621646e-05
0.00331576239843954
0.0027875478129657
0.00220584172686254
0.00158877037660379
0.000961576666109085
0.000386803356938436
3.66780206984363e-05
0.00389852658390986
0.00341049213302393
0.00286059020768756
0.00226095343096369
0.00162495676741941
0.000976885735232576
0.00038866166042037
3.6307459116744e-05
0.0044390625241632
0.00399159360318523
0.00347897851459341
0.00290874425000677
0.00229194414365849
0.00163934630404186
0.000978008445903784
0.000385208180957555
3.5048667541207e-05
0.00493813750850039
0.00452928027709042
0.00405518977999751
0.00351899240421655
0.00293033164422577
0.00229891060471291
0.00163494595286473
0.000968168161990703
0.00037717624418913
3.29255429389987e-05
0.00539686357645021
0.00502397064906746
0.00458722971412711
0.00408656923085653
0.00352908217547739
0.0029251760777154
0.00228328423518462
0.00161407969929109
0.000948649181704306
0.000364669134007625
3.00629475378777e-05
1.0456506138654e-05
0.000190773169328424
1.52026713804976e-05
0.000659239152404736
0.00023815172861069
2.08515038933858e-05
0.00127322060327738
0.000742790082612402
0.000285074190102339
2.63068631349602e-05
0.00192975386940619
0.00137396364394332
0.000818682618908249
0.000324854891644131
3.02327534874438e-05
0.00257933936354193
0.00203790561277897
0.00146117015915457
0.000880520056514664
0.000352897219615806
3.24325143600907e-05
0.00319993914313427
0.00268974640528667
0.00212711123830983
0.00152986472337676
0.000923112799233376
0.00036877023644343
3.34529639860872e-05
0.00378240753502592
0.00330978423100546
0.00277627751837837
0.00219381518346177
0.00157566344668965
0.000945480396962077
0.000373556396111195
3.36417819584416e-05
0.00432465487425231
0.00389012355372296
0.00339151036615265
0.00283610970260937
0.00223471003497964
0.00159777833370795
0.000951699554511364
0.000372557306511989
3.28809101016856e-05
0.00482718219463898
0.00442907447639875
0.00396678753213999
0.003443260283688
0.00286785621042365
0.00225000514759774
0.00159963241597506
0.000945905359941518
0.000366536391259399
3.11985924452373e-05
0.00529091466058376
0.00492689886848772
0.00450001407834699
0.00401005207690444
0.00346388246841451
0.00287164272824901
0.00224154138360634
0.00158401662391303
0.000929716283121223
0.000355652144965186
2.86565076605978e-05
0.00571669207291509
0.00538443811361258
0.00499094663693552
0.00453412994203445
0.00401845955342614
0.00345329735608381
0.0028481523303249
0.00221068313589111
0.00155215040680811
0.000903513695463513
0.000339986159317553
2.54410311970523e-05
7.01094701584681e-06
0.000145648213435438
1.10644739581383e-05
0.000572478271458711
0.000194456589406063
1.61924721463363e-05
0.00116461710547303
0.000666676784723323
0.000245662202738423
2.15443103472074e-05
0.00180814858340088
0.00127981350234205
0.000753300479396274
0.000290748573820741
2.5792756225464e-05
0.00244989619394005
0.00193247448042235
0.00138037963660066
0.000825362501794776
0.000324309496789426
2.8511282084986e-05
0.00306682955441717
0.00257744455956664
0.00203631291166441
0.00146128997706021
0.00087724895597215
0.000345697164909595
3.00089674168047e-05
0.00364950522790058
0.00319431737774102
0.00267924129262785
0.00211614345915188
0.00151807418282552
0.000908632902590938
0.000356206025658598
3.06766186325515e-05
0.00419423068547036
0.00377438348368544
0.00329161370189478
0.00275297636553342
0.00216903143346258
0.0015500011179092
0.000921551679871219
0.000358169224943528
3.04543290609083e-05
0.00470096277042212
0.00431502353221796
0.00386611956670256
0.00335697610266962
0.0027966465772451
0.00219426813168447
0.00155944029820352
0.000920643273274147
0.000354496070640229
2.92513060942635e-05
0.00517027470891826
0.00481628298304616
0.00440058055224614
0.00392281141667021
0.00338956995787114
0.00281067591145686
0.0021940786991355
0.00154993435356905
0.000908353102483743
0.000345556171276405
2.71391447104018e-05
0.0056028515945281
0.00527882549080432
0.00489461409001828
0.0044480254437355
0.00394333127468045
0.00338961109112621
0.0027961110580406
0.00217029023122162
0.00152319178846836
0.000885376110994365
0.000331463687203603
2.42301120208003e-05
0.00599932199835999
0.00570340474468242
0.005348673185693
0.00493186172933713
0.00445557519351351
0.00392764510167854
0.00335743704815765
0.00275348043290637
0.00212356511530824
0.0014795796878765
0.00085173532377465
0.000312361913919954
2.0751411934732e-05
4.52546609789169e-06
0.000102169726067054
7.4864184223219e-06
0.000477034830846802
0.000149337887359237
1.18170527593847e-05
0.00104087746371059
0.000580019709890515
0.000201879865410708
1.6767969158083e-05
0.00166871368507829
0.00117147755836674
0.000677657042507917
0.000251504705819225
2.11281787988738e-05
0.00230106498334317
0.00181124739459353
0.00128696924592335
0.000760951609408202
0.000291000214531818
2.43107953815362e-05
0.00291370218503868
0.00244846672028057
0.00193179262144594
0.00138179832807486
0.000823574941691633
0.000318293513524875
2.6364027449586e-05
0.00349658710029449
0.00306173249048897
0.00256795146170015
0.00202679000827301
0.00145122768549768
0.000864596373751118
0.00033501596482984
2.74548948598254e-05
0.00404499974949511
0.0036419534002137
0.00317716615029123
0.00265745074790056
0.00209320877265443
0.00149449492501014
0.000886580278144367
0.000341736625781228
2.77707068703877e-05
0.00455713038893162
0.00418503194530219
0.00375135730619339
0.00325855596846847
0.00271533487632047
0.00213055123591445
0.001513502073004
0.000891878559211935
0.00034087606409611
2.70793992641597e-05
0.00503311562876982
0.00469045585464773
0.0042874482402896
0.00382355697925731
0.00330504444697096
0.00274136312811348
0.00214017562649169
0.00151131092310505
0.000884217272728194
0.000334170435285358
2.54316154713498e-05
0.00547331603106241
0.00515855477909932
0.00478486117071628
0.00434993519532036
0.00385779126910228
0.00331716442133805
0.00273699324148019
0.00212450405306991
0.00149047557379248
0.000864984488778498
0.000321960793768759
2.29393112707582e-05
0.00587828138056835
0.005589928441839
0.00524387725320902
0.00483678987194081
0.00437109550494418
0.00385434334648325
0.00329560936942867
0.00270319031786311
0.00208469888366323
0.00145183194871007
0.000834456486580474
0.000304378798748353
1.9744471542465e-05
0.00624857767824643
0.00598519698718972
0.00566510190517734
0.00528425175414934
0.00484399336550652
0.00435088720305529
0.00381349158264079
0.00324038750335946
0.00263995428636261
0.00202071053905585
0.00139512376500467
0.000792390974787677
0.000281532116073383
1.61007314727909e-05
2.6691554770378e-06
6.6518473706884e-05
4.79442142990992e-06
0.000376957552334584
0.000107075746027114
8.10577970467077e-06
0.000902648243308701
0.000485192347555877
0.000157018504711261
1.23332266843696e-05
0.00150980453426841
0.00104831445764478
0.000592087029786123
0.000208299069242694
1.64981433487699e-05
0.00212989863948518
0.00167239013530035
0.00117984580618368
0.00068682679885573
0.000253058438625975
1.99477471902582e-05
0.0027367968768429
0.00230026558935708
0.001811822500512
0.00129020484219166
0.000761234272579567
0.000286529452780363
2.24961000965288e-05
0.00331986009412969
0.00290926348143268
0.00244027670875343
0.00192415604247513
0.00137403078266219
0.000813154932725802
0.000309272135329014
2.41138419584405e-05
0.0038731903204424
0.00348964035404627
0.00304587976477781
0.00254807505170885
0.00200618648566792
0.00143014660559669
0.000845014391138193
0.00032251646979269
2.48328429795447e-05
0.0043925632426768
0.0040363441246763
0.00362014102515787
0.00314598594046539
0.00262214975712226
0.00205730272771269
0.00146054877979947
0.00085886069928819
0.000325455658750042
2.4695420534578e-05
0.0048769010143045
0.00454709767214401
0.00415856937250983
0.00371052803876933
0.00320881515015022
0.00266245397032263
0.00207882518148527
0.00146742265840555
0.000856901829996945
0.000321352827322334
2.3533518227041e-05
0.00532614999767927
0.00502182036890387
0.00466005436746586
0.00423842183722577
0.00376061118915072
0.00323493561609009
0.00266997593186654
0.00207269584142406
0.00145355609628053
0.000842038326914978
0.000311274522909974
2.14858944863507e-05
0.00574066291883613
0.00546079154235648
0.00512455452130227
0.00472854940827548
0.00427497488670105
0.0037710265986738
0.00322543266197841
0.00264621752370403
0.00204078407088704
0.00142059497761613
0.000815105272541342
0.000295521227805836
1.86880886487516e-05
0.00612103059392598
0.00586454771726728
0.00555251702944493
0.00518086014602312
0.00475077560623567
0.00426854717919637
0.00374242817370893
0.00318073809636565
0.00259165068365744
0.00198352824591359
0.00136868254157051
0.000776030981185126
0.000274130880776689
1.5301631129034e-05
0.00646785841836046
0.00623366365090404
0.00594453575782004
0.00559582670589192
0.00518799021995565
0.00472663015236221
0.00421949371397164
0.00367460433105328
0.00310033204807961
0.00250567480854841
0.0019001586332762
0.00129690973826148
0.000724100356291676
0.00024694504649478
1.16078539767304e-05
1.69124062524625e-06
4.09987729248002e-05
2.96745724976993e-06
0.000280203524133691
7.31250646001698e-05
5.29413255163611e-06
0.000752473544345132
0.000386785657185595
0.000116069840601716
8.59022902203869e-06
0.00133050779126586
0.000911079139263765
0.000499123885184095
0.000164818972606566
1.22468224934471e-05
0.00193324407569663
0.00151435792185676
0.00105856400098138
0.000603623790160043
0.000211997907022866
1.56623230578059e-05
0.00253141485411222
0.00212997850474582
0.00167471295576362
0.0011856187127922
0.000689960482435984
0.000250831240036284
1.85244473813233e-05
0.00311411489175065
0.00273325483054684
0.00229379983298987
0.00180666108225946
0.00128542530773585
0.000753837234894113
0.000279610212525884
2.06170511095437e-05
0.00367357466628253
0.00331376354157855
0.00289508988304208
0.00242281331760536
0.00190648628192058
0.00135607759939767
0.000796401908148399
0.000298764345466493
2.17887992980816e-05
0.00420298060008384
0.00386524680449579
0.00346938252642279
0.0030170058735439
0.0025156212932609
0.00197336661190333
0.0013992747215413
0.000820231672391625
0.000307820419419291
2.21153686348655e-05
0.00469826189512387
0.00438312639392363
0.00401126149579529
0.00358147050736918
0.00309901842895362
0.00257237329542312
0.00200872026391181
0.00141727674320592
0.000825862590424443
0.000306951711985483
2.14655307430611e-05
0.00515868940411671
0.00486611539768571
0.0045179261844234
0.00411151256927871
0.00365012522328715
0.00314154314810647
0.00259393500890485
0.00201399487265561
0.00141183416232825
0.000816209994792449
0.000299289534524462
1.98716296101772e-05
0.00558445854596549
0.00531408015207548
0.00498893413614813
0.00460555287447475
0.00416584102976449
0.0036765462454277
0.00314597314012758
0.00258183034449063
0.00199127734062589
0.00138548605438555
0.000793406675082348
0.000285580691016474
1.74947969202334e-05
0.00597614503184632
0.0057273556210896
0.00542440892840127
0.00506321074188649
0.00464476553244205
0.00417500750747194
0.00366181625497883
0.00311319907208758
0.00253708749189922
0.00194165651495682
0.00133902882099687
0.000757792583334895
0.000265984637811481
1.44831994582875e-05
0.00633448577116053
0.00610653332946218
0.00582484889331419
0.00548478390345515
0.00508667563016655
0.00463586357088032
0.00413978092359712
0.00360616866748796
0.00304316369560933
0.00245957875856881
0.00186480856383349
0.00127186788147913
0.000708720191116852
0.000240207052017619
1.10107888723887e-05
0.00666017155757544
0.00645222218420322
0.00619084065450997
0.00587084056969014
0.00549197744113192
0.00505911931206288
0.00457930983737032
0.00405992236812277
0.00350878529053557
0.00293481027062416
0.00234800434292935
0.00175910733592594
0.00118217756098906
0.000644561078814743
0.000207324590585286
7.37663619958518e-06
1.12223763913101e-06
2.64241660914429e-05
1.95578861707242e-06
0.000194043466020938
4.91743380658914e-05
3.41020505882773e-06
0.000595818180280173
0.000292322509988721
8.32604100212759e-05
5.74901556982199e-06
0.00113114119127382
0.000762401190978681
0.000403734976268556
0.000125808263078292
8.68018140081838e-06
0.00170789544668581
0.0013363342670696
0.000924030573793513
0.000514101730255237
0.000171179558038608
1.17583321708206e-05
0.00229170476452304
0.00193460191020865
0.00151909529625618
0.00106783217363844
0.000610732559929505
0.000212862670220016
1.46572682658622e-05
0.00287210140619951
0.00252916460114318
0.00212584482021912
0.00167280231562421
0.00118472872095009
0.000686503677669853
0.000246701487864793
1.70606578419309e-05
0.00343934214551984
0.00310921233673959
0.00272134126791228
0.0022794553889846
0.00179269506222069
0.00127141107874247
0.000740682395386234
0.00027150154953827
1.86762640183264e-05
0.00398235158993154
0.00366662154267951
0.00329557173680184
0.00286918995295228
0.00239391757926504
0.00187747868695109
0.00132892188348701
0.000774894762378288
0.000286721231426729
1.93657026507527e-05
0.00449258445237492
0.00419433133032348
0.00384194472648541
0.00343347211184882
0.00297340827801477
0.00246946262889983
0.00192840830731194
0.00135950277723649
0.000790253831755791
0.000290763771973131
1.92503533889995e-05
0.00496743776294814
0.00468811225372043
0.00435547806933858
0.00396664767512083
0.00352422370335174
0.00303526722216524
0.00250746918293186
0.00194728277299381
0.00136452863017213
0.000787099407351951
0.000285905795620188
1.81213288146805e-05
0.00540694037337192
0.00514715914400932
0.00483456340347363
0.0044656147662006
0.00404182465553752
0.0035693494537204
0.00305596663719137
0.0025090277464309
0.00193543231416765
0.00134601051270239
0.00076908961455173
0.000274457039875186
1.61647018491292e-05
0.00581187256334759
0.0055716328555371
0.0052788977339135
0.00492957988431413
0.0045244445404902
0.00406897997226634
0.00357059740430138
0.00303692817545875
0.00247562142562726
0.00189462709910074
0.00130582500936202
0.000737402522245499
0.000256844446480351
1.35481889108767e-05
0.00618313103724509
0.00596209924848252
0.00568876054109947
0.00535850080902024
0.00497150782721939
0.00453278936006234
0.00404939109439705
0.00352871072222144
0.00297860659892461
0.00240767155730426
0.00182514295528529
0.00124390515005005
0.00069169390043265
0.000232871913697569
1.04194276700807e-05
0.00652162775309137
0.00631928921105135
0.00606473814674831
0.0057528253673015
0.00538322538195207
0.00496056149121671
0.00449156224721353
0.00398330243287651
0.0034433548371702
0.0028804180152866
0.00230433454109985
0.00172574367086132
0.00115864028865119
0.000630281462871486
0.000201403292808771
6.97583693139585e-06
0.00682815353559967
0.00664388855394121
0.00640745067574648
0.00611315312548313
0.00576015391378127
0.00535272216777938
0.00489728999683927
0.00440058697113275
0.00386978748322245
0.00331320750621043
0.00274069078943408
0.00216345190851254
0.0015937009717644
0.00104686967703989
0.00055017335141617
0.000161718008903105
3.7492475175825e-06
5.60527257307396e-07
1.51476989634583e-05
1.34562938762766e-06
0.000123743174458576
3.23287180524784e-05
2.21684400990092e-06
0.000438897140047316
0.000208085968132058
5.85151002241329e-05
3.77167649680691e-06
0.000913827232049517
0.000607262498367295
0.000311985139108164
9.39434931927437e-05
5.95817847985828e-06
0.00145093117029337
0.0011385834968291
0.00077882555489038
0.000422843902971904
0.000134479589483417
8.4939357247948e-06
0.002010200176814
0.0017111664822584
0.00134427717737478
0.000937835089377963
0.000526127502066627
0.000175348285556954
1.1150976192158e-05
0.00258350388699954
0.00229148112858686
0.0019336662132051
0.00152139721027384
0.00107192891657449
0.000612308840135757
0.000212016506693134
1.36218783181002e-05
0.00316015244726811
0.00286905742607405
0.00252042726882153
0.00211556490664618
0.00166348372564378
0.00117561640330986
0.000677957330076256
0.000241501335934842
1.55415616124611e-05
0.00372194859438635
0.00343388750427799
0.00309391450593264
0.00269934887998545
0.00225501368689943
0.0017683453358032
0.00124882648909044
0.000723082781720166
0.000262089737096566
1.66305373847515e-05
0.00425338028942706
0.00397481872003302
0.00364575767269867
0.00326323283675135
0.00282984560469057
0.00235224156389634
0.00183695507872507
0.001293289993936
0.000748617110027425
0.000272442720348684
1.69113317347095e-05
0.00474768062094264
0.00448327035577285
0.00416865751844647
0.00380046503051854
0.00338022280491599
0.00291398489764203
0.00240888210266486
0.00187114700356526
0.00131059475410512
0.0007541635882503
0.000271004109483329
1.6258743578308e-05
0.0052045980027161
0.0049565707568955
0.00465820188437364
0.00430587574650246
0.00390053028209853
0.00344748846823002
0.00295384382746106
0.00242656079448644
0.00187230811783386
0.00130155253928282
0.00074185756760869
0.000262081205555812
1.47245339193646e-05
0.00562547326636319
0.00539467791719603
0.00511340086722705
0.00477760006632455
0.00438773999954962
0.00394871832986125
0.00346733993940427
0.0029507800249469
0.00240636974437328
0.00184180365243037
0.00126865625559836
0.000714620873363182
0.000246605783222382
1.24952680234417e-05
0.00601173121986303
0.00579833130346664
0.00553431464395098
0.00521514338417636
0.00484083413794416
0.00441597830379581
0.00394713180045789
0.00344126749802544
0.00290591040765816
0.00234939275432912
0.00178075508773747
0.00121270482562861
0.000672694084047415
0.000224595217732656
9.72961974733097e-06
0.00636456651980627
0.00616840779162192
0.00592147490672537
0.00561870144066555
0.00525966097429471
0.00484867495261754
0.0043920849304857
0.00389659986482183
0.00336948248301731
0.00281917589863117
0.00225532681335173
0.00168845732913905
0.00113250474097961
0.000614621098206412
0.000195107562482609
6.59726015434496e-06
0.00668505592931343
0.00650580443382854
0.00627560393824959
0.00598884105600566
0.00564462998639175
0.00524702066895992
0.00480213772214338
0.0043164032434698
0.00379671663687055
0.00325115716613919
0.00268937435636106
0.00212244444370097
0.00156251166169762
0.00102501044844315
0.000537213426746649
0.000156744496301077
3.50842732315524e-06
0.00697409063211854
0.0068113004927423
0.00659738714046882
0.00632619688891246
0.00599634801065502
0.00561159141461312
0.00517781724584725
0.00470113110344048
0.00418802001522774
0.00364608195389743
0.0030844701478097
0.00251411130593695
0.00194757701536168
0.00139884097872978
0.000885562355668999
0.000437574805117581
0.00010971922533482
1.33089190034082e-06
2.20832515844199e-06
7.47281454938904e-07
6.03201233612182e-05
1.74581039781339e-05
1.40011924491717e-06
0.000284861320534076
0.00013576625719304
3.86060574143289e-05
2.36915454905567e-06
0.000682138305244964
0.000450972974707741
0.000228264615310801
6.76559339519045e-05
3.94319611678636e-06
0.001161541584727
0.00092270805732419
0.000626865655274046
0.00033401108261984
0.000103328441241131
5.95154604612604e-06
0.00167867887158269
0.001456970355046
0.00115035551829311
0.000797762337265871
0.000439677922855955
0.000141265396217192
8.20498387638505e-06
0.00223332413106792
0.00201345918698811
0.00171459562327984
0.00135178890242514
0.000947871262017271
0.000533409666875302
0.000177890973800059
1.05050811318341e-05
0.00281949999504234
0.00258375340979749
0.0022874077422369
0.00192866893158951
0.00151777988363096
0.00106874230224816
0.000609170781190859
0.000210042920153325
1.25212217549847e-05
0.00340877492644055
0.00315723673865126
0.0028581117208515
0.00250371757949446
0.00209669802596309
0.001644754683839
0.00115852701940153
0.000665128244341162
0.000234999474362017
1.39078894582239e-05
0.0039712835847356
0.00371615871586362
0.00341659808949456
0.00306645535624902
0.00266541992416636
0.00221878518431262
0.00173311338692068
0.00121813040064561
0.000700967217060393
0.00025063713193861
1.44906600581724e-05
0.00449291918106676
0.00424524592017762
0.00395188628613787
0.00360850049441684
0.00321501435934736
0.00277569885369492
0.00229682346280141
0.00178457745077369
0.00124882799988945
0.000716588287413025
0.000254422578090598
1.43120656223089e-05
0.00497281803403617
0.00473766787181468
0.00445547562571007
0.00412253936834494
0.00373886936885205
0.00330853219043299
0.00283767516082137
0.00233289790540494
0.00180073907169011
0.00125132436448813
0.000711344448556097
0.000248381722347454
1.32009463297167e-05
0.00541350375144709
0.00519301311002192
0.00492454292765381
0.00460417690800153
0.00423197785676098
0.00381201026035403
0.00335025656104977
0.00285333256079554
0.002328233472979
0.00178239590680493
0.00122703456913498
0.00068921816240969
0.000235220655670281
1.13512285033192e-05
0.00581756923374887
0.0056125122083766
0.00535885712416005
0.00505221162118224
0.00469240471859683
0.00428349169400423
0.00383138851802834
0.00334253103192802
0.00282404763353847
0.00228397099508102
0.00173110144539476
0.00117790458846828
0.000651476553417858
0.000215250947467903
8.93722279299785e-06
0.00618692948176137
0.00599753091366047
0.0057590490654108
0.00546655451242555
0.00511951997589865
0.00472189995597468
0.00427955115589679
0.00379872477742481
0.00328630369487696
0.00275042443662543
0.00220049604090215
0.00164688557068023
0.0011034326765562
0.000597114471906014
0.000187832994956603
6.13835552292308e-06
0.00652300316792684
0.00634923474818256
0.00612595124472977
0.0058476664838306
0.00551344253305096
0.00512706515100299
0.00469428620200463
0.00422115162192138
0.00371422437328924
0.00318129644147174
0.00263178391965722
0.00207659952345383
0.00152781990187893
0.00100090624182461
0.000523157013229429
0.000151426547934524
3.31154033398705e-06
0.0068270109551649
0.00666867940283488
0.00646043996478315
0.00619624659351229
0.00587471092069113
0.00549939415156763
0.00507589408784463
0.00461000852229817
0.00410793599093609
0.00357701631057173
0.00302618385736365
0.00246619629864456
0.00190952134280247
0.001370108937386
0.000865711143207896
0.000426258513866856
0.000106324082293233
1.23393243468816e-06
0.00709994280544157
0.00695674152612893
0.00676328297510103
0.00651298325710613
0.00620396304525954
0.00583950508947729
0.00542500852816183
0.00496598519412399
0.0044682246034274
0.00393856255118846
0.00338533290383786
0.00281863054067868
0.00225053606203749
0.00169510181699477
0.00116862894499722
0.000693571630039699
0.000305536676586245
5.48879342692056e-05
2.63360029957842e-07
6.52305892517161e-06
2.57837682910469e-06
7.38121623531551e-07
0.000128008269694375
6.59552595124198e-05
1.93601648605177e-05
1.33857812899187e-06
0.000440655496459827
0.000295068843244572
0.000151470340168386
4.47487671190623e-05
2.40186171984187e-06
0.000846590811297452
0.000691538879638084
0.00047146917503355
0.000249708542437862
7.5865778083525e-05
3.95741768801097e-06
0.00129593720686869
0.00117113029729515
0.000938074075275054
0.000649841800793708
0.00035411875419889
0.000110966262880836
5.83453513171987e-06
0.00180567557590888
0.00168803717364222
0.00146611290341441
0.00116364601099101
0.000813879331173336
0.00045225576656584
0.00014628157241311
7.84958259034506e-06
0.00239142787473394
0.00224009627617214
0.00201651435709807
0.00171631078181489
0.00135477013941027
0.000951302054282433
0.000536095117194068
0.000179081827865634
9.77401770135374e-06
0.0030204757620429
0.00282163870558323
0.00257987260024397
0.00227799146035512
0.00191667509866319
0.00150561689982276
0.00105796124507425
0.000601764424095615
0.000206660780930632
1.12941148721741e-05
0.00363196610629105
0.00340612344150645
0.00314569857531457
0.00283765411204831
0.00247678741236918
0.0020670272888272
0.00161570613232291
0.00113358010987579
0.000647747828915829
0.000226479333146385
1.21446609364874e-05
0.00419403919366435
0.00396499423200471
0.00369738308942997
0.00338529478527643
0.00302487105145309
0.00261776344970514
0.0021694745766314
0.00168645565613645
0.00117881857371734
0.000673329342168455
0.000235892572187876
1.23167277180327e-05
0.00470544139494067
0.00448408254505872
0.00422037590641059
0.00391051012934851
0.00355284247071162
0.00314950522158679
0.00270537258792664
0.00222648247051346
0.00171937206680765
0.00119431764796731
0.000677084577204053
0.0002332765379008
1.1621982780291e-05
0.00517157420805592
0.00496207953270456
0.00470783214923339
0.0044052077042053
0.00405368090094556
0.00365605072364734
0.00321712818510128
0.00274284045481417
0.00223986056534386