/*--------------------------------*- C++ -*----------------------------------*\
  =========                 |
  \\      /  F ield         | OpenFOAM: The Open Source CFD Toolbox
   \\    /   O peration     | Website:  https://openfoam.org
    \\  /    A nd           | Version:  12
     \\/     M anipulation  |
\*---------------------------------------------------------------------------*/
/*   Windows 32 and 64 bit porting by blueCAPE: http://www.bluecape.com.pt   *\
|  Based on Windows porting (2.0.x v4) by Symscape: http://www.symscape.com   |
\*---------------------------------------------------------------------------*/
FoamFile
{
    format      ascii;
    class       volScalarField;
    location    "300";
    object      omega;
}
// * * * * * * * * * * * * * * * * * * * * * * * * * * * * * * * * * * * * * //

dimensions      [0 0 -1 0 0 0 0];

internalField   nonuniform List<scalar> 
10052
(
2.46683891561957
2.46684073663409
0.803183332843353
2.38167797816071
2.46684038052535
0.79866554425165
2.38167623158479
0.786559027774925
2.28699365699776
2.46683923770549
0.79364927017379
2.38167615384075
0.476529656936676
0.782079550095967
2.28699179133943
0.76480186232481
2.21610711246257
2.46682820226135
0.788231786138396
2.38167630323133
0.472742017323697
0.77710599922238
2.28699065561161
0.3584735397623
0.471270001563351
0.760384006105657
2.21610559167413
0.746184598983382
2.46680370665937
0.782483713110901
2.38167862469919
0.468795821219373
0.77173915575474
2.28698102928926
0.355600061099904
0.467502963478704
0.755472438395225
2.21610266433647
0.301618492605996
0.35642050521574
0.463225076425245
0.741839172309369
2.18721498775439
2.46677960590789
0.776511184826487
2.38170033947058
0.464782088792144
0.766051246087415
2.28700756463881
0.35266424662924
0.463573597809796
0.750177087289929
2.21609794378504
0.299310866788299
0.353553756531568
0.459478603712142
0.736959964833924
2.18721439539747
0.270169742243973
0.300742733384051
0.352774249917032
0.454963520148573
0.730036626577265
2.18619016590168
2.46685474523095
0.770259164582882
2.38179080652671
0.460911156992156
0.760145596190279
2.28705813885463
0.349765680777869
0.459577877505826
0.744566632467234
2.21612896929597
0.296995970010005
0.350618947256713
0.455564081031318
0.731701704951139
2.18722220502627
0.268234756435881
0.298434968566459
0.349906180763716
0.451219671314884
0.725095352921396
2.1861921929666
0.251347649637268
0.269764220777732
0.298852828853408
0.348358064048176
0.447979093347631
0.722605783631572
2.1919274893303
2.46710915129315
0.768775608546819
2.38207663106486
0.457759985609356
0.754964831656476
2.28720700256992
0.347096812368992
0.455757101066585
0.738757883477819
2.21618834740613
0.294762096045552
0.34771831883423
0.451576582064254
0.726122061959765
2.187241171282
0.266329994726054
0.296114037121958
0.346961601451102
0.44729318008924
0.719790213588988
2.18619683571033
0.249677308397026
0.267825906615182
0.296533890473499
0.345472066411103
0.444211136582302
0.717614509672179
2.19192781693729
0.239555568432085
0.251115466378646
0.268643289138195
0.296205973272356
0.343852057956421
0.442024025659488
0.715761090467777
2.19485065119047
2.46845767873268
0.771465270342285
2.38279685797888
0.456022937133602
0.75408569646445
2.28759010405652
0.344957393943655
0.452739791533745
0.734381855296295
2.21635112313898
0.292752998439947
0.345054954969167
0.447774208328574
0.720380394350113
2.18729884916536
0.264536180608686
0.29386982195005
0.344040117252035
0.443270408357359
0.714154273565485
2.1862140614713
0.248067218299017
0.265912057471316
0.294193407231388
0.342494451134578
0.440230098889502
0.712217408561042
2.19193169272459
0.238085164512199
0.249440558972231
0.266689683972589
0.29385986758795
0.340927484593698
0.438201453076359
0.710684084091511
2.19484847775149
0.23199824761349
0.23938080360388
0.250330934532193
0.266878383973322
0.293123980105142
0.33940559752097
0.436108595972417
0.707403129685084
2.19512394302007
2.47049246673687
0.780090707721151
2.38444961031581
0.456213316198577
0.757383845200681
2.28846093460308
0.343638051079117
0.451031641681498
0.7336736876702
2.21675101646147
0.291184991622786
0.342904669356288
0.444785801925036
0.715962339320751
2.18745684490993
0.262975427613468
0.291849765174492
0.34134262132096
0.439388710236416
0.708329654578538
2.18626782985935
0.246596593334577
0.264104503895832
0.291918334919005
0.339516375400496
0.436114281335597
0.706444744536888
2.19194736665774
0.236701268947056
0.247820333202116
0.264752506240518
0.291478263508563
0.337887664336794
0.434131252572272
0.705166059343356
2.19485404821107
0.230685257715951
0.237905488362301
0.248639246926207
0.264893907014589
0.290732983366258
0.336422454757247
0.432209558175109
0.702227967484574
2.19511930995394
0.227147198556417
0.231846164043747
0.238747060912759
0.24902129164646
0.264647610892325
0.289809576220839
0.334824870699121
0.429547720490284
0.697228002128496
2.19480252769735
2.4770796435629
0.797969949847912
2.38730059390889
0.459091479223495
0.766451516915319
2.29017014935368
0.34348780542982
0.451189583094371
0.736704536531238
2.21762507973858
0.290260782897645
0.341540577762463
0.443005215065741
0.715037146478292
2.18784627882473
0.261828851771945
0.290252150066476
0.339128806066736
0.436261150774727
0.703111282108389
2.18641828030483
0.245382274226285
0.262524625749193
0.289851632698711
0.336719771304417
0.432056442473045
0.700348648081885
2.19199774069103
0.235485649139401
0.246335003365166
0.262911081676705
0.289141155783955
0.334810460553084
0.429876505481389
0.699221792804849
2.19486872905156
0.229482208415858
0.236511279047402
0.246994569927916
0.262913183196894
0.288286435209897
0.333295966816142
0.428030087552294
0.696582380583255
2.19512662227854
0.225960559268209
0.230528231909639
0.23725459838977
0.247297555565966
0.262616075303816
0.287358449067494
0.331769685501353
0.425563830373322
0.691954204706501
2.19479743954705
0.22410256357151
0.227011693943326
0.23129383090198
0.237691089079338
0.247318851695383
0.262143851247895
0.286323712382411
0.329926065659599
0.422138733901138
0.685457918215857
2.19479806276895
2.47707784727339
0.828976102561805
2.39185429088193
0.465928785746859
0.7842629702698
2.29303147314891
0.344976320915099
0.453947432248017
0.745026558881967
2.21929735254552
0.290265723756635
0.341310524555404
0.442918521095011
0.717419607287862
2.1887046474825
0.261298007604609
0.289281845600851
0.337644690521651
0.434246376441127
0.70162870220295
2.1867976833743
0.244594537878551
0.261350350460396
0.288182361645036
0.33436181670342
0.42858550142168
0.694137919481673
2.19214201987332
0.234558656512065
0.245100355788364
0.261282840602804
0.286977927614281
0.331843090386067
0.425578845487073
0.692879800709584
2.19491617711479
0.228475354559134
0.235280871082074
0.245474878448855
0.261009925724493
0.285854157810286
0.330089066181053
0.423614157174697
0.69046598045086
2.19514050554189
0.224904213745422
0.229314977210902
0.235835836163038
0.245608946385142
0.260570285310048
0.284827370587691
0.328541827298468
0.421269024734736
0.686187801589431
2.19480440504526
0.223017178255473
0.225820139507239
0.229958723515796
0.236166316082654
0.245547436902366
0.260051721662212
0.283802092755313
0.326792828488608
0.418070439527533
0.680092482240564
2.19479262593869
0.222297906475026
0.223984087950494
0.226518080967929
0.23040197720601
0.236340363563456
0.245402025840988
0.259508606878698
0.282688659784944
0.324664150706126
0.413916399685956
0.672190252803513
2.19512379066067
2.49612177671787
0.874550222972681
2.39533623884571
0.47837201153562
0.814251449616661
2.29674776581892
0.348772353131793
0.460481169801237
0.761185752843256
2.22204870955655
0.291584832047253
0.342667625877335
0.445230447922114
0.724588224085412
2.19037342121366
0.261668227772807
0.28921835424749
0.337214618799811
0.433701620935838
0.703223956345647
2.18765616562195
0.244467100714602
0.260776878956195
0.287100944520431
0.33265499539599
0.426172465723204
0.691797405675689
2.19251529683102
0.234097420379195
0.244285019452193
0.260039167865712
0.285176733626915
0.329257225375917
0.421637282926206
0.686393663812175
2.19505506321879
0.227792245044194
0.234333357387932
0.244192357478516
0.259293647992911
0.283549104738641
0.326920795158759
0.419059722781873
0.683884943889868
2.19518566703697
0.22406901762124
0.22829351331717
0.234571345699536
0.244028579712103
0.258576113667632
0.282274679121358
0.325188519329049
0.416688714590408
0.67991560762196
2.19481773266486
0.222078760566794
0.224753738537011
0.228721082250712
0.234703853169001
0.243794352204626
0.257923183342233
0.281173976246201
0.323457936777118
0.413664119038049
0.674216500241476
2.19479935572539
0.221291979779142
0.222893804459632
0.22530934517216
0.229034465216939
0.234767658557402
0.243569745784563
0.257346344290444
0.2800911900657
0.321452930018274
0.409770193000581
0.666742510621765
2.19511834896948
0.221355268246199
0.22219678836083
0.223541302188294
0.225750239982294
0.2293077956965
0.234864845003817
0.243432726818538
0.256852506656051
0.278971433226372
0.319118532330471
0.40498615282553
0.657343899129281
2.19485117557003
2.47684940487989
0.940615594628304
2.40111592267038
0.498036263037841
0.85741767286612
2.30018099143221
0.355771055365405
0.472282488090578
0.788184737666053
2.22558052946514
0.294749092631412
0.346245171403895
0.450929196082293
0.739057306893036
2.19317081658187
0.263343639253046
0.290436664325386
0.338256317300888
0.435286697876194
0.709211536345384
2.18937724711517
0.245320273892955
0.261086763501918
0.286873939764237
0.331884058568894
0.425027320812472
0.692458791694604
2.19338223666506
0.234366532617614
0.244115505377644
0.259364646882136
0.283901274700357
0.327230719025895
0.418690711273455
0.682241238452727
2.19542288945392
0.227623544271868
0.23384333637902
0.243309561881061
0.257925101308479
0.281549288700832
0.324023961078648
0.414641065456599
0.677003815997404
2.19532031206628
0.223589688566759
0.227590024946618
0.233576627602423
0.242661777714141
0.256732044608059
0.279796064204735
0.321800448237512
0.411884251086002
0.673118337697963
2.1948616090124
0.221381643718334
0.223904172394044
0.227665920081203
0.233379728288557
0.242125972487034
0.255815027954893
0.278485729433378
0.319953415618739
0.408929544894071
0.667807350721653
2.19481257994025
0.220445560045277
0.221945475949525
0.224218724563825
0.227753345707855
0.233241174159988
0.24173499223664
0.255123067170496
0.277360084728009
0.318012599121952
0.405261802477976
0.660768983063758
2.19512510493199
0.220409206675279
0.221185982250873
0.222433791676246
0.224508931348205
0.227891983054385
0.233230736549475
0.241529848929965
0.254614419061687
0.276297179730626
0.315834323758151
0.400772961282069
0.651825411752311
2.19484807563692
0.22101078963884
0.221270709161201
0.221800115779058
0.222876624289987
0.22485845100416
0.228178948625382
0.23342849997612
0.241558858736508
0.254311968126514
0.275324126940744
0.313477454870758
0.395516991121733
0.640772598835052
2.19192820234058
2.51405945095335
1.0149188621808
2.40065827894794
0.527325529217409
0.913111914625381
2.30188339883528
0.367119012571255
0.49069320016505
0.82606094156239
2.22846114585998
0.300509037547499
0.352880511872069
0.461235906452445
0.762847745280541
2.19682454008233
0.266908499566726
0.29345077271441
0.341328599663527
0.439811048590012
0.721412160499307
2.19233035192828
0.247641918589988
0.262675666081463
0.287851630938855
0.332415524601088
0.425695069795603
0.696985486001045
2.19516231332012
0.235752412170366
0.244909020889576
0.259529961384331
0.283396928633167
0.325998954772259
0.416846643886839
0.681634716388945
2.19629466397834
0.22826072279231
0.234070924691541
0.243043346786413
0.257075181538005
0.280001154546891
0.321601039797874
0.411017755183901
0.67092485281992
2.19568328018378
0.223669459641842
0.227392276960513
0.233020076158991
0.241659909730465
0.255182973247269
0.27754522842334
0.318555711196864
0.407029549531682
0.665853711512944
2.19499393723784
0.2210653481555
0.223404745402157
0.22691571849382
0.23230287775876
0.240638009712662
0.253812601347877
0.275814113619058
0.316342724296361
0.403896975914327
0.660824519575068
2.19485641517758
0.219854668799393
0.22123426860938
0.223335825463087
0.22663919015972
0.231830663913562
0.239956313931896
0.252886029384849
0.274530036140942
0.314361885890178
0.400389203777038
0.654242926001598
2.19513870702884
0.219630912518098
0.220329807457865
0.221461396585205
0.223374920921751
0.226546889710906
0.231622807355615
0.239601097957766
0.252289617598814
0.273462673275674
0.31229548548082
0.396175478737933
0.64576558128491
2.19485098413625
0.220106882432623
0.22031980885817
0.220772038211779
0.221736305356014
0.22356827740063
0.226700794129155
0.231722577815517
0.239578820776152
0.251995748456364
0.272576036447678
0.310129609406115
0.391252614557582
0.635199572326047
2.19192747933873
0.22107442037623
0.220941270460704
0.220915513537445
0.221224602193017
0.222152592254125
0.224011972806652
0.227178149689607
0.232194915122207
0.239958112893003
0.252099380379521
0.272018468001516
0.308080471000828
0.385870342556888
0.622647255430891
2.18619276038247
2.46568133246824
1.09013623476011
2.41737311158234
0.566531436156346
0.966928161465809
2.30585710985896
0.384473800924379
0.516940887943543
0.86876527932928
2.22937138934658
0.30999461879181
0.363618324234325
0.477010940220159
0.793766387208213
2.19977409144321
0.273257687962639
0.298981570502695
0.347147866960803
0.448114481550279
0.740463919086106
2.1962924156439
0.252190188411297
0.266113394908342
0.290507721603651
0.334711693134419
0.42877322776203
0.706404439302893
2.19827720905077
0.238863857226255
0.247142096931676
0.260908369807268
0.283975942875085
0.325869799843121
0.416450012729133
0.684272806991253
2.19811319033322
0.230162418139688
0.235393317887874
0.243695731415127
0.256993618980219
0.279119546625716
0.319829505807847
0.408369893490973
0.668679318130412
2.19655520448524
0.224623486184996
0.227986405343538
0.233150685117306
0.241227635968506
0.25408910475181
0.275669474848502
0.315684743890351
0.402608419766957
0.65853011603561
2.19535403216938
0.221340364341253
0.22345561648561
0.22665151601166
0.231631024445226
0.239466875899294
0.252040162924808
0.273280729832101
0.312749315806585
0.39865831102843
0.653269820051373
2.19498878731884
0.219660232333155
0.22089833260543
0.222790189089849
0.225807830231973
0.230635991931178
0.238318455894298
0.250706937349186
0.271659952443003
0.310541259586364
0.395157889292035
0.647108688078503
2.19518376257824
0.219116217173706
0.219725186111283
0.2207172919676
0.222433441140177
0.225346970940307
0.230103535021291
0.237696794055977
0.249915974603099
0.270491985912958
0.308510014354123
0.39118485150372
0.639140264062723
2.19486730317773
0.21937493333353
0.219531961787095
0.219892007517166
0.220720580489013
0.222370038849743
0.225273727166211
0.230020073229018
0.237548074407214
0.24956696659725
0.269642186910041
0.306503309465152
0.386580978244624
0.629038800067775
2.19192700872294
0.220196869136448
0.220032604243706
0.219947355619674
0.220163505596579
0.220962753224714
0.222658210719498
0.225626343508209
0.230409464710159
0.23789700585459
0.249705680651941
0.269202940821883
0.304682711553044
0.381577110611681
0.616962342218577
2.186191853566
0.221406554073858
0.221018166308188
0.220622693470823
0.220417640226481
0.220643057129739
0.221541749163449
0.223372972660891
0.226476397399696
0.231366424106643
0.238886693221797
0.25055466176884
0.269516379313752
0.303556832332812
0.376936372980559
0.604575204337909
2.18721896895554
2.49631327127041
1.11905088984651
2.42906407789236
0.616780963063202
1.00770233696095
2.32324444283911
0.410194087419967
0.5502123948223
0.904733774349927
2.23283070446501
0.325135854339192
0.379885882559625
0.498242876045519
0.824056078313694
2.20045049008963
0.283916322387306
0.308105079931629
0.356557178237343
0.460460361621188
0.763419086562775
2.19961853364581
0.260246483574303
0.272265066538801
0.295497504285625
0.339328706390284
0.434678971547848
0.720248072544867
2.20253546655268
0.244726403241323
0.251551121810765
0.264033116729782
0.286053194276215
0.327201158687216
0.417911894422322
0.690414021766943
2.20133144935418
0.234071542830933
0.238404676708562
0.245715811957637
0.258017597783506
0.279172956629577
0.31894924244364
0.406827549635139
0.669096094087429
2.19839042043264
0.226957472218873
0.229820732818941
0.234325985014823
0.241639590295147
0.253669802161672
0.274345355368267
0.313328742719318
0.399060225637242
0.653588744251776
2.19622472777273
0.222533662329896
0.224366075274515
0.227146869477562
0.231594920929823
0.23880277984745
0.25065589036219
0.271048333416511
0.309394480415469
0.393458694818478
0.645231396062878
2.19534896819753
0.22007309974608
0.221145124835456
0.222774920527977
0.225429004230826
0.229800752076659
0.236942398042432
0.248690911173946
0.268845395377814
0.306631133136545
0.389607166656083
0.639333727779135
2.19531848383194
0.219004115998436
0.219511809288926
0.220335967908851
0.221807311699966
0.224398940405532
0.228762418644666
0.235890398962543
0.247552203574162
0.267428077610302
0.304499489213649
0.385789715243743
0.631884627605775
2.1949147647897
0.218908965178316
0.219004008733785
0.21925512365157
0.219918397018456
0.221342941004102
0.223965114904231
0.228375805761509
0.235508765217577
0.24705466868413
0.266537495759456
0.302599114215367
0.381494070846402
0.622311763902289
2.1919459817739
0.219491854328021
0.219291368029557
0.219135993893027
0.219240333345248
0.219882498809904
0.22137702555666
0.224103141734393
0.228602960771485
0.235759706865982
0.24717398106601
0.266177378462529
0.300983147002033
0.37684022370915
0.610638401044296
2.18619331415732
0.220541602242199
0.220135981123939
0.219696882820235
0.219416371111841
0.219531846156289
0.220286961573378
0.221943321887881
0.224841936338517
0.2294958155212
0.236742789374394
0.248086602748361
0.266642787151337
0.300127519349359
0.372620501234014
0.598596201323789
2.18721725254364
0.221903483975668
0.22136180257089
0.22073142210485
0.220192163096746
0.219958212019905
0.220231554858224
0.22120668705614
0.223116866367271
0.226291405957301
0.231229867064225
0.238736251808486
0.250230898839256
0.268624844301139
0.301146073926366
0.37081771329342
0.589214802746836
2.21610950095319
2.92571830771153
1.19780997127493
2.45521530268858
0.680622555919872
1.04023985107046
2.36164666010506
0.450071676282874
0.590727902320398
0.932146349459597
2.25286426569232
0.349752279577856
0.403837765174971
0.52410317647846
0.847070589342452
2.20328042873894
0.301843155533186
0.322656130969614
0.37065005230344
0.476254346478836
0.783645040605224
2.20047596221519
0.274268354467166
0.28258560846548
0.303788648283763
0.346887055996075
0.44332722292379
0.735645048102089
2.20624864116457
0.255267004234357
0.259362575800785
0.269704525726779
0.290195071122353
0.330391795680174
0.421324419466524
0.699295689604586
2.20577745682814
0.241330426194245
0.244092470680969
0.249788500351385
0.260625474285794
0.280512909480464
0.319227339192454
0.406584757057646
0.67190773281255
2.20165623154655
0.23152894550934
0.23361560386906
0.237102223976009
0.243303119235029
0.254222953820997
0.2738023392427
0.311657677535632
0.396338074620844
0.651455608599346
2.19806455702216
0.225171522942442
0.226629963920529
0.22882547004138
0.232522497073571
0.238887513578286
0.249841971979422
0.269251073475839
0.306429631664776
0.388891439282414
0.637186336276674
2.19621979862044
0.221417680567039
0.222295753296562
0.223585653193869
0.225755872452687
0.229532693028287
0.235998816420946
0.246985791465327
0.266231784240328
0.302778397113209
0.383846443352472
0.630919556179935
2.19568155322316
0.219499631779288
0.219897759696852
0.220517932731595
0.22167784489514
0.223857737810383
0.227727605806407
0.234287486166281
0.245286220275138
0.264342323577525
0.300311506701646
0.379994080494237
0.623949535224742
2.19505386534162
0.218843455381397
0.218873927024543
0.21899772060517
0.219457687746484
0.220600600394344
0.222871283671575
0.22686866764414
0.233523428553343
0.244505501751672
0.263291127727829
0.298424646998304
0.375972524328
0.614967011536769
2.19199673378197
0.2190503901918
0.218812733107136
0.218576693819137
0.218546234134985
0.218994929660407
0.220240626651481
0.222668441547277
0.226822566216287
0.233580489442214
0.244525289566643
0.262949382661294
0.29697956192988
0.371675946821078
0.603812250314931
2.18621194276234
0.219846738078126
0.219422010562035
0.218932642906304
0.218562304694031
0.21854404508438
0.219122717086543
0.220563899088146
0.223211643039787
0.227578631700414
0.234497027233039
0.245455735050743
0.263535746073641
0.296369944574032
0.367813624073782
0.591876147299718
2.18721689342045
0.221039535997824
0.220492385339439
0.219832321770868
0.219233328648529
0.218906423019978
0.219054124191939
0.219873636653954
0.221600979880509
0.224566895409655
0.229269994862049
0.236509414040283
0.24769324516417
0.265704525236876
0.297702144805307
0.366463699760207
0.582786652081543
2.21610644747653
0.222487795562616
0.221868600772822
0.221102425305845
0.220358920731221
0.219837513170625
0.21971639266808
0.220153528233356
0.22132600146362
0.223471599694847
0.22693132220959
0.232214849436981
0.240127522719772
0.252064166348811
0.270838602874558
0.303423594767487
0.371756661216406
0.584967767594414
2.28699618918283
2.94890122564635
2.93624882338112
0.866248598556008
1.15769201264622
2.41074142755003
0.525310845373248
0.650059044875664
0.967178129355093
2.30196954031021
0.393278661206583
0.441216066439069
0.556432240869648
0.867986415657277
2.22312126698079
0.333400266687463
0.346342402425096
0.391420956589855
0.495425125390515
0.797680789802622
2.20294352484113
0.299510550892684
0.299863433579465
0.317046186619151
0.358254707786797
0.454185837620614
0.747168604770402
2.20741122415928
0.274633177686514
0.272875237805339
0.279249105327575
0.297243658794691
0.335906797421967
0.426448947616282
0.707861654978634
2.20974609758707
0.254719092084721
0.254272956147688
0.257031107715584
0.265528528398661
0.283620388324517
0.320945721352612
0.407620839456919
0.676136254562284
2.20619062918956
0.239945105515263
0.240653373287458
0.242384859948091
0.24682751773868
0.256167439364107
0.274337586981801
0.310869260045624
0.39444900496549
0.651013090978739
2.20134566439194
0.230150051657754
0.231077221820508
0.232356684682337
0.234911464715951
0.240081048692317
0.249862741015814
0.268088287773772
0.303966043081287
0.384958105457328
0.632141005612003
2.19805984247462
0.224209729996308
0.224864503387377
0.225688452847223
0.227173584657462
0.230126011760276
0.235703154499481
0.24575200502579
0.263952758997959
0.299195465722777
0.378145888141757
0.62195730084094
2.19655353643084
0.220912841947182
0.22120213787583
0.221570681191753
0.222318647801932
0.223951130467063
0.227182618515693
0.233037713193282
0.243244765760177
0.261345102626375
0.296036104745636
0.373834755547315
0.615300897952492
2.19542185460332
0.219373371106663
0.219344411523385
0.219321527537914
0.219527311294505
0.220308920741431
0.222131083224914
0.225611822777392
0.231683192175828
0.241991196728496
0.259954242609377
0.294002983753333
0.369999202330087
0.606944250680046
2.19214152987675
0.219000792229382
0.218730426011484
0.218404549622748
0.21821146673339
0.218418965077271
0.219352149610063
0.221407981506061
0.225136911334402
0.231411575065706
0.241795308658466
0.259536846457647
0.292671143201868
0.366071829919402
0.596466162484533
2.18626670849686
0.219409175748718
0.2189685724943
0.218423873376951
0.217947160303469
0.217765304093461
0.21812529776789
0.219299516898693
0.221637909771545
0.225654546220448
0.23217621169475
0.242675968859663
0.260197941535171
0.292288584410937
0.362597862346988
0.584908334413633
2.18723776571563
0.220340823262687
0.219788953507405
0.219096032358466
0.21842712663055
0.217988000129818
0.217981540437612
0.218608953494789
0.220110783066726
0.222820716010012
0.227237336959454
0.234155056703775
0.244968501099198
0.262527248410435
0.293900544209144
0.361571858524739
0.576067949081037
2.21609202484968
0.221615485128695
0.22100039196663
0.220216434987276
0.21942708707388
0.218828020618181
0.218597359872395
0.218895564540645
0.219902985750873
0.221860316839243
0.225110327296875
0.230162444488859
0.237818180860455
0.249461607711684
0.267881192045536
0.299971327411012
0.367336422566613
0.576042012506661
2.28699231025751
0.223101663910207
0.222461299611857
0.221632554654333
0.220779600445423
0.220093959756448
0.219740353486721
0.219856404434769
0.220590004347955
0.222134830574986
0.224760305816758
0.228853160958896
0.23499161000615
0.244090810941215
0.257740732927452
0.279154301529718
0.316017501559446
0.390768740557624
0.619028813734755
2.38168062169014
2.93278370268114
2.963430438256
2.91000420680932
0.77514934354735
0.847144431821548
1.1071194538984
2.3762849872843
0.485614566960366
0.514693797207504
0.612245657735235
0.899916425911471
2.27469648339922
0.393595810985458
0.388432432247
0.424941491799679
0.521699501322651
0.81219926819733
2.22173501302294
0.347883625495709
0.330030757396652
0.338757343652803
0.375524741632036
0.4676904669143
0.75394155149386
2.20981842825042
0.312571262291647
0.296869088856618
0.295174409982484
0.30870763222707
0.344552467716002
0.432940335177116
0.712279015902755
2.21116758405427
0.280879981199313
0.272732181273479
0.269473556876179
0.273897956627177
0.289240955268372
0.324490532185108
0.409598464562862
0.678779400463761
2.21028764797422
0.255752398539876
0.253517009072818
0.25178574574351
0.253185048408371
0.260127701884303
0.276370538731271
0.311184595269482
0.393298762848918
0.650914726932892
2.20591021466339
0.239158880043102
0.239235324139365
0.238900363579124
0.23955155237512
0.242912348772879
0.251087256149359
0.267818750264829
0.302153167715407
0.381534896599478
0.628444451329161
2.20134120919978
0.229310529012241
0.229719287002024
0.22985184235989
0.23027651453147
0.232011991277163
0.236370945674799
0.245224486940018
0.262174782431544
0.295961004143225
0.372962897046136
0.612896617256259
2.19838882195165
0.223726045915906
0.223930013603865
0.223980496077453
0.224152602499369
0.225018811193952
0.227390326623174
0.232341221868543
0.241587872514606
0.258590630307451
0.291825909891144
0.367403712250038
0.605927826268537
2.19629364699193
0.220787567247976
0.220721160011166
0.220533284701913
0.220412729152997
0.220714166982283
0.221946216695935
0.224767276236978
0.230118725939462
0.239618104736476
0.256609795362913
0.289383990454162
0.363569916070686
0.598185818597877
2.19251506362577
0.219525833565206
0.219237615946931
0.218816876838071
0.218427021567051
0.21832817776041
0.218860784119556
0.220445061641701
0.223645336908766
0.229330866959284
0.239041338255919
0.25597411607355
0.28806372151052
0.359997888885695
0.588519548349963
2.18641809142958
0.219350217013172
0.218903518049319
0.218301999233134
0.217700721161765
0.217317457788005
0.217403312450595
0.218242627788756
0.220196251814469
0.22378244073718
0.229822880513971
0.239773239541718
0.256638677395526
0.287881288159534
0.35698622824525
0.577735415312286
2.1872970841072
0.219890284060327
0.219340184530086
0.218613935390938
0.21786441221201
0.217289686256056
0.217092992206979
0.217481664581406
0.218703613875208
0.221097839151819
0.22516426207772
0.231692939722311
0.242064622828971
0.259094625604644
0.2897683232903
0.356358789574761
0.569374446207251
2.21612432856736
0.220901765768025
0.220293540647206
0.219491522892338
0.218649884556764
0.217958181053748
0.217593824386
0.217720609845594
0.218523732600793
0.220248459157827
0.223240694262374
0.228010465955331
0.235355578892548
0.246647783763145
0.26464313312862
0.296139586925281
0.36249993962193
0.568761280682275
2.28697740177517
0.222213875043323
0.221584960615162
0.220748211243598
0.219861363511864
0.219111625791309
0.218662935718904
0.218654855382977
0.219238463397114
0.220610942810663
0.223044928995436
0.226929430584694
0.232843094421361
0.241697923387353
0.255074089389845
0.276155770294594
0.312515851159668
0.385936174294442
0.60941841182305
2.38167743220718
0.223702078369498
0.223082236836705
0.222244991810328
0.221351988535045
0.220591112466993
0.220119982126844
0.220065420253919
0.220561084549114
0.221781354299744
0.223967053875323
0.227459775322593
0.232763090521918
0.240658597294659
0.252450995834012
0.270571288934055
0.300141099840485
0.353164722986404
0.47088896724909
0.882609243835575
3.68516474725932
3.02036233907292
2.99996955259655
2.96251132142292
2.95949579870825
0.779894220264634
0.768130917050863
0.818862552328273
1.04313820987946
2.35262318028456
0.522236261313784
0.478855560805508
0.495356089645896
0.573972674761703
0.835654974240065
2.27190043232195
0.447813185012358
0.386946821932173
0.377871522901486
0.405312985429937
0.488702645312947
0.761363536994706
2.22780179852484
0.393368421593428
0.341802012570011
0.322750424068765
0.327934709974774
0.35861580792613
0.441713695467701
0.712554027191952
2.21366577464608
0.337299331215998
0.308005736015347
0.29118229391133
0.287944076031367
0.298800958451488
0.33070228018437
0.412396522231922
0.677308570905073
2.21187384474402
0.288081065671204
0.278135448000434
0.268508982524136
0.264091160731054
0.267142000177175
0.280597810587535
0.312964284030945
0.392573018251621
0.648641890023162
2.21005666715646
0.255902343803153
0.254370548756982
0.250692239892922
0.247795907291807
0.248212849054429
0.254076463380496
0.26882994830058
0.301184629325383
0.378438766328876
0.624463560198244
2.20590590636088
0.238288110467755
0.2384685130292
0.23744644075253
0.236056339896562
0.235860293595324
0.238463939856167
0.245737625648816
0.261135838530851
0.29318801182315
0.368087517712081
0.605358240595738
2.20165472354205
0.228719369197256
0.228918336732891
0.228552766605641
0.227857733763871
0.227573094398131
0.228721790033814
0.23247356850782
0.240520297286812
0.256219013907321
0.287844034525126
0.360870673751869
0.595865717340119
2.19811216874976
0.223524168010538
0.223477941370413
0.223112940179652
0.222556499504021
0.222188490535075
0.222612730151195
0.224567777496457
0.229015859398842
0.237539814280287
0.253383432144301
0.284655832414007