/*--------------------------------*- C++ -*----------------------------------*\
  =========                 |
  \\      /  F ield         | OpenFOAM: The Open Source CFD Toolbox
   \\    /   O peration     | Website:  https://openfoam.org
    \\  /    A nd           | Version:  12
     \\/     M anipulation  |
\*---------------------------------------------------------------------------*/
/*   Windows 32 and 64 bit porting by blueCAPE: http://www.bluecape.com.pt   *\
|  Based on Windows porting (2.0.x v4) by Symscape: http://www.symscape.com   |
\*---------------------------------------------------------------------------*/
FoamFile
{
    format      ascii;
    class       volScalarField;
    location    "300";
    object      p;
}
// * * * * * * * * * * * * * * * * * * * * * * * * * * * * * * * * * * * * * //

dimensions      [0 2 -2 0 0 0 0];

internalField   nonuniform List<scalar> 
10052
(
83333.333155992
83333.333148858
83333.3331549135
83333.3331560858
83333.3331409442
83333.3331479263
83333.3331489463
83333.3331550513
83333.3331563932
83333.3331324303
83333.3331402615
83333.3331409962
83333.3331459647
83333.333148071
83333.3331493321
83333.3331553328
83333.333156868
83333.3331232077
83333.3331320742
83333.3331325216
83333.3331384406
83333.3331403958
83333.3331414399
83333.3331433698
83333.3331461045
83333.3331484522
83333.3331500042
83333.3331557683
83333.3331132001
83333.3331232313
83333.3331233697
83333.3331304033
83333.3331322602
83333.3331330868
83333.333135853
83333.3331385835
83333.3331408432
83333.3331422149
83333.333140296
83333.3331434184
83333.3331464048
83333.3331491153
83333.3331509884
83333.3331024969
83333.3331136898
83333.333113449
83333.3331217282
83333.3331234948
83333.3331241062
83333.3331276726
83333.3331305804
83333.3331328336
83333.3331340592
83333.3331325029
83333.3331359342
83333.3331389371
83333.3331416259
83333.3331434483
83333.3331373483
83333.3331403512
83333.3331436426
83333.3331470053
83333.333150057
83333.3331519755
83333.3330912943
83333.3331035217
83333.3331028639
83333.3331123057
83333.3331140527
83333.3331144112
83333.3331187153
83333.333121946
83333.3331242544
83333.3331253541
83333.3331238507
83333.3331277678
83333.3331310266
83333.3331338102
83333.3331354298
83333.3331290804
83333.3331325945
83333.3331362248
83333.3331396743
83333.3331427819
83333.3331448568
83333.3331349805
83333.3331374431
83333.3331406042
83333.3331442231
83333.333147918
83333.3331510661
83333.333153041
83333.3330798392
83333.3330928911
83333.3330918415
83333.3331021176
83333.3331040251
83333.3331041094
83333.3331088455
83333.3331125878
83333.333115043
83333.3331160223
83333.3331141989
83333.3331188471
83333.3331225279
83333.3331255059
83333.3331271226
83333.3331197641
83333.3331239363
83333.3331281438
83333.3331319317
83333.3331351749
83333.3331372224
83333.3331262025
83333.3331291918
83333.3331329285
83333.333136935
83333.3331408339
83333.3331441823
83333.3331463617
83333.3331335078
83333.3331351336
83333.3331377897
83333.3331412432
83333.3331451806
83333.333149004
83333.3331521681
83333.3331540986
83333.3330684047
83333.3330819576
83333.3330806863
83333.3330911908
83333.3330935756
83333.333093425
83333.3330979573
83333.3331024877
83333.3331052689
83333.3331061555
83333.333103297
83333.3331090137
83333.3331133292
83333.3331166348
83333.3331183195
83333.3331090622
83333.3331143309
83333.3331193421
83333.3331236748
83333.333127264
83333.333129428
83333.3331160778
83333.3331199609
83333.333124377
83333.333129064
83333.3331333442
83333.3331369655
83333.3331392277
83333.3331242741
83333.3331264077
83333.3331296578
83333.3331337426
83333.3331381665
83333.3331423028
83333.3331457212
83333.3331478858
83333.3331331473
83333.3331337073
83333.3331355797
83333.33313856
83333.3331423219
83333.3331464083
83333.3331502068
83333.3331532467
83333.3331550335
83333.3330572746
83333.3330708711
83333.3330696767
83333.3330795442
83333.3330828389
83333.3330826295
83333.3330859387
83333.3330916758
83333.3330950662
83333.333095976
83333.3330908779
83333.3330981813
83333.3331034161
83333.3331072481
83333.3331090622
83333.3330966449
83333.3331034762
83333.3331096624
83333.3331147842
83333.3331188607
83333.3331212795
83333.3331041822
83333.3331092851
83333.333114915
83333.3331205238
83333.3331254699
83333.3331295442
83333.3331320519
83333.3331134259
83333.3331163383
83333.333120565
83333.3331254796
83333.3331306098
83333.3331352191
83333.3331389894
83333.3331413103
83333.3331236284
83333.3331245364
83333.3331269862
83333.3331306762
83333.3331351309
83333.3331397833
83333.3331439424
83333.3331472576
83333.3331493
83333.3331340253
83333.3331333775
83333.3331342364
83333.3331364897
83333.3331398094
83333.3331437388
83333.3331477919
83333.3331514094
83333.3331542041
83333.3331557469
83333.3330466213
83333.3330597405
83333.3330590535
83333.3330671822
83333.3330719617
83333.3330720099
83333.3330728046
83333.3330801593
83333.3330845744
83333.3330856969
83333.3330767592
83333.3330862987
83333.3330928112
83333.3330974633
83333.3330995763
83333.3330820663
83333.3330911831
83333.3330990204
83333.3331052365
83333.3331100084
83333.3331127772
83333.3330899669
83333.3330969303
83333.3331042452
83333.3331111752
83333.3331170476
83333.3331217199
83333.3331246595
83333.3331003962
83333.3331045273
83333.3331100699
83333.3331163061
83333.3331224966
83333.3331278415
83333.3331321275
83333.3331348065
83333.3331122806
83333.3331137683
83333.3331170963
83333.333121824
83333.3331272661
83333.3331326834
83333.3331373469
83333.3331410573
83333.3331433026
83333.3331244729
83333.3331239298
83333.3331252295
83333.3331281795
83333.3331323057
83333.3331369836
83333.3331416198
83333.3331455999
83333.3331486624
83333.3331504723
83333.3331361853
83333.3331342719
83333.3331339636
83333.3331352728
83333.3331379242
83333.3331414496
83333.3331453546
83333.3331491984
83333.3331525004
83333.3331549366
83333.3331561638
83333.3330369836
83333.3330486218
83333.3330489188
83333.333054175
83333.3330610669
83333.3330618467
83333.3330585626
83333.3330679665
83333.3330739741
83333.3330756336
83333.3330607605
83333.3330732839
83333.3330815212
83333.3330874174
83333.3330900647
83333.3330648051
83333.3330772225
83333.3330873497
83333.3330950456
83333.333100839
83333.333104142
83333.3330727159
83333.3330824513
83333.3330921786
83333.3331009401
83333.3331080566
83333.3331135316
83333.3331170197
83333.333084424
83333.3330904287
83333.3330979713
83333.3331060455
83333.3331136797
83333.3331200166
83333.3331249827
83333.3331282099
83333.3330984195
83333.3331008566
83333.3331055497
83333.3331117784
83333.3331186097
83333.3331251293
83333.3331305419
83333.3331348075
83333.333137479
83333.3331129791
83333.3331126789
83333.3331146886
83333.3331186712
83333.3331239351
83333.3331296415
83333.3331350561
83333.3331395362
83333.3331429982
83333.3331450361
83333.3331268998
83333.3331247957
83333.3331247012
83333.3331265927
83333.3331300576
83333.3331344446
83333.333139106
83333.3331435101
83333.333147146
83333.333149831
83333.3331513103
83333.3331395875
83333.3331364369
83333.3331348905
83333.3331350971
83333.3331368798
83333.3331397979
83333.3331433322
83333.3331470282
83333.3331505159
83333.3331533891
83333.3331553757
83333.3331562392
83333.3330293045
83333.3330378317
83333.3330395493
83333.333040858
83333.3330501663
83333.3330522271
83333.3330433347
83333.333055195
83333.3330633908
83333.3330662131
83333.3330427099
83333.3330591476
83333.3330696149
83333.3330773252
83333.3330808404
83333.3330443175
83333.3330613597
83333.333074589
83333.3330842348
83333.3330914714
83333.3330955894
83333.333051546
83333.3330653679
83333.3330785043
83333.3330897758
83333.3330985207
83333.3331051288
83333.3331093358
83333.3330644737
83333.3330733387
83333.3330838384
83333.3330945141
83333.3331041062
83333.3331117379
83333.3331175624
83333.3331214806
83333.3330810907
83333.3330850636
83333.3330918075
83333.3331002372
83333.3331090184
83333.3331170115
83333.3331234165
83333.3331283827
83333.3331316658
83333.3330987871
83333.3330989634
83333.3331020938
83333.3331076453
83333.3331145347
83333.3331216674
83333.3331281522
83333.3331333547
83333.3331373774
83333.3331398726
83333.3331156859
83333.3331134082
83333.3331137095
83333.3331164945
83333.3331211352
83333.3331267137
83333.3331323841
83333.3331375252
83333.3331416245
83333.33314468
83333.3331463871
83333.3331308788
83333.333127229
83333.3331256124
83333.3331261981
83333.3331287061
83333.3331325105
83333.3331369086
83333.3331413208
83333.3331453153
83333.3331484712
83333.3331506639
83333.3331517464
83333.333144111
83333.3331398345
83333.3331370649
83333.3331360837
83333.3331368414
83333.3331389693
83333.3331419531
83333.333145305
83333.3331486394
83333.3331516528
83333.3331540106
83333.3331554802
83333.3331559434
83333.3330247964
83333.3330283782
83333.3330318246
83333.3330281045
83333.3330394633
83333.33304335
83333.3330275001
83333.3330421915
83333.3330528628
83333.3330575592
83333.3330225061
83333.3330440259
83333.333057248
83333.3330673871
83333.3330723531
83333.3330199703
83333.3330434293
83333.3330607834
83333.3330729555
83333.3330821421
83333.3330873978
83333.3330253334
83333.3330451104
83333.3330630043
83333.3330776546
83333.3330884837
83333.3330966246
83333.3331018406
83333.333039193
83333.3330523931
83333.333067214
83333.3330815393
83333.3330937658
83333.3331030577
83333.3331100233
83333.3331147759
83333.3330589927
83333.333065358
83333.3330752218
83333.3330868492
83333.3330983482
83333.3331082987
83333.333115963
83333.333121784
83333.3331258466
83333.3330808337
83333.3330818458
83333.3330867673
83333.333094613
83333.3331038554
83333.3331129446
83333.3331208398
83333.3331269734
83333.3331316738
83333.3331348097
83333.3331017806
83333.3330993777
83333.3331003689
83333.3331045213
83333.333110892
83333.3331181436
83333.3331251844
83333.3331313168
83333.3331360811
83333.3331396643
83333.3331418363
83333.333120383
83333.3331161246
83333.3331145053
83333.3331157113
83333.3331192925
83333.3331243443
83333.3331299096
83333.3331352599
83333.3331399159
83333.333143473
83333.3331459875
83333.3331472616
83333.3331362568
83333.3331312014
83333.3331280591
83333.333127192
83333.3331285002
83333.3331314504
83333.3331353311
83333.3331394982
83333.3331434751
83333.3331469185
83333.3331494882
83333.3331511032
83333.3331517312
83333.333149566
83333.333144345
83333.3331404502
83333.333138277
83333.3331379148
83333.3331391036
83333.3331413735
83333.3331442252
83333.3331472354
83333.3331500881
83333.3331525395
83333.3331543181
83333.3331552294
83333.3331552921
83333.333024127
83333.3330214518
83333.3330267002
83333.3330175593
83333.3330297097
83333.3330359903
83333.333011925
83333.3330298807
83333.3330426302
83333.3330496646
83333.3330003228
83333.3330283499
83333.3330448522
83333.3330576878
83333.3330646448
83333.3329909154
83333.3330233443
83333.3330461121
83333.3330614554
83333.3330731071
83333.3330799647
83333.3329924718
83333.3330210108
83333.333045536
83333.3330646793
83333.3330782007
83333.3330882778
83333.3330947741
83333.3330067045
83333.3330264787
83333.3330475645
83333.3330669539
83333.3330826788
83333.33309405
83333.3331025182
83333.3331083488
83333.3330303145
83333.3330404295
83333.3330549819
83333.3330712324
83333.3330864911
83333.3330990238
83333.3331082701
83333.3331151584
83333.3331201092
83333.3330576422
83333.3330600781
83333.3330677323
83333.3330790332
83333.3330916197
83333.3331033784
83333.3331131059
83333.3331203974
83333.33312592
83333.3331298358
83333.3330841146
83333.3330816686
83333.3330838016
83333.3330900861
83333.3330989597
83333.3331085574
83333.3331174385
83333.3331248478
83333.3331304426
83333.3331346633
83333.3331374632
83333.3331073999
83333.3331023869
83333.3331008862
83333.33310309
83333.3331082726
83333.3331151063
83333.3331222744
83333.3331288722
83333.3331344066
83333.3331385486
83333.333141537
83333.3331432351
83333.3331268665
83333.3331208127
83333.3331172421
83333.3331166273
83333.3331187778
83333.3331229074
83333.3331280205
83333.3331332673
83333.3331380741
83333.3331420812
83333.333144971
83333.3331468444
83333.3331475937
83333.3331427797
83333.3331365615
83333.3331320141
83333.3331296645
83333.3331296134
83333.3331314788
83333.3331346005
83333.3331383029
83333.3331420424
83333.3331454414
83333.3331482294
83333.3331501347
83333.3331511235
83333.3331512608
83333.3331557165
83333.3331497804
83333.3331449287
83333.33314164
83333.3331401354
83333.3331402864
83333.3331417053
83333.3331439141
83333.3331464672
83333.3331490114
83333.3331512957
83333.3331531264
83333.333154291
83333.3331546542
83333.3331543752
83333.3330274064
83333.3330178758
83333.3330250948
83333.333010868
83333.3330221175
83333.333031066
83333.332997938
83333.3330197769
83333.3330334096
83333.3330431657
83333.3329769909
83333.3330130385
83333.3330334363
83333.3330484443
83333.3330578462
83333.3329564273
83333.3330013132
83333.3330310537
83333.3330502385
83333.3330644898
83333.3330733444
83333.3329505743
83333.3329922584
83333.3330260576
83333.3330510998
83333.333067988
83333.3330803663
83333.3330884382
83333.3329640195
83333.33299402
83333.3330242805
83333.3330506829
83333.3330710212
83333.3330850393
83333.3330952861
83333.3331024096
83333.3329924094
83333.3330084356
83333.3330300556
83333.3330529488
83333.3330733579
83333.3330892606
83333.333100464
83333.3331087033
83333.3331146784
83333.3330271435
83333.3330318764
83333.3330437785
83333.3330602062
83333.3330775475
83333.3330929306
83333.3331050223
83333.3331137361
83333.3331202158
83333.3331250201
83333.3330612038
83333.3330588468
83333.3330628525
83333.333072341
83333.333084884
83333.3330977608
83333.3331090977
83333.3331181312
83333.3331247509
83333.3331297117
83333.3331332299
83333.3330909615
83333.3330849759
83333.3330837853
83333.3330875713
83333.3330951468
83333.3331045276
83333.3331138938
83333.3331221283
83333.3331287677
83333.3331336309
83333.3331371904
83333.333139452
83333.333115356
83333.3331079934
83333.3331039273
83333.3331037865
83333.3331072263
83333.3331130681
83333.3331198994
83333.3331265965
83333.3331324875
83333.3331372409
83333.3331406204
83333.3331428997
83333.3331439952
83333.3331347828
83333.333127271
83333.3331219055
83333.3331194013
83333.3331198641
83333.3331227212
83333.3331270327
83333.3331318789
83333.333136568
83333.3331406672
83333.3331439074
83333.3331460425
83333.3331472163
83333.3331473861
83333.3331501269
83333.3331430573
83333.3331373293
83333.3331335873
83333.3331321221
83333.3331327398
83333.3331348915
83333.3331379194
83333.3331412353
83333.3331443994
83333.3331471202
83333.3331491836
83333.3331503798
83333.3331507325
83333.3331504126
83333.333162308
83333.3331559062
83333.3331503157
83333.3331460583
83333.3331434637
83333.3331425401
83333.3331430114
83333.3331444553
83333.3331464299
83333.3331485539
83333.3331505422
83333.3331522021
83333.333153385
83333.3331539407
83333.3331538201
83333.3331533744
83333.3330309713
83333.3330192479
83333.3330268067
83333.3330085895
83333.3330183134
83333.3330291737
83333.332986911
83333.3330133134
83333.3330266345
83333.3330387347
83333.3329539146
83333.3329994609
83333.3330244098
83333.3330405724
83333.3330524016
83333.3329165971
83333.3329781589
83333.3330165972
83333.3330403689
83333.3330566568
83333.3330678387
83333.332896883
83333.3329582162
83333.3330048361
83333.3330374824
83333.3330583787
83333.3330730938
83333.3330830471
83333.3329063456
83333.3329527839
83333.3329966862
83333.3330327934
83333.3330591167
83333.333076387
83333.3330886118
83333.3330971867
83333.3329408268
83333.3329665306
83333.3329990233
83333.3330315297
83333.3330589713
83333.3330792447
83333.3330928277
83333.3331026289
83333.3331097962
83333.3329862257
83333.3329946609
83333.3330132101
83333.33303727
83333.3330613423
83333.3330816028
83333.3330967168
83333.3331071541
83333.3331147715
83333.3331205018
83333.3330309776
83333.3330288929
83333.3330358641
83333.3330502415
83333.3330681357
83333.3330855844
83333.3331001807
83333.333111257
83333.3331190984
83333.3331249031
83333.333129225
83333.3330697462
83333.3330624509
83333.3330618738
83333.3330681338
83333.3330792688
83333.3330922884
83333.333104659
83333.3331150293
83333.3331230459
83333.3331287694
83333.3331329663
83333.3331358607
83333.3331009384
83333.3330918032
83333.3330871435
83333.3330878202
83333.3330932247
83333.3331015593
83333.3331107917
83333.3331194316
83333.3331267122
83333.3331323878
83333.3331363709
83333.333139136
83333.3331407124
83333.3331251374
83333.3331159127
83333.3331094971
83333.3331068828
83333.3331081728
83333.3331124946
83333.333118489
83333.3331248933
83333.3331308318
83333.3331358339
83333.3331396811
83333.3331422038
83333.3331437079
83333.3331441349
83333.3331436831
83333.3331351486
83333.3331282988
83333.333124017
83333.3331226885
83333.3331240147
83333.3331272066
83333.3331313519
83333.3331356737
83333.3331396341
83333.3331429159
83333.3331453145
83333.3331466419
83333.3331470997
83333.333146704
83333.3331579562
83333.3331503706
83333.3331437574
83333.3331388167
83333.3331359938
83333.3331352906
83333.3331363153
83333.333138482
83333.3331411965
83333.3331439693
83333.3331464558
83333.3331484361
83333.3331497422
83333.3331502239
83333.333149986
83333.3331494442
83333.3331690942
83333.3331624698
83333.3331563808
83333.333151353
83333.3331477891
83333.3331458216
83333.3331453002
83333.3331458892
83333.3331471796
83333.3331487818
83333.3331503807
83333.3331517543
83333.3331527617
83333.3331533051
83333.3331533039
83333.3331528632
83333.3331524843
83333.3330366193
83333.3330236417
83333.3330290721
83333.3330090004
83333.3330200562
83333.3330302119
83333.3329792869
83333.3330102874
83333.3330238637
83333.3330374029
83333.3329325061
83333.3329889752
83333.3330188621
83333.3330355167
83333.3330489822
83333.3328726762
83333.3329552482
83333.3330041661
83333.3330331833
83333.333050605
83333.3330636718
83333.3328290593
83333.3329189965
83333.3329827768
83333.3330249224
83333.3330504773
83333.3330669583
83333.3330788654
83333.3328271196
83333.3329002299
83333.3329643385
83333.3330137166
83333.3330476206
83333.3330686439
83333.333082814
83333.3330930299
83333.3328679447
83333.3329102813
83333.3329599847
83333.3330065442
83333.3330435404
83333.3330693598
83333.3330857794
83333.3330972348
83333.3331056717
83333.3329295327
83333.332944256
83333.3329735061
83333.3330090948
83333.3330427278
83333.3330695144
83333.3330884398
83333.333100905
83333.3331098284
83333.3331165545
83333.3329903393
83333.3329888021
83333.3330004984
83333.3330223785
83333.333048093
83333.3330718864
83333.3330907732
83333.3331043942
83333.3331136733
83333.3331203999
83333.3331255609
83333.3330419566
83333.3330327999
83333.3330332968
83333.3330433872
83333.3330598221
83333.333078031
83333.3330944936
83333.3331076258
83333.3331173288
83333.3331240602
83333.3331289763
83333.3331325466
83333.3330825731
83333.3330709603
83333.3330655568
83333.3330675802
83333.3330759641
83333.3330879235
83333.3331005067
83333.3331117399
83333.333120789
83333.333127581
83333.333132263
83333.3331355691
83333.3331376816
83333.3331132785
83333.333101724
83333.3330939128
83333.3330912601
83333.3330938513
83333.3331003367
83333.3331087195
83333.3331172482
83333.3331248203
83333.3331309552
83333.3331355439
83333.3331385446
83333.3331404501
83333.3331412671
83333.3331360978
83333.3331256372
83333.3331173194
83333.3331123797
83333.3331113416
83333.3331137399
83333.3331184231
83333.3331241099
83333.3331297712
83333.3331347609
83333.333138763
83333.3331416302
83333.3331432406
83333.3331439448
83333.3331437346
83333.333153098
83333.3331440011
83333.3331360788
83333.3331302853
83333.3331272283
83333.3331268955
83333.3331287224
83333.3331318885
83333.333135591
83333.3331392053
83333.3331423276
83333.3331447295
83333.3331462532
83333.3331467637
83333.3331465347
83333.3331458348
83333.333165944
83333.3331581621
83333.3331509867
83333.333145115
83333.3331410909
83333.3331390929
83333.3331389081
83333.3331400695
83333.3331420223
83333.3331442556
83333.3331463763
83333.3331481222
83333.3331493319
83333.3331498832
83333.3331496951
83333.3331490518
83333.3331484892
83333.3331758583
83333.3331692266
83333.3331628761
83333.3331573024
83333.3331529421
83333.333150025
83333.3331485246
83333.3331482106
83333.3331487364
83333.3331497276
83333.3331508526
83333.3331518599
83333.3331525844
83333.3331529375
83333.3331528941
83333.3331524722
83333.3331519823
83333.3331516659
83333.3330313743
83333.3330336306
83333.3330140638
83333.3330248365
83333.333031967
83333.3329747203
83333.3330099217
83333.3330264429
83333.3330389527
83333.3329129771
83333.3329819103
83333.3330166752
83333.3330344373
83333.3330488348
83333.3328268278
83333.3329340026
83333.332995077
83333.3330294857
83333.3330474999
83333.3330616704
83333.332746497
83333.3328757383
83333.332961368
83333.3330148881
83333.3330454172
83333.3330628016
83333.3330761024
83333.3327180117
83333.332834137
83333.3329275856
83333.3329945775
83333.3330376883
83333.3330628231
83333.3330783607
83333.3330901037
83333.3327616848
83333.3328336342
83333.3329108972
83333.3329779331
83333.3330276826
83333.3330603116
83333.333079907
83333.3330928659
83333.3331026332
83333.3328475951
83333.3328736672
83333.3329208961
83333.3329742955
83333.3330215691
83333.3330569993
83333.3330806173
83333.3330954057
83333.3331056527
83333.3331134416
83333.3329339877
83333.3329335439
83333.3329530811
83333.3329867434
83333.3330239909
83333.333056586
83333.3330810617
83333.3330977964
83333.3331087239
83333.3331164822
83333.3331224504
83333.3330049994
83333.332993035
83333.332995324
83333.3330113915
83333.3330357627
83333.3330613831
83333.3330833898
83333.3331000585
83333.3331117943
83333.3331196779
83333.3331253636
83333.3331296569
83333.333058906
83333.3330437194
83333.3330373221
83333.3330415013
83333.333054379
83333.3330715988
83333.3330888428
83333.3331035149
83333.3331147903
83333.3331229217
83333.3331284038
83333.3331322962
83333.3331349767
83333.3330984976
83333.3330836984
83333.3330739684
83333.3330713865
83333.3330759921
83333.3330856658
83333.333097436
83333.333108856
83333.3331185516
83333.3331260883
83333.3331315514
83333.333135101
83333.3331374484
83333.3331387088
83333.3331270243
83333.3331139775
83333.3331036837
83333.3330979131
83333.3330973967
83333.3331014047
83333.3331082289
83333.3331160474
83333.3331234896
83333.3331297935
83333.3331346833
83333.3331381188
83333.3331400882
83333.3331410992
83333.333141211
83333.3331475798
83333.3331365279
83333.3331268995
83333.3331200148
83333.3331167228
83333.3331169869
83333.3331199813
83333.3331245413
83333.3331295747
83333.3331342866
83333.3331382201
83333.3331411687
83333.3331430282
83333.3331437155
83333.3331436551
83333.3331430529
83333.3331625966
83333.3331533631
83333.3331448118
83333.3331378784
83333.3331333044
83333.3331313323
83333.3331316563
83333.3331336211
83333.3331364686
83333.3331395294
83333.3331423193
83333.3331445436
83333.3331460404
83333.3331466927
83333.3331464317
83333.3331457147
83333.3331448865
83333.3331738151
83333.3331661107
83333.3331586848
83333.3331521834
83333.3331471898
83333.3331440165
83333.3331426254
83333.3331426979
83333.3331437619
83333.3331453215
83333.3331469537
83333.3331483517
83333.3331493226
83333.3331497577
83333.3331496012
83333.3331488818
83333.3331481156
83333.3331475819
83333.3331824253
83333.3331759614
83333.3331695615
83333.3331636676
83333.3331587137
83333.3331549927
83333.3331525844
83333.3331513694
83333.333151084
83333.3331513944
83333.3331519715
83333.3331525418
83333.3331529112
83333.3331529715
83333.3331527018
83333.3331521975
83333.3331515811
83333.333151118
83333.3331509545
83333.3330187778
83333.3330349881
83333.3330343019
83333.3329878957
83333.3330141891
83333.3330325679
83333.333041157
83333.3328967518
83333.3329785233
83333.3330176702
83333.3330379245
83333.3330515062
83333.3327807425
83333.3329149871
83333.3329898964
83333.3330293198
83333.3330480216
83333.3330628395
83333.3326540896
83333.3328305781
83333.3329423421
83333.3330086989
83333.3330438232
83333.3330614985
83333.3330755382
83333.3325728422
83333.3327538547
83333.3328878587
83333.3329771625
83333.3330307435
83333.3330597943
83333.3330759269
83333.3330886809
83333.3326027576
83333.3327289607
83333.3328502293
83333.3329465673
83333.3330127168
83333.333053205
83333.3330759774
83333.3330899023
83333.3331008109
83333.3327241639
83333.3327718526
83333.3328504145
83333.3329316568
83333.3329982184
83333.3330448026
83333.3330739463
83333.3330911825
83333.3331025524
83333.3331113639
83333.3328525389
83333.3328544526
83333.3328877349
83333.3329405238
83333.3329950195
83333.3330398149
83333.3330714534
83333.3330918787
83333.3331046061
83333.3331134049
83333.3331201675
83333.3329546046
83333.3329382052
83333.3329435869
83333.332969242
83333.3330056874
83333.3330419453
83333.3330714262
83333.333092561
83333.3331067046
83333.3331158703
83333.3331223362
83333.3331273688
83333.3330280984
83333.3330075738
83333.3329997482
83333.333007335
83333.3330270209
83333.3330519084
83333.3330756332
83333.3330948331
83333.3331088677
83333.3331185622
83333.3331249412
83333.3331294628
83333.3331327309
83333.3330799394
83333.3330605264
83333.3330480653
83333.3330457092
83333.3330533944
83333.3330677498
83333.333084309
83333.3330996426
83333.3331120769
83333.3331213311
83333.3331278093
83333.3331319709
83333.3331347851
83333.3331365161
83333.3331160647
83333.333099487
83333.3330864667
83333.3330796037
83333.3330799523
83333.3330863574
83333.3330962497
83333.3331070113
83333.3331168117
83333.3331247769
83333.3331307367
83333.3331348326
83333.3331372079
83333.3331385551
83333.3331390329
83333.3331412397
83333.3331276187
83333.3331157176
83333.333107395
83333.333103868
83333.3331050608
83333.3331097481
83333.3331162548
83333.3331230803
83333.3331292152
83333.3331341623
83333.333137776
83333.333140046
83333.333140974
83333.3331411363
83333.3331407423
83333.3331590039
83333.333147934
83333.333137616
83333.3331293191
83333.3331240724
83333.3331222135
83333.3331232985
83333.3331263957
83333.3331304596
83333.33313461
83333.3331382581
83333.3331410907
83333.3331429753
83333.3331438381
83333.3331436533
83333.3331430244
83333.3331422224
83333.3331718286
83333.333162808
83333.3331540432
83333.3331463829
83333.333140612
83333.3331371585
83333.333135968
83333.3331365961
83333.3331383958
83333.3331407083
83333.3331429965
83333.3331448957
83333.3331461959
83333.3331467891
83333.3331466225
83333.3331457364
83333.33314479
83333.3331439964
83333.3331813578
83333.3331739434
83333.3331665373
83333.3331597032
83333.3331540114
83333.3331498559
83333.3331473458
83333.333146318
83333.3331464146
83333.3331471921
83333.3331482251
83333.333149173
83333.3331498026
83333.3331499825
83333.333149668
83333.3331489209
83333.333147911
83333.3331471795
83333.3331468849
83333.3331886662
83333.3331825003
83333.3331762254
83333.3331702169
83333.3331648789
83333.3331605321
83333.3331573357
83333.3331552722
83333.3331541704
83333.3331537581
83333.3331537289
83333.3331538015
83333.3331537563
83333.3331534558
83333.3331528568
83333.3331520483
83333.333151262
83333.3331506325
83333.3331507281
83333.3331505497
83333.3329932997
83333.3330222164
83333.3330442872
83333.3330419232
83333.3329155435
83333.3329906428
83333.3330238484
83333.3330449436
83333.3330539868
83333.3327486644
83333.33290228
83333.3329899803
83333.3330324031
83333.3330520494
83333.3330662785
83333.3325609927
83333.3327861021
83333.3329271749
83333.3330072985
83333.3330456637
83333.3330633034
83333.3330778083
83333.3324026239
83333.3326632159
83333.3328478347
83333.3329637111
83333.3330280679
83333.3330600849
83333.3330760982
83333.3330893071
83333.3323710384
83333.3325901151
83333.3327781251
83333.3329146009
83333.3330006504
83333.3330493075
83333.3330746354
83333.3330888693
83333.3331004659
83333.3325299579
83333.3326217084
83333.3327561268
83333.3328808413
83333.3329740591
83333.3330343057
83333.3330693717
83333.333088799
83333.3331008317
83333.3331104362
83333.3327296435
83333.332736704
83333.3327954482
83333.3328803606
83333.3329608105
83333.3330222385
83333.3330627242
83333.3330872531
83333.3331017448
83333.3331113753
83333.3331188743
83333.3328835143
83333.3328597597
83333.3328708547
83333.332912561
83333.332967788
83333.3330194265
83333.3330589129
83333.3330855439
83333.3331024146
83333.3331129248
83333.3331201404
83333.3331258213
83333.3329872922
83333.3329585307
83333.3329485567
83333.3329616558
83333.3329918416
83333.3330280349
83333.3330607806
83333.333085886
83333.3331032802
83333.3331147431
83333.3331220831
83333.3331272352
83333.3331310941
83333.3330565607
83333.3330304373
83333.3330139456
83333.3330120293
83333.333024395
83333.3330456373
83333.333068972
83333.3330895828
83333.3331055054
83333.333116818
83333.3331244588
83333.3331292905
83333.3331325813
83333.3331347888
83333.3331028028
83333.3330813439
83333.3330644767
83333.3330561127
83333.3330578243
83333.3330677712
83333.3330820462
83333.3330968539
83333.3331097543
83333.3331197963
83333.3331270228
83333.3331318633
83333.3331346835
83333.3331363864
83333.3331372312
83333.3331339273
83333.3331168942
83333.3331019122
83333.3330916429
83333.333087875
83333.3330904756
83333.3330976035
83333.3331068215
83333.3331160516
83333.3331240168
83333.3331302103
83333.333134609
83333.3331373499
83333.3331385488
83333.333138954
83333.3331388052
83333.3331551404
83333.3331417225
83333.3331290995
83333.3331190121
83333.3331129154
83333.3331112945
83333.3331134998
83333.3331181893
83333.3331239052
83333.3331294846
83333.333134219
83333.3331377988
83333.3331401536
83333.3331412819
83333.3331412258
83333.3331407285
83333.3331400759
83333.3331699244
83333.3331592823
83333.3331488353
83333.3331397048
83333.3331329595
83333.3331291965
83333.3331283396
83333.3331297629
83333.3331325708
83333.3331358826
83333.3331390183
83333.3331415543
83333.3331432808
83333.3331441178
83333.3331440492
83333.3331431488
83333.3331422113
83333.333141385
83333.3331805406
83333.3331719885
83333.3331633561
83333.3331553654
83333.3331487685
83333.3331440978
83333.3331415046
83333.3331407657
83333.3331413935
83333.3331427961
83333.3331444246
83333.3331458599