/*--------------------------------*- C++ -*----------------------------------*\
  =========                 |
  \\      /  F ield         | OpenFOAM: The Open Source CFD Toolbox
   \\    /   O peration     | Website:  https://openfoam.org
    \\  /    A nd           | Version:  12
     \\/     M anipulation  |
\*---------------------------------------------------------------------------*/
/*   Windows 32 and 64 bit porting by blueCAPE: http://www.bluecape.com.pt   *\
|  Based on Windows porting (2.0.x v4) by Symscape: http://www.symscape.com   |
\*---------------------------------------------------------------------------*/
FoamFile
{
    format      ascii;
    class       surfaceScalarField;
    location    "300";
    object      phi;
}
// * * * * * * * * * * * * * * * * * * * * * * * * * * * * * * * * * * * * * //

dimensions      [0 3 -1 0 0 0 0];

internalField   nonuniform List<scalar> 
28563
(
8.06921145114991e-06
-2.64997615547773e-07
-3.17753134765711e-07
8.72470709499778e-06
-2.70165135678436e-07
-3.85329907535156e-07
4.29243668143431e-06
-1.83888181915156e-07
9.08724835037343e-06
-2.68829955461914e-07
-6.77097657434758e-07
9.44388983448777e-06
-2.66410541635786e-07
-4.52767390556489e-07
4.58047338398104e-06
-3.40658359495103e-07
-2.17540899312364e-07
9.80197482847272e-06
-2.77665021522401e-07
-8.2237885859359e-07
4.87706901319727e-06
-3.84696104354451e-07
9.83914971615226e-06
-2.84934939278338e-07
-1.04100753931703e-06
1.02255597471995e-05
-2.43965953683925e-07
-5.37697195347305e-07
4.87527155117418e-06
-3.10703751319859e-07
-2.50503194902101e-07
1.06019138183731e-05
-2.72640769422788e-07
-9.80052107574073e-07
4.24638097925264e-06
-4.08133042273523e-07
-1.92230512241362e-07
5.19629331124353e-06
-3.56206338560758e-07
-4.58218918866436e-07
1.05804284089988e-05
-2.98422824310907e-07
-1.26522549311571e-06
5.44689917199428e-06
-5.84695956790438e-07
1.07285351935095e-05
-3.04800357543492e-07
1.10697723964174e-05
-1.97450574830584e-07
-6.46756800784002e-07
5.17383676479643e-06
-2.52473728833806e-07
-2.9005529582267e-07
1.14793483729816e-05
-2.42101725269699e-07
-1.173012433163e-06
4.51415771668407e-06
-3.57011994525834e-07
-2.21467972428285e-07
5.52663192304365e-06
-3.19483895967928e-07
-5.33993496126271e-07
1.1410426949051e-05
-2.90383665820043e-07
-1.51966386882132e-06
4.23721144772811e-06
-4.91425958259052e-07
-1.77490567190987e-07
4.84443528073515e-06
-4.37713943555738e-07
-4.03902203232809e-07
5.78524393286899e-06
-3.93115091938367e-07
-7.01868327541412e-07
1.15001061414029e-05
-3.20449270128824e-07
-1.71633228563893e-06
5.93606965921997e-06
1.19739228082963e-05
-1.20481653023251e-07
-7.83664782281924e-07
5.47328828399066e-06
-1.58625418874488e-07
-3.38274816366364e-07
1.24322639487352e-05
-1.84959291041643e-07
-1.41470982022004e-06
4.79053700797908e-06
-2.74775331031475e-07
-2.54076741632844e-07
5.86548799784175e-06
-2.48527741996792e-07
-6.22485720970628e-07
1.23138560893648e-05
-2.53210638977057e-07
-1.823216868969e-06
4.51306420431673e-06
-4.2753246943914e-07
-2.05332028046663e-07
5.14773175584143e-06
-3.75661390610046e-07
-4.68585928695448e-07
6.13721876404526e-06
-3.51442025005614e-07
-8.24906004296936e-07
1.23670616980084e-05
-3.19596408803549e-07
-2.06701438270761e-06
4.24193733899464e-06
-5.87989731033639e-07
-1.67506536866781e-07
4.79237207304368e-06
-5.35985944517873e-07
-3.73282368997447e-07
5.5031040200548e-06
-4.95405475503087e-07
-6.25805354748215e-07
6.28537150785119e-06
-4.34232120835205e-07
-9.37383867504934e-07
1.21117718418093e-05
-3.4006147242821e-07
-2.13215657983139e-06
1.29317207657941e-05
-1.96299839565623e-09
-9.55831023419199e-07
5.76741858511399e-06
-2.00588139770576e-08
-3.94549378186206e-07
1.34594301824139e-05
-9.25253390749696e-08
-1.71830746024084e-06
5.07572403355636e-06
-1.52253299586113e-07
-2.91558243409126e-07
6.20712553041054e-06
-1.36542865060291e-07
-7.28321224468625e-07
1.32844683865564e-05
-1.82909323759081e-07
-2.20240653771335e-06
4.80574865995255e-06
-3.31411937567016e-07
-2.36047434599445e-07
5.46355702514154e-06
-2.77134520696552e-07
-5.41293899808329e-07
6.4967897869373e-06
-2.69737797229631e-07
-9.65524629004014e-07
1.33034121928929e-05
-2.7767057476198e-07
-2.48188703074534e-06
4.52756343829551e-06
-5.1884550796107e-07
-1.94312883242381e-07
5.10406719250333e-06
-4.59288989510195e-07
-4.333983443941e-07
5.83731891318605e-06
-4.23927944114307e-07
-7.30313143656371e-07
6.64204564665769e-06
-3.92801806264908e-07
-1.10836817518898e-06
1.29527652625014e-05
-3.44532714208389e-07
-2.56347439580583e-06
4.20321147145722e-06
-6.92951307184018e-07
-1.59632048463284e-07
4.73856675904087e-06
-6.47961465391466e-07
-3.50437007028687e-07
5.45388362945525e-06
-6.1377701928871e-07
-5.83954007687472e-07
5.98309808954036e-06
-5.54632752107013e-07
-8.44912659202149e-07
6.49582899827634e-06
-4.70162626664066e-07
-1.1504438654914e-06
1.22780765334939e-05
-3.63286993039276e-07
-2.49480628494295e-06
1.39313986362701e-05
1.79381947387088e-07
-1.17905465695477e-06
6.04760086632349e-06
1.77331802699191e-07
-4.59473611370056e-07
1.45542598702282e-05
5.07834390664085e-08
-2.10143540183764e-06
5.36794440763368e-06
2.12642776129077e-08
-3.33541995853695e-07
6.54476282932432e-06
2.77253781671757e-08
-8.5243344320542e-07
1.43111493731799e-05
-7.05737236785979e-08
-2.67439870583788e-06
5.11780913268138e-06
-1.93489641368759e-07
-2.7082398997197e-07
5.79178268890073e-06
-1.31799437298264e-07
-6.24525541210337e-07
6.85677705670276e-06
-1.40052028224264e-07
-1.1311633965627e-06
1.43072304760354e-05
-2.04553062957865e-07
-3.00166491560975e-06
4.83771361428803e-06
-4.17495751016932e-07
-2.24066146255195e-07
5.43671996984713e-06
-3.45003243542547e-07
-5.00830235836776e-07
6.18471114142865e-06
-3.10597418439648e-07
-8.47825728965131e-07
7.00791626466058e-06
-3.0697993920779e-07
-1.30207774214897e-06
1.38845072832274e-05
-3.20196430992957e-07
-3.09341849873222e-06
4.49418018948757e-06
-6.24693480525138e-07
-1.85120458558399e-07
5.05839318921856e-06
-5.6596499789959e-07
-4.074622338985e-07
5.80156147793317e-06
-5.24983581838597e-07
-6.80019189143043e-07
6.33008372855076e-06
-4.7990673773933e-07
-9.90192674453332e-07
6.84094748451312e-06
-4.33730174649388e-07
-1.36427954885875e-06
1.3073632242798e-05
-3.71084145513513e-07
-2.98793492419485e-06
4.12752395059951e-06
-8.01972192271899e-07
-1.53010211434079e-07
4.66748452881294e-06
-7.67971330647346e-07
-3.33956811777451e-07
5.3596236726894e-06
-7.4269407197591e-07
-5.50191218729078e-07
5.91951351280869e-06
-6.87921375815693e-07
-7.9715595630753e-07
6.12930917135301e-06
-6.01119079254423e-07
-1.04623709170518e-06
6.44261188424471e-06
-5.00410535395113e-07
-1.33440406297507e-06
1.20672719938203e-05
-3.79231335478772e-07
-2.77045329634893e-06
1.49666560191646e-05
4.53474251897078e-07
-1.48872483837914e-06
6.30641996801076e-06
4.54719459813946e-07
-5.341531515776e-07
1.56844253923221e-05
2.76199866525923e-07
-2.58540320000919e-06
5.66562629039769e-06
2.60733243406158e-07
-3.8108331641357e-07
6.86864411781716e-06
2.61040508662462e-07
-9.9360610687832e-07
1.53713290806705e-05
9.80931770995878e-08
-3.25969940600024e-06
5.45203800824734e-06
-2.3957095980011e-09
-3.10568397645249e-07
6.13082950227633e-06
7.33469987872208e-08
-7.18207939814831e-07
7.20939174201771e-06
4.80585355078862e-08
-1.32367386304096e-06
1.53583527497113e-05
-8.18271000546604e-08
-3.64367329011463e-06
5.17692409097852e-06
-2.74690500435819e-07
-2.58009150317185e-07
5.79339127204702e-06
-1.8202194379059e-07
-5.77271667847525e-07
6.54519386143653e-06
-1.43663026748558e-07
-9.81395714737464e-07
7.37128873864266e-06
-1.69976525749981e-07
-1.52910755551448e-06
1.48783497809102e-05
-2.47894501776571e-07
-3.74760291455252e-06
4.81590476002192e-06
-5.25178828569707e-07
-2.14041268679794e-07
5.40705773289106e-06
-4.46332839703254e-07
-4.71400129420137e-07
6.1722149240218e-06
-3.93767726650687e-07
-7.8831152594112e-07
6.68816290959733e-06
-3.60213072073409e-07
-1.15266962569478e-06
7.18661960029619e-06
-3.57590158879603e-07
-1.61035083544835e-06
1.39428635522229e-05
-3.53893634105332e-07
-3.60874426224564e-06
4.41932018566797e-06
-7.39104581980166e-07
-1.77384846425335e-07
4.99178737651799e-06
-6.87766198017225e-07
-3.87621125509318e-07
5.71611725874388e-06
-6.49442388697094e-07
-6.39495469455816e-07
6.28359683663912e-06
-5.94071130769253e-07
-9.29936744511414e-07
6.46430375496528e-06
-5.30949212020999e-07
-1.22796721638742e-06
6.75781125926312e-06
-4.7001227122121e-07
-1.58054676807397e-06
1.27792006240048e-05
-3.90669974154082e-07
-3.30917927945462e-06
4.03495044631751e-06
-9.1194655808676e-07
-1.4726533962797e-07
4.58621576888347e-06
-8.91600713568147e-07
-3.21481442501829e-07
5.26065345446047e-06
-8.7873673266406e-07
-5.25704323623152e-07
5.79443085126728e-06
-8.28568926259308e-07
-7.55769832986765e-07
6.04403078672803e-06
-7.398682708497e-07
-9.97894073244025e-07
6.0149403421117e-06
-6.33843179822241e-07
-1.22097528551464e-06
6.23137708449449e-06
-5.23026972562795e-07
-1.47767132073559e-06
1.16452869834349e-05
-3.91598519955538e-07
-2.93992913506673e-06
1.60232061500427e-05
8.5579903327809e-07
-1.91234749470332e-06
6.54301633702318e-06
8.36996045103511e-07
-6.20111911433472e-07
1.67622402241607e-05
6.2124687316612e-07
-3.1877747624397e-06
5.96866412630402e-06
5.85582716572309e-07
-4.33900043199822e-07
7.17177338509527e-06
5.88871588182126e-07
-1.14994964450681e-06
1.64135761906609e-05
3.53116153737894e-07
-3.98075677503208e-06
5.81147823751079e-06
2.56394464077233e-07
-3.55101042699875e-07
6.47838469135378e-06
3.55117836547394e-07
-8.22713127712756e-07
7.54245351873844e-06
3.13887953972517e-07
-1.54245561241281e-06
1.64199570065384e-05
1.04705250457767e-07
-4.42599459907754e-06
5.55097264642587e-06
-7.9586339893515e-08
-2.96857443505129e-07
6.17699615430915e-06
4.29852414927457e-08
-6.63809554379271e-07
6.91610374932574e-06
9.10050116059697e-08
-1.13206253433595e-06
7.72323305356262e-06
3.17757150330958e-08
-1.78921712111762e-06
1.58990755397495e-05
-1.25317562673229e-07
-4.53906930149828e-06
5.1744530343892e-06
-3.86127377142346e-07
-2.47110975878368e-07
5.79002778444744e-06
-2.786524237171e-07
-5.44347869231545e-07
6.56925843789031e-06
-2.07211436803151e-07
-9.10765869544857e-07
7.05687219849632e-06
-1.83155448854807e-07
-1.33692440217176e-06
7.52776797559343e-06
-2.25118478961054e-07
-1.89302519610287e-06
1.48505537306018e-05
-2.89024289386655e-07
-4.36625526819195e-06
4.74630181873779e-06
-6.47011611998266e-07
-2.05148570479152e-07
5.35195234470456e-06
-5.71488828794741e-07
-4.49049375608968e-07
6.10401914301033e-06
-5.11884409509018e-07
-7.41184176151419e-07
6.66956833756163e-06
-4.55340559181116e-07
-1.07915343136951e-06
6.80412898310747e-06
-4.17766753137328e-07
-1.43231598810677e-06
7.06656286539432e-06
-4.04807206600588e-07
-1.86818065529937e-06
1.35424759241815e-05
-3.80766030373653e-07
-3.99123375481823e-06
4.32417156205157e-06
-8.57791237764806e-07
-1.70534220364568e-07
4.91229221442697e-06
-8.18470507949057e-07
-3.72756150755334e-07
5.62104037583254e-06
-7.87072719229112e-07
-6.10376858587114e-07
6.1678869953738e-06
-7.28654010092187e-07
-8.78366924378115e-07
6.39719802974617e-06
-6.50359164305946e-07
-1.16369141465869e-06
6.31958746703942e-06
-5.71752875000936e-07
-1.43086989374294e-06
6.50689825185143e-06
-5.00186772308182e-07
-1.74654299385466e-06
1.22466762232728e-05
-4.09009143926613e-07
-3.50155346595757e-06
3.93845388052368e-06
-1.02082370856648e-06
-1.42038995216785e-07
4.49748217836238e-06
-1.01598169472085e-06
-3.10942067626846e-07
5.17395287860093e-06
-1.01807071245057e-06
-5.08107637382791e-07
5.68045991254553e-06
-9.74449338751238e-07
-7.2515922590334e-07
5.90716997784894e-06
-8.83294504104226e-07
-9.51602765491072e-07
5.91935959052609e-06
-7.71400041808258e-07
-1.17387120009843e-06
5.76993061283413e-06
-6.56663113293764e-07
-1.35976626242535e-06
5.94929761148458e-06
-5.42325661072438e-07
-1.57312286726461e-06
1.11314235468513e-05
-4.01915144392979e-07
-2.99426047633945e-06
1.70904009099531e-05
1.42672182479915e-06
-2.49391154659319e-06
6.76765265519456e-06
1.35239579999222e-06
-7.2123089576417e-07
1.76670937096067e-05
1.11485611663732e-06
-3.93204455245684e-06
6.27860904737285e-06
1.01916184861594e-06
-4.92110084293163e-07
7.45833120935053e-06
1.03990404586736e-06
-1.32532325836001e-06
1.73466238486396e-05
7.28210659773672e-07
-4.84900914577832e-06
6.19990390430807e-06
6.00789520510429e-07
-4.03631836374963e-07
6.83492279360042e-06
7.35781326003528e-07
-9.3734675163611e-07
7.84846504154136e-06
6.84401159377436e-07
-1.78723593644581e-06
1.74294331762627e-05
3.79359520760586e-07
-5.36956463171586e-06
5.96598833018352e-06
1.81385418582181e-07
-3.40006516099484e-07
6.59105985760167e-06
3.46885821209589e-07
-7.60931374323217e-07
7.29452967155586e-06
4.12242832196867e-07
-1.29949300157355e-06
8.05227568154567e-06
3.15781298471885e-07
-2.08256283458413e-06
1.68948280734778e-05
6.21134613896943e-08
-5.48383752584919e-06
5.57756895654335e-06
-1.9743027911064e-07
-2.85271618771726e-07
6.21346800630026e-06
-4.96588405685455e-08
-6.27652062170169e-07
6.99569599708808e-06
4.97008874310907e-08
-1.04894206140924e-06
7.43350529004056e-06
6.61788615175621e-08
-1.54309710711429e-06
7.85349977335315e-06
-2.78432945086202e-08
-2.21241028089766e-06
1.57531840396179e-05
-1.76457939151515e-07
-5.26522461028871e-06
5.11595540150302e-06
-5.18476896693326e-07
-2.37303824035028e-07
5.75491288124044e-06
-4.09417832294639e-07
-5.19305331073634e-07
6.52980115444739e-06
-3.20711508438835e-07
-8.56628959322649e-07
7.08076892038402e-06
-2.57730099849866e-07
-1.24738927184192e-06
7.15015209461512e-06
-2.46777207975019e-07
-1.66128473560717e-06
7.36559257757364e-06
-2.85740550612296e-07
-2.19533042215679e-06
1.43146629300774e-05
-3.28011679815185e-07
-4.81040726701608e-06
4.6516648041128e-06
-7.77289803103549e-07
-1.97214819936537e-07
5.27913793622392e-06
-7.11953309798491e-07
-4.31529246506293e-07
6.02149734960937e-06
-6.54918145290763e-07
-7.06471460105176e-07
6.57282703100036e-06
-5.84083338109153e-07
-1.01738037140152e-06
6.76735303680437e-06
-5.16912797471038e-07
-1.35016017882057e-06
6.62205414846435e-06
-4.71230472229809e-07
-1.66835742280857e-06
6.76932220402425e-06
-4.47364279506433e-07
-2.06400048528317e-06
1.28758963913897e-05
-4.0867909427326e-07
-4.21176091309417e-06
4.22266533496671e-06
-9.77751310808421e-07
-1.6425103608972e-07
4.82220877037138e-06
-9.53668609273682e-07
-3.60062012010781e-07
5.53747127607149e-06
-9.3456331659814e-07
-5.88783073377531e-07
6.05928221436367e-06
-8.77064862120346e-07
-8.40787123622792e-07
6.27022245087228e-06
-7.86810063678526e-07
-1.10496772969276e-06
6.24206094684791e-06
-6.91159371268652e-07
-1.36698370472684e-06
6.03446058598265e-06
-6.05104523759837e-07
-1.5904771302807e-06
6.17824697323515e-06
-5.28632605253823e-07
-1.85586376071144e-06
1.1609114666143e-05
-4.25143102048423e-07
-3.55407900790619e-06
3.84047874444978e-06
-1.12702131791863e-06
-1.36943521608715e-07
4.40250007323951e-06
-1.13919719933198e-06
-3.00900185700318e-07
5.08930849493957e-06
-1.15850170874303e-06
-4.93261218071204e-07
5.59759037821913e-06
-1.12366638687963e-06
-7.03592184689514e-07
5.79699954893172e-06
-1.03070402316781e-06
-9.17071310050769e-07
5.78821594378575e-06
-9.12009196244638e-07
-1.12583552162158e-06
5.67942925634668e-06
-7.919394540125e-07
-1.31795126057429e-06
5.4733130851198e-06
-6.76102463266891e-07
-1.45943541225295e-06
5.62898683900095e-06
-5.59002747993681e-07
-1.61784168426557e-06
1.05875929432148e-05
-4.08758775877869e-07
-2.93098928924864e-06
1.80975083956229e-05
2.20566210490926e-06
-3.21276301992571e-06
7.00895959966635e-06
2.03554221233388e-06
-8.50123410416571e-07
1.82466622068702e-05
1.79768753710875e-06
-4.87115859239612e-06
6.59758158258894e-06
1.59070735626982e-06
-5.57283201928337e-07
7.73607406438352e-06
1.6466197464841e-06
-1.53073358342766e-06
1.80375789007498e-05
1.26200236106784e-06
-5.88500946326962e-06
6.62217233026969e-06
1.05434710800442e-06
-4.57453683360917e-07
7.2023599459569e-06
1.2426600688244e-06
-1.06230096617064e-06
8.12636673430799e-06
1.18725518512607e-06
-2.062261335191e-06
1.83019070470065e-05
7.68348889989051e-07
-6.48980075258622e-06
6.42975031943547e-06
5.26091498341435e-07
-3.89063679207048e-07
7.04087974654319e-06
7.5158844367412e-07
-8.6925730984651e-07
7.68056724473271e-06
8.43991513491426e-07
-1.48297235595611e-06
8.35027340909393e-06
7.06394771061216e-07
-2.41225718597902e-06
1.77833946223041e-05
3.36849511141483e-07
-6.59495243896071e-06
6.03491817472553e-06
5.3670947484436e-08
-3.29634543859616e-07
6.68534740624105e-06
2.5748290200147e-07
-7.22482139917762e-07
7.45515138466875e-06
3.95774421775006e-07
-1.20391614847439e-06
7.81476649598488e-06
4.06171143639022e-07
-1.77114068150843e-06
8.15286728927131e-06
2.50156823424242e-07
-2.56996382915697e-06
1.65833988659661e-05
-5.58211064198634e-10
-6.31347044379995e-06
5.53785416992235e-06
-3.44554273550744e-07
-2.74774450143168e-07
6.209734346347e-06
-1.89249396790152e-07
-6.00501156206666e-07
7.0001364567488e-06
-6.02236939325818e-08
-9.88060932490828e-07
7.52002343996041e-06
1.41809793269882e-08
-1.43619664159204e-06
7.49930331324951e-06
-5.04892915211472e-09
-1.9150392958468e-06
7.6440137384404e-06
-1.05864252489597e-07
-2.56141648331818e-06
1.50415296334111e-05
-2.27859815569531e-07
-5.76421384503438e-06
5.0259191733006e-06
-6.64388176667462e-07
-2.28342738734257e-07
5.69563269095634e-06
-5.63443211729938e-07
-4.99772019607306e-07
6.46884990324655e-06
-4.70317660873022e-07
-8.17050602467752e-07
7.01514154103394e-06
-3.8178631911104e-07
-1.17488536476153e-06
7.15804796849818e-06
-3.2582394361829e-07
-1.55903462882918e-06
6.92461220136147e-06
-3.17004536163355e-07
-1.93257590631993e-06
7.01395683481256e-06
-3.45560454470615e-07
-2.42240670174849e-06
1.3483032081538e-05
-3.6684804399946e-07
-5.05067247875705e-06
4.54703907104947e-06
-9.11785533453192e-07
-1.89877685424641e-07
5.19139378231869e-06
-8.61569297713017e-07
-4.1678339083771e-07
5.94602530170028e-06
-8.13477993147497e-07
-6.81522353357605e-07
6.4778573888814e-06
-7.36635218788994e-07
-9.72493592701232e-07
6.66086158103406e-06
-6.46708275153472e-07
-1.27822208728365e-06
6.57564653937092e-06
-5.70979501964623e-07
-1.5839937109039e-06
6.29079653203607e-06
-5.19976437919445e-07
-1.85207910446719e-06
6.38523370685832e-06
-4.89146333504984e-07
-2.19050939326079e-06
1.20910296533387e-05
-4.3399917712319e-07
-4.25965413282809e-06
4.11743868378704e-06
-1.09656664729655e-06
-1.58144444051255e-07
4.7228780925958e-06
-1.09028805482697e-06
-3.48009014223387e-07
5.45280286453276e-06
-1.08738178919079e-06
-5.70737283232129e-07
5.98075900163501e-06
-1.03482978404114e-06
-8.14185775197195e-07
6.16702165822287e-06
-9.35933999004041e-07
-1.06168369833724e-06
6.12198644290717e-06
-8.24701187582538e-07
-1.30519496312779e-06
5.96283981700871e-06
-7.23480239313181e-07
-1.53201710506147e-06
5.6943168978321e-06
-6.36326789635293e-07
-1.70378299414367e-06
5.80928118264538e-06
-5.55604406412761e-07
-1.90568984627013e-06
1.09353493514569e-05
-4.38378775125897e-07
-3.46344173181678e-06
3.73742237385706e-06
-1.22903091338838e-06
-1.31621671186182e-07
4.30044531801501e-06
-1.25957620985722e-06
-2.90547831275102e-07
4.99696646760739e-06
-1.2981669195662e-06
-4.78491809641849e-07
5.5220586021211e-06
-1.27474541589096e-06
-6.84910116595711e-07
5.72801735117559e-06
-1.18182723156934e-06
-8.92660859815273e-07
5.69268499029863e-06
-1.05617165503983e-06
-1.08939190522819e-06
5.56503598387921e-06
-9.287578004111e-07
-1.27158225059267e-06
5.39792027390176e-06
-8.08993562246795e-07
-1.42729808002656e-06
5.15658593666777e-06
-6.92993794428899e-07
-1.51918092969001e-06
5.3035390060632e-06
-5.70988114393359e-07
-1.61419222252174e-06
1.00366483812605e-05
-4.0935898294617e-07
-2.7520207140204e-06
1.88024473745198e-05
3.21829876538812e-06
-3.92324270018575e-06
7.29778245534326e-06
2.92895193808715e-06
-1.01211420313966e-06
1.82890780864322e-05
2.6902162530808e-06
-5.94539777449189e-06
6.92730523084216e-06
2.33758181026985e-06
-6.31762755376753e-07
8.01351767383499e-06
2.44768845583264e-06
-1.77755526117457e-06
1.82928519048906e-05
1.99854886324232e-06
-7.12495767425723e-06
7.08227896343932e-06
1.64818547714296e-06
-5.17584744548762e-07
7.58322382862254e-06
1.90960608843532e-06
-1.20113140403932e-06
8.37415777246155e-06
1.85886481085675e-06
-2.37537507900264e-06
1.88880396419426e-05
1.31851024152284e-06
-7.78962910744526e-06
6.95085003484974e-06
9.7806163161111e-07
-4.44813920357878e-07
7.53154901399685e-06
1.28498861965742e-06
-9.90450700697733e-07
8.07485498500837e-06
1.41487876009004e-06
-1.68421029845909e-06
8.60376612277139e-06
1.2316595674983e-06
-2.7790477065638e-06
1.84445136039302e-05
7.19574370614612e-07
-7.87046367368402e-06
6.55781670815823e-06
3.83805563088386e-07
-3.80612270618858e-07
7.21465925737441e-06
6.64077777499986e-07
-8.30863654596129e-07
7.95245795948021e-06
8.54695208746301e-07
-1.37726677832053e-06
8.19943994282752e-06
8.6007442561089e-07
-2.02132224023595e-06
8.41256249410236e-06
6.30578275088047e-07
-2.96566771322354e-06
1.72399577765771e-05
2.57238982518782e-07
-7.50873103631093e-06
6.02410786291415e-06
-1.13868488094145e-07
-3.18713869491663e-07
6.72761167251959e-06
1.04691373194612e-07
-6.94719364496871e-07
7.5231207247935e-06
2.88112791539461e-07
-1.13780267676415e-06
7.99019948099094e-06
3.79209890464573e-07
-1.64712866046683e-06
7.84817616343137e-06
3.23838329124976e-07
-2.19369225015749e-06
7.88809970230679e-06
1.49297835792705e-07
-2.96389970873631e-06
1.5645489052879e-05
-6.92652170550221e-08
-6.84814667982124e-06
5.45800457270007e-06
-5.1161417040504e-07
-2.6502513623537e-07
6.1731261580997e-06
-3.62154611321579e-07
-5.79361905026292e-07
6.97309854952372e-06
-2.20610115462274e-07
-9.44362270033507e-07
7.50121882888614e-06
-1.06625412525009e-07
-1.35332969449437e-06
7.57135524984828e-06
-6.28257853818104e-08
-1.79172499837281e-06
7.22443491758919e-06
-9.77989391739248e-08
-2.22292361767544e-06
7.22992304227948e-06
-1.880351485238e-07
-2.81719989424837e-06
1.40065117756248e-05
-2.80290375283376e-07
-6.00738960291417e-06
4.92077648608905e-06
-8.181733621204e-07
-2.19952001455692e-07
5.61515673959825e-06
-7.32523579223274e-07
-4.83024293771837e-07
6.40956097091942e-06
-6.45000494627516e-07
-7.88624195330326e-07
6.94367876876321e-06
-5.41654192068791e-07
-1.1230022448104e-06
7.08408439557851e-06
-4.50493913959642e-07
-1.47343601477681e-06
6.92305528385969e-06
-3.9786959550835e-07
-1.82557572890474e-06
6.54116609839766e-06
-3.86866078594944e-07
-2.14163730291868e-06
6.56798973861633e-06
-4.05822107760885e-07
-2.56618053090817e-06
1.25229312879266e-05
-4.0404879524754e-07
-5.07851820782942e-06
4.43539263374155e-06
-1.04701882879983e-06
-1.82720657144619e-07
5.09003546157251e-06
-1.01586773899755e-06
-4.02736136790854e-07
5.86573276013745e-06
-9.82803664135527e-07
-6.60386743518266e-07
6.40988159344665e-06
-9.06196577612663e-07
-9.4108228831783e-07
6.57293621001151e-06
-7.99177991143608e-07
-1.22593640328408e-06
6.47730396191445e-06
-6.97418698255985e-07
-1.50709808960696e-06
6.25084162459373e-06
-6.19899041856165e-07
-1.77206957676747e-06
5.90180624816459e-06
-5.67841910819171e-07
-1.9808706528551e-06
5.96282874240825e-06
-5.3071441954966e-07
-2.24733513696274e-06
1.12650984800291e-05
-4.57356997794091e-07
-4.13202111407618e-06
4.00463244830722e-06
-1.21196652281272e-06
-1.51810174852335e-07
4.61337431655988e-06
-1.22569025069916e-06
-3.35670708728732e-07
5.35696908719181e-06
-1.24237032966597e-06
-5.53022641960782e-07
5.90686014748743e-06
-1.19894316274735e-06
-7.91424795500259e-07
6.10408725141212e-06
-1.09495780328616e-06
-1.03123013216566e-06
6.03498363871073e-06
-9.6977911538667e-07
-1.25890298659049e-06
5.86104420958619e-06
-8.53291710629385e-07
-1.4713901827069e-06
5.63898306825067e-06
-7.53465999569849e-07
-1.65593824760493e-06
5.33321436288139e-06
-6.65806154005006e-07
-1.77020662976849e-06
5.43632709971067e-06
-5.78516517453555e-07
-1.8983318420334e-06
1.02497502473518e-05
-4.45684213611614e-07
-3.23084160410606e-06
3.62473216947211e-06
-1.32525574378435e-06
-1.25837930232178e-07
4.18823513858956e-06
-1.3753401901904e-06
-2.79366594982562e-07
4.89222162804318e-06
-1.43511834483723e-06
-4.62618740756103e-07
5.43607387125732e-06
-1.42581662440722e-06
-6.65503787552286e-07
5.66670748751525e-06
-1.33554544136925e-06
-8.7082664935059e-07
5.64050764672229e-06
-1.20418902454681e-06
-1.06346105989233e-06
5.48805773159634e-06
-1.06832196608899e-06
-1.23564954372595e-06
5.30533759414268e-06
-9.41856001453916e-07
-1.38610276991594e-06
5.0994999306695e-06
-8.23241904608768e-07
-1.50121651850091e-06
4.83192386872844e-06
-7.04718512617181e-07
-1.53987004959948e-06
4.98907331519909e-06
-5.74881038359783e-07
-1.56614003646752e-06
9.47624041736838e-06
-3.99184689988844e-07
-2.46202265583269e-06
1.87070618762491e-05
4.51695912505347e-06
-4.42157983320339e-06
7.65505207000051e-06
4.06260446173686e-06
-1.20157298718653e-06
1.75333683023457e-05
3.80539442675064e-06
-6.97293954845586e-06
7.26736824948449e-06
3.30493777205927e-06
-7.16049914334369e-07
8.29984613701607e-06
3.47441169353339e-06
-2.08263443516475e-06
1.78686818504916e-05
2.96043278632445e-06
-8.48164563810301e-06
7.58156601836757e-06
2.42428123586003e-06
-5.85986542237901e-07
7.97937678194905e-06
2.77926227362988e-06
-1.35948794697613e-06
8.60136809352165e-06
2.73457131907413e-06
-2.74077339247665e-06
1.89090710420552e-05
2.09468687591902e-06
-9.2406562372669e-06
7.53742648898795e-06
1.57018218184769e-06
-5.08573018455457e-07
8.06689126753246e-06
1.98443858429149e-06
-1.12775890425254e-06
8.48024567375086e-06
2.16074475160472e-06
-1.90840091000883e-06
8.80848101399808e-06
1.92615958741447e-06
-3.18772455043755e-06
1.86815466438632e-05
1.26150483248395e-06
-9.28812854672963e-06
7.15958599056919e-06
8.16010530577568e-07
-4.39718124014169e-07
7.81123100626208e-06
1.1990730033487e-06
-9.55469002497434e-07
8.49209877886671e-06
1.4565451664896e-06
-1.57175603978294e-06
8.58738151843447e-06
1.45530172831369e-06
-2.29579057167781e-06
8.61549929146937e-06
1.13557823047674e-06
-3.39797780088226e-06
1.75809082644867e-05
6.1640925479274e-07
-8.82778964960919e-06
6.58996100430406e-06
1.88716392560681e-07
-3.70763596584311e-07
7.32239173493256e-06
4.93288859688503e-07
-8.04602701628187e-07
8.10801067353443e-06
7.47870564512232e-07
-1.30892747637354e-06
8.49469902605746e-06
8.60627673027446e-07
-1.88231714789086e-06
8.19514774117522e-06
7.59986883146968e-07
-2.49769882369437e-06
8.08455577728164e-06
4.96452724506142e-07
-3.40132421775466e-06
1.60170344250935e-05
1.63871317528219e-07
-8.04413318437602e-06
5.9621638664342e-06
-3.09591407548909e-07
-3.08436098388194e-07
6.72623539835939e-06
-9.40656437659864e-08
-6.73065128274582e-07
7.54617919136142e-06
1.12042041773179e-07
-1.09172800209186e-06
8.03827472075623e-06
2.59964197467238e-07
-1.55561095932283e-06
8.00892313928294e-06
2.88957963515911e-07
-2.0498126017712e-06
7.51868608997764e-06
2.0017807213967e-07
-2.53881650162262e-06
7.40688209958436e-06
3.59349894278478e-08
-3.24604984806437e-06
1.43665809129447e-05
-1.42758066560111e-07
-7.06543849163241e-06
5.35591127215003e-06
-6.91164224027412e-07
-2.55584535635473e-07
6.10694657148185e-06
-5.57880855539307e-07
-5.61087888123327e-07
6.94010279123191e-06
-4.17097841717476e-07
-9.13414477893448e-07
7.46599254968845e-06
-2.77895779735239e-07
-1.29540359210311e-06
7.54501275211117e-06
-1.8404754702777e-07
-1.69303417836939e-06
7.2854793192877e-06
-1.59382297984577e-07
-2.09256287002802e-06
6.7834755398271e-06
-1.96139591803865e-07
-2.45712456280868e-06
6.72086402377733e-06
-2.7371028302462e-07
-2.97665084401322e-06
1.28409502381563e-05
-3.34507444313987e-07
-5.99087755554152e-06
4.80391016223871e-06
-9.74974033705338e-07
-2.11716673995416e-07
5.51503766597651e-06
-9.10401617635742e-07
-4.67075731698431e-07
6.33924134483295e-06
-8.36683258967982e-07
-7.64849165729919e-07
6.89443977001669e-06
-7.27634312231625e-07
-1.08720114325765e-06
7.0212493797374e-06
-6.09324127429782e-07
-1.41248359427776e-06
6.85793898004677e-06
-5.18756654042204e-07
-1.73318210638912e-06
6.54559003308717e-06
-4.69412341612897e-07
-2.03777527207632e-06
6.09809320400469e-06
-4.57356695115053e-07
-2.28638784834715e-06
6.08894815254796e-06
-4.66802801798519e-07
-2.62954183334783e-06
1.15219916158958e-05
-4.40390124290515e-07
-4.89501138239578e-06
4.31266033456769e-06
-1.17975181213395e-06
-1.75294759303753e-07
4.97406309788675e-06
-1.17094086904102e-06
-3.88335770032241e-07
5.76918977193213e-06
-1.15799837971441e-06
-6.39761473992012e-07
6.34238440949045e-06
-1.08767027501656e-06
-9.14436375238874e-07
6.52254139285083e-06
-9.69090121606196e-07
-1.18962292825048e-06
6.40696628656778e-06
-8.44718939942164e-07
-1.45061764186465e-06
6.17193139054659e-06
-7.42449187927417e-07
-1.69543269147985e-06
5.87851788117479e-06
-6.67773575202528e-07
-1.91166989846559e-06
5.49123887917956e-06
-6.14711910664621e-07
-2.05489526972215e-06
5.53786763147136e-06
-5.68891082574848e-07
-2.23733540872813e-06
1.04252942251038e-05
-4.75762323170748e-07
-3.83179026359446e-06
3.87939541100479e-06
-1.32166545425059e-06
-1.44964184484358e-07
4.49038079102991e-06
-1.3572247180384e-06
-3.22420907376817e-07
5.24483761252322e-06
-1.39648449971924e-06
-5.34172159783794e-07
5.81855379407712e-06
-1.36626776095023e-06
-7.68176977221217e-07
6.04602253298443e-06
-1.26118905873259e-06
-1.00450790332685e-06
5.99028981745345e-06
-1.12462237061137e-06
-1.2261679483523e-06
5.79400932594335e-06
-9.93083170906218e-07
-1.42506145546118e-06
5.5605674434008e-06
-8.79387901617362e-07
-1.60069639214715e-06
5.29727480931942e-06
-7.81248993836644e-07
-1.73826865582099e-06
4.96451752589159e-06
-6.90497500869822e-07
-1.79081678115506e-06
5.07644596281794e-06
-5.93562897905527e-07
-1.83782055366326e-06
9.54903455310523e-06
-4.42615929269977e-07
-2.86100842981611e-06
3.49943521010726e-06
-1.41404220618605e-06
-1.19502550729323e-07
4.06257123869657e-06
-1.48455065836745e-06
-2.67059895432246e-07
4.77163084832597e-06
-1.56717651588401e-06
-4.45052381904662e-07
5.33280929698284e-06