/*--------------------------------*- C++ -*----------------------------------*\
  =========                 |
  \\      /  F ield         | OpenFOAM: The Open Source CFD Toolbox
   \\    /   O peration     | Website:  https://openfoam.org
    \\  /    A nd           | Version:  12
     \\/     M anipulation  |
\*---------------------------------------------------------------------------*/
/*   Windows 32 and 64 bit porting by blueCAPE: http://www.bluecape.com.pt   *\
|  Based on Windows porting (2.0.x v4) by Symscape: http://www.symscape.com   |
\*---------------------------------------------------------------------------*/
FoamFile
{
    format      ascii;
    class       volVectorField;
    location    "300";
    object      U;
}
// * * * * * * * * * * * * * * * * * * * * * * * * * * * * * * * * * * * * * //

dimensions      [0 1 -1 0 0 0 0];

internalField   nonuniform List<vector> 
10052
(
(-2.84622212550645e-05 0.00201218221906586 0.000138621226766414)
(-3.33828538139144e-05 0.00219525218886195 0.000149289392887933)
(-2.95372627851695e-05 0.00203371717543122 0.000186569659350489)
(-7.9604285144773e-05 0.00168671160023422 0.000136986543986897)
(-3.77592362761078e-05 0.00238682951218246 0.00015956851587584)
(-3.46971376032362e-05 0.00217270585909785 0.000186444441961201)
(-9.53904468452886e-05 0.0018276835232333 0.000151167991817381)
(-8.52638505530369e-05 0.00188785723600146 0.000182644813770238)
(-0.000130506075702745 0.00156589479277298 0.000133757770828648)
(-4.61327179440874e-05 0.00257888811713979 0.000163107628363646)
(-4.03061629425714e-05 0.00231343735638454 0.000181031323353534)
(-0.000111472182201621 0.00198384769455053 0.00016604141658734)
(-3.33567288059771e-05 0.00224145920897538 0.000224105747589007)
(-0.000101111286228436 0.00201045660362356 0.000183187884911761)
(-0.000162372542834497 0.00167889549666711 0.000150279179149031)
(-0.000140280674474728 0.00181360163393574 0.0001819641345612)
(-0.000170776019320289 0.00149893430319622 0.000130580142297154)
(-5.78988131096568e-05 0.00277413920093747 0.00015949456902724)
(-4.78093217726629e-05 0.00245095388899454 0.000161725969850937)
(-0.000136701924543073 0.00213687412501523 0.000169998257288913)
(-3.88093420497867e-05 0.00238349418043148 0.000202638870561502)
(-0.00011811889766787 0.00213507296879274 0.000178588679960392)
(-0.000193392171102378 0.00181201424653254 0.000165476272363073)
(-3.14877005311729e-05 0.00226752895162392 0.000271800885718972)
(-0.000100191793315501 0.00217052648892791 0.000220400733957984)
(-0.000168848677070817 0.00191929027622558 0.000183240324382895)
(-0.000223242452622681 0.00159182548137852 0.000146132101119141)
(-0.000190827023329792 0.00174210627544283 0.000181868023223347)
(-7.26210661144301e-05 0.00296127562278094 0.000148405511117403)
(-5.72627098376274e-05 0.00258554579881139 0.000124751069017944)
(-0.000170386192470511 0.00228844941074516 0.000166559695772419)
(-4.53098576543585e-05 0.0025285649728876 0.00016492527796966)
(-0.000139493478786359 0.00225832911800465 0.000159087190297765)
(-0.000235525781163918 0.00193799080267975 0.000169259722047426)
(-3.66248238254975e-05 0.00241407584478887 0.000240112942624687)
(-0.000116777367339339 0.00230470535961115 0.000198410207627343)
(-0.000198212957306677 0.00202973141649574 0.000179773080725895)
(-0.000269587849790819 0.00170857130652796 0.000166381550570235)
(-3.03172667264134e-05 0.00227759236451199 0.000325286969665052)
(-9.58865345331681e-05 0.00222279870036508 0.000267713762676501)
(-0.00017023170963381 0.00211402042748125 0.000220269895628793)
(-0.000233855179823646 0.00183988260486318 0.000183374589489168)
(-0.000265219662469309 0.00150550361391148 0.000144247672592179)
(-9.12089969713863e-05 0.00312288743554435 0.000127881242766851)
(-6.79945969958676e-05 0.00271163589667866 6.76427204785235e-05)
(-0.000212691349603634 0.00242357232234498 0.000155000661208584)
(-5.2948518245014e-05 0.0026771600508827 0.000106345979692187)
(-0.000165537618848475 0.00237780891108858 0.000121551209036206)
(-0.000290620229590645 0.00205869200717501 0.000161145711982076)
(-4.23832497930881e-05 0.00256860748513896 0.000190679259243346)
(-0.000136087114691242 0.00244331077112182 0.000159716986838617)
(-0.000233105602172498 0.00213861551067722 0.000161054984497313)
(-0.000321915995871039 0.00181201014349234 0.000168432460899636)
(-3.51543102430807e-05 0.0024279334796262 0.000287851560071115)
(-0.000111543442733405 0.00236447481199811 0.000235550324660059)
(-0.000198921289846819 0.00223920843378701 0.000198861318054255)
(-0.000274687350749295 0.00193212621612264 0.000182706699267958)
(-0.000326010546053819 0.00159010535558032 0.000164424894575697)
(-2.94299381405405e-05 0.00227695035273749 0.000383757295017286)
(-9.27926801262943e-05 0.00224294827196395 0.000320385055860504)
(-0.000165550165364149 0.00218039379767758 0.000267085951260654)
(-0.000240851851588731 0.00204651500288054 0.000221004151857155)
(-0.000287894101439222 0.00174363073784528 0.000182725240183003)
(-0.000283660656572709 0.00138896060352033 0.000148457199871172)
(-0.000116699100733424 0.00323953021820763 8.86371573599423e-05)
(-8.0152761541723e-05 0.00282261139184994 -1.58999558791552e-05)
(-0.000265049342141276 0.00252018686505383 0.000130648762795119)
(-6.08694676129388e-05 0.00282756469429065 2.11637808637067e-05)
(-0.000195578188780461 0.00248653447187628 6.25126374707737e-05)
(-0.000359739747653781 0.00215646497895803 0.000140306254456758)
(-4.87893033519833e-05 0.0027321381627514 0.000118485156474539)
(-0.000158165069548784 0.00258607973897646 9.99240093646968e-05)
(-0.000274461325378653 0.00224217609611814 0.000123233108407922)
(-0.000395363992878408 0.00191022786202551 0.000161082812695614)
(-4.05924030607397e-05 0.00259012253543341 0.000232419510928783)
(-0.000129306201023679 0.00251508031530999 0.000185545499620719)
(-0.000231554471304814 0.00236873542058908 0.00016080075598255)
(-0.000321368793615983 0.00202524750367174 0.00016568896437866)
(-0.000393585292144173 0.00167450545504714 0.000177005136383992)
(-3.40315306098158e-05 0.00242964937919642 0.000344665638596813)
(-0.000107625262809523 0.00238959118835037 0.000282641160676223)
(-0.000192687122495995 0.00231555088109212 0.000235510066361847)
(-0.000281859190145159 0.00216118015244607 0.000201556451145917)
(-0.000340975868602111 0.00182429188922365 0.000184316344585924)
(-0.000355278142327475 0.00145726297140218 0.000167301711248301)
(-2.8673616680667e-05 0.00226663549660874 0.000445131084917101)
(-9.04019473399291e-05 0.00224770840893081 0.000377517424683571)
(-0.000161386071377353 0.00220738566110031 0.000318876897932206)
(-0.000238157662007777 0.00212414015622481 0.000267595602355149)
(-0.000306269179216617 0.00196382464138382 0.000222349429508271)
(-0.000329232253752251 0.00163508311254747 0.0001865593428979)
(-0.000288527868068755 0.00124907601326258 0.000150104390821632)
(-0.000152608062184363 0.00329262635521792 2.47114413768115e-05)
(-9.39651382779184e-05 0.00291120636411753 -0.000136770155317462)
(-0.00033079949518657 0.00255481617370952 7.47322933607178e-05)
(-7.0119924170178e-05 0.00297858625778129 -9.84168652929415e-05)
(-0.000229389475986949 0.00257665744147806 -2.44479264687082e-05)
(-0.00044167088542119 0.00220755067451994 0.000109408370435456)
(-5.63451096287189e-05 0.00290593436343329 1.75177846808785e-05)
(-0.000182764759675803 0.00273082605802277 1.31593992804774e-05)
(-0.000322228173448494 0.00233306511685408 6.45892217400521e-05)
(-0.000485651071375885 0.00198418760825862 0.000139157971542309)
(-4.67834036565496e-05 0.00276606509730337 0.000153763361320492)
(-0.000149289607480992 0.0026752174440855 0.000112950885912711)
(-0.000268730176922903 0.00250195745863821 0.000101705399851469)
(-0.000376891374286474 0.00211203698413746 0.000130519625181633)
(-0.000484586285270496 0.0017474790060709 0.00016848238264174)
(-3.93166073058298e-05 0.00259728789799351 0.000287735114535006)
(-0.00012441440362859 0.0025485588661591 0.000227153152190217)
(-0.000223379634396375 0.00245944182941071 0.00018642270532758)
(-0.000327599409356325 0.00227874938724072 0.000165779023299921)
(-0.000399598568227742 0.00189949175704018 0.000174169917644672)
(-0.000442271425390425 0.00152049479222906 0.000179819375796671)
(-3.31067112117443e-05 0.00242038094288754 0.00040742070683556)
(-0.000104592490819183 0.00239711789626564 0.000338277182031934)
(-0.000187215657430921 0.00234855202454481 0.000281777610094587)
(-0.000277308743590897 0.00225058384380727 0.000237811582381896)
(-0.000359011055001938 0.00206694362018177 0.000205802702225918)
(-0.000391808571195602 0.00170255116008656 0.000189013457899621)
(-0.000363296949916456 0.0013015056972679 0.000166984206031051)
(-2.79324758480356e-05 0.0022469247374126 0.000507691437892756)
(-8.82500165574701e-05 0.00224092761208356 0.000437458155936056)
(-0.000157820921147643 0.00221626385048912 0.000374598745654282)
(-0.0002340660329535 0.0021581836912551 0.000318535492449422)
(-0.000307937419855315 0.00205200717173851 0.000269181550883019)
(-0.000362352556247446 0.00186874272667815 0.000225844131480815)
(-0.000358640789082794 0.00151598486091164 0.000190530534810462)
(-0.000274308562768011 0.00109586433083608 0.000149553439076971)
(-0.000200585401727585 0.00324845688258583 -7.0022389357325e-05)
(-0.000108865071094795 0.00297077815294551 -0.00030603093952342)
(-0.00040957950653644 0.00250759604458399 -1.70834855250525e-05)
(-8.02734973481562e-05 0.00312877875029435 -0.000262241275706238)
(-0.000265483760250039 0.00264021806378471 -0.000151552786628531)
(-0.000534120231738641 0.00218710535070411 5.35289738556455e-05)
(-6.45515628487377e-05 0.00309090660924889 -0.000119531886243178)
(-0.000209884973527004 0.00287580478268432 -0.000108237914283355)
(-0.000374446603343267 0.00240267359082441 -2.27970417157492e-05)
(-0.000587207693822093 0.00200943734294343 0.000104574167479524)
(-5.37625746610713e-05 0.00295822825018772 4.62329464523213e-05)
(-0.000171593290050564 0.00284561187251509 1.17296316575748e-05)
(-0.00031015619564476 0.00263620524408541 1.60455579035407e-05)
(-0.000439133178094972 0.00218491559361122 7.26274498719264e-05)
(-0.000591800261013391 0.00179870992079373 0.000147252041487793)
(-4.52357228651195e-05 0.00278244510419632 0.000208276346657075)
(-0.00014338051426928 0.00272153021815695 0.000148641617548774)
(-0.000257819797818505 0.00261241637798282 0.000115219155068675)
(-0.000379344614996081 0.00239872469756272 0.000109523309055131)
(-0.000467320140894094 0.00196743501815782 0.000142135522097943)
(-0.000547217421203082 0.00156574037762393 0.000172803286522121)
(-3.81649225773952e-05 0.00259123544609139 0.000352586436264231)
(-0.000120796900848003 0.00256183931089667 0.000281521875073524)
(-0.000216480445752352 0.00250174869181606 0.000227392967185319)
(-0.000321134968317708 0.00238442693282123 0.000191436925963551)
(-0.00041730865473828 0.00217046896099984 0.000174528839646567)
(-0.000462040453483298 0.00176132247884051 0.000182911280610073)
(-0.000460456904411395 0.00134283985384449 0.000179823983016196)
(-3.21995462193829e-05 0.00240020000335519 0.000473562149357035)
(-0.000101899935272684 0.00239171047461669 0.000399652850247306)
(-0.000182598402471225 0.00236075237521786 0.000335978737365692)
(-0.000271452892697209 0.00229144219886946 0.000283249646031141)
(-0.000358612697372233 0.00216787304960123 0.000242189663049686)
(-0.000424893183227301 0.00195938725437304 0.000212001810001603)
(-0.000426392599210417 0.0015700693550331 0.000194845794755742)
(-0.000348886320142576 0.00113019947041091 0.000167056460053531)
(-2.71419718279145e-05 0.00221782716823489 0.000570253178490477)
(-8.60702017959356e-05 0.00222392452897341 0.000498812112194088)
(-0.000154310221765834 0.0022125264349469 0.000432960544915991)
(-0.000229796315012505 0.00217190743420167 0.000372841361344944)
(-0.000305261034155367 0.00209364804290668 0.000319252270854414)
(-0.000369968102977687 0.00196741767329053 0.000272085726390016)
(-0.000407138488658373 0.00176429247328761 0.000229943220024431)
(-0.000374023128671571 0.00138996317332429 0.000193531910893366)
(-0.000238653047555183 0.000933364487635162 0.0001467354420459)
(-0.000266364421770615 0.0030744244787734 -0.000204208512750105)
(-0.00012416179606129 0.00299297187909091 -0.000533981290484413)
(-0.00050281212391209 0.00232218271167756 -0.000140967985904642)
(-9.09833799274775e-05 0.00327715015167991 -0.000481345949909101)
(-0.000302371227689231 0.00267000507523962 -0.000330329861284888)
(-0.000631259919897283 0.00207152048344396 -3.45539469920361e-05)
(-7.36766076454432e-05 0.00328855685052587 -0.000301288191700497)
(-0.000238879785085037 0.00301975182138694 -0.000273769483741595)
(-0.000427939091711521 0.00244304207725113 -0.000150810741611089)
(-0.000696311195495955 0.001961505099648 4.72051872028185e-05)
(-6.16711982053506e-05 0.00316923975310413 -9.70375991988007e-05)
(-0.000196210045353375 0.00302709966475281 -0.000125154089592246)
(-0.000355251466155516 0.00276942899364355 -0.000103514993670603)
(-0.000504675364707678 0.00223560619898043 -1.3607157893032e-05)
(-0.000707006233589928 0.00180087478406791 0.000113230023220625)
(-5.19789133569453e-05 0.00298825823583617 0.000101012041028032)
(-0.000164655581159841 0.00291064000239255 4.16528370342272e-05)
(-0.00029612833103112 0.00277475611565322 1.6185104663802e-05)
(-0.000436415357744508 0.00251838866746774 2.74840937137609e-05)
(-0.000540764556665823 0.00202194353277133 8.74092640582338e-05)
(-0.000664688201961882 0.00159005798745143 0.000155130120518497)
(-4.39372205142565e-05 0.00278231875370475 0.000276654802199062)
(-0.000139068633201817 0.00274422147026963 0.000202573619643705)
(-0.000249280265684591 0.00266838394862649 0.000150644977018025)
(-0.00037009485478211 0.00252611530568917 0.000123767634095611)
(-0.000482173491284895 0.00227440307022719 0.000122884014896663)
(-0.00053941756315429 0.00181033452620801 0.000155298257748918)
(-0.000572866929545235 0.00136095556052665 0.000177048389974742)
(-3.70945920255828e-05 0.00257212348975262 0.00042361869576224)
(-0.000117523524185405 0.00255981185725604 0.00034503262407109)
(-0.000210597462113047 0.00252017815814913 0.000280375999179093)
(-0.000313529286534105 0.00243561022179303 0.000231438430754218)
(-0.000414870474695361 0.00228902147793104 0.000200065435610247)
(-0.000494100490497002 0.00204784486957969 0.000185391599994924)
(-0.000504152861008559 0.00161279959702775 0.000192388940555322)
(-0.000448715858835032 0.00114849691249624 0.000181306671442113)
(-3.1246693899184e-05 0.00236913309690709 0.000541306224227749)
(-9.92200255630759e-05 0.00237445755379917 0.000464555263439099)
(-0.000178106725741535 0.00235875653853352 0.00039568012072441)
(-0.000265671513601271 0.00230916435428293 0.000335900097716394)
(-0.000353762040567472 0.00221679884036195 0.000286777506789344)
(-0.000430490614619294 0.00207103416518407 0.00024842939482459)
(-0.00047665856006119 0.00184134446124489 0.000219265780397517)
(-0.000444073675243892 0.00142999860708354 0.00020018120507187)
(-0.000309242192266723 0.000948647486918821 0.000164507008305802)
(-2.62638559443349e-05 0.00217933610094491 0.000631893561440728)
(-8.3691146612142e-05 0.0021970477465717 0.00056048463713272)
(-0.000150588162508875 0.00219806739515967 0.000492874970805844)
(-0.000225154518696705 0.00217198043573774 0.000429560850894173)
(-0.00030104997441549 0.00211305941092066 0.000372149848180358)
(-0.00036979511556788 0.0020166731971198 0.000321070490483137)
(-0.00042151706230853 0.00187313084537546 0.000275551767224568)
(-0.000439138155016669 0.00165226398432715 0.00023355812782708)
(-0.000374561278855487 0.00125844820440302 0.000194554078691869)
(-0.00018227966672386 0.000762446283437755 0.000140930902350427)
(-0.000342277663226972 0.0027208660079546 -0.000382976497940912)
(-0.00014031314460274 0.00296952614526187 -0.000831931403966507)
(-0.000613017855516487 0.00194534237277076 -0.000310223043387722)
(-0.000102057269888555 0.00342257144287661 -0.000768240164879338)
(-0.000338673095972467 0.00265639268972308 -0.000570798159686935)
(-0.000727294548744731 0.00181247850474293 -0.00016115428055857)
(-8.3505298451627e-05 0.00350081576963597 -0.000537959565652532)
(-0.000268856195043667 0.00316098987662253 -0.000493779932126029)
(-0.000480937010448759 0.00244683127256834 -0.000326701857632999)
(-0.000805074709547538 0.00181557883803219 -3.9133259752699e-05)
(-7.05415462175347e-05 0.00340238341634432 -0.00028422925663071)
(-0.000223145223195211 0.0032211025382429 -0.000305972432465932)
(-0.000402954851599059 0.0029002990556497 -0.00026532225491287)
(-0.000571173571343568 0.00225666246474736 -0.000136676945986756)
(-0.000824215637305057 0.00172833846748008 5.60309754679084e-05)
(-5.96585799365334e-05 0.00321877552108977 -4.04224812468473e-05)
(-0.000188548172450129 0.0031183130669459 -0.00010050952030504)
(-0.000338257420948419 0.00294707662167252 -0.000117218424723016)
(-0.000497713459194436 0.00263554546729116 -8.6410911638882e-05)
(-0.000616130935826172 0.00205416186152891 5.79694968400756e-06)
(-0.000785859176986028 0.00156665489148367 0.000122696012773355)
(-5.05425085746473e-05 0.00299761313402208 0.000174810329840603)
(-0.000159797797291123 0.00294696889247076 9.62714845058242e-05)
(-0.000286035312435466 0.00285015945361855 4.63889944198237e-05)
(-0.000424209403693362 0.00267550830806796 2.97563468231544e-05)
(-0.000552555425818352 0.00237669491202635 4.69925348221263e-05)
(-0.000621060054750684 0.0018463539996562 0.000105849166814795)
(-0.000693016823229207 0.00135888596249706 0.000160626193435014)
(-4.27099400807135e-05 0.00276623723945571 0.000354389669463235)
(-0.000135360728415634 0.0027481366889634 0.000269764845305834)
(-0.00024239550774597 0.00269654681101762 0.000203320849983995)
(-0.000360515325971842 0.00259184697745172 0.000158577513238399)
(-0.000477185301999781 0.00241603874630607 0.0001378818172569)
(-0.000569679842994792 0.0021345406830955 0.000139717402072571)
(-0.000588063715803285 0.00164378374900122 0.000169613643602479)
(-0.000560693996786877 0.00114087843452425 0.000179463982006219)
(-3.59783326114745e-05 0.00254005294905457 0.000498152427005759)
(-0.000114352768740002 0.00254376290843701 0.000414840237860785)
(-0.000205242952688995 0.0025218338381566 0.000342127451598457)
(-0.000306052008690297 0.00246006065027812 0.000282799488884037)
(-0.000407914772011693 0.00234904188165348 0.00023907123953567)
(-0.000497497815572071 0.0021778424073325 0.000211303191615471)
(-0.000553874588400188 0.00191425771466862 0.000197565893833345)
(-0.000525551969566958 0.00145691739877845 0.000201439791634193)
(-0.000405918267921529 0.000944718388845613 0.00018001938210141)
(-3.02019081064052e-05 0.00232715688279165 0.000609213541025044)
(-9.6343938480771e-05 0.00234577975627192 0.000531346621280735)
(-0.000173497794265175 0.00234435166764176 0.000459002845024378)
(-0.000259637226604121 0.0023113404999439 0.000393732093173929)
(-0.000347615773060942 0.00224071665388184 0.00033787098929241)
(-0.000427993474791689 0.00212802004270375 0.000292084288996547)
(-0.000489683777523795 0.0019634362359756 0.000255676402929229)
(-0.000513133634533876 0.00171519261332576 0.000226402545162778)
(-0.000444548234731336 0.00128446522563411 0.00020369520876601)
(-0.000244967451388997 0.000758788745602659 0.000159376153896903)
(-2.52790434272574e-05 0.0021314843946641 0.00069176187261748)
(-8.10162519117454e-05 0.00216043278921957 0.000621477300630632)
(-0.000146455360961469 0.00217347619544035 0.000553343814928362)
(-0.000219964532813955 0.00216077726430649 0.000487872595256873)
(-0.000295746041134043 0.00211780178058812 0.000427186968926229)
(-0.000366470057190463 0.00204221794122817 0.000372464355903326)
(-0.000424676690541227 0.00193004971711281 0.00032329854446447)
(-0.000461238305586558 0.00177115129215102 0.000278470288183584)
(-0.000457814449445251 0.00153428652524759 0.000235413207270185)
(-0.000360535409814889 0.0011218816030256 0.000192363034551772)
(-0.000107152264840241 0.000582123050328816 0.000131385488193739)
(-0.000408286808071064 0.00212192407746447 -0.000606232132776347)
(-0.000158308710239344 0.00289265076401687 -0.00121420079709468)
(-0.000707897417770683 0.00130231932540045 -0.000527286854641024)
(-0.000113369196769428 0.00356265740852125 -0.00113638873514009)
(-0.000373369873940108 0.00258555588546667 -0.000882252471524331)
(-0.000816292292729084 0.00135979760113844 -0.000336008241849356)
(-9.39860468236194e-05 0.00372945552758531 -0.000841459258891509)
(-0.000299485626403841 0.00329714353984174 -0.000779577716489644)
(-0.000531368002181713 0.00240434332911777 -0.000561240895284632)
(-0.000902967080710304 0.00153397160766939 -0.000164206321769359)
(-8.03745459557261e-05 0.00366167914950446 -0.000525372590445781)
(-0.000251976645644825 0.00342913712523824 -0.000540342797084339)
(-0.000452288399704366 0.00302666392265573 -0.000478317200828286)
(-0.000635008601752329 0.00224151070559478 -0.000303653709968943)
(-0.000934848291196765 0.00155968921292544 -2.84739238469568e-05)
(-6.84284359033964e-05 0.00347886175148073 -0.000223849486794495)
(-0.000215147539575618 0.00334771164669419 -0.000285785013353697)
(-0.00038402462315846 0.00313046348942961 -0.000292428172989126)
(-0.0005620741397854 0.00274862168901448 -0.000239187044107861)
(-0.000690265599746925 0.00205763648537761 -0.000109477723744812)
(-0.000900767176332345 0.00146848413697909 6.86412787410699e-05)
(-5.81227847798952e-05 0.00324207370495919 4.13010850843219e-05)
(-0.000183324415049458 0.00317399352573577 -4.36588090209983e-05)
(-0.000327027925956517 0.00304914937648578 -9.15996110687846e-05)
(-0.000483328271754149 0.00283285241943518 -9.6261303352656e-05)
(-0.000627055543813922 0.00247490265362543 -5.80205588556062e-05)
(-0.000702546589494348 0.00186098743263078 3.12850275814679e-05)
(-0.000811696114859843 0.001311537638631 0.000130206560346874)
(-4.91941300869167e-05 0.00298710110237605 0.000261767026042562)
(-0.000155742943927849 0.00296035814795346 0.00016905208886953)
(-0.000278316497685954 0.00289212345873608 9.98906291330817e-05)
(-0.000412903170011953 0.00276121439806445 5.98374209151684e-05)
(-0.000545434739738261 0.00254865988955663 5.14055314106513e-05)
(-0.000650482344188928 0.00221811077220725 7.18579159719868e-05)
(-0.000674584301876096 0.00166219857566133 0.000126233710283365)
(-0.000676040105697051 0.00111396866669814 0.00016448030534018)
(-4.14351833141838e-05 0.0027344367390019 0.000437920830961259)
(-0.000131723382865028 0.00273516079677631 0.000346256841682437)
(-0.000236178683166473 0.00270434268589199 0.000268628042922344)
(-0.000351702000080567 0.00262629011540624 0.000209506565982494)
(-0.000468167259693838 0.00249128106592135 0.000171893823584408)
(-0.00057098979791344 0.00228825881435014 0.000155912499650503)
(-0.000637338229934745 0.0019833423373875 0.000158598917367991)
(-0.000612631520632714 0.00147076124411201 0.000183579867986285)
(-0.000511134001447449 0.000912712493696141 0.00017938933081194)
(-3.47588681850603e-05 0.00249505209955112 0.000574154878885125)
(-0.000110972644116917 0.00251418589887074 0.0004883587000704)
(-0.000199762095409767 0.00250890150157661 0.000410164613634133)
(-0.000298767477411545 0.00246630338630327 0.000342500149220071)
(-0.000399887525577246 0.00238020558986991 0.000288631975845944)
(-0.000492678140290635 0.00224639850722744 0.000249424873958625)
(-0.000565025283103933 0.00205494780460674 0.000224063124429869)
(-0.000595524740702732 0.00177230705964791 0.000209861454046613)
(-0.000526634542150128 0.00129585510444572 0.000208789587500134)
(-0.000333453917923422 0.000733523953975701 0.000176272214864742)
(-2.90398644402818e-05 0.00227428855165504 0.000676019726072686)
(-9.3154905069065e-05 0.0023058092410917 0.000598516785559403)
(-0.000168491434974455 0.00231823764257371 0.000524408435712783)
(-0.000253158460560657 0.0023005703505323 0.000455188887234573)
(-0.000340558174835919 0.00224799192950247 0.000393742808320324)
(-0.000422487648740862 0.00215850000216233 0.000341582328563558)
(-0.000490682497801345 0.00202845188858989 0.000298311575078179)
(-0.000534875082798505 0.00184752024401219 0.000262733879184873)
(-0.000534082808107781 0.00158293659690997 0.000232053340123381)
(-0.000428293479367334 0.00113441043543068 0.000204235777354847)
(-0.00015782262168716 0.000560432340522211 0.000151021141186474)
(-2.41817761835316e-05 0.00207442117523103 0.000748971445055743)
(-7.79985671201012e-05 0.00211420727387547 0.000680839761234134)
(-0.000141789217609465 0.00213896532623014 0.000613361474928906)
(-0.000214065237476991 0.00213914057624277 0.000546872662745987)
(-0.000289393235953907 0.00211066575660849 0.000483760495563486)
(-0.000361124788174249 0.00205219128541163 0.000425758398750479)
(-0.000422998367617058 0.00196200783900972 0.000373108306432803)
(-0.000468565936273872 0.00183588929582723 0.000324905391746866)
(-0.000488651749475511 0.00166308061086909 0.000279586260515708)
(-0.000463257520237879 0.00141126430843088 0.00023412520949871)
(-0.000332988781606293 0.000980208249837608 0.000185218903948354)
(-1.50939122288391e-05 0.000389896647955114 0.000116734126271439)
(-0.000420065584941048 0.00130560329265249 -0.000919613901264136)
(-0.000173492912162604 0.00275115248430876 -0.00168119096581942)
(-0.00073317307685796 0.00037250054005804 -0.000816288851434252)
(-0.000124871068077523 0.00369139028482112 -0.00159761204972789)
(-0.000401808917815894 0.00243754296677434 -0.00126569200259471)
(-0.00087828906237615 0.000676867008837019 -0.000567048859013507)
(-0.000105148600600851 0.00397469176114759 -0.00122559394518198)
(-0.000330811439315475 0.00342327186549546 -0.00114241291310809)
(-0.000576637009680747 0.00230433884014904 -0.000861377866169272)
(-0.000981389658437708 0.00108084962459348 -0.000349500207832283)
(-9.12676090724007e-05 0.00395102001170243 -0.000833005705224625)
(-0.000282761743902814 0.00365181263107177 -0.000839431280464717)
(-0.000503054667147503 0.0031451774690391 -0.000752141447968728)
(-0.000693503657633259 0.00218081612887864 -0.000524542470356067)
(-0.00102255865917656 0.00126224955098295 -0.000154172085467521)
(-7.84055423562691e-05 0.00377440426295707 -0.000459085375762099)
(-0.000244507949178397 0.00360236173388157 -0.0005238399525977)
(-0.000433334806999885 0.00332568655750711 -0.00051788734991363)
(-0.000628417941057993 0.00285522769765782 -0.000437957990257736)
(-0.000758819212629229 0.00202693799093118 -0.000263435584404279)
(-0.00099910935411605 0.0012781743785046 -1.17625135346428e-05)
(-6.684455716115e-05 0.00352194546161517 -0.000130990025612391)
(-0.000210052120231483 0.00342995666405509 -0.00022483728464553)
(-0.000372537962671587 0.00326803667027943 -0.000270533577481446)
(-0.000547276447280009 0.00299868473645924 -0.000260487115234547)
(-0.000704377566803184 0.00256725587161259 -0.000197690376435375)
(-0.000779728132532612 0.00184808434037221 -7.3373479491452e-05)
(-0.000915134891953032 0.00119199545730134 8.10166996855678e-05)
(-5.66898964335665e-05 0.00324044513410792 0.00014083919135851)
(-0.000179129584670103 0.00320126702205434 3.72417831570472e-05)
(-0.000318904584279917 0.00311040510071257 -3.57351687143201e-05)
(-0.00047099545275943 0.00294535777546964 -7.02084065020005e-05)
(-0.000619295792291602 0.00268668641733744 -6.40016348021102e-05)
(-0.000734803437910046 0.00229614326906768 -2.2013946311836e-05)
(-0.000758968626714134 0.00166076881707996 6.01699686535423e-05)
(-0.000785167499331721 0.00104603313973197 0.000137242935405719)
(-4.77647842316451e-05 0.00295720919857249 0.000357238891968351)
(-0.000151771241637793 0.00295294723829276 0.000254756479123039)
(-0.000271438127528935 0.00290948516428522 0.000170619646946148)
(-0.000403009705232256 0.00280972673407145 0.000111446818216875)
(-0.000534814586516697 0.00264411412747985 8.10485877703808e-05)
(-0.000650702847146789 0.00240193290032207 7.86648357903836e-05)
(-0.00072552955218651 0.00204792708178538 9.97532790121838e-05)
(-0.000700844601098404 0.00147275104771883 0.000146863535777943)
(-0.000615918896777472 0.000862699227892287 0.00016648231737383)
(-4.00391738727164e-05 0.00268704058423876 0.000524454763053729)
(-0.000127859479531718 0.0027058962765228 0.000428700490344974)
(-0.000229860916127473 0.0026946683040372 0.000343072022571991)
(-0.00034315298254175 0.00263905389554919 0.000272328298423715)
(-0.000458446756445998 0.00253279548443978 0.000220765242499843)
(-0.00056414501467143 0.00237234495533005 0.000189179432218039)
(-0.000647066862487371 0.0021477862781634 0.000176202180932936)
(-0.000684089005559833 0.00182388100605496 0.000177937451399979)
(-0.000614005925749587 0.00129354835549921 0.000195995405537072)
(-0.000427339901845994 0.000679092828525473 0.000177391359630912)
(-3.34045691485267e-05 0.00243715383656409 0.000649851515635518)
(-0.000107241462641185 0.00247126204961702 0.000563521540185955)
(-0.00019387104888177 0.00248213407943872 0.000482049517236019)
(-0.000291024134035095 0.00245737059171796 0.000408247766752595)
(-0.000391149846474287 0.00239198079510906 0.000346001267210121)
(-0.000485086883788505 0.00228452625817318 0.000297179711777221)
(-0.000563785359225049 0.00213178890023372 0.000261293015302031)
(-0.000616102420209069 0.00192319000038625 0.000236958042518869)
(-0.000619076538059399 0.00162413647892387 0.000220896166811261)
(-0.00050849881006433 0.00113083827995356 0.000213449080687049)
(-0.000232671962568147 0.000515045701852826 0.000170092534306785)
(-2.77507222771035e-05 0.00221067715172866 0.000740473234049091)
(-8.95887864671737e-05 0.00225467415825314 0.000664704408817499)
(-0.000162923674921229 0.00228063297578236 0.000590407476981912)
(-0.000245991668126862 0.00227776765819665 0.000518814825960471)
(-0.000332552722594705 0.00224170382542769 0.0004531017199924)
(-0.000415123826065321 0.00217143469410761 0.000395437087041001)
(-0.000486784199002912 0.00206572880925084 0.000346143486206449)
(-0.000540418291496473 0.00192064464815854 0.000304248315408211)
(-0.000565688516258577 0.00172521138609996 0.00026819441284905)
(-0.000539681239524307 0.00144575978351669 0.000234667903181736)