/*--------------------------------*- C++ -*----------------------------------*\
  =========                 |
  \\      /  F ield         | OpenFOAM: The Open Source CFD Toolbox
   \\    /   O peration     | Website:  https://openfoam.org
    \\  /    A nd           | Version:  12
     \\/     M anipulation  |
\*---------------------------------------------------------------------------*/
/*   Windows 32 and 64 bit porting by blueCAPE: http://www.bluecape.com.pt   *\
|  Based on Windows porting (2.0.x v4) by Symscape: http://www.symscape.com   |
\*---------------------------------------------------------------------------*/
FoamFile
{
    format      ascii;
    class       volScalarField;
    location    "100";
    object      nut;
}
// * * * * * * * * * * * * * * * * * * * * * * * * * * * * * * * * * * * * * //

dimensions      [0 2 -1 0 0 0 0];

internalField   nonuniform List<scalar> 
10140
(
0.000108081086362613
0.000108101186615729
0.00011024033768122
0.000895609194015572
0.000108132075804305
0.000110270337330429
0.000895765453332641
0.000112781134330063
0.000909227767111667
0.0021061189881232
0.000108173728297676
0.000110304832351055
0.000895971242765448
0.000112815375520395
0.000909422938897504
0.0021065881826059
0.00011428015789525
0.000926242452999125
0.00212366082554664
0.00341070899521519
0.000108225146923547
0.000110349571203804
0.00089624759497308
0.000112859249507565
0.000909653863984241
0.00210710861024251
0.000114314851790195
0.000926465378162189
0.00212416833929879
0.00341152069181135
0.000113982628654463
0.000936770651519743
0.002143911318609
0.00342384919370794
0.00465465705606443
0.000108287120981923
0.000110404410051351
0.00089659613301087
0.000112906898691719
0.000909947380489684
0.00210776393848279
0.000114363236736323
0.000926746858339105
0.00212471603833177
0.00341236567832718
0.000114015531676795
0.000937002595744436
0.00214445752427406
0.00342469531870674
0.00465575549638174
0.000112399498511547
0.000935398784815539
0.00215446408234966
0.00343450561065926
0.00465935165172693
0.00577346527063156
0.000108359286185135
0.000110469106437063
0.000897018749407246
0.000112964108133863
0.000910311396479243
0.00210856901900041
0.000114420066492219
0.000927068610666575
0.00212539169564334
0.00341339093001061
0.000114064310156061
0.000937313455277391
0.00214504499541371
0.00342556015651245
0.004656854701377
0.000112429101182218
0.000935623324077608
0.00215502585297753
0.00343538816023281
0.00466047984374627
0.00577477179418346
0.00011031142528783
0.000924145230177198
0.00214730432136477
0.00343274836906111
0.00465512962367502
0.00576952188966328
0.00674986090913427
0.000108441802992284
0.000110544288103508
0.000897516338458649
0.000113031069917738
0.00091074945149786
0.00210953132443185
0.00011447949747838
0.000927451510128703
0.00212621470849849
0.0034146253636174
0.000114122662546919
0.00093768103703922
0.00214575123062611
0.00342659789263451
0.00465815249459977
0.000112475159144784
0.000935936964688773
0.00215563894798962
0.00343627920586027
0.00466159227219821
0.00577603219893243
0.000110336731055769
0.000924350176817204
0.0021478566601972
0.00343363923086671
0.00465628948334615
0.00577085347551838
0.00675129850764845
0.00010802777013023
0.000907557628273538
0.00212339565384175
0.00341156382550835
0.00463501432235748
0.00575057214027146
0.00673994966209638
0.0075888918041071
0.000108535174030274
0.000110630427835097
0.000898087971165382
0.000113108348925663
0.000911263847778245
0.00211065430679354
0.000114547626644838
0.000927906210406405
0.00212719491051015
0.00341608147605373
0.000114188882837851
0.000938086093845799
0.00214659778479608
0.00342784212699527
0.00465968945877099
0.000112531211828411
0.00093631814188374
0.00215637384197923
0.00343733429671088
0.00466289407606457
0.00577748339601798
0.000110377815052124
0.000924647871118123
0.00214846743965083
0.00343454000791782
0.00465741726759712
0.00577212271073048
0.00675263286243079
0.000108048868140558
0.000907736268503428
0.0021239247609493
0.00341243232579282
0.00463617175617131
0.00575193182818245
0.00674140889648319
0.00759039979078746
0.000105482018541946
0.000888069464170282
0.00208756608128508
0.00337053571891133
0.00459423269272171
0.00571195954617237
0.00670998483246492
0.00757588341883611
0.0083042353073052
0.000108638693991357
0.000110727460360907
0.000898729622143883
0.000113196413474518
0.000911853748103868
0.00211193505877876
0.000114625672819232
0.000928437222176317
0.0021283369691116
0.00341776463343483
0.000114258749442792
0.000938553440739803
0.00214759860822087
0.00342930732451422
0.00466148184766067
0.000112596309956475
0.00093675504576217
0.00215723981625459
0.00343859044002605
0.00466443137977842
0.00577917570727329
0.000110429643587502
0.000925017312164599
0.00214920644815457
0.00343560177047148
0.00465872275388092
0.00577357250575775
0.00675413224995037
0.000108085267247538
0.000908004877204899
0.00212451078624802
0.00341331423252946
0.00463729403523771
0.00575320943941647
0.00674275034567693
0.00759174069206329
0.000105498516275218
0.000888218036371146
0.00208805431857849
0.00337135822613941
0.0045953519624303
0.00571330818345216
0.00671147040474098
0.00757740925252168
0.00830577042256528
0.000102536368248129
0.000865788150709438
0.00204280178890657
0.00331237242988715
0.00453178332201995
0.00565067251104039
0.00665644057027009
0.00753907618214296
0.00828976696373711
0.00891100262311444
0.000108750704838456
0.000110834867126006
0.00089943412884869
0.000113295378766831
0.000912514864044975
0.00211336325272229
0.000114714089975117
0.000929044414638095
0.00212963812857622
0.00341966974460256
0.000114336064161974
0.000939092770343856
0.00214876067775756
0.00343099967160719
0.00466353539663522
0.000112670489933736
0.000937237562509582
0.00215825235590655
0.00344006434137769
0.00466622245757209
0.00578112869502299
0.000110490584567632
0.000925451918115925
0.00215007991685165
0.0034368586722778
0.0046602573821321
0.00577525879704076
0.00675585302495796
0.000108131013983273
0.000908347626466303
0.00212522541821111
0.00341435749170018
0.00463858715197304
0.00575465340749354
0.00674424497788159
0.00759320605918724
0.000105530020972063
0.000888453597213198
0.00208860676587077
0.00337219424725313
0.00459643710260969
0.0057145691594955
0.00671281648787557
0.00757875612433352
0.00830706942898719
0.00010254720970054
0.000865901668740634
0.00204322516323845
0.00331312825969485
0.00453283566345652
0.00565196973624234
0.00665790960339347
0.00754062706031658
0.00829131542731537
0.00891254167194103
9.90923954639266e-05
0.000839970454252064
0.00198939923897378
0.00323862074014119
0.00444815290218069
0.00556546857229686
0.00657701919103648
0.00747477459865255
0.0082488684378669
0.0088956636539835
0.00942302347177835
0.000108868749553927
0.000110951115250774
0.000900189770666603
0.000113404462625561
0.000913239410605106
0.00211491951016157
0.000114812968613112
0.000929723422123479
0.00213108745405233
0.00342177820146093
0.000114423073124224
0.000939706463371461
0.00215008218692038
0.00343291426461977
0.00466584142800083
0.000112749731589666
0.000937778568242453
0.00215942128543481
0.00344176334908682
0.00466827378517774
0.00578334645443423
0.000110561760652547
0.000925952280316739
0.00215109186589827
0.0034383272943863
0.00466204137901944
0.00577720288277361
0.00675781551064683
0.000108185600327952
0.000908757802102677
0.00212607869240603
0.00341559332645619
0.00464010272500092
0.00575632610381132
0.00674595577746535
0.00759485828174242
0.000105569933204881
0.000888758198408302
0.00208927862987237
0.00337318997401963
0.0045976896214097
0.00571598696613674
0.00671429940597004
0.00758021514847208
0.00830844294220992
0.000102573024274985
0.000866098080928259
0.0020437145734768
0.00331389736413314
0.00453385280526604
0.00565317867061624
0.00665923188252749
0.00754197631547391
0.00829261940846641
0.00891376370931506
9.90973413019149e-05
0.000840044821053086
0.00198973851888291
0.00323928891688135
0.0044491143028143
0.00556668197101902
0.00657842729252705
0.00747630553202537
0.00825044020295332
0.00889721105543698
0.00942457015080839
9.50765931693801e-05
0.000809816690416772
0.0019262144211699
0.00314877301278502
0.00434290966941001
0.00545522352625492
0.00647027730024573
0.0073804932819949
0.00817685836308838
0.00885202520594391
0.00940692747114959
0.0098524353939492
0.000108989824428042
0.000111073077397767
0.00090097103608877
0.000113522415334193
0.000914013693653476
0.00211657040635623
0.000114921806858822
0.000930465134000299
0.002132664327619
0.00342405366468499
0.000114520008947166
0.000940391318729592
0.0021515515686372
0.00343503198809247
0.00466837148526924
0.000112834384701117
0.00093838656619902
0.00216074695433726
0.00344368286473961
0.00467057687654574
0.0057858143507019
0.000110643105683456
0.000926503988375123
0.00215225036721652
0.00344001568536671
0.00466408181206687
0.00577941021793972
0.00676002273239379
0.000108250772168724
0.000909242861998292
0.00212707466363802
0.00341703415678303
0.00464186091223431
0.00575825084435695
0.00674790570357076
0.00759671873155134
0.000105617999788022
0.000889128453887097
0.00209008690826298
0.00337437608389785
0.00459915875760685
0.00571762521728073
0.00671598961155975
0.00758185546102466
0.00830996018200652
0.000102607001570689
0.000866359994584279
0.00204433181798934
0.00331482109062381
0.00453503328030467
0.00565453843953724
0.00666067949972537
0.0075434201116929
0.00829398560087576
0.00891500646418529
9.91166343145313e-05
0.000840197728866872
0.00199013746138209
0.00323996749142194
0.00445003701489481
0.00556780456912359
0.00657968683514348
0.00747762634699197
0.00825174478411931
0.00889843678246256
0.00942567790045554
9.50754708741271e-05
0.000809849365686546
0.00192646166962737
0.00314933447829752
0.0043437580375389
0.00545632645407938
0.00647158899786023
0.00738195692526287
0.00817840782448987
0.00885359499196487
0.009408472330709
0.00985391675489952
9.0429775607571e-05
0.000774569838440667
0.00185149500544039
0.00304089020136664
0.00421411905672116
0.00531778591107482
0.00633418840344998
0.0072545518312329
0.00807052974185389
0.00877415487945131
0.0093611447238794
0.00983557470954345
0.000109108809967331
0.000111198955719647
0.00090175287354283
0.000113646278407857
0.000914815196580003
0.00211826260793585
0.000115038963072394
0.000931254677847009
0.00213433431158412
0.00342643535709737
0.000114626191835987
0.000941137634109895
0.00215314588901031
0.00343731556941627
0.00467107008510755
0.00011292773698777
0.000939061573845538
0.00216221807380523
0.00344580275487014
0.00467310294441999
0.00578849327225249
0.000110730829949291
0.000927103978080715
0.00215355747074864
0.00344191965042902
0.00466636999010336
0.00578186693911984
0.00676245435962256
0.000108326816878928
0.00090980130118661
0.00212821112789098
0.00341868631840567
0.00464386852233101
0.00576043362468752
0.00675009859719886
0.00759878761224801
0.000105674764030443
0.00088957651155959
0.00209103978981928
0.00337576315820158
0.00460086236130393
0.00571950733308773
0.00671791254916504
0.0075837012552811
0.00831164318123353
0.000102648337061818
0.000866683469050487
0.0020450833415885
0.00331593013404766
0.00453642409741613
0.00565611050888224
0.00666232475691329
0.00754503560553567
0.00829548978707736
0.00891634779177568
9.91432690697358e-05
0.000840410984455378
0.00199066480954492
0.00324079775854277
0.00445111666147536
0.00556907176032448
0.00658106396311076
0.00747902888103419
0.00825309338606574
0.00889967146988048
0.00942676186059732
9.5088574794368e-05
0.000809954992775593
0.0019267586876904
0.00314990282878178
0.0043445619126452
0.00545733304134499
0.00647274853848569
0.00738320773627406
0.00817968076721637
0.00885481909531458
0.0094095847657924
0.00985491570133791
9.04225260479176e-05
0.000774559403740624
0.0018516444916554
0.0030413140357366
0.00421483348320182
0.00531875470446968
0.00633537498121764
0.00725591040677919
0.00807200796709226
0.00877570247639305
0.00936270440713314
0.00983703175783027
0.0102108458942636
8.50887533004059e-05
0.000733383845327281
0.0017629792013536
0.00291189853451098
0.00405848262991905
0.00514971971618995
0.00616543077978313
0.00709451923283754
0.00792789388916016
0.00865790131340914
0.00927854101580758
0.00978795623052467
0.000109219392997517
0.000902482385736172
0.000111323112748896
0.000113773862528032
0.000915612786832014
0.00211990775268038
0.000115161693525328
0.000932069390462924
0.00213604230352489
0.00342882929787423
0.000114740257318478
0.000941928188671192
0.00215482820640333
0.00343970328238197
0.00467384585407622
0.000113029458704848
0.000939794779998359
0.00216380971309356
0.00344808343032073
0.00467579595065829
0.00579130865918457
0.000110820602911087
0.000927759376938646
0.00215500372906115
0.00344401821963214
0.00466887590767774
0.00578453312862304
0.00676505764371324
0.000108414150157337
0.000910412946143463
0.00212948383422909
0.00342054525112062
0.00464611617453519
0.00576286024779441
0.00675251430591746
0.0076010370220534
0.00010574189916225
0.000890106363523419
0.00209213904403733
0.00337735346322858
0.0046028055849493
0.00572163868325142
0.00672007233278087
0.0075857536051087
0.00831348789076358
0.000102697250906197
0.000867077997617316
0.0020459702148691
0.00331723513010533
0.00453804074748319
0.00565791641772388
0.0066641934090502
0.00754684970807142
0.00829715691359784
0.008917808601694
9.91769242872503e-05
0.000840680416118642
0.00199132780768214
0.00324180680622144
0.00445239832763374
0.00557054218242441
0.00658262895546232
0.00748059253169752
0.00825456999414938
0.00890099904260128
0.0094279071586273
9.51080999744001e-05
0.000810113868214307
0.00192717303096949
0.00315061426485643
0.00434551461977227
0.00545847571959833
0.00647401779654065
0.00738453134453197
0.00818098413968309
0.00885603405958288
0.00941066090237674
0.00985584282543674
9.04293347199896e-05
0.000774615008481338
0.00185183160004156
0.00304173696120376
0.00421549645386451
0.00531961923752988
0.00633640259148788
0.00725705180830713
0.00807320617711926
0.008776892132828
0.0093638143708614
0.00983804684455112
0.0102120955285807
8.50753014987341e-05
0.000733327970925285
0.00176302569077342
0.00291217224237091
0.00405904195809762
0.00515053264113673
0.0061664673929736
0.00709574258254369
0.00792926179923745
0.00865937711489249
0.00928007449343051
0.00978940651898033
0.010193214401135
0.010505728063357
7.88809903428888e-05
0.000684950333735162
0.00165752368989004
0.00275746443215105
0.00387133280348534
0.00494628530265269
0.00595933773612309
0.00689639840872663
0.00774633699576809
0.00850089067543345
0.00915399206782007
0.00970140146174813
0.000109312853502302
0.000903100243974994
0.00011143681547243
0.00212140029616304
0.000916357469443998
0.000113899708099197
0.00011528735954866
0.000932876493940773
0.00213770512654811
0.00343109303209041
0.000114858998273139
0.000942739371068858
0.0021565419717628
0.0034420996253692
0.00467656109185971
0.000113138074276369
0.000940568771660589
0.00216548122093747
0.00345046034271327
0.00467856385927824
0.00579413611366869
0.000110917237857461
0.000928465881862784
0.0021565637528598
0.00344626910480713
0.00467154154665249
0.00578733315778424
0.00676773647572102
0.000108510266519752
0.000911055511116337
0.00213088356926509
0.00342258959504856
0.00464857226660309
0.00576548929138781
0.00675509999710326
0.00760340064195043
0.000105821430166246
0.000890713648692099
0.00209337136207527
0.00337913925839294
0.00460497767064639
0.00572400385089914
0.00672244812825448
0.00758798479814413
0.00831545850625842
0.00010275506860714
0.000867553788630909
0.00204700536471561
0.00331873803791511
0.00453988575649333
0.005659959727519
0.00666628871873783
0.00754886365965026
0.00829898397945363
0.00891937884495037
9.92180051252064e-05
0.000841014870631986
0.00199213329701434
0.00324300319425605
0.00445389580865514
0.00557223479937862
0.00658440577343169
0.00748234465059312
0.00825620236262417
0.00890244326695416
0.0094291261259984
9.51330579270968e-05
0.000810323203250973
0.00192771273489825
0.00315149594676105
0.00434665884669449
0.00545981046766766
0.00647546398364721
0.00738600525343507
0.0081824044226819
0.00885733206562173
0.00941179226363765
0.00985679587304253
9.04414865139105e-05
0.000774715300182583
0.00185212122890879
0.00304230089218095
0.00421629650999352
0.00532060868675561
0.00633752978296441
0.00725825710720095
0.00807442518435862
0.00877805866182946
0.00936486954483736
0.00983897102709341
0.0102129552518942
8.50759923414911e-05
0.000733329847855655
0.00176309602805948
0.0029124312410067
0.00405954105629924
0.00515123191549278
0.0061673357781615
0.00709674126819214
0.00793034473821927
0.00866048892770163
0.00928114764065444
0.00979042997513791
0.0101944702537848
0.0105069709204518
7.8861968992575e-05
0.000684846394240645
0.0016574617734078
0.00275758004022967
0.00387170788521543
0.00494692215070855
0.00596020227148292
0.00689746099182382
0.00774756371149859
0.00850225480111226
0.00915545338471514
0.00970281815081712
0.010143987812343
0.0104874254903088
0.0107470964616907
7.13572261002665e-05
0.000626589377556868
0.00153019472194971
0.00257141732570952
0.00364626644146984
0.00470125755519991
0.00570993239292108
0.00665465276447293
0.00752149082130147
0.00830038040999523
0.00898468945445728
0.00956988709462883
0.000109375362248929
0.000903521660779181
0.000111532805280677
0.00212258519635637
0.000916984747640762
0.000114012882616479
0.00343303815918727
0.00213920972344754
0.000933626177230645
0.000115410759695162
0.000114979737284263
0.000943537116198744
0.00215820382414729
0.00344436423507997
0.00467901639939014
0.000113251293879746
0.000941357478831128
0.00216717369670178
0.00345283589920205
0.00468126803837466
0.00579679448362236
0.000111019145817173
0.000929208779472064
0.00215819444794653
0.00344860397253108
0.00467427265947769
0.00579014397758816
0.00677033846719088
0.000108602517150481
0.000911732848574829
0.00213238676065299
0.0034247752178589
0.00465117606909071
0.00576824316966336
0.00675775943895654
0.007605760927629
0.000105912507470596
0.000891377055762171
0.00209471664342186
0.00338109779108331
0.00460734536749449
0.00572655940812947
0.00672498578460447
0.00759032839226821
0.00831747309137876
0.000102823406081482
0.000868116283172951
0.00204817994963995
0.00332042718449498
0.00454194599942777
0.00566222310480351
0.00666858830251903
0.00755104889855976
0.00830093469708045
0.00892101197578296
9.9266506756743e-05
0.000841425631948689
0.00199308763829076
0.00324439066516133
0.00445560971770792
0.00557415069300734
0.0065863957086492
0.0074842854994456
0.00825798762180188
0.00890399503514183
0.00943039884165818
9.51648153317819e-05
0.000810592254677777
0.00192839038245936
0.00315255882392244
0.00434800648736739
0.00546135375628479
0.00647710834379503
0.00738765506084288
0.00818396989193234
0.00885873951270248
0.00941299445027611
0.00985777506135957
9.04575571003983e-05
0.000774857813732722
0.00185252249152575
0.00304302868342388
0.0042172751222537
0.00532177642583235
0.00633882074388407
0.00725960068459403
0.00807574979244032
0.00877929733789293
0.00936597006454289
0.00983991143681879
0.0102137503586408
8.50805290005175e-05
0.000733367275273484
0.00176325196793546
0.00291281268206988
0.00406016216689653
0.00515204178569321
0.00616829075371616
0.00709779276183032
0.00793143900762422
0.00866156740338295
0.00928215204572938
0.00979133787007979
0.0101953295772906
0.0105077641558811
7.88569371067837e-05
0.00068479039883745
0.00165740816312769
0.00275766519230072
0.00387201175636732
0.00494743508025768
0.0059608879311959
0.00689828913361454
0.00774849755391925
0.00850324819920649
0.00915644604463431
0.00970380800290689
0.0101452655448646
0.0104886544061812
0.0107482986231304
7.13370116820631e-05
0.00062643305365938
0.00153002037898584
0.00257136930158027
0.00364644619420444
0.00470169898859995
0.00571060553274961
0.00665553247257875
0.00752255060268771
0.00830160165169852
0.00898604130155381
0.00957123643843337
0.0100541042800877
0.0104369041843648
0.010728198181331
0.0109427989402717
6.53356890646769e-05
0.000553020697619981
0.001372668084228
0.00234465480018596
0.00337451173034079
0.00440656346722003
0.00540975767320978
0.00636238281065335
0.00724724917880708
0.00805178194680605
0.00876775562516749
0.00939016139631581
0.000109389199685055
0.000903636949367901
0.0001115924604566
0.00212325757092286
0.000917409358326405
0.000114106177421947
0.00343440316539462
0.00214040030593257
0.000934249404883644
0.0001155213805775
0.00468093681525514
0.00344630455300467
0.00215969671041283
0.000944270794990537
0.000115097458178181
0.000113364979334817
0.000942125635531996
0.00216880205916346
0.00345506864675407
0.00468370887588784
0.00579902714805819
0.000111124768402965
0.000929961621456204
0.00215983321023987
0.00345092200234065
0.00467692806498002
0.00579278352376536
0.00677263891671546
0.000108697959739812
0.00091243664016173
0.00213395047851808
0.00342703017298504
0.00465382990451342
0.00577099734007661
0.00676034012838543
0.00760793772238245
0.000106011763642767
0.000892039166468027
0.00209614935379828
0.00338318411819631
0.00460984539389911
0.00572922511117265
0.0067275874338314
0.00759266752193534
0.00831939556451192
0.000102902855875545
0.000868754144563581
0.00204947080282053
0.00332227558224662
0.00454418622543943
0.0056646608530598
0.00667103587111873
0.00755333773692691
0.00830292833798458
0.0089226131394513
9.93238157881248e-05
0.000841916825938976
0.00199417408338679
0.00324595765398218
0.00445752435840122
0.0055762701264702
0.00658857416005078
0.0074863847795731
0.00825988842957811
0.00890560798914375
0.00943166759775059
9.52036488726805e-05
0.000810928580156019
0.00192922006574549
0.00315380372607084
0.00434955685129084
0.00546310423093148
0.00647894958114274
0.00738947895309947
0.00818567663302811
0.0088602473155309
0.00941424858021025
0.00985874896350902
9.04787425765835e-05
0.000775053026814305
0.00185304826161682
0.00304392743590858
0.00421844323547694
0.00532313650816625
0.00634029386759828
0.00726110537482179
0.00807720660760377
0.00878063498391614
0.0093671343620798
0.00984087432162252
0.0102145090294601
8.50872545073966e-05
0.0007334369374248
0.00176350258831877
0.00291334149204197
0.00406094748632024
0.00515301321231078
0.00616939353401623
0.0070989682859675
0.00793262646975625
0.00866270696196542
0.00928319140706613
0.0097922482816634
0.0101961136812807
0.0105084235793034
7.88536381928554e-05
0.000684758355098247
0.00165742160327397
0.00275785011944446
0.00387242693387907
0.00494804109164373
0.0059616442332638
0.00689915621101545
0.00774943124220564
0.00850419833145557
0.0091573597605104
0.00970466674254078
0.010146114112092
0.0104894450633048
0.0107490182649518
7.13299571249756e-05
0.000626313853830001
0.00152983719628436
0.00257127430991148
0.00364653976604836
0.00470200609168534
0.00571108870437226
0.0066561669168312
0.00752330764930194
0.0083024431200582
0.00898691354239726
0.00957214372796076
0.0100553493135155
0.0104381390293529
0.0107293763158268
0.0109439584363545
6.53094689036208e-05
0.000552819570375968
0.00137237963446226
0.00234444217852649
0.00337449255133299
0.00440678887157176
0.00541022324301222
0.00636306132247585
0.00724812020821833
0.00805283465838012
0.00876896825756746
0.0093914130465865
0.00991673806557865
0.0103443416701393
0.0106766442756264
0.0109233953472329
0.0110998959552407
3.54481906846493e-05
0.000456110308353333
0.0011716903654734
0.00206382859960893
0.00304407863121938
0.00405174203879118
0.00504957692601196
0.00601127078578978
0.00691608857232009
0.00774862513682453
0.00849845241421068
0.00915919796841368
0.000903313627583744
0.00011160018684971
0.00212315392160003
0.00091751835180736
0.000114158474146543
0.00343484397857082
0.0021410699158281
0.000934657138997007
0.000115608690262067
0.00468195141653951
0.00344765820955204
0.00216086092834268
0.00094486911382125
0.000115203016468519
0.00580047556646834
0.00468561034234598
0.0034569623257415
0.00217024672463259
0.000942822338501317
0.000113474336664552
0.000111230607774169
0.00093068630366133
0.0021613929355454
0.0034530792331439
0.0046793059078515
0.00579499320414776
0.00677432109978567
0.000108794985856502
0.00091314499290663
0.00213550958946309
0.00342924961737083
0.00465638919240152
0.00577356735310575
0.00676261737585618
0.00760966459480134
0.000106106857220106
0.000892710138213961
0.00209762930426915
0.00338532432708727
0.00461237652807809
0.00573187343523888
0.00673009873218999
0.00759482087978775
0.00832101576576248
0.000102993577697574
0.000869438207355696
0.00205083209271458
0.00332423580968687
0.0045465411284213
0.00566718994050261
0.00667353094616557
0.00755561180649039
0.00830482813611249
0.00892402551660173
9.93912307270881e-05
0.000842486224210237
0.0019953840863679
0.00324767489587302
0.00445960188483207
0.0055785450256826
0.0065908823080095
0.00748857259892512
0.00826182303955343
0.00890718750569428
0.00943282358631587
9.52504686220715e-05
0.00081133745675638
0.00193019446597147
0.0031552180542014
0.00435129284295674
0.00546503968272052
0.00648096054036986
0.00739144425746481
0.00818748543935766
0.00886180812659967
0.00941549719707745
0.00985964887457219
9.05064774288665e-05
0.000775308579415533
0.00185370985477992
0.00304499429630556
0.00421979782407563
0.00532468532313623
0.00634194515118226
0.00726276670172718
0.00807878960601467
0.00878206133477592
0.00936834353551309
0.0098418301078646
0.0102151978728742
8.50975490458307e-05
0.000733549212723523
0.00176386004074866
0.00291402903664359
0.004061905269865
0.00515415803357365
0.00617065970712007
0.00710028770603501
0.00793393106324341
0.0086639328433259
0.0092842846289397
0.00979317330550415
0.010196856987381
0.0105089830837205
7.8850239600767e-05
0.000684747016636739
0.00165750977308564
0.00275815873786824
0.00387298948407229
0.00494878892219475
0.00596252924138436
0.0069001302946312
0.00775044364334851
0.00850519751053229
0.00915829836042155
0.00970551625595719
0.0101468699677834
0.0104900940247039
0.010749553212458
7.13200278216377e-05
0.000626203827053815
0.00152969941449748
0.00257125394204485
0.00364671980139078
0.00470238622312251
0.00571162371819969
0.00665682369226287
0.00752405050529838
0.00830322963218132
0.00898769681755337
0.00957291073252253
0.010056150650456
0.0104389167387953
0.0107300916385504
0.010944607499392
6.52873116308881e-05
0.000552635478851779
0.00137206431605807
0.00234416613909256
0.0033743716322769
0.00440686771829727
0.00541048843290535
0.0063634838342813
0.00724867812096645
0.00805349720191203
0.00876968759460939
0.00939219601211801
0.00991788901158461
0.0103455378368616
0.0106778202573848
0.0109245242563878
0.0111010213831355
3.54874766079621e-05
0.000455803793174859
0.00117130759594015
0.00206345982624508
0.00304386464460365
0.00405174966484861
0.00504982208764251
0.00601173475755632
0.00691675346330272
0.00774948789653174
0.00849950099723307
0.0091603257125448
0.00972821130459417
0.0102022182998463
0.0105819561117382
0.0108710572667458
0.0110800772294117
0.0112246816314497
1.15846303627467e-05
0.000303885072613409
0.000910171144438177
0.00171202055577563
0.00263947088242314
0.00362356544020339
0.00461812205585199
0.00559142492551797
0.00651915769953895
0.00738299348309431
0.00817007728323757
0.00887214469847275
0.00212192002367313
0.000917173682540475
0.000114153258990439
0.00343392374683468
0.00214095050953061
0.000934731920913243
0.000115650763424376
0.00468157599237291
0.00344807952596605
0.00216148561583495
0.000945238657568342
0.000115283290984003
0.00580066340399536
0.00468660099667944
0.00345825136598104
0.00217134484090215
0.000943375972686676
0.000113571127995837
0.00677495249132021
0.00579641619345926
0.00468112780966533
0.00345487642174516
0.00216275276351006
0.00093133211081258
0.000111330401838343
0.000108891525135984
0.000913820122501099
0.00213697404022716
0.00343128679677383
0.00465864909216991
0.00577569200764858
0.00676427458485898
0.00761056990484201
0.000106196865805388
0.000893371712035576
0.0020990920789474
0.00338740988481694
0.00461479046509439
0.00573431667475821
0.00673229301774231
0.00759652294731536
0.00832203016311635
0.000103090912538807
0.000870109627515737
0.00205222388385087
0.00332623347910602
0.0045489068333875
0.00566967962087579
0.00667591628405342
0.00755768758962083
0.00830642418493134
0.0089250126603241
9.94679812385041e-05
0.000843125674903722
0.00199667438023597
0.00324948853551222
0.00446177484379365
0.00558088990495605
0.00659321683838427
0.0074907279800085
0.00826365282589838
0.00890857686395995
0.00943369104204518
9.53053222673204e-05
0.000811820507746498
0.00193129869612153
0.00315677533300077
0.00435317462397664
0.00546710968417394
0.00648307985035359
0.00739347845604674
0.00818931233026074
0.00886332598532697
0.00941663165575547
0.00986035263484481
9.05418298811532e-05
0.000775628394688534
0.00185450821497331
0.0030462235997881
0.00422132071829904
0.00532639859345986
0.00634374487852187
0.00726454936360561
0.00808045713906029
0.00878352709624477
0.00936953908570482
0.00984271054450495
0.0102157403327283
8.51128803484124e-05
0.000733713627825
0.00176433436457337
0.00291488071304748
0.0040630296531968
0.00515547019254531
0.00617208262494514
0.00710174374862237
0.00793534412342516
0.00866523261213179
0.00928541150169617
0.00979408424074098
0.0101975286626992
0.0105094073636252
7.88485322409031e-05
0.000684767537856124
0.00165768359030513
0.00275860096618475
0.00387370353268608
0.00494968782952066
0.00596355575838165
0.00690122829315209
0.00775155583606143
0.00850626855891289
0.0091592792546357
0.00970637058744781
0.0101475762740087
0.0104906391206735
0.0107499321589801
7.13059734396163e-05
0.000626100237833083
0.00152961341632596
0.00257132922398285
0.00364702061739317
0.0047028850546418
0.00571226498842917
0.00665756742397928
0.00752485502485725
0.00830405130643885
0.00898849430359375
0.00957365967736415
0.0100568469180507
0.0104395377881256
0.010730616498793
0.0109450297415494
6.52508873002531e-05
0.000552436210290037
0.00137176910246223
0.0023439367732163
0.00337430857894905
0.00440699917034692
0.00541078422522702
0.00636390956613776
0.00724920542891344
0.00805409089870287
0.00877030627171907
0.00939283073725639