/*--------------------------------*- C++ -*----------------------------------*\
  =========                 |
  \\      /  F ield         | OpenFOAM: The Open Source CFD Toolbox
   \\    /   O peration     | Website:  https://openfoam.org
    \\  /    A nd           | Version:  12
     \\/     M anipulation  |
\*---------------------------------------------------------------------------*/
/*   Windows 32 and 64 bit porting by blueCAPE: http://www.bluecape.com.pt   *\
|  Based on Windows porting (2.0.x v4) by Symscape: http://www.symscape.com   |
\*---------------------------------------------------------------------------*/
FoamFile
{
    format      ascii;
    class       volScalarField;
    location    "100";
    object      omega;
}
// * * * * * * * * * * * * * * * * * * * * * * * * * * * * * * * * * * * * * //

dimensions      [0 0 -1 0 0 0 0];

internalField   nonuniform List<scalar> 
10140
(
4.43242034386496
4.43294619973206
4.36263389516896
1.51787358050806
4.43394975123373
4.36305730864552
1.51773948084129
4.28527926758645
1.49654862921868
0.944203858609114
4.4353038679931
4.36409414916205
1.51772344147936
4.28568165818125
1.4964071666921
0.943974764919513
4.20786216564298
1.46761205012577
0.936275772398039
0.731006498548236
4.43704296434081
4.36547124958409
1.51782572855868
4.28646428575652
1.49637539490596
0.943819939230319
4.20824040499783
1.46746194448878
0.936059625888732
0.730764003423121
4.14290274685084
1.44029868431723
0.923547852860724
0.727739960074988
0.628333412426181
4.43920458909683
4.36721674989514
1.51803916537929
4.28782283806777
1.4964643961548
0.943736705996252
4.20893193437307
1.46738119066707
0.935902877168948
0.730576513646833
4.14324377369545
1.44014109702656
0.923335923764322
0.727512028516268
0.628091509402034
4.0844966588114
1.41836598214263
0.90982440398342
0.721415537287377
0.626953489448646
0.572042241928802
4.44180656775014
4.36937995540915
1.51836046357834
4.28954895703871
1.49666423761667
0.943717316992634
4.21000747061217
1.46744349538097
0.935814878755741
0.73044252500909
4.14389097362312
1.44002914675281
0.923172899280635
0.727326683345987
0.627894941495176
4.08477362041156
1.41820090046994
0.909611222721433
0.721195286696716
0.62672567203542
0.571803645067319
4.02041374378063
1.39934749768392
0.897190735299763
0.713503465567227
0.623417550313506
0.571432343998218
0.538774701693602
4.44484611807109
4.37197014149945
1.51878762241263
4.2916778595537
1.49697066981244
0.943756135655442
4.21166838391399
1.46762429015146
0.935789965195786
0.730356162014339
4.14488165816471
1.44003512050659
0.923076971695738
0.727191666821641
0.627743546825804
4.08536076820454
1.41807267057296
0.909440946825406
0.721011539728166
0.626532175042576
0.571605274115953
4.02060784136029
1.39917177509039
0.896973548093987
0.713285075991032
0.62319804632596
0.571207378325855
0.538540431858257
3.94394479265676
1.379010523114
0.885290021900495
0.705139151010315
0.618327200526144
0.569144429724944
0.538432311530202
0.518171659376039
4.44834433813362
4.3749765623064
1.51931737393073
4.29422492033081
1.4973801050073
0.94384932602385
4.21374319267908
1.46791161535188
0.935822572295011
0.730312682485029
4.14625357578858
1.44018458238021
0.923044280672797
0.727103327661899
0.627632737220038
4.08628588451317
1.41804767846481
0.9093329774722
0.72087511980956
0.62638098396094
0.571447763432671
4.02109745663559
1.39903055124305
0.896796766969308
0.713101136244058
0.623007992366722
0.571012316917307
0.538343186873811
3.94404591240729
1.37882009906589
0.885065491660323
0.704919573163707
0.618110679826969
0.568927823774081
0.53821135014827
0.51794271549294
3.85323888277026
1.35489462425756
0.872761288441371
0.696561844782966
0.612338751993198
0.565471219425884
0.536671562522931
0.517900869275846
0.505034209128575
4.45225950168208
4.37839888941874
1.51994472681808
4.29719422496285
1.49788874783549
0.94399352403633
4.21624181966874
1.46829987716645
0.935908639342489
0.730308423918993
4.14819486063839
1.44044815587091
0.923068555087184
0.727057384455078
0.627558599370886
4.0875610210031
1.41813975950828
0.909289305334468
0.720784119253177
0.626269519208668
0.571327319167902
4.02193209348677
1.39898681502969
0.896677943391822
0.712962111629369
0.62285749068475
0.570855436140631
0.53818401115853
3.9444316190222
1.3786635780668
0.884881358620953
0.704733866106185
0.617922611284731
0.568736717804487
0.538017474567859
0.517747974999745
3.85323780428725
1.35468668221618
0.872529280736419
0.696339576346328
0.612122392500335
0.565258036715631
0.536458927732726
0.517685007407046
0.504812329251089
3.74707514973346
1.32627152154486
0.858600094031872
0.687454047593627
0.605820724700007
0.560868083544586
0.533709089030045
0.516356250069007
0.504781433719901
0.496528170072399
4.45652043819217
4.38222388021563
1.52065731358643
4.30056635825946
1.49849088572563
0.94418391798203
4.21917159512744
1.46878456719098
0.936044781113884
0.730340066188683
4.15062364010936
1.44081448180318
0.923145036382449
0.727050233347839
0.627517929051729
4.08921297976158
1.41836192740946
0.909303186953318
0.720734670672008
0.626194358261594
0.571240646848175
4.02310938112052
1.3990462461014
0.896619349088507
0.71286734639615
0.622745398678966
0.57073484878436
0.538059819529099
3.94514046878984
1.37860167938819
0.884753269717457
0.704591303007067
0.617772313706718
0.56858126806003
0.537859128655936
0.517588886087157
3.8535107484447
1.35451181047076
0.8723343350166
0.696150904880308
0.611934590936045
0.565069693141362
0.536269184459669
0.517493662738864
0.504620760569812
3.74696835584062
1.32604514679162
0.858363684636442
0.68722883685307
0.60560347019423
0.560655737807101
0.533500104685482
0.516148678836747
0.504572447192901
0.496317055403298
3.623463223321
1.29288717774175
0.842362045204481
0.677472955550518
0.598842097684581
0.555718846721844
0.529939409430882
0.513771043142385
0.503343121969457
0.496288694860719
0.491003909683287
4.46106055141517
4.38641069113763
1.52143417430534
4.30432304332299
1.49917625685089
0.944412534062528
4.22250071564243
1.46935844989535
0.93622631493517
0.730403569968946
4.1534918602841
1.44127609300719
0.923269788524477
0.727078554851858
0.627507737356656
4.09141362873451
1.41869823903469
0.909368677276995
0.720723133581627
0.626152410408107
0.571185072768826
4.02463182428575
1.39920684704046
0.896618634377733
0.712813295293705
0.622668827283996
0.570647757688238
0.537967979902345
3.94618099281136
1.378637163726
0.884681298361516
0.704491362910879
0.617659167078105
0.568460897587005
0.53773504245382
0.517463215020316
3.85409414398513
1.35442969994333
0.872196172788552
0.696004271557584
0.611783549888959
0.564915500519182
0.536112592002696
0.517335501552425
0.50446186466518
3.74712451770306
1.32585169365835
0.85816215830468
0.687036340943865
0.605414811943115
0.560468596670452
0.533313464801024
0.515961543835178
0.5043842794503
0.496128400989751
3.62324963115209
1.29264353481682
0.842123851730058
0.677245609074141
0.598623822944378
0.555506441710004
0.529731642966143
0.513567256110058
0.503142368964877
0.49609029164669
0.490814034744694
3.47970594338451
1.25436478803229
0.823888045947824
0.66644401970137
0.591367016367363
0.55023123287985
0.525740617755186
0.51053964606838
0.500993452069974
0.494926764012622
0.490782631107452
0.487442727933036
4.46573101982272
4.39088282013989
1.52225180635343
4.30842040962735
1.49992632409769
0.944667613102538
4.22617812582373
1.47001080170429
0.936445599405192
0.730493250509366
4.1567690191563
1.44182317176015
0.923438005754271
0.727138371627979
0.627524640655591
4.09417589402155
1.41913344564705
0.909480640493248
0.720746030176707
0.626140706780298
0.571158091749907
4.02652125109851
1.39948463561184
0.896670056858038
0.712796148464992
0.622624814583096
0.570591584519268
0.537906315678937
3.94756452605569
1.37875894607482
0.884662116572269
0.704431129411473
0.617580591723938
0.568373344036776
0.537643042879013
0.517369110703441
3.85498848220243
1.35444140982485
0.872111862777824
0.695898576925131
0.611668564668118
0.564795249498467
0.535989129454184
0.517210062386602
0.504334949598739
3.7475721757754
1.32574832511159
0.858012303985413
0.686885160189932
0.605262267609477
0.560314903474898
0.533158613928286
0.515805298084791
0.504226369376574
0.495968020040685
3.62328621831451
1.29243233793046
0.841920161022286
0.677050088815476
0.598433863858117
0.555319500768256
0.529546689774646
0.513383401026065
0.502958439190623
0.495905033292271
0.490624503627165
3.4793918775359
1.25410539952296
0.823649199607797
0.666215717077166
0.591148178431629
0.550018688885316
0.525533235310322
0.510337297133378
0.500796540686835
0.494736467062292
0.490605311503805
0.487309147704811
3.31219122570731
1.21014438958982
0.803130615586908
0.654359622159434
0.583408881398135
0.544513561092334
0.521363648579025
0.507036831077318
0.49814747548729
0.492754647971591
0.489490526622243
0.487243186572251
4.47033457586057
4.39549793576364
1.52306241671754
4.31278482236633
1.50071417942702
0.944932902877815
4.23017566884516
1.47072375768479
0.936691046584245
0.730601128589479
4.16039457655489
1.44244225288572
0.923642370485539
0.727224094284855
0.627564319680004
4.09737322775939
1.41965331333283
0.909633488296215
0.720799338913695
0.626155884738254
0.571156891083307
4.02891843348916
1.39987725396332
0.896767242089668
0.712812096328799
0.622610370966044
0.570563825884925
0.537872771656568
3.94928441901761
1.37896538997417
0.884693455768585
0.704406830754694
0.617533676143578
0.56831618745347
0.537581069932815
0.51730498307378
3.85619438305432
1.35453223385762
0.872075861264923
0.695830731627536
0.611587168260891
0.564706966099952
0.535897137790804
0.517115942218449
0.504239274463612
3.74831482360301
1.32573486205179
0.857913630212664
0.686773538353935
0.605144817272192
0.56019429650044
0.533035864054975
0.515680702306903
0.504099763703099
0.495838478500321
3.62359361257683
1.29230851456197
0.841765095159113
0.676894372670359
0.598279471645445
0.555165636938011
0.529392975389081
0.513229155166572
0.502802536198279
0.49574568171726
0.490457707292671
3.47930856781107
1.25387857621545
0.823445079751116
0.666018250220906
0.59095724494464
0.549831611226118
0.525349054905648
0.510155397973107
0.50061597794675
0.494555452626877
0.490419129046343
0.487098308327983
3.31178636909092
1.20987110577523
0.802893035244614
0.654133909699332
0.583190377716898
0.544301223826006
0.521156566399634
0.506835106102191
0.49795211098912
0.492568147887644
0.489321270754194
0.487120466444143
0.485191005188584
3.11598273529855
1.15953912512539
0.780162742978626
0.641392279758613
0.575112825043333
0.538700360455057
0.516983669821095
0.503525009940938
0.495183086566218
0.490211282033104
0.487468743170792
0.4860183412539
4.4746428837775
1.52381664947194
4.40007632699306
4.31728074022236
1.50149842437059
0.945188026063454
4.23441151448611
1.47147003776247
0.936946637008093
0.730716317275566
4.16428581396297
1.44311616136251
0.92387150098295
0.727327797158392
0.627621005819749
4.10093843698274
1.42024129450495
0.90981982027761
0.72087756509194
0.626193645947016
0.571178067290871
4.03195015042031
1.40036128922089
0.896903091192342
0.712856811211018
0.622622098436271
0.570561704589357
0.537865120564918
3.9513484165716
1.37927358974156
0.884770753627242
0.704414303316058
0.617515334092363
0.568286936146423
0.537547093440905
0.517269242561708
3.8577173394255
1.35469176737704
0.872083529383377
0.695797318156901
0.611536433002407
0.564648329485651
0.535834729619326
0.517051665362125
0.504173895956075
3.7493467918736
1.32579606353399
0.857861840089214
0.686697784601748
0.605059870625582
0.56010483094497
0.53294383341196
0.515586856169983
0.504004160660022
0.49574056095182
3.62417540817335
1.29227059669579
0.841657027500135
0.67677675601205
0.598159313077795
0.555044216708574
0.529270652534157
0.513105608644749
0.502676908060619
0.495616505086299
0.49032245559796
3.47947220327143
1.25373700409243
0.823288883151529
0.665859644532402
0.590801214548375
0.549677316844067
0.525195908439101
0.510002645842637
0.500462221395266
0.494398179108679
0.490253408911509
0.486913877747389
3.31158993800884
1.209631668384
0.802690840744035
0.653938471422199
0.582999314398654
0.544114237431128
0.520972855487996
0.506654299581354
0.497773645521316
0.492390532343247
0.48913924466326
0.486913758427034
0.484888141726003
3.11550547333568
1.15925577964455
0.779929157616318
0.641171326762646
0.5748961839635
0.538488910955622
0.516777162105797
0.503323804773023
0.494988462975823
0.49002633696734
0.487303328925004
0.485902336673464
0.485013359209985
0.48376744916134
2.88563693433407
1.10197160108235
0.755331694966589
0.627976192222204
0.566826093440298
0.53305240115441
0.512810858545287
0.500211694171513
0.492367333249738
0.487681989817896
0.485176870685586
0.484129714386061
4.47824813877793
1.52443665953188
4.40436003240895
0.945401492090444
1.50222532676192
4.32171671419265
4.23875557514404
1.4722090509872
0.937190666971817
0.730824814368126
4.16838814097085
1.44381677443177
0.924109084818566
0.727438663564438
0.627686937865605
4.10474079765548
1.42087557189977
0.910028662766553
0.720972832172008
0.62624822914751
0.571217404871309
4.03538817573181
1.40091363114597
0.897069307484783
0.712924765604078
0.622655669797462
0.570581846670908
0.537880745289625
3.95380055866843
1.37969451993299
0.884885959948319
0.704448694357304
0.617522027473362
0.568282788754412
0.53753889404248
0.517260135347547
3.85957187831877
1.35491716746249
0.87213299931905
0.695794288677626
0.611513115908555
0.564616819180135
0.53579990401569
0.51701566730639
0.504137603923667
3.75066827628905
1.32591758631905
0.857847939133462
0.686653949525469
0.605004439627058
0.560044173178807
0.532880748102451
0.515522458300617
0.503938726439543
0.495673862320178
3.62502528225231
1.29230262569387
0.84158893754017
0.676693329470587
0.598070540533571
0.554953171150085
0.529178357207833
0.51301213413717
0.50258174571018
0.495518718996199
0.490220757935653
3.47988558546986
1.25367666784806
0.823177936227139
0.665737606250969
0.590678559803288
0.549554933239374
0.525073694981467
0.50987998103046
0.500337846836493
0.494270077726912
0.490118575928592
0.486768520264331
3.31161247161908
1.20947558099482
0.802536191766241
0.653779823357994
0.582842613022219
0.543959737166788
0.520820068321891
0.50650253971161
0.497621585152594
0.492235500520915
0.488975661427658
0.486730727071682
0.484673862735914
3.11520801150185
1.15900888396687
0.779732201385953
0.640980831478417
0.574706658354627
0.538302692114815
0.51659409606763
0.503143792985863
0.494811257471723
0.48985087404748
0.487124616420748
0.485700035992893
0.484723132626086
0.483495799345973
2.88511237836988
1.10168357246325
0.755105803522763
0.627762433674535
0.566614078744404
0.53284288585584
0.512605451109186
0.500011223754929
0.49217332827749
0.487497816052077
0.485013057738088
0.484016750218017
0.483851369580604
0.483609261741092
0.482900662913051
2.61800607560946
1.03788632919207
0.729667229354333
0.615021807936514
0.559226194980474
0.528051533942135
0.509189289435367
0.49735501275717
0.489926236401355
0.485438569846605
0.48300890139294
0.482052582000946
4.48068183569995
1.52482403911424
4.40796579074092
0.945534572361527
1.50281931205141
4.32584195269799
0.730907060316767
0.937393162637486
1.47288588775733
4.24301459630042
4.17256993032928
1.44450353100652
0.924332831775943
0.727542327963873
0.627751972663989
4.10867564093468
1.42152832563909
0.910243218491155
0.721074145930143
0.626311873160775
0.571269199819467
4.03911271607371
1.40150546339424
0.897254650917529
0.713008119287852
0.622705248176168
0.570619944167273
0.537916410477
3.9570029549483
1.38019434831252
0.885028934460833
0.704504108229159
0.617549317673016
0.568300311934868
0.537553844782346
0.517275652032274
3.86172915515464
1.35521599656812
0.872219901788783
0.695816427908371
0.611513431022406
0.564609538565588
0.53579040935059
0.517006201056729
0.504129023031418
3.75227610263774
1.32608892113581
0.857867490688904
0.686638197404839
0.604975154133135
0.560009707853783
0.532844601133421
0.51548597790425
0.503902288917297
0.495637368422589
3.62613994517017
1.2923882803382
0.841553093644743
0.676639197332892
0.598009911299388
0.554890064505998
0.529114311407216
0.512947547716072
0.502516387028259
0.49545202858207
0.490152082451697
3.48054294001546
1.25368004495895
0.823103048723564
0.665647244297226
0.590586191411146
0.549462204715174
0.524980932524902
0.509786795664776
0.500243312905001
0.494172845678083
0.490017055449028
0.486661453991914
3.31185473950985
1.20939677219418
0.802425298911986
0.65365561778918
0.582718425265914
0.543836663089655
0.520697892634363
0.506380527433115
0.497498363699333
0.492108788510146
0.488841995531072
0.486585904688548
0.484516879132441
3.11509561990853
1.15884290865066
0.779582635886104
0.64082680560782
0.574551043045189
0.538148723041033
0.516441876895204
0.502992840891631
0.49466042623201
0.489697649633553
0.486963314198615
0.485519437408611
0.484511837300222
0.483283981930464
2.8847377917298
1.10143660206695
0.754918613217544
0.627579760219206
0.566429133849314
0.532658581242214
0.512423578248912
0.499832138025169
0.491997079769223
0.487323678073932
0.484836444182627
0.483817665860758
0.483569485735094
0.483350197362925
0.482655010437331
2.6175101987021
1.0376049988559
0.729453401719564
0.614818153130608
0.559020820541153
0.527845428509537
0.508985748953033
0.497155691160325
0.489733020781457
0.485255042537949
0.482845886309656
0.481940856037675
0.482080662096456
0.482502302582301
0.482760144220671
0.482410415433555
2.2161092742595
0.970820380821507
0.705931276588987
0.60440727900931
0.553576023580957
0.52454677036802
0.506698840608944
0.495358258460745
0.48815001846602
0.483720090491496
0.481242058856678
0.48018878241469
4.48129818188951
1.5248664471553
4.41033317537268
0.945538867417111
1.50318260795968
4.32932365766604
0.730938781057533
0.937515221844774
1.47342709639904
4.24694302732059
0.627802874673874
0.727619561204471
0.924512852677946
1.4451207342986
4.17663826426353
4.11266612584417
1.42215855940503
0.910440587615061
0.72116676776726
0.626374357109073
0.571326006136571
4.04291300249457
1.4021041737037
0.89744228100799
0.71309562562235
0.622762935558679
0.57067028792906
0.53796794813305
3.9605468457756
1.380735394517
0.885186939839388
0.704572594252337
0.617591237687196
0.568335063893083
0.537588669123806
0.517313318375854
3.86420484325022
1.35562794844204
0.8723337091454
0.69585716859245
0.611532692845044
0.564622914909782
0.535803538992048
0.517021225748564
0.504146532152033
3.75415638884075
1.32630267332618
0.857916364110537
0.686645602690368
0.604967966338736
0.559998370173379
0.532833056389624
0.515475632651375
0.503893452032536
0.495629837321292
3.62750976904744
1.29251478220238
0.841546460638583
0.676609871910995
0.597973907499354
0.554852138045616
0.529076436315817
0.512910320155133
0.502479697403373
0.49541545041123
0.490115138391909
3.48144043275849
1.25373220697942
0.823053788405254
0.665583565813812
0.590520515683408
0.549396517681515
0.524915745988625
0.509721907315843
0.500178074505243
0.494106359088446
0.489948428998484
0.486590211939895
3.31231240216478
1.20937589641152
0.802348208676372
0.653560927925611
0.582623304316275
0.543742565215175
0.520604686684746
0.506287544933525
0.497404459733066
0.49201235107198
0.488741116563348
0.486479066476946
0.484404643598361
3.11516816448591
1.15875051892044
0.779475676746389
0.640706078901479
0.574426988062643
0.53802574728028
0.51632002838527
0.50287145438834
0.494538174429364
0.489572252082839
0.486831135975709
0.485375951606061
0.484355706350648
0.483125294699632
2.88450525335263
1.1012690574239
0.75477885863032
0.627433615561763
0.566277212755401
0.532506404642604
0.512272540088576
0.499682177297086
0.491847297954771
0.487171798154807
0.484676974378657
0.483639486914841
0.48336198542478
0.483141660817586
0.482453437409742
2.61710147119197
1.03737015098984
0.729281564142361
0.614646719016125
0.558843035186338
0.527664688343797
0.508805951477765
0.496977980329061
0.489557822923832
0.485081917652759
0.482670566707787
0.481743695950561
0.481803004752929
0.482251623873325
0.48252676935705
0.48217989839246
2.21610890975852
0.970554370776493
0.705735363923652
0.604216890851656
0.553379443498418
0.524346069173673
0.506498161311302
0.495160665216238
0.487957926912502
0.48353735433401
0.481079704302394
0.480077743827915
0.480187974676996
0.480833252116705
0.48170210967354
0.482284870502122
0.48216104491017
2.28699538146645
0.911200127752807
0.691270003851621
0.600144035157549
0.552267113288497
0.524034532111033
0.506311988698143
0.494872856458065
0.487484509253926
0.482839707076764
0.480125769383346
0.478820908635706
1.5244427750643
4.41072695083548
0.945359663485373
1.50320104911512
4.33155137621345
0.730890071033316
0.93750855981876
1.47373831166114
4.25020942325676
0.627823081987698
0.727645996075903
0.924610352417444
1.44559527931213
4.18033933550651
0.571378566609732
0.626422429203227
0.721231322838479
0.910590315325267
1.42270922052593
4.11650907100308
4.04665350921595
1.40266928097242
0.897608471232979
0.713172071652258
0.622818279714853
0.570725449359185
0.538030059231686
3.96424309528769
1.38127376744469
0.885342928405176
0.704642731388694
0.617639639384926
0.568381184025039
0.537639160743847
0.517370119251993
3.86726724022595
1.3560920697517
0.872459310710647
0.695908055138868
0.611564718264077
0.564652308191479
0.535835885191682
0.51705825124895
0.504188273531979
3.75630729506448
1.32656218440193
0.857991499186896
0.686669231601624
0.60497782516234
0.560006366799584
0.532843258348889
0.515489294881834
0.503910588295385
0.495649897285454
3.62911928416852
1.29266844970055
0.841559259934274
0.676600283149878
0.597958291398686
0.554836111259516
0.529062251766089
0.512898587560107
0.50247023998378
0.495407732231556
0.490108547885721
3.4825645019858
1.25381816502324
0.823023038070057
0.665541658044138
0.590477679048419
0.549354928066982
0.524875923850159
0.509683724048096
0.500141001610628
0.494069673081519
0.489911439898406
0.486552523248785
3.3129818991042
1.20939694024089
0.802294491887118
0.65349071100105
0.582553429668909
0.543674613635017
0.520538424991753
0.506222319908774
0.497339331408589
0.491946180116437
0.488672778361109
0.486407902701281
0.484331096869644
3.11542324590489
1.15871169724951
0.779400743661199
0.640612686465668
0.57433085858713
0.5379311042174
0.516226746676845
0.502778770567566
0.494444875590686
0.489476650539373
0.486731164265859
0.485269847237849
0.484243775772559
0.483011466641682
2.88441717101798
1.10117148243114
0.754680966753636
0.627320292204578
0.566155984053308
0.532384866794733
0.512151717325727
0.499561701573309
0.491726005080705
0.487047541293708
0.484546197093578
0.483497624005285
0.483207592320012
0.4829839436106
0.482298402058831
2.61676359343389
1.03721448598919
0.729157948945622
0.614512211403128
0.558698480847418
0.527516114299651
0.508657099097413
0.49682953697136
0.489409245429529
0.484931191154259
0.482512455876703
0.481567361804004
0.481598638926407
0.482047214391804
0.482328478412238
0.481987433437098
2.21610749982241
0.970350058861216
0.705586452211043
0.604060653247427
0.553211466858142
0.52417131611679
0.50632163176381
0.494985035301987
0.4877841528989
0.483365305302368
0.480905365150994
0.479881720405632
0.479912194798185
0.480586763984705
0.481476782620561
0.482066452289893
0.481939142906282
2.28699558541227
0.911121872135064
0.691094062947966
0.599970094005042
0.552081498590515
0.52384075404048
0.506115354161691
0.494677684652075
0.487293995260353
0.482658044979798
0.479964207617982
0.478710542610905
0.478581415613212
0.479097046075956
0.480120994812654
0.481268715875002
0.482047904672462
0.482059280778178
2.38167955402928
0.941176542910335
0.704773955560184
0.611282212960134
0.56006752930698
0.529234319648704
0.509684304459505
0.496959794246647
0.488633829947656
0.483274497304849
0.479990385792346
0.478206899384361
0.944942535360623
1.50275314445579
4.33168688877294
0.730726536885161
0.937318741616054
1.47370474146227
4.25213151142407
0.627792208044509
0.727591632009802
0.92457711992018
1.44583441454909
4.1833591973871
0.571415290081918
0.626439427549693
0.721243178527684
0.910653197860147
1.42310648772317
4.11994527655357
0.538096174181951
0.570776023596043
0.622857756876681
0.713217569012766
0.897721801949371
1.40314321461055
4.05021933017928
3.96779491406712
1.38176284802329
0.885472508125049
0.704698765394093
0.61768368025538
0.568431040402191
0.537699964020491
0.517442313884846
3.87071344520726
1.35655863343128
0.87257793472568
0.695957494939806
0.611601066538782
0.564691586018013
0.535883071002894
0.51711420027425
0.504252038908074
3.75867209554565
1.32689007725244
0.858076380019348
0.686699850624614
0.604998190243007
0.560028787451948
0.532871582679582
0.515524348885134
0.503951800173698
0.495696071445958
3.6309396918248
1.29283468888172
0.841586128756061
0.676604113511977
0.59795766625023
0.554837902252866
0.529068687770351
0.512910070501981
0.502486306027754
0.495427487345376
0.49013098711839
3.48389696069227
1.25392078386268
0.823002100385528
0.66551530419076
0.59045317764455
0.549333918911885
0.524858791259258
0.509670245882571
0.500130576719082
0.494061499043048
0.48990470178928
0.48654659055885
3.31384857544027
1.20944482126952
0.802254184654277
0.653438288431873
0.582504571130498
0.543629620846975
0.520496720471044
0.506183135943912
0.497301789466056
0.4919093376558
0.488635769687048
0.486370190576641
0.48429272003822
3.11585995838118
1.15870848926863
0.779347014581171
0.640540003579257
0.574258693543691
0.53786176236296
0.516159832996756
0.502713379884413
0.494379901554615
0.489410838569829
0.486663261683323
0.48519903069597
0.484170331330152
0.482937028013372
2.88448111289423
1.10112274625673
0.754613928909558
0.62723343408485
0.566061712970794
0.532291124236118
0.512059147270988
0.499469704185283
0.491633437733628
0.486952771040199
0.484447178071076
0.483392522976783
0.483096519706324
0.48287045820588
0.482185814768103
2.61653070944883
1.03712668515702
0.7290759683708
0.614410519320437
0.558584469671146
0.527397992945904
0.508538436573041
0.496710602198554
0.489289178234121
0.484808056187957
0.48238288624408
0.481426965641697
0.481446158195207
0.48189139872369
0.482174432750102
0.481837201449883
2.21610229245698
0.970232126585391
0.705487823094516
0.603942349923423
0.553077363626607
0.524028899942492
0.506176352376244
0.494838950932112
0.487637237115004
0.483215855377657
0.48074840309343
0.479706691172737
0.479709887074645
0.480385692818365
0.48128259038437
0.48187723026842
0.481753157326843
2.28700593835545
0.911062890054204
0.690978444743284
0.59983386805148
0.551926279889737
0.523674087035351
0.505943568673666
0.494505045179775
0.48712222606672
0.482487388112592
0.479790885967009
0.478515344512619
0.478306473674924
0.478852346739935
0.479899588314993
0.481058123433648
0.481837980805664
0.481842354825208
2.38168145625283
0.941599619379002
0.704777353092247
0.6111258975712
0.55989483515071
0.529048833344559
0.509492817203626
0.496767716674384
0.488445390114227
0.483094280747085
0.479829876361042
0.478097393263969
0.477548178582328
0.477705986071961
0.478517348186739
0.47976212154743
0.481066895061299
0.481956237167687
0.482043143195081
3.68516517047986
1.24118996366516
0.80806544441376
0.65992518301053
0.587171195430592
0.545386347796368
0.519750189638474
0.503387369014352
0.492724473033795
0.485768160647254
0.481336445550316
0.478690336623275
0.730412688386097
0.936888949719705
1.47320099149437
4.25185407697405
0.627686544037802
0.72742198880456
0.924359249673584
1.44572124278514
4.18499758638934
0.571421907415293
0.626404814645416
0.721171926673147
0.910580816611353
1.42325827640699
4.12265658645793
0.53815830835248
0.570810283890015
0.622864343662054
0.713206906867708
0.897742177540873
1.40344983121692
4.05334342194425
0.517525423543565
0.537764408933386
0.568474911693336
0.61770934016205
0.704720068431642
0.885543232557874
1.38214660164531
3.97103151263182
3.87413192873381
1.35696508332574
0.872664466420829
0.695989282406534
0.611630416208741
0.564732740308033
0.535939511680197
0.517185269052247
0.504335273218085
3.76125221057667
1.32724609226293
0.858150697506494
0.686725332746979
0.605020288202636
0.56005914429357
0.53291335919775
0.515577534315385
0.504014838774341
0.495766772539765
3.63291766976015
1.29300169025894
0.841618445735091
0.676611624767634
0.597965028011654
0.554852254837729
0.529091828376959
0.512941931415969
0.502525867729377
0.495473212384069
0.490181226049544
3.48540442627765
1.25402076748875
0.822987236855289
0.665497700055341
0.590441385428894
0.549329089188629
0.524861008989898
0.509678979483782
0.500144940319811
0.494080369385063
0.489926878804186
0.486570996410077
3.31489369155895
1.20950226721602
0.802215078210081
0.653397130110472
0.582471767047617
0.543603799744312
0.52047666835279
0.506167806674832
0.497290182748158
0.49190045731432
0.488628673255165
0.486364128588507
0.484287268881615
3.1164651370132
1.15872527507771
0.779303718660611
0.640481598346217
0.574205631163602
0.53781426217291
0.516116694543111
0.502673399824977
0.494341942022765
0.489373820106882
0.486626228155843
0.485161347141612
0.484131940319593
0.482898461617457
2.88470056996187
1.10110532479366
0.754566429787348
0.627166006904081
0.565990202211597
0.532221977022437
0.511992458464563
0.499404621136341
0.491568836565325
0.48688739373813
0.484379771216293
0.483322213875287
0.483023465940501
0.48279613129845
0.482111855110232
2.61644151316888
1.03708471805378
0.729024154389432
0.61433503222784
0.558496719076239
0.527307312812147
0.508447852747418
0.496620034746651
0.489197724726663
0.484714242710158
0.482284803085357
0.481322884051747
0.481336197044349
0.481778829067141
0.482062194325721
0.481727024469588
2.21610342175294
0.970186399089972
0.705431551296957
0.603857369854632
0.552974215243653
0.523916926361233
0.50606145862099
0.494722548148477
0.487518966101261
0.483094079637379
0.480619995133544
0.479567506058475
0.479558991064278
0.480231912208556
0.481130458703781
0.481727976954872
0.481607070505281
2.28699080959885
0.911085093523363
0.690920111695929
0.599737687416337