/*--------------------------------*- C++ -*----------------------------------*\
  =========                 |
  \\      /  F ield         | OpenFOAM: The Open Source CFD Toolbox
   \\    /   O peration     | Website:  https://openfoam.org
    \\  /    A nd           | Version:  12
     \\/     M anipulation  |
\*---------------------------------------------------------------------------*/
/*   Windows 32 and 64 bit porting by blueCAPE: http://www.bluecape.com.pt   *\
|  Based on Windows porting (2.0.x v4) by Symscape: http://www.symscape.com   |
\*---------------------------------------------------------------------------*/
FoamFile
{
    format      ascii;
    class       volScalarField;
    location    "100";
    object      p;
}
// * * * * * * * * * * * * * * * * * * * * * * * * * * * * * * * * * * * * * //

dimensions      [0 2 -2 0 0 0 0];

internalField   nonuniform List<scalar> 
10140
(
83333.3220659978
83333.3220334017
83333.3220663564
83333.3220657966
83333.3219994593
83333.3220337702
83333.322033129
83333.3220670761
83333.322066233
83333.3220682289
83333.3219640593
83333.3219998462
83333.3219991218
83333.3220345208
83333.3220335672
83333.3220355791
83333.3220682651
83333.3220670101
83333.3220688404
83333.3220759707
83333.3219270792
83333.3219644773
83333.3219636409
83333.3220006431
83333.3219995861
83333.3220015873
83333.322035776
83333.3220343695
83333.3220362048
83333.3220435867
83333.3220700034
83333.3220682638
83333.3220697875
83333.3220766782
83333.3220894533
83333.3218884039
83333.3219275301
83333.3219265622
83333.3219653359
83333.3219641426
83333.321966102
83333.3220019792
83333.3220004379
83333.3220022505
83333.3220098485
83333.3220376215
83333.3220356915
83333.3220371872
83333.3220443208
83333.3220575962
83333.3220723369
83333.3220700685
83333.3220712095
83333.32207784
83333.3220901245
83333.3221083092
83333.3218479066
83333.3218888882
83333.3218877679
83333.3219284572
83333.3219271017
83333.321929001
83333.3219667697
83333.3219650579
83333.3219668116
83333.3219746128
83333.3220039476
83333.3220018456
83333.3220032972
83333.3220106341
83333.3220243891
83333.3220401028
83333.3220376086
83333.322038686
83333.3220455326
83333.3220583034
83333.3220772353
83333.3220752715
83333.3220724842
83333.3220731582
83333.3220794548
83333.3220913817
83333.3221088535
83333.3221318772
83333.3218054527
83333.3218484285
83333.3218471379
83333.3218898903
83333.3218883503
83333.3218901626
83333.3219300027
83333.3219280852
83333.3219297548
83333.3219377539
83333.3219688798
83333.3219665677
83333.3219679331
83333.3219754595
83333.321989702
83333.3220065964
83333.3220038914
83333.3220048914
83333.3220119209
83333.3220251514
83333.3220448322
83333.3220432235
83333.3220401772
83333.3220407561
83333.3220472352
83333.3220596102
83333.3220778103
83333.3221018085
83333.3220787812
83333.3220755202
83333.3220757092
83333.322081565
83333.3220931329
83333.3221100867
83333.3221323206
83333.3221594684
83333.321760895
83333.321806018
83333.3218045354
83333.3218495155
83333.3218477693
83333.3218494636
83333.321891562
83333.3218894108
83333.3218909658
83333.3218991507
83333.3219322738
83333.3219297096
83333.3219309542
83333.3219386636
83333.3219534
83333.3219717192
83333.321968762
83333.3219696404
83333.3219768337
83333.3219905237
83333.3220109698
83333.3220099261
83333.3220066333
83333.3220070979
83333.3220137322
83333.3220265411
83333.3220454544
83333.3220704484
83333.3220469534
83333.3220434052
83333.32204347
83333.3220494735
83333.3220614623
83333.3220790917
83333.3221022721
83333.3221305956
83333.3220828227
83333.3220791478
83333.3220789045
83333.322084267
83333.3220953683
83333.3221118429
83333.3221334221
83333.3221598389
83333.3221905485
83333.3217140658
83333.3217615084
83333.3217597949
83333.3218072017
83333.3218052208
83333.3218067659
83333.3218513303
83333.3218489165
83333.3218503233
83333.3218586761
83333.3218940164
83333.3218911618
83333.32189225
83333.3219001281
83333.321915359
83333.3219353271
83333.3219320708
83333.3219327868
83333.3219401301
83333.321954286
83333.3219755205
83333.3219752853
83333.3219717007
83333.3219720057
83333.3219787704
83333.3219920134
83333.3220116488
83333.3220376692
83333.3220139021
83333.322010077
83333.3220099956
83333.3220161184
83333.3220285127
83333.3220468211
83333.3220709514
83333.3221004836
83333.3220512436
83333.3220472616
83333.3220468684
83333.3220523487
83333.3220638333
83333.3220809526
83333.3221034246
83333.3221309806
83333.3221630406
83333.322087344
83333.3220833267
83333.322082731
83333.3220876308
83333.3220982056
83333.3221141282
83333.3221351098
83333.3221608515
83333.3221908788
83333.3222245895
83333.3216647757
83333.3217147319
83333.3217127535
83333.3217628
83333.3217605481
83333.3217619088
83333.3218091791
83333.3218064664
83333.3218076885
83333.3218161868
83333.321853994
83333.3218508107
83333.3218517021
83333.3218597277
83333.3218754495
83333.3218973119
83333.3218937106
83333.3218942209
83333.3219016932
83333.321916314
83333.3219383565
83333.3219391599
83333.3219352306
83333.3219353302
83333.3219422048
83333.321955884
83333.3219762606
83333.3220033446
83333.3219795381
83333.3219753877
83333.321975112
83333.3219813262
83333.32199412
83333.3220131182
83333.3220382211
83333.3220690108
83333.3220184696
83333.3220141877
83333.322013622
83333.3220191886
83333.3220310407
83333.3220488042
83333.3220721834
83333.3221009034
83333.3221343599
83333.3220560355
83333.3220516987
83333.3220509357
83333.3220559293
83333.3220668529
83333.3220833774
83333.3221052114
83333.3221320439
83333.3221633814
83333.3221985878
83333.3220922842
83333.3220880053
83333.3220871443
83333.3220916579
83333.3221017272
83333.3221170579
83333.3221373812
83333.3221624169
83333.3221917699
83333.3222249209
83333.3222612177
83333.3216128098
83333.3216655
83333.3216632323
83333.3217161447
83333.3217135847
83333.3217147207
83333.3217649628
83333.3217619089
83333.3217629037
83333.3217715207
83333.3218120813
83333.3218085248
83333.3218091739
83333.3218173211
83333.3218335235
83333.3218575659
83333.3218535691
83333.3218538271
83333.3218614007
83333.3218764785
83333.3218993408
83333.3219014451
83333.3218971201
83333.321896963
83333.3219039196
83333.3219180294
83333.3219391623
83333.3219673434
83333.3219437243
83333.3219391917
83333.3219386706
83333.3219449504
83333.3219581386
83333.3219778395
83333.3220039459
83333.3220360483
83333.3219844164
83333.3219797828
83333.3219789941
83333.321984616
83333.321996826
83333.3220152395
83333.3220395502
83333.3220694742
83333.3221043883
83333.3220235626
83333.3220189109
83333.3220179565
83333.3220230109
83333.3220342653
83333.3220513906
83333.3220740897
83333.3221020388
83333.3221347287
83333.3221714933
83333.3220612621
83333.3220566609
83333.3220556236
83333.3220602139
83333.3220706035
83333.3220864961
83333.3221076229
83333.3221337001
83333.3221643188
83333.3221989324
83333.3222368496
83333.3220975716
83333.3220931139
83333.3220920838
83333.3220963067
83333.3221059387
83333.322120702
83333.3221403514
83333.3221646351
83333.3221932282
83333.322225699
83333.322261508
83333.3223000143
83333.32155793
83333.3216136009
83333.3216110163
83333.321667053
83333.3216641443
83333.3216650089
83333.3217185184
83333.3217150757
83333.3217157972
83333.3217244949
83333.321768138
83333.321764159
83333.3217645111
83333.3217727479
83333.3217894121
83333.3218159698
83333.3218115228
83333.3218114742
83333.3218191141
83333.3218346309
83333.3218583197
83333.3218620389
83333.3218572609
83333.3218567916
83333.3218637956
83333.3218783232
83333.321900219
83333.3219295236
83333.3219063609
83333.3219013901
83333.3219005663
83333.3219068768
83333.3219204464
83333.3219408578
83333.3219679963
83333.3220014628
83333.3219489515
83333.3219439076
83333.3219428411
83333.3219484868
83333.3219610436
83333.3219801137
83333.3220053843
83333.3220365575
83333.3220729944
83333.3219898461
83333.3219848257
83333.3219836268
83333.321988708
83333.3220002805
83333.3220180088
83333.3220415916
83333.3220706938
83333.322104793
83333.3221431932
83333.3220291068
83333.3220241844
83333.3220229461
83333.3220275798
83333.3220382698
83333.3220547216
83333.322076664
83333.3221038084
83333.3221357322
83333.3221718654
83333.3222114781
83333.3220668446
83333.3220620733
83333.3220608675
83333.3220651566
83333.3220750868
83333.3220903778
83333.3221107854
83333.3221360573
83333.322165862
83333.3221997493
83333.3222371489
83333.3222773901
83333.3221031194
83333.3220985794
83333.3220974822
83333.3221015147
83333.3221108
83333.3221250571
83333.3221440645
83333.3221675979
83333.3221953788
83333.3222270613
83333.322262209
83333.3223002772
83333.3214998759
83333.3215587994
83333.3215558685
83333.3216153175
83333.321612014
83333.3216125598
83333.3216696695
83333.3216657825
83333.3216661763
83333.3216749057
83333.3217220062
83333.3217175498
83333.3217175428
83333.321725828
83333.3217429232
83333.3217723909
83333.321767435
83333.3217670139
83333.3217746752
83333.3217906062
83333.3218151155
83333.3218208317
83333.321815534
83333.3218146917
83333.321821699
83333.3218366248
83333.3218592772
83333.3218897253
83333.321867352
83333.3218618804
83333.321860691
83333.3218669904
83333.3218809198
83333.3219020414
83333.3219302333
83333.3219651098
83333.3219119811
83333.3219064684
83333.3219050621
83333.3219106904
83333.3219235736
83333.321943301
83333.3219695545
83333.3220020207
83333.322040046
83333.3219547594
83333.3219493095
83333.32194781
83333.3219528821
83333.321964756
83333.3219830875
83333.3220075734
83333.3220378687
83333.3220734398
83333.3221135557
83333.3219957449
83333.3219904464
83333.3219889514
83333.3219935924
83333.3220045679
83333.3220215776
83333.3220443505
83333.3220725937
83333.3221058733
83333.3221435978
83333.3221850001
83333.3220350154
83333.32202993
83333.3220285227
83333.3220328439
83333.3220430527
83333.3220588671
83333.3220800432
83333.3221063278
83333.3221373831
83333.3221727418
83333.3222118023
83333.3222538547
83333.3220726858
83333.322067852
83333.3220665904
83333.3220706889
83333.3220802576
83333.3220950152
83333.3221147413
83333.3221392127
83333.3221681479
83333.3222011901
83333.322237881
83333.3222776542
83333.3223198396
83333.3221088174
83333.3221043231
83333.3221032653
83333.3221072175
83333.3221162499
83333.3221300795
83333.3221485014
83333.32217132
83333.3221982923
83333.3222291287
83333.3222634854
83333.3223009216
83333.3214383524
83333.3214975262
83333.3215008372
83333.3215607072
83333.32155696
83333.3215571502
83333.3216182164
83333.3216138229
83333.3216138267
83333.3216225238
83333.3216735165
83333.3216685092
83333.321668078
83333.3216763601
83333.321693842
83333.3217266772
83333.3217211494
83333.3217202789
83333.3217279058
83333.3217442162
83333.3217695263
83333.3217776999
83333.3217718102
83333.3217705235
83333.3217774765
83333.3217927696
83333.3218161576
83333.3218477644
83333.3218265957
83333.3218205512
83333.3218189262
83333.3218251634
83333.3218394204
83333.3218612431
83333.3218904989
83333.3219268246
83333.3218734167
83333.3218673675
83333.3218655542
83333.3218711167
83333.3218842965
83333.3219046728
83333.3219319247
83333.3219657219
83333.3220053976
83333.3219182147
83333.3219122753
83333.3219104122
83333.321915428
83333.3219275765
83333.3219465037
83333.3219719064
83333.3220034316
83333.322040535
83333.3220824479
83333.3219610553
83333.3219553188
83333.3219535111
83333.3219581213
83333.3219693612
83333.3219869233
83333.322010539
83333.322039913
83333.3220746023
83333.3221139942
83333.3221572825
83333.3220020176
83333.3219965613
83333.3219948953
83333.3219992125
83333.3220096828
83333.3220260168
83333.3220479724
83333.3220752972
83333.3221076488
83333.3221445445
83333.3221853539
83333.3222293251
83333.3220411816
83333.3220360528
83333.3220346006
83333.3220387318
83333.3220485628
83333.3220638159
83333.3220842689
83333.3221097007
83333.3221398281
83333.3221742847
83333.3222125884
83333.3222541403
83333.3222982443
83333.3220786636
83333.3220739078
83333.3220727103
83333.3220767372
83333.3220860485
83333.3221003589
83333.3221194664
83333.3221431784
83333.3221712507
83333.3222033866
83333.3222392276
83333.3222783198
83333.322320082
83333.3223638542
83333.3221145192
83333.3221102428
83333.3221093526
83333.3221133424
83333.3221222167
83333.3221357042
83333.3221536107
83333.3221757669
83333.3222019638
83333.3222319535
83333.3222654533
83333.3223021156
83333.3213730251
83333.3214356985
83333.3214394203
83333.321498504
83333.3214987264
83333.3215029686
83333.3215639348
83333.3215589649
83333.3215585179
83333.3215671111
83333.3216224783
83333.3216168393
83333.3216159071
83333.3216241183
83333.3216419186
83333.3216786665
83333.3216724854
83333.3216710802
83333.3216786056
83333.3216952579
83333.3217213206
83333.321732501
83333.3217259453
83333.3217241271
83333.3217309542
83333.3217465695
83333.3217706614
83333.3218034293
83333.3217839807
83333.3217772798
83333.3217751411
83333.3217812504
83333.3217957892
83333.3218182956
83333.3218486112
83333.3218864161
83333.3218331635
83333.3218265018
83333.3218242057
83333.3218296448
83333.32184308
83333.3218640851
83333.3218923408
83333.3219274992
83333.3219688827
83333.3218801302
83333.3218736323
83333.3218713344
83333.321876241
83333.3218886278
83333.3219081335
83333.3219344583
83333.3219672433
83333.3220059359
83333.3220497265
83333.3219249579
83333.3219187225
83333.3219165397
83333.3219210683
83333.3219325402
83333.3219506401
83333.3219751038
83333.322005636
83333.322041787
83333.3220829225
83333.3221281948
83333.3219677356
83333.3219618451
83333.3219598633
83333.3219641404
83333.3219748487
83333.321991692
83333.3220144334
83333.3220428233
83333.3220765164
83333.3221150172
83333.3221576673
83333.3222036714
83333.3220085484
83333.3220030658
83333.3220013669
83333.322005491
83333.3220155686
83333.3220313108
83333.3220524986
83333.3220789143
83333.3221102747
83333.3221462063
83333.3221862056
83333.3222296383
83333.3222757719
83333.322047471
83333.3220424513
83333.3220410884
83333.3220451575
83333.3220547273
83333.3220695126
83333.3220893127
83333.3221139381
83333.3221431458
83333.3221766345
83333.3222140303
83333.3222548525
83333.3222985013
83333.3223442918
83333.3220846212
83333.3220801282
83333.322079136
83333.3220832212
83333.3220923805
83333.3221063372
83333.3221249037
83333.3221479147
83333.3221751625
83333.3222063941
83333.3222413157
83333.3222795734
83333.3223206934
83333.322364077
83333.3224091122
83333.3221200082
83333.3221161974
83333.3221156356
83333.3221197968
83333.3221286157
83333.3221418499
83333.3221593204
83333.3221808791
83333.3222063481
83333.3222355189
83333.3222681542
83333.3223039686
83333.3213036038
83333.3213700444
83333.3213742202
83333.3214363101
83333.321437029
83333.321441813
83333.3215083837
83333.3214999875
83333.3215009606
83333.321506579
83333.3215686781
83333.3215623202
83333.3215608021
83333.3215688491
83333.3215868782
83333.3216281812
83333.3216212453
83333.3216192132
83333.321626555
83333.3216434816
83333.3216702333
83333.3216850816
83333.3216777773
83333.3216753206
83333.3216819367
83333.321697804
83333.3217225651
83333.3217564712
83333.3217393785
83333.32173193
83333.3217291875
83333.321735085
83333.321749844
83333.321773001
83333.3218043658
83333.3218436615
83333.3217911201
83333.321783759
83333.3217808932
83333.321786138
83333.3217997725
83333.3218213719
83333.3218506243
83333.3218871644
83333.3219303062
83333.3218404193
83333.3218332847
83333.3218304731
83333.3218352078
83333.3218477845
83333.321867839
83333.3218950794
83333.3219291454
83333.3219694782
83333.3220152261
83333.3218873778
83333.3218805742
83333.3218779442
83333.3218823344
83333.3218939973
83333.3219126104
83333.3219379176
83333.3219696277
83333.3220072872
83333.3220502411
83333.3220975977
83333.3219320967
83333.3219257103
83333.3219233528
83333.3219275376
83333.3219384479
83333.3219557808
83333.3219793059
83333.3220087789
83333.3220438553
83333.3220840284
83333.3221286118
83333.3221767647
83333.321974675
83333.3219687768
83333.3219667718
83333.3219708542
83333.3219811542
83333.3219973729
83333.3220192969
83333.3220467149
83333.3220793459
83333.3221168117
83333.3221585904
83333.3222040135
83333.322252306
83333.3220151889
83333.3220098461
83333.3220082611
83333.3220123345
83333.3220221444
83333.3220373979
83333.3220578958
83333.3220834543
83333.3221138339
83333.3221487314
83333.3221877601
83333.3222304111
83333.3222760529
83333.3223239728
83333.3220537131
83333.3220490045
83333.3220478841
83333.322052032
83333.3220614577
83333.3220758785
83333.3220951112
83333.3221189951
83333.3221473263
83333.3221798505
83333.3222162635
83333.3222561918
83333.3222991491
83333.3223445242
83333.3223916649
83333.3220903257
83333.3220863631
83333.3220857535
83333.3220900416
83333.3220991595
83333.3221128613
83333.3221309742
83333.322153356
83333.3221798325
83333.3222101924
83333.3222441893
83333.3222815351
83333.3223218532
83333.322364635
83333.3224093108
83333.3224553352
83333.3221248814
83333.3221219759
83333.3221219521
83333.3221264534
83333.3221353327
83333.322148413
83333.3221655376
83333.3221865767
83333.322211379
83333.3222397729
83333.3222715646
83333.322306516
83333.3212297394
83333.3213002506
83333.3213049875
83333.3213702539
83333.3213715333
83333.3213769188
83333.3214460261
83333.3214379544
83333.3214395399
83333.3214458684
83333.3215284127
83333.3215102845
83333.3215025129
83333.3215047084
83333.3215118822
83333.321575019
83333.3215672186
83333.3215644584
83333.3215715129
83333.3215886167
83333.3216159632
83333.3216352772
83333.3216271139
83333.3216239044
83333.3216302103
83333.3216462418
83333.321671612
83333.3217066013
83333.3216926427
83333.3216843535
83333.3216808975
83333.3216864798
83333.3217013775
83333.3217251295
83333.3217575202
83333.3217982978
83333.3217471745
83333.3217390131
83333.32173548
83333.3217404407
83333.3217542001
83333.3217763414
83333.3218065634
83333.3218444982
83333.321889438
83333.3217989902
83333.3217911301
83333.3217877144
83333.3217922008
83333.3218049039
83333.3218254614
83333.321853596
83333.3218889529
83333.3219309698
83333.3219787519
83333.3218482353
83333.3218407854
83333.3218376274
83333.3218418144
83333.321853615
83333.3218727037
83333.3218988374
83333.3219317345
83333.3219709427
83333.322015787
83333.3220653304
83333.3218950326
83333.3218880814
83333.3218852798
83333.3218893127
83333.3219003803
83333.3219181724
83333.3219424686
83333.3219730343
83333.3220095298
83333.3220514399
83333.3220980504
83333.3221484725
83333.3219394951
83333.3219331191
83333.3219307476
83333.3219347412
83333.321945226
83333.3219618977
83333.3219845502
83333.3220129809
83333.3220469145
83333.322085971
83333.3221296124
83333.3221771369
83333.3222277226
83333.3219817113
83333.3219759862
83333.3219741212
83333.3219781628
83333.3219881885
83333.3220038961
83333.3220250901
83333.322051595
83333.3220831772
83333.3221195346
83333.3221602711
83333.3222048531
83333.3222526132
83333.3223028015
83333.3220217538
83333.3220167698
83333.3220154661
83333.3220196417
83333.3220293132
83333.3220441911
83333.3220640935
83333.3220888673
83333.3221183142
83333.3221521823
83333.3221901603
83333.322231855
83333.3222767538
83333.3223242247
83333.3223735851
83333.3220596629
83333.3220555514
83333.3220548658
83333.3220592495
83333.3220686493
83333.3220828156
83333.3221015773
83333.3221247995
83333.3221523136
83333.3221839101
83333.3222193358
83333.3222582874
83333.3223003825
83333.3223451107
83333.3223918706
83333.3224400637
83333.3220953385
83333.3220923853
83333.3220923913
83333.3220970622
83333.3221062634
83333.3221198184
83333.3221375765
83333.3221594151
83333.322185188
83333.3222147237
83333.3222478208
83333.3222842416
83333.3223236737
83333.322365695
83333.32240981
83333.322455507
83333.3225022829
83333.3221286422
83333.3221272126
83333.3221280441
83333.3221331
83333.3221421985
83333.3221552501
83333.3221721396
83333.3221927558
83333.3222169698
83333.3222446447
83333.3222756288
83333.3223097308
83333.3212259949
83333.321231352
83333.3212999607
83333.3213019563
83333.3213080686
83333.3213796701
83333.3213720895
83333.3213743671
83333.3213814915
83333.3214661711
83333.3214481251
83333.3214407739
83333.3214437453
83333.3214518229
83333.32155816
83333.3215303629
83333.3215132171
83333.3215065803
83333.3215101824
83333.321518963
83333.3215828999
83333.3215737468
83333.3215696672
83333.3215755431
83333.3215916207
83333.3216175128
83333.3216534866
83333.3216436252
83333.3216343872
83333.3216300804
83333.3216352291
83333.321650161
83333.3216744214
83333.3217077875
83333.3217500258
83333.321701195
83333.3216921232
83333.3216878135
83333.3216923778
83333.3217061661
83333.3217287741
83333.3217599174
83333.3217992426
83333.3218460052
83333.3217557431
83333.321747056
83333.3217429317
83333.3217470762
83333.321759823
83333.3217808179
83333.3218098061
83333.3218464488
83333.3218901839
83333.3219400717
83333.3218074475
83333.3217992636
83333.3217954862
83333.3217993908
83333.3218112602
83333.3218307705
83333.3218576974
83333.321891777
83333.3219325645
83333.321979367
83333.3220312018
83333.3218564706
83333.3218488784
83333.321845552
83333.321849368
83333.321860537
83333.3218787452
83333.3219037866
83333.3219354427
83333.3219733843
83333.322017092
83333.3220658244
83333.3221186418
83333.321902948
83333.3218960258
83333.3218932239
83333.3218970692
83333.3219076923
83333.3219247829
83333.3219481451
83333.321977589
83333.3220128498
83333.3220535499
83333.3220991376
83333.3221488775
83333.3222018973
83333.3219469792
83333.3219408109
83333.3219386046
83333.3219425689
83333.3219527753
83333.3219689115
83333.3219907898
83333.3220182453
83333.3220510538
83333.3220889173
83333.3221314339
83333.3221780487
83333.3222280573
83333.3222806642
83333.321988644
83333.3219833264
83333.3219817847
83333.321985952
83333.3219958451
83333.3220111654
83333.3220317339
83333.3220574068
83333.3220879948
83333.3221232507
83333.3221628604
83333.3222064153
83333.3222533747
83333.3223030758
83333.3223548
83333.3220279869
83333.3220236635
83333.3220228478
83333.3220272944
83333.3220369593
83333.3220515824
83333.322070996
83333.3220950733
83333.3221236539
83333.3221565337
83333.322193457
83333.3222341067
83333.322278081
83333.3223248557
83333.3223738067
83333.3224242927
83333.322064855
83333.3220618531
83333.3220618515
83333.3220666624
83333.3220761708
83333.3220902003
83333.3221086004
83333.3221312556
83333.3221580278
83333.3221887497
83333.3222232171
83333.3222611791
83333.3223023226
83333.3223462331
83333.3223923927
83333.3224402408
83333.3224892271
83333.3220991646
83333.3220977998
83333.3220987665
83333.3221040599
83333.3221135119
83333.3221270551
83333.3221445786
83333.3221659793
83333.3221911348
83333.3222199102
83333.3222521489
83333.3222876617
83333.3223261866
83333.3223673596
83333.3224107612
83333.322455943
83333.3225024269
83333.3225497373
83333.3221310375
83333.3221313945
83333.3221334446
83333.3221393631
83333.3221489351
83333.32216215
83333.3221789588
83333.3221992799
83333.3222230086
83333.322250043
83333.3222802737
83333.3223135565
83333.3212249952
83333.3212279613
83333.3212348927
83333.3213088925
83333.3213020266
83333.3213051731
83333.3213132613
83333.3213997246
83333.3213820017
83333.3213752435
83333.3213791203
83333.3213882055
83333.3214964148
83333.3214683751
83333.3214513737
83333.3214453196
83333.3214498888
83333.3214597635
83333.3215967379
83333.3215599183
83333.3215336486
83333.3215176848
83333.3215123907
83333.3215174675
83333.3215277491
83333.3215921585
83333.3215818353
83333.321576533
83333.3215811123
83333.3215959414
83333.3216205814
83333.3216548413
83333.321698481
83333.3216530435
83333.3216429429
83333.3216377236
83333.3216417549
83333.3216554515
83333.3216784217
83333.3217104128
83333.3217510882
83333.321799686
83333.3217105658
83333.3217009348
83333.3216959842
83333.3216996733
83333.3217123576
83333.3217336999
83333.3217634772
83333.3218013802
83333.321846852
83333.3218989088
83333.3217649263
83333.3217559078
83333.3217514068
83333.3217549321
83333.3217667822
83333.3217866392
83333.3218143055
83333.3218495453
83333.3218919299
83333.3219407515
83333.3219949825
83333.3218163351
83333.3218080163
83333.3218040762
83333.3218075967
83333.3218187956
83333.32183736
83333.321863104
83333.3218958329
83333.3219352362
83333.3219807956
83333.3220317443
83333.3220870897
83333.3218649666
83333.3218574232
83333.3218541167
83333.3218577481
83333.3218684533
83333.3218859162
83333.3219099556
83333.3219404008
83333.3219770035
83333.3220193941
83333.3220670109
83333.3221190847
83333.3221746885
83333.3219109377
83333.3219042587
83333.3219016472
83333.3219054815
83333.3219158219
83333.321932351
83333.3219548903
83333.3219832901
83333.3220173398
83333.3220567503
83333.3221011183
83333.3221498697
83333.3222022621
83333.3222574479
83333.3219543326
83333.3219486224
83333.3219467839
83333.3219508973
83333.3219609778
83333.321976715
83333.3219979355
83333.3220245073
83333.322056253
83333.3220929339
83333.3221342371
83333.3221797428
83333.3222288848
83333.3222809626
83333.3223352128
83333.3219952061
83333.3219906099
83333.3219896134
83333.3219940898
83333.3220039968
83333.3220190619
83333.3220391226
83333.3220640616
83333.3220937296
83333.3221279307
83333.3221664109
83333.3222088442
83333.3222548097
83333.3223037595
83333.3223550402
83333.3224079697
83333.3220334018
83333.3220302775
83333.3220302116
83333.3220351349
83333.322044938
83333.3220594366
83333.3220784818
83333.3221019672
83333.322129765
83333.3221617161
83333.3221976173
83333.3222372087
83333.3222801628
83333.3223260593
83333.3223743656
83333.3224244825
83333.3224758138
83333.3220687841
83333.3220674902
83333.3220685397
83333.3220740355
83333.32208383
83333.3220978681
83333.3221160371
83333.3221382407
83333.3221643659
83333.3221942845
83333.3222278401
83333.3222648328
83333.3223050035
83333.3223480024
83333.3223933963
83333.322440695
83333.3224893744
83333.3225389206
83333.3221015402
83333.3221020806
83333.3221043839
83333.3221106399
83333.3221206123
83333.3221343466
83333.322151801
83333.3221729018
83333.3221975517
83333.322225653
83333.3222570933
83333.3222917327
83333.32232936
83333.3223696569
83333.3224122567
83333.3224567786
83333.3225027977
83333.3225498533
83333.3225975005
83333.3221319873
83333.3221338971
83333.3221375503
83333.3221446547
83333.3221550799
83333.3221687825
83333.322185754
83333.3222059662
83333.3222293506
83333.3222558513
83333.3222854057
83333.3223179192
83333.3212331788
83333.3212272788
83333.3212316239
83333.3212408159
83333.3213285421
83333.3213114428
83333.3213055783
83333.3213105759
83333.3213208697
83333.3214302213
83333.3214022221
83333.321385606
83333.3213803463
83333.3213860449
83333.3213971497
83333.3215358897
83333.3214984274
83333.3214719868
83333.3214563537
83333.3214518308
83333.321458055
83333.3214695984
83333.3216432356
83333.3215982995
83333.3215632855
83333.3215384377
83333.3215238942
83333.3215200511
83333.3215264897
83333.3215380542
83333.3216025776
83333.3215913148
83333.321585021
83333.3215883646
83333.3216018155
83333.3216250042
83333.3216577299
83333.3216996823
83333.3217501067
83333.3216633343
83333.3216526294
83333.3216467227
83333.3216498152
83333.3216623029
83333.3216838718
83333.3217143426
83333.3217534513
83333.3218006553
83333.321854932
83333.3217205764
83333.3217106078
83333.3217052625
83333.3217082919
83333.3217200116
83333.3217401147
83333.3217684406
83333.3218047948
83333.3218487759
83333.3218996666
83333.3219563964
83333.3217745483
83333.321765407
83333.3217607506
83333.3217638801
83333.3217750183
83333.3217938581
83333.3218202405
83333.3218540048
83333.3218948695
83333.3219423254
83333.3219955831
83333.3220535952
83333.3218254801
83333.3218172351
83333.3218133388
83333.3218166818
83333.3218273977
83333.3218451698
83333.3218698372
83333.3219012553
83333.3219392011
83333.3219833208
83333.3220330469
83333.3220875773
83333.3221459263
83333.3218735242
83333.3218662616
83333.3218631776
83333.3218668192
83333.321877238
83333.3218941122
83333.3219172761
83333.3219466007
83333.3219818955
83333.3220228866
83333.3220691747
83333.322120169
83333.3221750878
83333.3222330259
83333.3219187694
83333.3219126018
83333.3219104027
83333.321914413
83333.3219246381
83333.3219407563
83333.3219626033
83333.3219900626
83333.3220229733
83333.3220611098
83333.322104165
83333.322151713
83333.3222031629
83333.322257773
83333.3223147267
83333.32196128
83333.32195635
83333.3219551176
83333.3219595808
83333.3219696942
83333.3219851767
83333.3220058697
83333.3220316674
83333.3220624343
83333.3220979864
83333.3221380756
83333.3221823725
83333.3222304407
83333.3222817047
83333.3223354735
83333.3223910183
83333.3220008933
83333.321997573
83333.3219973983
83333.3220024051
83333.3220124834
83333.3220274371
83333.3220471227
83333.3220714437
83333.3221002848
83333.3221334979
83333.3221708856
83333.3222121843
83333.3222570537
83333.3223050581
83333.3223556437
83333.3224081745
83333.3224620094
83333.3220374901
83333.322036166
83333.3220372409
83333.3220429143
83333.3220530451
83333.3220675757
83333.322086395
83333.3221094153
83333.3221365351
83333.3221676365
83333.3222025678
83333.3222411243
83333.322283036
83333.3223279538
83333.322375438
83333.3224249663
83333.3224759707
83333.3225278953
83333.3220711617
83333.3220719199
83333.3220744148
83333.3220809572
83333.3220913194
83333.32210558
83333.3221236949
83333.3221455963
83333.3221711967
83333.3222004067
83333.3222331171
83333.32226918
83333.3223083899
83333.3223504486
83333.3223949814
83333.3224415732
83333.3224897584
83333.3225390379
83333.3225889325
83333.3221024194
83333.3221046267
83333.3221086267
83333.3221161768
83333.3221270791
83333.3221413452
83333.3221589882
83333.3221799874
83333.3222042836
83333.3222318265
83333.3222625529
83333.3222963742
83333.3223331321
83333.3223725555
83333.3224143207
83333.3224580955
83333.3225035142
83333.3225501589
83333.3225975894
83333.3226453956
83333.3221354231
83333.322139821
83333.3221483758
83333.3221599888
83333.3221746428
83333.3221921698
83333.3222125637
83333.322235808
83333.3222619214
83333.322290907
83333.3223227254
83333.3212520532
83333.3212359066
83333.3212312568
83333.3212377557
83333.3212494625
83333.32135895
83333.321331355
83333.3213154508
83333.3213113299