/*--------------------------------*- C++ -*----------------------------------*\
  =========                 |
  \\      /  F ield         | OpenFOAM: The Open Source CFD Toolbox
   \\    /   O peration     | Website:  https://openfoam.org
    \\  /    A nd           | Version:  12
     \\/     M anipulation  |
\*---------------------------------------------------------------------------*/
/*   Windows 32 and 64 bit porting by blueCAPE: http://www.bluecape.com.pt   *\
|  Based on Windows porting (2.0.x v4) by Symscape: http://www.symscape.com   |
\*---------------------------------------------------------------------------*/
FoamFile
{
    format      ascii;
    class       surfaceScalarField;
    location    "100";
    object      phi;
}
// * * * * * * * * * * * * * * * * * * * * * * * * * * * * * * * * * * * * * //

dimensions      [0 3 -1 0 0 0 0];

internalField   nonuniform List<scalar> 
28973
(
4.23335139316287e-06
-8.33637804725033e-08
-1.08557226649129e-07
4.43873493957512e-06
-8.83400369305437e-08
-1.17039159483674e-07
5.6227521108601e-06
-1.85881500643224e-07
-1.40627222788236e-07
1.05021858492879e-06
-1.52886758745803e-08
-1.62496972103716e-07
4.65965886667234e-06
-9.40470419364636e-08
-1.26875223967665e-07
5.8832669198503e-06
-1.97468547340381e-07
-1.51371780720674e-07
1.1261171496104e-06
-1.64776430208526e-08
-1.76456585561173e-07
6.41791808372051e-06
-2.97405361732768e-07
-1.62075094894192e-07
1.50017700729958e-06
-3.42210030554243e-08
-2.12171925380921e-07
7.41212763161418e-07
-6.81049621101621e-09
-2.13835357989607e-07
4.89860575442675e-06
-1.01621014142789e-07
-1.37322558323944e-07
6.16314585385004e-06
-2.11184830800019e-07
-1.62728601396613e-07
1.20943032821006e-06
-1.84240593083691e-08
-1.91761681998087e-07
6.71172047856148e-06
-3.16323385216287e-07
-1.74933243748892e-07
1.59899091601354e-06
-3.73526318469084e-08
-2.29306749681324e-07
8.05247653354817e-07
-7.8564648700375e-09
-2.32634520757648e-07
7.25242932353179e-06
-4.20298102913505e-07
-1.8136874468602e-07
1.78269560935892e-06
-5.18692834864203e-08
-2.50176476620988e-07
1.0004320803478e-06
-1.63362060530974e-08
-2.74969307027272e-07
6.94780361827214e-07
-6.12605461619218e-09
-2.65242871385917e-07
5.15792383721061e-06
-1.10690178024972e-07
-1.48625273872923e-07
6.46464618015155e-06
-2.28220187779913e-07
-1.74892755588881e-07
1.30172063642251e-06
-2.1192376928724e-08
-2.08416975159051e-07
7.02702551938409e-06
-3.39033336890354e-07
-1.87448557430478e-07
1.70719298617304e-06
-4.17434075978701e-08
-2.47607603452716e-07
8.76179468602595e-07
-9.48342494895811e-09
-2.53209375034534e-07
7.57911809767803e-06
-4.47341407125498e-07
-1.95661634031042e-07
1.89786725506775e-06
-5.70619210744251e-08
-2.70389961294916e-07
1.07984125905332e-06
-1.88363390410991e-08
-2.97734224112002e-07
7.58255505889034e-07
-7.31513609504488e-09
-2.88794044606975e-07
7.89684852255981e-06
-5.53182214554127e-07
-1.92679604668375e-07
2.02789087938876e-06
-7.03036267832312e-08
-2.81342787207505e-07
1.19536271575775e-06
-2.35970560249648e-08
-3.27779176759497e-07
8.8470172159351e-07
-1.2341510879889e-08
-3.37616138723678e-07
6.94138152776417e-07
-6.48561464803553e-09
-3.16994015586362e-07
5.44038496495483e-06
-1.21057688789384e-07
-1.613978791046e-07
6.79041298911643e-06
-2.48254680619812e-07
-1.88189838695253e-07
1.4044856981497e-06
-2.46764777449348e-08
-2.26710554493054e-07
7.36598202052214e-06
-3.66093713599341e-07
-2.01075501602473e-07
1.82624618394557e-06
-4.76443256926513e-08
-2.6748811469284e-07
9.55261532675431e-07
-1.17184237220061e-08
-2.75780050548897e-07
7.92972980775826e-06
-4.79645753318875e-07
-2.0998569336455e-07
2.02387083749433e-06
-6.38905398603895e-08
-2.91298948731428e-07
1.16759597434206e-06
-2.24337407982596e-08
-3.224105969003e-07
8.28644481466233e-07
-8.90503253524615e-09
-3.14692797095108e-07
8.24586362808497e-06
-5.88581852034631e-07
-2.07759931322946e-07
2.15673949823437e-06
-7.74929132885469e-08
-3.0407383152958e-07
1.28842608086635e-06
-2.76411762533179e-08
-3.54647736956796e-07
9.60507126182693e-07
-1.48802999471408e-08
-3.65973627390875e-07
7.5839963250797e-07
-7.73720564439446e-09
-3.45318086608971e-07
8.26428477679889e-06
-6.92306707265816e-07
-1.95454569677515e-07
2.17809656448315e-06
-9.20619565870015e-08
-2.96248140107957e-07
1.34674903661413e-06
-3.02074331648338e-08
-3.6919029209187e-07
1.04362284757473e-06
-1.92495397712148e-08
-4.00990212656298e-07
8.46838128239652e-07
-1.34291463076399e-08
-3.98446538481434e-07
7.00466920346805e-07
-6.78272910411208e-09
-3.68820969956499e-07
5.74878617810892e-06
-1.32912390653889e-07
-1.75485553829136e-07
7.14346888382708e-06
-2.71460343295574e-07
-2.02642661884005e-07
1.51920152020989e-06
-2.91083446496892e-08
-2.47002364000592e-07
7.73163376740466e-06
-3.97748873545104e-07
-2.16146346936631e-07
1.95776722669465e-06
-5.50381242013713e-08
-2.89343135989448e-07
1.04377185205601e-06
-1.45457510952411e-08
-3.0067457519494e-07
8.30602059682326e-06
-5.17128966619289e-07
-2.25246338603259e-07
2.16227187583014e-06
-7.28369017774647e-08
-3.14280238904202e-07
1.2649628978695e-06
-2.71367652631443e-08
-3.49435648591533e-07
9.07051643902975e-07
-1.09671313820756e-08
-3.43219515815713e-07
8.62010240442278e-06
-6.30439567633386e-07
-2.23431864239139e-07
2.29746724291229e-06
-8.68841835604338e-08
-3.27716845468353e-07
1.39123861637225e-06
-3.29678100208314e-08
-3.83575692683987e-07
1.04442179892462e-06
-1.82674376209228e-08
-3.96962188939511e-07
8.29561818936076e-07
-9.32861301522544e-09
-3.7652614425942e-07
8.62223160058897e-06
-7.35591332397513e-07
-2.10930716564649e-07
2.31440280931043e-06
-1.01331498212222e-07
-3.20221879451019e-07
1.45015742506695e-06
-3.57017223785514e-08
-3.99420343603381e-07
1.13176552506911e-06
-2.32548908569922e-08
-4.34414733351531e-07
9.21500550795121e-07
-1.6057246989704e-08
-4.32315321889759e-07
7.65065527310603e-07
-8.04579683977783e-09
-4.01870569998519e-07
8.41649472796723e-06
-8.33601866208765e-07
-1.9288630426172e-07
2.2372102837712e-06
-1.17878296889895e-07
-2.96722647074783e-07
1.41421316137389e-06
-3.87587592798586e-08
-3.8617004496e-07
1.15927035385711e-06
-2.66648687934641e-08
-4.50028894589145e-07
9.82706312305243e-07
-2.1338426995407e-08
-4.7093711079125e-07
8.31798354856052e-07
-1.52493381881827e-08
-4.57077185551943e-07
7.05567201392391e-07
-7.23000729028935e-09
-4.20049686713762e-07
6.08644832760456e-06
-1.4661132535581e-07
-1.91043821371616e-07
7.52726973718943e-06
-2.98161339875013e-07
-2.18539580953715e-07
1.64764341316843e-06
-3.44108968452113e-08
-2.69512429359845e-07
8.12716657998947e-06
-4.34491382751272e-07
-2.3249089870509e-07
2.10359781766924e-06
-6.42338014641681e-08
-3.13343915570448e-07
1.14308441815927e-06
-1.81177157559331e-08
-3.28196599720418e-07
8.71095264233489e-06
-5.60696670370207e-07
-2.41974261881462e-07
2.31479181158985e-06
-8.41036329051002e-08
-3.395955920501e-07
1.37334609157554e-06
-3.30986907266239e-08
-3.79172381156023e-07
9.94664943999151e-07
-1.35802322121338e-08
-3.74707358290329e-07
9.02140119314105e-06
-6.78596870542521e-07
-2.39815361109555e-07
2.45174744086362e-06
-9.88656355117382e-08
-3.53491798358884e-07
1.50509247984719e-06
-3.99880081209489e-08
-4.15280790577625e-07
1.13762797402201e-06
-2.26282472685133e-08
-4.30979554297852e-07
9.08633534323972e-07
-1.13321189425476e-08
-4.10958898478388e-07
9.00526156433092e-06
-7.86530318504945e-07
-2.26926109116459e-07
2.46293285011808e-06
-1.13329449342207e-07
-3.45510540590544e-07
1.56420848910339e-06
-4.28123222287814e-08
-4.31921332337049e-07
1.22925876333496e-06
-2.84496753389211e-08
-4.70885656036722e-07
1.00407087012274e-06
-1.93821444344565e-08
-4.69478252609405e-07
8.36462207238055e-07
-9.62512224551275e-09
-4.38297461059593e-07
8.77322932963919e-06
-8.84062730784055e-07
-2.08246616074907e-07
2.37505546860297e-06
-1.29169294403967e-07
-3.20932746625572e-07
1.52186448584462e-06
-4.56004928299088e-08
-4.17972695296098e-07
1.25626133456818e-06
-3.21865032732385e-08
-4.87478753547012e-07
1.06841526541154e-06
-2.55090723793418e-08
-5.10670702354525e-07
9.05666914828267e-07
-1.79741107282779e-08
-4.9625483914819e-07
7.69885831704842e-07
-8.50250508444776e-09
-4.57686487745605e-07
8.45876637829591e-06
-9.7426743731359e-07
-1.88168651862337e-07
2.24006444499659e-06
-1.47155403587877e-07
-2.89125912894336e-07
1.41434089678307e-06
-5.02476039298068e-08
-3.83133371586563e-07
1.19817059996502e-06
-3.55689122413318e-08
-4.68201908847113e-07
1.07777611669314e-06
-3.10804989039129e-08
-5.25244279530848e-07
9.54476359390998e-07
-2.51963378735038e-08
-5.37428283465112e-07
8.25468550498019e-07
-1.7096120331149e-08
-5.13651704474055e-07
7.08482371319502e-07
-7.97224806773369e-09
-4.69981221391015e-07
6.45773873792749e-06
-1.62523695581999e-07
-2.08762504819019e-07
7.94588948691609e-06
-3.29028932117699e-07
-2.36186599958075e-07
1.79180285055732e-06
-4.07275870005296e-08
-2.94472300143307e-07
8.55646292022075e-06
-4.77131089889098e-07
-2.50312323378423e-07
2.26585117167076e-06
-7.54261194516095e-08
-3.39773168610359e-07
1.25478185788902e-06
-2.25387299947983e-08
-3.58670582188033e-07
9.14822442258307e-06
-6.11566752661931e-07
-2.60187554743478e-07
2.48351592118164e-06
-9.80783475779067e-08
-3.67363911473721e-07
1.49437320501446e-06
-4.05782842669407e-08
-4.11908778291813e-07
1.09281644504164e-06
-1.68475151101969e-08
-4.09500273723312e-07
9.45254010908541e-06
-7.34114399666142e-07
-2.57711466780877e-07
2.62145490594906e-06
-1.13929341871622e-07
-3.8184961100676e-07
1.63157794260216e-06
-4.89990442813836e-08
-4.50179721749748e-07
1.24144357759007e-06
-2.8150412827721e-08
-4.68416593059188e-07
9.96749759298431e-07
-1.38493968795791e-08
-4.48973781999897e-07
9.41508994707584e-06
-8.44791463872636e-07
-2.43624736257718e-07
2.62541517596587e-06
-1.28354612497318e-07
-3.72804224006478e-07
1.69035912594861e-06
-5.21259924623778e-08
-4.67502975310648e-07
1.33741790332071e-06
-3.5135881100737e-08
-5.10931439283747e-07
1.09565330122086e-06
-2.35506348574431e-08
-5.10342632482344e-07
9.15600392857258e-07
-1.15986375456404e-08
-4.78498235850287e-07
9.15404696667134e-06
-9.43166947459836e-07
-2.24168905402726e-07
2.52484807709396e-06
-1.43597321678407e-07
-3.46446197103907e-07
1.64028042663819e-06
-5.45232782252153e-08
-4.52214131621684e-07
1.36345347502365e-06
-3.9268264557376e-08
-5.28293807883478e-07
1.16314401214207e-06
-3.07789900878127e-08
-5.54216842731155e-07
9.87228262113864e-07
-2.13632618340959e-08
-5.39300917877307e-07
8.40822712263919e-07
-1.00759445990426e-08
-4.99158145546134e-07
8.8089587165749e-06
-1.03082282782062e-06
-2.03420605788553e-07
2.37583795151239e-06
-1.60231427615247e-07
-3.12951964421276e-07
1.52119294374347e-06
-5.8380363841618e-08
-4.15002504692839e-07
1.29798602634854e-06
-4.25873206812084e-08
-5.07385919527434e-07
1.17124830721776e-06
-3.6940749696852e-08
-5.69518317304203e-07
1.0385867391436e-06
-2.95822337029513e-08
-5.83172499888472e-07
8.98515248702088e-07
-1.99016997346266e-08
-5.57901771267251e-07
7.72063144708593e-07
-9.26916294176424e-09
-5.11997987911287e-07
8.46888846141812e-06
-1.11292620068759e-06
-1.83116229452755e-07
2.21813809187462e-06
-1.79591736813368e-07
-2.78185810334719e-07
1.3805774604789e-06
-6.43611267001142e-08
-3.70008525195245e-07
1.17993373718623e-06
-4.61114008049528e-08
-4.62112047224824e-07
1.10353458809631e-06
-4.20975397186986e-08
-5.44159489018498e-07
1.03915594491725e-06
-3.71772506793269e-08
-5.96251656637505e-07
9.42566076171401e-07
-2.91329022865203e-08
-6.00870201248446e-07
8.21917696018381e-07
-1.88934640393732e-08
-5.6835420314981e-07
7.09146296246337e-07
-8.85470399242171e-09
-5.18182381678303e-07
6.86744529651283e-06
-1.81209789610955e-07
-2.28491209204947e-07
8.40430974158255e-06
-3.65074771813851e-07
-2.55853361672374e-07
1.95380894280064e-06
-4.85001156480563e-08
-3.22265080858249e-07
9.02416802385639e-06
-5.26707695549268e-07
-2.70015064869032e-07
2.44687153991236e-06
-8.89698030235546e-08
-3.6895942610622e-07
1.38067003496627e-06
-2.79531898187235e-08
-3.92406646589363e-07
9.62207679854537e-06
-6.70841729499728e-07
-2.80130499385739e-07
2.67084650664727e-06
-1.15209110103613e-07
-3.97853831199432e-07
1.62988511524162e-06
-4.98457412433446e-08
-4.47976736054416e-07
1.20300133222655e-06
-2.08869746546503e-08
-4.47968190223809e-07
9.91685674850465e-06
-7.98735682821412e-07
-2.77135580109174e-07
2.80886728774929e-06
-1.3271017746297e-07
-4.12962675537932e-07
1.77256715319462e-06
-6.03643818546226e-08
-4.88565263537486e-07
1.35738731179261e-06
-3.50602440273292e-08
-5.09638693952011e-07
1.09519348325665e-06
-1.69783627482849e-08
-4.9096537739571e-07
9.85471867831903e-06
-9.11715602944e-07
-2.62013220042294e-07
2.80379891409755e-06
-1.47163954808121e-07
-4.02853086758105e-07
1.83030667879942e-06
-6.4118845455783e-08
-5.06675832911007e-07
1.45773948387911e-06
-4.36400483918203e-08
-5.55010303835958e-07
1.19750195022583e-06
-2.87786051589193e-08
-5.55335325549696e-07
1.00355450051926e-06
-1.40488306875426e-08
-5.2287885572514e-07
9.56041057208334e-06
-1.01031561892241e-06
-2.40824407860256e-07
2.68836120922041e-06
-1.61512805412673e-07
-3.73974729406859e-07
1.77110542839149e-06
-6.60903097278604e-08
-4.89662685282499e-07
1.4822696165154e-06
-4.83613739721672e-08
-5.73092046289748e-07
1.26814269574868e-06
-3.7407274201819e-08
-6.02072878475615e-07
1.07751875069219e-06
-2.55611974976876e-08
-5.86669743772448e-07
9.19261968804697e-07
-1.20234006665621e-08
-5.44913868187732e-07
9.18177188106181e-06
-1.09681553171757e-06
-2.19148571174843e-07
2.52298949432576e-06
-1.76827789033901e-07
-3.38084417071383e-07
1.63851954394608e-06
-6.89494518137175e-08
-4.49345147067292e-07
1.40818178547165e-06
-5.15647005502389e-08
-5.50112093306726e-07
1.27449756508198e-06
-4.42997396950162e-08
-6.18021534183339e-07
1.13141144658122e-06
-3.50209691726213e-08
-6.33383164176009e-07
9.79023431058972e-07
-2.33430982693609e-08
-6.06541535783943e-07
8.42035279278836e-07
-1.08571674369923e-08
-5.58272913743469e-07
8.81060561754163e-06
-1.17430829149687e-06
-1.98226918924408e-07
2.35018577344224e-06
-1.94127238792143e-07
-3.01563461453249e-07
1.48404261586662e-06
-7.36215999072394e-08
-4.01174029861861e-07
1.27805959345765e-06
-5.4532862982529e-08
-5.01181755220637e-07
1.19915215280234e-06
-4.9651318220409e-08
-5.9029181327643e-07
1.13044159758696e-06
-4.3403513941529e-08
-6.46982008403528e-07
1.02552568426638e-06
-3.37196710696733e-08
-6.52313624584122e-07
8.93939579877391e-07
-2.17723815636035e-08
-6.1741997918346e-07
7.71666733206796e-07
-1.01706328461494e-08
-5.64347606776338e-07
8.48983800923935e-06
-1.24893533684531e-06
-1.7892358831518e-07
2.1894019569393e-06
-2.15536731130666e-07
-2.66072427737965e-07
1.33484868137012e-06
-8.08443925373449e-08
-3.53038024181532e-07
1.13546125493125e-06
-5.8038177696247e-08
-4.44282989455e-07
1.07903749639046e-06
-5.38144907522588e-08
-5.35676366928709e-07
1.05988604304965e-06
-5.00628592426148e-08
-6.16048458760805e-07
1.02351726062882e-06
-4.2962287233894e-08
-6.64277794246482e-07
9.3707352682697e-07
-3.25290183950458e-08
-6.6179553812016e-07
8.17960828727782e-07
-2.08161623106747e-08
-6.20946666431908e-07
7.06725206497865e-07
-9.60989218718209e-09
-5.64470144368863e-07
7.32082122342641e-06
-2.03292187994608e-07
-2.50079231590847e-07
8.90813391117681e-06
-4.07245202781939e-07
-2.77767885326448e-07
2.13622134795384e-06
-5.78924482133075e-08
-3.53007146439538e-07
9.53550887383251e-06
-5.84468359825764e-07
-2.91937737298949e-07
2.64906342290048e-06
-1.05373536577466e-07
-4.01166656002906e-07
1.52268257708195e-06
-3.45878148791841e-08
-4.29689320398259e-07
1.01375846271689e-05
-7.40108365281677e-07
-3.02096373349029e-07
2.8794089076726e-06
-1.36109853726221e-07
-4.31431969091435e-07
1.78192140139161e-06
-6.12378523384301e-08
-4.87709411659823e-07
1.32689834282639e-06
-2.5840231045243e-08
-4.90462963859876e-07
1.04189024939988e-05
-8.74371961406518e-07
-2.98498705207441e-07
3.01654412248211e-06
-1.55874183188378e-07
-4.47137508770837e-07
1.93016838681067e-06
-7.45118831672727e-08
-5.30787613771396e-07
1.48716762400856e-06
-4.36160047267028e-08
-5.55027055091713e-07
1.20539214825917e-06
-2.08231874509571e-08
-5.37343250036592e-07
1.03272672579859e-05
-9.89221890859888e-07
-2.82047591911652e-07
3.00046357360701e-06
-1.70621841428489e-07
-4.35883894859543e-07
1.98606285309238e-06
-7.93138556748415e-08
-5.49767317242011e-07
1.59195202689428e-06
-5.43142733066498e-08
-6.0352291752047e-07
1.31104976662769e-06
-3.5279264850064e-08
-6.04884492375669e-07
1.10153891069606e-06
-1.70653063847369e-08
-5.71884193590825e-07
9.99501942217339e-06
-1.08719884309604e-06
-2.59116939283338e-07
2.86746638402646e-06
-1.8388050094748e-07
-4.04394508968188e-07
1.91604439024976e-06
-8.09786650620618e-08
-5.3093076507585e-07
1.61430898794691e-06
-5.99417641748712e-08
-6.22412132999321e-07
1.38481876516253e-06
-4.57136956290192e-08
-6.54750550462232e-07
1.17772716733376e-06
-3.07543353970837e-08
-6.38837802721804e-07
1.00621658674171e-06
-1.44183384542552e-08
-5.95414882526061e-07
9.57836662512981e-06
-1.17135142491957e-06
-2.3554512675995e-07
2.68315626680924e-06
-1.97272914844175e-07
-3.65226132786189e-07
1.76792570451838e-06
-8.25582300872843e-08
-4.86911197741593e-07
1.53022347428187e-06
-6.30408763804733e-08
-5.97023369746812e-07
1.38886023407135e-06
-5.35384605292223e-08
-6.71322855933526e-07
1.23412158441896e-06
-4.17493954135488e-08
-6.88594305751503e-07
1.0679691984428e-06
-2.75566442361375e-08
-6.60081761474155e-07
9.19230703889565e-07
-1.28007212167161e-08
-6.0930842535984e-07
9.17324231069027e-06
-1.24563361851488e-06
-2.13803687496423e-07
2.49287782877893e-06
-2.12487179222892e-07
-3.26175808350045e-07
1.59739948025577e-06
-8.56046312018942e-08
-4.34784726502205e-07
1.3862455780183e-06
-6.52677122886458e-08
-5.43826756421259e-07
1.30470008788841e-06
-5.91003860614856e-08
-6.40858078539274e-07
1.23114061611351e-06
-5.10837649835311e-08
-7.02657051995671e-07
1.11692645308445e-06
-3.9327244207161e-08
-7.08799085388871e-07
9.73168648166e-07
-2.52867090368395e-08
-6.71340693371104e-07
8.4032229695345e-07
-1.17637550271016e-08
-6.15164554369906e-07
8.82292068602846e-06
-1.31387545931872e-06
-1.93497324426944e-07
2.31718210556466e-06
-2.31203954884376e-07
-2.88924465832224e-07
1.43396792948217e-06
-9.10776690578847e-08
-3.83225544520507e-07
1.229783388506e-06
-6.77049493753771e-08
-4.82322143106456e-07
1.17270224577905e-06
-6.29496309727212e-08
-5.8154737230397e-07
1.1530902502481e-06
-5.81343336012125e-08
-6.68764601045343e-07
1.11346828638882e-06
-4.95021281616699e-08
-7.21149881589508e-07
1.01890071494535e-06
-3.72620105937197e-08
-7.18650689832831e-07
8.88675852955442e-07
-2.37365861874887e-08
-6.7456852871919e-07
7.67843549732793e-07
-1.09288759819277e-08
-6.14536962038881e-07
8.54255175732418e-06
-1.38193896493713e-06
-1.7603965200696e-07
2.16369630952635e-06
-2.55554898742594e-07
-2.54348829948178e-07
1.2863659722246e-06
-9.99367554456166e-08
-3.34476818345844e-07
1.08255647616925e-06
-7.1307659781984e-08
-4.22048786140758e-07
1.03197379428372e-06
-6.59993768895982e-08
-5.14005854816968e-07
1.03398458095404e-06
-6.30552308820468e-08
-6.05752371098053e-07
1.0432575632821e-06
-5.73492967340218e-08
-6.85309024319263e-07
1.01699934201897e-06
-4.76748595301339e-08
-7.30030127605449e-07
9.32093519096992e-07
-3.51931581738869e-08
-7.20810243183526e-07
8.11359273321897e-07
-2.2094913997918e-08
-6.71598770238756e-07
6.99731297474686e-07
-1.0169832141941e-08
-6.08647504359258e-07
7.82368262169634e-06
-2.29245121355363e-07
-2.73611649551977e-07
9.46354704699125e-06
-4.56727240994096e-07
-3.01965093333887e-07
2.34186140334028e-06
-6.8977268099863e-08
-3.86737922369452e-07
1.0096378641956e-05
-6.5184706110496e-07
-3.16249367884923e-07
2.8750111987448e-06
-1.25054007293457e-07
-4.36550069165548e-07
1.68299042386322e-06
-4.257742399654e-08
-4.70736665528355e-07
1.07004961964999e-05
-8.21034964106764e-07
-3.26328864683036e-07
3.11202638061723e-06
-1.61497363155364e-07
-4.68426250806917e-07
1.95271327328159e-06
-7.51435471105882e-08
-5.31401168377748e-07
1.46637084711959e-06
-3.18598872497586e-08
-5.37301254864881e-07
1.09639215480055e-05
-9.62940465967276e-07
-3.22173503458155e-07
3.24729918039839e-06
-1.84231922116837e-07
-4.84722788267982e-07
2.10669530594315e-06
-9.19758940105298e-08
-5.77218982256097e-07
1.63268936130332e-06
-5.41197836359673e-08
-6.04950401496464e-07
1.32894717091994e-06
-2.55101757265188e-08
-5.88507568498716e-07
1.08365025442793e-05
-1.07962679149602e-06
-3.03963956853304e-07
3.21799759051425e-06
-1.99667378958799e-07
-4.72233353978274e-07
2.15988941513851e-06
-9.83155748965489e-08
-5.97158727638948e-07
1.7419980435664e-06
-6.7559042391743e-08
-6.56889828113647e-07
1.43790432937502e-06
-4.32786191715903e-08
-6.59425410997734e-07
1.21091616496477e-06
-2.07492239608411e-08
-6.25970975004773e-07
1.0460996841972e-05
-1.17602069412512e-06
-2.79159423791834e-07
3.06445923624752e-06
-2.11711958575236e-07
-4.37943480956953e-07
2.07711085002488e-06
-9.98786127028537e-08
-5.76383683857306e-07
1.76142358387606e-06
-7.44999455661063e-08
-6.76694976781423e-07
1.51477832484482e-06
-5.60293157473966e-08
-7.12731592919249e-07
1.28920601657853e-06
-3.71371211486544e-08
-6.96290964799299e-07
1.10283282851077e-06
-1.73438852991867e-08
-6.51156341278106e-07
1.00010531821157e-05
-1.25629855313668e-06
-2.53573846150252e-07
2.85807638260731e-06
-2.2271619545048e-07
-3.9519611747197e-07
1.91102084703527e-06
-1.00101906840909e-07
-5.28364180790272e-07
1.665706257864e-06
-7.76437690978526e-08
-6.4871044048517e-07
1.51583975180863e-06
-6.50996970299896e-08
-7.30004657426873e-07
1.34804863084838e-06
-5.00566133823553e-08
-7.49374593114697e-07
1.16647812559865e-06
-3.27113183400949e-08
-7.19053305074808e-07
1.00460361385372e-06
-1.51686335181638e-08
-6.65618962080346e-07
9.55758250509319e-06
-1.32570884982133e-06
-2.29973418350791e-07
2.64772790474894e-06
-2.34950080697522e-07
-3.52713412638836e-07
1.722182185838e-06
-1.00975529184509e-07
-4.71589869256139e-07
1.50591713864282e-06
-7.89350456828723e-08
-5.90687572067408e-07
1.42152184932018e-06
-7.09264656934011e-08
-6.96456484966834e-07
1.342501855508e-06
-6.05581614952406e-08
-7.6387446312415e-07
1.21786995180907e-06
-4.61739715434856e-08
-7.70919936018128e-07
1.06052922892335e-06
-2.95581811689491e-08
-7.30684269284107e-07
9.15895131567952e-07
-1.36923910871893e-08
-6.71188674774154e-07
9.1750679268898e-06
-1.38898227654311e-06
-2.08781205521834e-07
2.45474126895103e-06
-2.50859218331109e-07
-3.1298516103231e-07
1.54222505297616e-06
-1.04221325592636e-07
-4.15814355753257e-07
1.33359002378568e-06
-7.99637337792012e-08
-5.23894100762138e-07
1.27599403481003e-06
-7.43373851873929e-08
-6.31880712492015e-07
1.25585232018377e-06
-6.80532210360161e-08
-7.26650062540095e-07
1.2125381481442e-06
-5.74596452814738e-08
-7.83593717500277e-07
1.10889178832477e-06
-4.29899747474608e-08
-7.81086608875166e-07
9.66315362168042e-07
-2.72629492287357e-08
-7.3348043077293e-07
8.34812067918164e-07
-1.25203441194347e-08
-6.69612566850174e-07
8.86792956296009e-06
-1.44903594334297e-06
-1.90206113842973e-07
2.28727865611288e-06
-2.72087169326504e-07
-2.7618755034565e-07
1.38089151638838e-06
-1.10960128555422e-07
-3.63565054881567e-07
1.17236151407463e-06
-8.20445210454609e-08
-4.58689348534033e-07
1.12181582052274e-06
-7.65420010853385e-08
-5.58570872734482e-07
1.12524899576709e-06
-7.28461103630419e-08
-6.58099011779054e-07
1.13514629854946e-06
-6.58390773949601e-08
-7.44315494191749e-07
1.10576987568278e-06
-5.44214399873462e-08
-7.92760383064219e-07
1.01249336857695e-06
-3.99886959228616e-08
-7.82798161224306e-07
8.80383610606959e-07
-2.50125146927773e-08
-7.29508811355227e-07
7.59019158485756e-07
-1.14765186769395e-08
-6.62348109499584e-07
8.63711531125038e-06
-1.51116037544857e-06
-1.75061414660512e-07
2.14752927850521e-06
-3.00653620224645e-07
-2.43505876908208e-07
1.23941605508542e-06
-1.22304918502253e-07
-3.15661823214986e-07
1.02779290928258e-06
-8.61147698694447e-08
-3.97944036422392e-07
9.77640298183158e-07
-7.8713734917869e-08
-4.87319176480334e-07
9.86899760271596e-07
-7.59630363139479e-08
-5.80862712895089e-07
1.01767994835533e-06
-7.15029902356423e-08
-6.73623668701472e-07
1.03697478955818e-06
-6.31759580782172e-08
-7.52556100637426e-07
1.01153323356713e-06
-5.10971795919786e-08
-7.93808497745949e-07
9.24174391315984e-07
-3.69003282344992e-08
-7.77812555543634e-07
8.0012055048763e-07
-2.27889453307609e-08
-7.20250484851948e-07
6.86741274905735e-07
-1.03301170519158e-08
8.38225379711829e-06
-2.59725673650098e-07
-2.98840606474803e-07
1.00774195104078e-05
-5.14818095391647e-07
-3.28278676850118e-07
2.5736131146474e-06
-8.18775092864817e-08
-4.2348133068689e-07
1.07137086853382e-05
-7.30876202249594e-07
-3.4316352363775e-07
3.1277633368838e-06
-1.48520780051157e-07
-4.75168081430064e-07
1.86399863783397e-06
-5.21022684759049e-08
-5.15643354300528e-07
1.13170300026303e-05
-9.15286327112987e-07
-3.53082259787875e-07
3.3717875111318e-06
-1.92031842880447e-07
-5.09027110026411e-07
2.14473788532701e-06
-9.19037125331398e-08
-5.79246509838585e-07
1.62347998823315e-06
-3.91052883166621e-08
-5.88739924831011e-07
1.15579596377737e-05
-1.06673728941638e-06
-3.48319608616834e-07
3.50423043758957e-06
-2.18716364464734e-07
-5.26033289166834e-07
2.30466592629283e-06
-1.13351779120164e-07
-6.28186475768035e-07
1.79605909495733e-06
-6.68990509744511e-08
-6.59730595655064e-07
1.46764616574495e-06
-3.11777842860199e-08
-6.44821975232215e-07
1.1387558067795e-05
-1.18566568996542e-06
-3.28314987170456e-07
3.45921010040464e-06
-2.35324232388413e-07
-5.12287888435668e-07
2.35427171470248e-06
-1.21839175104514e-07
-6.49239540400935e-07
1.91003387316533e-06
-8.38463647364579e-08
-7.15526955978412e-07
1.5798633105414e-06
-5.30385453396375e-08
-7.19380067486087e-07
1.33321409477051e-06
-2.52166613083752e-08
-6.85588598657363e-07
1.09619029653244e-05
-1.27930527343829e-06
-3.01213650740478e-07
3.28186104870643e-06
-2.46129139513533e-07
-4.74897497863808e-07
2.25657134335311e-06
-1.23582205329831e-07
-6.26425836479707e-07
1.9256921910121e-06
-9.25902079878537e-08
-7.36394187853494e-07
1.65983128220269e-06
-6.87190334722479e-08
-7.76501438739134e-07
1.41347740058746e-06
-4.49223651084601e-08
-7.59523047706174e-07
1.210405171058e-06
-2.08953422753578e-08
-7.12647700193191e-07
1.04524714175071e-05
-1.35415885398276e-06
-2.73263873048466e-07
3.04987586914921e-06
-2.54312904183316e-07
-4.28351391967569e-07
2.06972634184791e-06
-1.22423444613388e-07
-5.74101557323838e-07
1.81647394180598e-06
-9.60076965953394e-08
-7.05641945383482e-07
1.65715031048493e-06
-7.94402605526772e-08
-7.94593771207287e-07
1.4747033914109e-06
-6.02487635035304e-08
-8.16274174490602e-07
1.27583095814985e-06
-3.89872317767902e-08
-7.83999891678461e-07
1.09923740124134e-06
-1.80380806457495e-08
-7.27751862807107e-07
9.96564997788896e-06
-1.41663818838701e-06
-2.4770723781353e-07
2.81618184617584e-06
-2.62799014076362e-07
-3.81940521461554e-07
1.85988240188545e-06
-1.20763063946822e-07
-5.12233327124917e-07
1.63859278264238e-06
-9.63093168098158e-08
-6.42373555942168e-07
1.55111571766906e-06
-8.56976654031513e-08
-7.57705287092816e-07
1.46594487478258e-06
-7.22307051522067e-08
-8.31272951399426e-07
1.32961860578191e-06
-5.45261801425516e-08
-8.39307832974654e-07
1.15708506000146e-06
-3.47356113731901e-08
-7.96041603897094e-07
9.99284417544199e-07
-1.60218899996297e-08
-7.32986241773467e-07
9.54673521371752e-06
-1.47267202857242e-06
-2.24690663450671e-07
2.60348594958035e-06
-2.74759246709023e-07
-3.38899885415198e-07
1.66104659773169e-06
-1.20984652968755e-07
-4.5152324271455e-07
1.44820990944442e-06
-9.55178541641723e-08
-5.69625517069874e-07
1.39019899703764e-06
-8.85457720127091e-08
-6.8727216913479e-07
1.36942111142506e-06
-8.02538566836385e-08
-7.9032860989968e-07
1.3219018743787e-06
-6.71461314555093e-08
-8.52265433642116e-07
1.20808587847497e-06
-4.99135612562277e-08
-8.49758170721823e-07
1.0517500991023e-06
-3.15067077956997e-08
-7.98304167628664e-07
9.08364427133061e-07
-1.44375937504103e-08
-7.30303253033981e-07
9.21048984904104e-06
-1.52637458314664e-06
-2.0515455510155e-07
2.41968300331048e-06
-2.9274984562234e-07
-2.99286547026037e-07
1.48373305703554e-06
-1.25011046117971e-07
-3.95034764853137e-07
1.27095466883315e-06
-9.5568806808187e-08
-4.98800932467874e-07
1.22075335075668e-06
-8.96303824639014e-08
-6.07537588294752e-07
1.2257923014924e-06
-8.48414744886368e-08
-7.15635029310566e-07
1.23630671467476e-06
-7.61358499199791e-08
-8.09133595441784e-07
1.20337272335596e-06
-6.25475285985595e-08
-8.61638249085378e-07
1.10075055744438e-06
-4.57418550368566e-08
-8.50864473416977e-07
9.56014559257649e-07
-2.85080461068009e-08
-7.9312336739261e-07
8.23834033602987e-07
-1.30372349930166e-08
-7.21390044137941e-07
8.95593257545492e-06
-1.57891852741943e-06
-1.88919580330448e-07
2.26744804241007e-06
-3.17766687206356e-07
-2.64439626906237e-07
1.32948316719626e-06
-1.33854988472439e-07
-3.43358449458262e-07
1.11291873895824e-06
-9.77452483418593e-08
-4.32988559749607e-07
1.06303286784371e-06
-9.04704503595187e-08
-5.30151886528715e-07
1.07445023511263e-06
-8.72917161761276e-08
-6.31674886280515e-07
1.1077389773369e-06
-8.18136554246949e-08
-7.3218300288447e-07
1.12775196352971e-06
-7.19319002071116e-08
-8.17581771046585e-07
1.09881706954273e-06
-5.79228807236203e-08
-8.62109540669533e-07
1.00268111636012e-06
-4.16741802982128e-08
-8.44642706477591e-07
8.66956473270341e-07
-2.56527416979767e-08
-7.82168201093667e-07
7.43668881672908e-07
-1.15991117399141e-08
-7.07676483181645e-07
8.77332386594877e-06
-1.63446510022752e-06
-1.77353051663244e-07
2.14581087918576e-06
-3.52131246945831e-07
-2.3414526451203e-07
1.19757745473701e-06
-1.48655716826709e-07
-2.97266584737032e-07
9.74174570765058e-07
-1.03016324627749e-07
-3.73045506648846e-07
9.21587134408385e-07
-9.21513813261753e-08
-4.58439678656118e-07
9.32854162196593e-07
-8.88435221901119e-08
-5.50368629413247e-07
9.71208519339397e-07
-8.52199015312158e-08
-6.45965768542572e-07
1.01216860129922e-06
-7.82690429931822e-08
-7.39756151968974e-07