/*--------------------------------*- C++ -*----------------------------------*\
  =========                 |
  \\      /  F ield         | OpenFOAM: The Open Source CFD Toolbox
   \\    /   O peration     | Website:  https://openfoam.org
    \\  /    A nd           | Version:  12
     \\/     M anipulation  |
\*---------------------------------------------------------------------------*/
/*   Windows 32 and 64 bit porting by blueCAPE: http://www.bluecape.com.pt   *\
|  Based on Windows porting (2.0.x v4) by Symscape: http://www.symscape.com   |
\*---------------------------------------------------------------------------*/
FoamFile
{
    format      ascii;
    class       volVectorField;
    location    "100";
    object      U;
}
// * * * * * * * * * * * * * * * * * * * * * * * * * * * * * * * * * * * * * //

dimensions      [0 1 -1 0 0 0 0];

internalField   nonuniform List<vector> 
10140
(
(-2.00591972191335e-06 0.000800347647624797 2.8321890742912e-05)
(-1.75109288239134e-06 0.000850512043288575 3.14442301143641e-05)
(-1.05748802719775e-05 0.000960434277848121 3.33096201518784e-05)
(1.16004807709276e-06 0.000318593213630341 5.14018907396589e-05)
(-1.79365836584214e-06 0.000904234802049252 3.4832918567976e-05)
(-1.08238160322116e-05 0.0010157348662391 3.79100147030495e-05)
(1.24144048156349e-06 0.000350378129082176 5.7070762973605e-05)
(-1.88528195812146e-05 0.000982023550846024 3.41567451011585e-05)
(1.57507535596721e-06 0.000371579234200623 5.61732788592462e-05)
(1.06875669100988e-06 0.000296521855270623 8.17388652118744e-05)
(-2.22388088074017e-06 0.000963467033063418 3.82729349016171e-05)
(-1.15961402807124e-05 0.00107580967255699 4.14332092811949e-05)
(1.17778167936662e-06 0.000385106596643608 6.31488482354026e-05)
(-1.97729312165902e-05 0.00103739187960303 3.99241856529939e-05)
(1.47012192879776e-06 0.00040581089723233 6.24651009168852e-05)
(1.0157282697526e-06 0.000327784526482901 9.02609782934503e-05)
(-2.8586000168516e-05 0.000995715236125697 3.40394676541726e-05)
(2.86882281016762e-06 0.000379303045708688 5.72770541441903e-05)
(1.26853951207704e-06 0.000319894729345564 8.73883667022654e-05)
(7.21974413865024e-07 0.000310932626892876 0.000114013760957137)
(-2.86118211987758e-06 0.00102944803311856 4.23240244526497e-05)
(-1.32040601159057e-05 0.00114145466235198 4.50031101229811e-05)
(9.53784524377255e-07 0.000423968474558197 6.97139359854009e-05)
(-2.16549188684705e-05 0.0010978669164527 4.35348267767954e-05)
(1.03979359593113e-06 0.000443254444148556 6.87768673852317e-05)
(8.8433528077278e-07 0.000362247202518905 9.95774466127976e-05)
(-3.04515914377244e-05 0.00105076017757303 4.00197071510025e-05)
(2.52971028768739e-06 0.000413944539450026 6.40259532284737e-05)
(9.51021341032934e-07 0.000352417519325809 9.63864522289929e-05)
(5.93405037716918e-07 0.000343106397727559 0.000125519685632444)
(-3.96872940699978e-05 0.00100121816240915 3.28455313697969e-05)
(3.50631811561036e-06 0.000376726884104819 5.6614766404963e-05)
(2.43651924646621e-06 0.000320840737734831 8.83520679442999e-05)
(-9.03519343827877e-08 0.000324213707467752 0.000120387870506987)
(2.41982450279616e-07 0.000328340027464046 0.000145889675692184)
(-3.7240970827416e-06 0.00110301422535097 4.77338275238911e-05)
(-1.53780361476596e-05 0.00121404821363764 4.93596565924551e-05)
(6.05077284331344e-07 0.000467829519087149 7.70132253371194e-05)
(-2.46179074265706e-05 0.00116372431727629 4.70698146666008e-05)
(2.33735549611172e-07 0.000484897930136416 7.55379186478547e-05)
(6.58235082583341e-07 0.000400801678074297 0.000109835967805769)
(-3.35208993984803e-05 0.00111086199505231 4.37825503406688e-05)
(1.76351930936941e-06 0.000451721109954843 7.01470636816186e-05)
(3.83027874432157e-07 0.000388255099041543 0.000106045416202985)
(4.0592261912472e-07 0.000378677594369046 0.000138217666882195)
(-4.25859376939828e-05 0.00105531537457139 3.87401504525258e-05)
(2.95361672672778e-06 0.00041104301356404 6.35463922234246e-05)
(1.82417177558446e-06 0.000353513386307145 9.75591839041671e-05)
(-6.02948732573904e-07 0.000357160804493561 0.000132367188095806)
(6.53448909180543e-08 0.000361450042130345 0.000160334304555143)
(-5.20658339745212e-05 0.000997354808792259 3.06362184931192e-05)
(3.95963310443663e-06 0.000367249287759548 5.45256745451971e-05)
(3.31091282564432e-06 0.000314179776462631 8.72174741123596e-05)
(-3.78504592461539e-07 0.000322641018994327 0.000121235935583225)
(-1.44091362371327e-06 0.000337276843088723 0.000152448791731264)
(-3.31875845717926e-07 0.000344805816879032 0.000177295580442405)
(-4.72942850418437e-06 0.00118526260515299 5.36369108330796e-05)
(-1.80566370490755e-05 0.00129436530362425 5.44892407910693e-05)
(1.42362240623255e-07 0.000517511679051286 8.53160346683723e-05)
(-2.84153099518153e-05 0.00123644869768443 5.15231661350478e-05)
(-9.04731937950489e-07 0.000531623034300064 8.31743761039622e-05)
(3.31768841692049e-07 0.000444194999840029 0.000121250486899641)
(-3.77833778956996e-05 0.00117623590894453 4.72716884505032e-05)
(4.21813199126786e-07 0.000493636036916982 7.69261309288767e-05)
(-4.42377378350283e-07 0.000428180458922222 0.000116659355293194)
(1.44972564984802e-07 0.000418333817583391 0.00015226065492243)
(-4.69014306395408e-05 0.00111428539543176 4.25744847592049e-05)
(1.76390314844648e-06 0.000448403097490247 6.99333792005161e-05)
(8.63952071829284e-07 0.000389468127592332 0.000107331070506849)
(-1.31441736101024e-06 0.000393567682401859 0.000145510521145544)
(-1.61760017397549e-07 0.000398054302061967 0.00017632514098945)
(-5.58475749569502e-05 0.00104993987392436 3.65974954225934e-05)
(3.05855623649435e-06 0.000400671449508453 6.13914907982033e-05)
(2.36364987755257e-06 0.000346420890001081 9.65364208273514e-05)
(-1.28413931270831e-06 0.00035558617313442 0.000133391870631896)
(-2.07040115621432e-06 0.00037091665637039 0.000167363182110393)
(-5.40022991773944e-07 0.000378684327803476 0.000194620425776145)
(-6.56289533438581e-05 0.000985625976740484 2.82597857743378e-05)
(3.83125224810537e-06 0.000352724878910708 5.13754248083891e-05)
(4.02877695207026e-06 0.00030136952273979 8.39478185533562e-05)
(-8.09336305610676e-07 0.00031458008314608 0.000119417344490237)
(-3.14929570366339e-06 0.000334538717300529 0.00015293600121665)
(-2.68789048406349e-06 0.000350881918438044 0.000183565276581381)
(-8.8866569453148e-07 0.000359357463023861 0.000208025312397097)
(-5.8222708883609e-06 0.0012773408027331 5.98895532603051e-05)
(-2.12928086777948e-05 0.00138354052362985 6.030390523226e-05)
(-4.63543546619441e-07 0.000574019020701859 9.47444792652103e-05)
(-3.31169633900954e-05 0.0013166642053092 5.67107811381278e-05)
(-2.49428022221579e-06 0.000584264924257461 9.17955546019151e-05)
(-1.15550555238261e-07 0.00049320032156022 0.000133990720908493)
(-4.31899514274164e-05 0.00124824685996935 5.16683863137125e-05)
(-1.50859460041968e-06 0.000540557263130027 8.4653058637987e-05)
(-1.56678403235849e-06 0.000472955421680535 0.000128482779061865)
(-2.12625842979139e-07 0.000462754304687508 0.000167860269170607)
(-5.25097598883659e-05 0.00117826342162097 4.59796304022448e-05)
(-1.71205530378829e-07 0.000489737014830414 7.67556273290289e-05)
(-5.3188905879085e-07 0.000429421566180687 0.000118072747661282)
(-2.24842647130514e-06 0.000434050077410928 0.000160036308191214)
(-4.54297988305284e-07 0.000438718538285702 0.000194051339402004)
(-6.13254179686954e-05 0.00110708885093295 4.03467760805354e-05)
(1.38122202039295e-06 0.000437017665429413 6.79680966490565e-05)
(9.56974957728285e-07 0.000381851021117934 0.000106359248939397)
(-2.50091953795412e-06 0.00039196317058905 0.000146691916889556)
(-2.88619314727152e-06 0.000408088220332698 0.000183831726039546)
(-7.98774023909531e-07 0.000416078147210193 0.000213800798859344)
(-7.00869204061337e-05 0.00103618513777364 3.41372091159916e-05)
(2.64602495776955e-06 0.000384892615368382 5.81021052465217e-05)
(2.76585541030948e-06 0.000332677386666401 9.32036654700244e-05)
(-2.14860097508698e-06 0.000347026725536319 0.000131595424997627)
(-4.26268319260296e-06 0.00036806259885947 0.000167994118887028)
(-3.39410951766327e-06 0.000385117260819161 0.000201321472561273)
(-1.12119722182398e-06 0.00039377647861434 0.000228134106795922)
(-8.03710847491548e-05 0.000969269542960044 2.59423965127395e-05)
(2.87613023363968e-06 0.000334650416688778 4.71727485454058e-05)
(4.41330287804887e-06 0.000284128185612116 7.8879687790911e-05)
(-1.35417676487488e-06 0.000300822671581306 0.000114874670380846)
(-4.92315369876384e-06 0.000325795680418369 0.000150271276332971)
(-5.44682060111239e-06 0.000347137420649628 0.000183418311345497)
(-3.78061862110117e-06 0.00036319323876505 0.000213752949201703)
(-1.32589935674888e-06 0.00037123814339486 0.000237907092644227)
(-6.95130358972206e-06 0.00138086656524659 6.74859587878992e-05)
(-2.52137369540553e-05 0.0014828779141425 6.68156605102604e-05)
(-1.2505735789032e-06 0.000638315353384435 0.000105377843572411)
(-3.88001988454747e-05 0.00140544905524488 6.25122601520466e-05)
(-4.5528568278536e-06 0.00064381189932355 0.000101542753053778)
(-7.10188338554304e-07 0.000548684581486874 0.000148258340962537)
(-4.99220533072808e-05 0.00132753481948873 5.6865590880594e-05)
(-4.13965951243331e-06 0.00059329642546009 9.34168588861361e-05)
(-3.08168572982642e-06 0.000523381760238333 0.000141682899567926)
(-6.88714598265263e-07 0.000512668372125759 0.000185221548266243)
(-5.95600622815228e-05 0.00124879016280524 5.02946018670788e-05)
(-2.94083586763784e-06 0.000535933809383364 8.44970979602382e-05)
(-2.46208591938596e-06 0.000474145556968288 0.000130063236174237)
(-3.47414116409595e-06 0.000479298759690029 0.000176166694151509)
(-8.3919125024303e-07 0.000484071396457496 0.000213722078350698)
(-6.82241080255657e-05 0.00116890111093038 4.35899090048474e-05)
(-1.14557369230375e-06 0.000477097454289495 7.46923487110083e-05)
(-1.07042951481848e-06 0.000421136696001461 0.000117123150754041)
(-4.11447261807197e-06 0.000432339177285974 0.000161397988259552)
(-3.90954566548261e-06 0.000449313825227502 0.000202063655260755)
(-1.12560487317309e-06 0.000457499372073158 0.00023506140339059)
(-7.65484506018508e-05 0.00109096421943855 3.78075460207395e-05)
(5.72424532332076e-07 0.000419724078941088 6.44914594224097e-05)
(8.99485228289201e-07 0.000367027850297865 0.000102934871839489)
(-3.93204621849537e-06 0.000382821736638805 0.000144895805941668)
(-5.6870468282283e-06 0.000405095259042703 0.000184615143921019)
(-4.2846565491039e-06 0.000422898129752396 0.000220954167122246)
(-1.40626110421173e-06 0.000431692000207898 0.000250378703251887)
(-8.52912916856762e-05 0.00101746772339616 3.16702425827616e-05)
(1.54028977503024e-06 0.00036523536437567 5.36629559115895e-05)
(2.89244304790325e-06 0.000314118688377033 8.79154717520653e-05)
(-3.1100384343552e-06 0.000332301008045076 0.000126874203813918)
(-6.58093507290933e-06 0.000358772541221005 0.000165280816195344)
(-6.70954741410316e-06 0.000381173771124318 0.000201283619640434)
(-4.54720865412838e-06 0.000397832188413911 0.0002342435094206)
(-1.575979239486e-06 0.000405919017892584 0.000260677804536766)
(-9.64295819662354e-05 0.000951435481905522 2.35068555854778e-05)
(8.42390080781163e-07 0.000314314891189629 4.19954127077924e-05)
(4.24807952780853e-06 0.000263952793827772 7.24106651629075e-05)
(-2.06224603676922e-06 0.000282877655577461 0.000108065891574571)
(-6.77348851043015e-06 0.000311702943419642 0.000144489132361143)
(-8.30597250185701e-06 0.000337844534884284 0.000179856233994136)
(-7.25159258796929e-06 0.000358512246808745 0.000212917472853674)
(-4.71166636092554e-06 0.000373334289536594 0.000243053338338028)
(-1.61212775516932e-06 0.000379770255210434 0.000266866662926289)
(-8.38356575407844e-06 0.00149779459286403 7.61752007560947e-05)
(-2.99743016428441e-05 0.00159396166261965 7.43095382700501e-05)
(-2.25066891935437e-06 0.000711517422074819 0.000117433751722977)
(-4.56016929372354e-05 0.00150424720509048 6.90583473502692e-05)
(-7.16321345510365e-06 0.000711293968196056 0.000112569310167914)
(-1.48019893250911e-06 0.000611585978000854 0.000164250024852757)
(-5.82097664593037e-05 0.00141517313217211 6.28478747178343e-05)
(-7.58713898905647e-06 0.000652828736916388 0.000103316778417883)
(-5.05563108947825e-06 0.000580345955034624 0.000156445102581247)
(-1.30493654542002e-06 0.000568880619946005 0.000204571933890055)
(-6.83441210258981e-05 0.00132624100947888 5.54014646124014e-05)
(-6.70736683882379e-06 0.000587788269141965 9.33069529909265e-05)
(-5.04819790634132e-06 0.000524451684285868 0.000143461657832478)
(-5.06774146290183e-06 0.000530066875796859 0.000194104996245684)
(-1.33736369812636e-06 0.00053481151525528 0.000235572550162689)
(-7.67920510977961e-05 0.00123693779978874 4.77921753234238e-05)
(-4.73226875914205e-06 0.000521837337931056 8.23134643120732e-05)
(-3.87473193716632e-06 0.000465058633929071 0.000129146683466654)
(-6.24030671577194e-06 0.000477414872347957 0.000177743543169173)
(-5.21693673255492e-06 0.000495232018618006 0.000222286508122027)
(-1.54038387109169e-06 0.000503539631685146 0.000258633209271362)
(-8.4573103014977e-05 0.00115002492716887 4.09055020314675e-05)
(-2.46788045782044e-06 0.000458031947687653 7.09523437511197e-05)
(-1.75444921817155e-06 0.000405037097821308 0.000113562549805546)
(-6.30256513300586e-06 0.000422491660565419 0.000159598805962831)
(-7.49622319926962e-06 0.000446122600717093 0.000203019506105223)
(-5.38717872527796e-06 0.000464695678239883 0.000242691266492136)
(-1.75854131636272e-06 0.000473579282101478 0.000275014855857533)
(-9.24880794466361e-05 0.00106948084110624 3.52139672818876e-05)
(-8.22306029159174e-07 0.000398233867774646 5.98304799162781e-05)
(6.24913904309063e-07 0.000346960668275692 9.73963899155139e-05)
(-5.46168160233368e-06 0.000366994460085872 0.000139980907375095)
(-8.68348434410639e-06 0.000395180726181211 0.000181845011766167)
(-8.28501721726991e-06 0.000418731758753606 0.000221028797354185)
(-5.49350920476999e-06 0.000435988686028289 0.000256890383109598)
(-1.87915020690727e-06 0.000444040118176249 0.00028584039106329)
(-0.000101596393364222 0.000997075229039514 2.90555337444971e-05)
(-5.44100915606977e-07 0.000343146730578784 4.8372498029907e-05)
(2.53739846214588e-06 0.00029237309827697 8.1125838050408e-05)
(-4.19267851520622e-06 0.000313030584270364 0.000119720417064948)
(-8.94914340010286e-06 0.000343699792342506 0.0001592283914149)
(-1.01896026951894e-05 0.000371289202818861 0.000197601046714415)
(-8.62216898957217e-06 0.000392885872889317 0.00023347007066654)
(-5.52214317445306e-06 0.000408129281261098 0.00026616098637495)
(-1.86886001640384e-06 0.000414401956687326 0.000292163803452536)
(-0.000114220825553038 0.000934432297164964 2.08529026678125e-05)
(-2.64358998103988e-06 0.000292762001352548 3.61214868456855e-05)
(3.33938314140158e-06 0.000241896748740924 6.48203214048751e-05)
(-3.08280988087998e-06 0.000262131825820681 9.95381536544746e-05)
(-8.689571750157e-06 0.000293608241592433 0.000136154685677358)
(-1.12602920995356e-05 0.00032356300657698 0.000172945695771997)
(-1.0985248098652e-05 0.0003487333966554 0.000208510120108249)
(-8.68608351752492e-06 0.000367872564246357 0.000241570783159496)
(-5.38367193722699e-06 0.000380574410857214 0.000271518474144438)
(-1.79887596264073e-06 0.0003844440932094 0.000294862154561943)
(-1.03394336426795e-05 0.0016298206371673 8.56008887773819e-05)
(-3.57023627586371e-05 0.00171855038361133 8.28494515690285e-05)
(-3.49095366363017e-06 0.000794940862980949 0.000130958006588209)
(-5.38352260890333e-05 0.00161461621382704 7.65952773080238e-05)
(-1.04889333026933e-05 0.000787853289149229 0.000124983640744135)
(-2.45338152181894e-06 0.000682978037926306 0.000182141175683832)
(-6.83167928073004e-05 0.00151256190243621 6.96045454666175e-05)
(-1.20064106198926e-05 0.00072020001001739 0.000114500110638043)
(-7.57454101622528e-06 0.000644803308851658 0.000172960977931824)
(-2.08699367892953e-06 0.000632282063182371 0.000226126914331173)
(-7.91896212173813e-05 0.0014116852949404 6.13532327060705e-05)
(-1.16575016297151e-05 0.00064624682179666 0.000103294065327649)
(-8.41348646550212e-06 0.000581225079390061 0.000158443476838343)
(-7.09835677818623e-06 0.000587173481072746 0.000214070180984414)
(-1.96728910324843e-06 0.000591699724253649 0.000259850859730331)
(-8.74503363026876e-05 0.001311639011004 5.28030232156843e-05)
(-9.61303997813272e-06 0.000572016910412396 9.10451043140814e-05)
(-7.61941642312696e-06 0.000514419035613071 0.000142602633343084)
(-8.99524982586458e-06 0.000527951905826555 0.000195928141653164)
(-6.87721619050879e-06 0.000546552363141158 0.000244732964301705)
(-2.06217016950354e-06 0.00055485487072793 0.000284776929781518)
(-9.44631604009857e-05 0.00121492468782632 4.48953174583395e-05)
(-6.76396642208987e-06 0.000500745279782242 7.83350340215976e-05)
(-5.4139978765586e-06 0.000447487784209847 0.000125445877278939)
(-9.42314387665295e-06 0.000466734709736004 0.000175954952944661)
(-9.80191585225114e-06 0.000491784728101047 0.000223441534551727)
(-6.76063226830976e-06 0.000511106827950293 0.000266778260017668)
(-2.19457529079162e-06 0.000519995561800014 0.000302306270332566)
(-0.000101368913409957 0.00112537174856939 3.81197904093597e-05)
(-4.26489816339409e-06 0.000434445490742489 6.60624994412142e-05)
(-2.57851141618366e-06 0.000383233669027668 0.000107735348305564)
(-8.58757755886478e-06 0.000405392123653041 0.000154472904461433)
(-1.13587917018661e-05 0.000435470609782992 0.000200193574695595)
(-1.02411530643492e-05 0.000460253367116676 0.000242888723608888)
(-6.64999320079782e-06 0.000478105439616255 0.000281951341708202)
(-2.24737160678216e-06 0.000486047674363481 0.000313684833030097)
(-0.000109283244063322 0.00104608795057962 3.25028207111271e-05)
(-3.07006614615933e-06 0.000374113928943835 5.43852696282125e-05)
(-3.56585281646842e-08 0.000323410452958149 9.02544981175504e-05)
(-7.06229212050358e-06 0.000346221923636555 0.00013245980377134)
(-1.1727430199703e-05 0.000379003567364737 0.000175508694412368)
(-1.25207266543679e-05 0.00040818230779592 0.000217220900698799)
(-1.02998192562308e-05 0.000430750980944477 0.000256174121713801)
(-6.50594824348349e-06 0.000446380388945662 0.000291676454633165)
(-2.17760332757667e-06 0.000452382167563186 0.000320090580633741)
(-0.000119345544450349 0.000977406161135502 2.60937784506367e-05)
(-3.97446717509347e-06 0.000319744440119108 4.23502440956346e-05)
(1.50576677162783e-06 0.000268602233584366 7.31492206895065e-05)
(-5.52765262466197e-06 0.000290721328908163 0.000110723142183772)
(-1.13494027251994e-05 0.000324287827417241 0.000150437384643087)
(-1.37447634758255e-05 0.000356019320261577 0.000190336849838816)
(-1.30209109732264e-05 0.000382479483696202 0.00022887872074487)
(-1.01275719261549e-05 0.000402356867429456 0.000264690136629002)
(-6.21343859567673e-06 0.000415241858434167 0.000297122551537476)
(-2.06133087929853e-06 0.000418676752488907 0.00032255038827402)
(-0.000134168455988946 0.000919627935399359 1.80257059665258e-05)
(-7.93074635928685e-06 0.000270813373235771 2.99039258768902e-05)
(1.49701386138874e-06 0.000218690601743523 5.62203064329423e-05)
(-4.53777576222639e-06 0.000239546528241509 8.96544153810833e-05)
(-1.07281918261496e-05 0.000272768572540645 0.000125866151725564)
(-1.42096595768297e-05 0.000305480971356025 0.000163286794944656)
(-1.48136162278823e-05 0.000334324729020195 0.000200600056563458)
(-1.30350970162337e-05 0.000357717397176301 0.000236405799270561)
(-9.73762212337462e-06 0.00037455619423519 0.000269432563521633)
(-5.83949490939049e-06 0.000384304343125015 0.000299094663807814)
(-1.8891050755637e-06 0.000384838614873018 0.000321838167331117)
(-1.27508846213574e-05 0.00177927960834522 9.59228392799376e-05)
(-4.25800755711814e-05 0.00185854346280827 9.24704414743906e-05)
(-5.00312444269293e-06 0.000890034576227612 0.000146042733121881)
(-6.37278727013844e-05 0.00173805972620473 8.51471437863616e-05)
(-1.46099653396186e-05 0.000874706231463141 0.000138923430603957)
(-3.66548213865584e-06 0.000764005204078144 0.000202075140663549)
(-8.04549793082268e-05 0.00162121770402504 7.71317220746937e-05)
(-1.75939608990598e-05 0.000796529426148691 0.000127128678938817)
(-1.07437606905218e-05 0.000717793699598675 0.000191409288369502)
(-3.06100184501128e-06 0.000703867300118885 0.000250084540607513)
(-9.25084202035172e-05 0.00150650915035194 6.82349364233423e-05)
(-1.80250997004826e-05 0.00071233518208282 0.000114578898393019)
(-1.27086490173776e-05 0.000645410716986701 0.00017520035608737)
(-9.64554708551593e-06 0.000651511578994181 0.000236277809803976)
(-2.75122755400887e-06 0.000655583722222182 0.000286799870627823)
(-0.000100636047535369 0.00139382971044629 5.86025273068311e-05)
(-1.60325933103831e-05 0.000628521228072186 0.000100981552530924)
(-1.24828680984956e-05 0.00057007893155325 0.000157663698916095)
(-1.24986079081832e-05 0.000584763946016159 0.000216163723046487)
(-8.95277279154487e-06 0.000604045032086513 0.000269646111434076)
(-2.71006831517935e-06 0.000612171267740349 0.000313764556214716)
(-0.000106708938773165 0.00128595246026131 4.96920820876843e-05)
(-1.26217465024072e-05 0.000548610010721172 8.68877844604682e-05)
(-1.02958126416865e-05 0.000495157932179239 0.000138773532426124)
(-1.34545112924835e-05 0.000516305369961121 0.000194165157568288)
(-1.27147057381008e-05 0.000542790211536089 0.0002461092872099)
(-8.46658062568201e-06 0.000562799876186053 0.00029347423773369)
(-2.73239463416652e-06 0.000571564393524933 0.000332538888249172)
(-0.00011230299100154 0.00118666512258819 4.19054797577552e-05)
(-9.12698561316721e-06 0.000474737235294362 7.31238312176688e-05)
(-6.99328960547825e-06 0.000423690502924861 0.000119318536744502)
(-1.26966145256807e-05 0.000448175663864263 0.000170612862361955)
(-1.47624136250611e-05 0.000480275156668038 0.000220568414228312)
(-1.26759156587526e-05 0.000506330807631768 0.00026712033222332)
(-8.06904718600959e-06 0.000524741923054857 0.000309699365536777)
(-2.69677749723651e-06 0.000532471972749511 0.000344504579608623)
(-0.000118742392038491 0.00109854531743545 3.52279379472995e-05)
(-6.76221630955086e-06 0.000408000137352569 6.04027487499066e-05)
(-3.6719131768104e-06 0.000357622903663962 0.000100210597574597)
(-1.08743234240411e-05 0.000382905205140422 0.000146557965499181)
(-1.52714509747294e-05 0.000418031180931942 0.000193558890176828)
(-1.54162304536831e-05 0.000448933233453288 0.000238952751126412)
(-1.23511639754841e-05 0.000472518615303851 0.000281294598539642)
(-7.69140938921896e-06 0.000488504489450342 0.000319891352299959)
(-2.54939065643845e-06 0.000494130868420341 0.000350968046435902)
(-0.000127242893607719 0.00102324391337326 2.94676205432955e-05)
(-6.52329370915286e-06 0.00034855840365757 4.81979845370913e-05)
(-1.26971021682793e-06 0.000297656242853092 8.18692455594978e-05)
(-8.83041603569587e-06 0.000322136847488772 0.000122964798955417)
(-1.47582588599529e-05 0.000358111534618302 0.000166238703639601)
(-1.68347345953448e-05 0.000391807401646566 0.000209587236307537)
(-1.55036858817322e-05 0.000419645477873525 0.000251390688833394)
(-1.18668970205334e-05 0.000440266883950616 0.000290209489060959)
(-7.20981313269924e-06 0.000453271375713546 0.000325365858153106)
(-2.37184541443369e-06 0.000456135977311109 0.000353085895077544)
(-0.000139016049643792 0.000959949753395568 2.28746024287554e-05)
(-9.1146092934349e-06 0.000295913200980477 3.57096457465397e-05)
(-3.9619386563165e-07 0.000243601109441955 6.41117096038497e-05)
(-7.2315061199941e-06 0.000266428001859361 0.00010026785143911)
(-1.38141744033011e-05 0.000301901738683394 0.000139548104194634)
(-1.72648627442877e-05 0.000336634979559389 0.00018012564469477)
(-1.75113101898313e-05 0.000367079384995196 0.000220543978151566)
(-1.51657647516088e-05 0.00039154869549355 0.000259289683902094)
(-1.12134604431103e-05 0.000408878492576532 0.000295004517816526)
(-6.67775948945209e-06 0.000418523144006849 0.000327068116279173)
(-2.14928974453854e-06 0.00041830627618455 0.000351784885509906)
(-0.00015658254447929 0.000907879721212628 1.5055229882959e-05)
(-1.53788297313434e-05 0.000249123209094675 2.32578448358565e-05)
(-1.5206603071331e-06 0.000194881059455112 4.70166761037218e-05)
(-6.52727136131494e-06 0.000215795672423315 7.86089827802384e-05)
(-1.29416894147064e-05 0.000250097120602147 0.000114025865410751)
(-1.71308920873344e-05 0.000284745229754656 0.000151493912275585)
(-1.85908566703255e-05 0.000316342635505632 0.000189783127528744)
(-1.75382197342174e-05 0.000343268135916212 0.000227610890832988)
(-1.4543086613445e-05 0.000364179396440834 0.000263591764935176)
(-1.04391524376614e-05 0.000377956453103322 0.000296485062526366)
(-6.07713432370849e-06 0.000384053971693609 0.000325702424059748)
(-1.9171674784313e-06 0.00038068961595402 0.000347673106777538)
(-1.57439775989705e-05 0.00194840315123865 0.000107237138200275)
(-5.08495678750604e-05 0.0020160986465056 0.000103233509338624)
(-6.82395011224794e-06 0.00099837103396375 0.000162769526250334)
(-7.56420319187821e-05 0.00187638481140588 9.48314896274379e-05)
(-1.9588581159685e-05 0.000973205552464533 0.00015448131343221)
(-5.13544674340983e-06 0.000855943455750645 0.000224137562030294)
(-9.49209116192027e-05 0.00174273495363579 8.55977455261104e-05)
(-2.4516317762702e-05 0.000883017703326984 0.000141324796518999)
(-1.46299536122098e-05 0.000800465298397814 0.000211915786542142)
(-4.25851392682021e-06 0.00078473338876779 0.000276619752610761)
(-0.000108671635547932 0.00161214937802248 7.59848131332935e-05)
(-2.6051429321741e-05 0.000787136544919995 0.000127316028378895)
(-1.8100922430327e-05 0.000718025914375984 0.000193908740469022)
(-1.2793009039698e-05 0.000724064190358515 0.000260925631743171)
(-3.71553959856705e-06 0.000727408302941378 0.000316642634984914)
(-0.000116846190416636 0.00148474260322616 6.53815699963514e-05)
(-2.42948615637251e-05 0.00069231962289523 0.000112261317919383)
(-1.86822130141519e-05 0.000632950022750812 0.000174511580491041)
(-1.68869193639434e-05 0.000648730237167606 0.000238667413575885)
(-1.15182548143691e-05 0.000668556486291858 0.000297264879127133)
(-3.50518172675413e-06 0.000676302665722689 0.000345867108833577)
(-0.000121855163000277 0.00136398149789599 5.5348602982306e-05)
(-2.03571298518696e-05 0.00060243176095599 9.66439931813622e-05)
(-1.66340191911502e-05 0.000548863954582537 0.000153723508251986)
(-1.85676560992598e-05 0.000571997321693665 0.000214438412679621)
(-1.63464335492606e-05 0.000599899725756098 0.000271261673574906)
(-1.05666980393406e-05 0.000620506728131391 0.000323046735604975)
(-3.39057011736974e-06 0.00062898060042406 0.000366012504689944)
(-0.000125829304840721 0.00125353974017787 4.6466371237557e-05)
(-1.57654279635348e-05 0.000519794109316468 8.13664335544254e-05)
(-1.28910277400072e-05 0.000469074794050645 0.000132346438086616)
(-1.79960322072747e-05 0.000496076000768067 0.000188605307363765)
(-1.90478423920298e-05 0.000530295311819376 0.000243195458745179)
(-1.56912651841326e-05 0.000557630281789922 0.00029397844829576)
(-9.80700917066966e-06 0.000576530356227141 0.000340418575170912)
(-3.24376987721682e-06 0.000583906215221853 0.000378614562314568)
(-0.000130387729242948 0.0011559385642547 3.87800887829953e-05)
(-1.20084765660025e-05 0.000445611766237783 6.71461422570554e-05)
(-8.69700523726946e-06 0.000395724082992469 0.00011137924808724)
(-1.58830152856268e-05 0.000423731764009069 0.000162283651562401)
(-1.97762205307967e-05 0.000461394793581209 0.000213623452710432)
(-1.90185733201941e-05 0.000494124514415065 0.000263056329631215)
(-1.48674448800129e-05 0.000518745791193867 0.000309115247315494)
(-9.12816334871721e-06 0.000535031899249301 0.000351109316238734)
(-2.99993315872105e-06 0.000540152027662177 0.00038512084472904)
(-0.000136986900839252 0.00107208805629273 3.20992032684791e-05)
(-1.02960717950097e-05 0.000379980041838295 5.40399971998441e-05)
(-5.20447996270793e-06 0.000329598014272899 9.13776698998713e-05)
(-1.3218421119208e-05 0.000356798709152923 0.000136532076445015)
(-1.91085075314878e-05 0.000395460643753972 0.000183781711199372)
(-2.06791046161269e-05 0.00043130514668489 0.000230930492056855)
(-1.85384991225674e-05 0.000460614981767101 0.000276309567172466)
(-1.39663095133327e-05 0.000481991312500337 0.00031842337800386)
(-8.39973688401537e-06 0.000495052850794575 0.000356571326322398)
(-2.74122020460528e-06 0.000497209027720201 0.000386822529964015)
(-0.000146871515796408 0.00100255234578415 2.5978618431601e-05)
(-1.15831739416181e-05 0.000322510455721524 4.120911386149e-05)
(-3.28015929402461e-06 0.000270575459333006 7.23931490943885e-05)
(-1.08705638446957e-05 0.000295897387988141 0.000111909926966341)
(-1.7773617561281e-05 0.00033398423151482 0.000154717093437048)
(-2.10725025780246e-05 0.000370968409060825 0.000198795788904622)
(-2.08106384053372e-05 0.000403143513863853 0.000242609405535399)
(-1.77369337276832e-05 0.000428736034508463 0.000284558164398719)
(-1.29767933377416e-05 0.000446530800381906 0.000323205616166071)
(-7.67237979578656e-06 0.000455978480592637 0.000357896834410949)
(-2.45532016619693e-06 0.000454845439402131 0.000384776028526846)
(-0.000160893710050424 0.000945503545484297 1.94248854251045e-05)
(-1.6352257121609e-05 0.000272411846077942 2.87057744009788e-05)
(-3.39379599864804e-06 0.000218011950320099 5.42746770636791e-05)
(-9.40400532838058e-06 0.000240898182084741 8.85594818139739e-05)
(-1.63859097083343e-05 0.000277539747361466 0.000126987256292446)
(-2.06980453083627e-05 0.000314379357643194 0.000167621793576424)
(-2.19212808910592e-05 0.000347816072148265 0.000209092647364453)
(-2.03702847566961e-05 0.000376112882767629 0.00025000917773389)
(-1.67214394384522e-05 0.0003978373051125 0.000288884268453696)
(-1.1919320202313e-05 0.000411808386460933 0.000324392328001399)
(-6.90344426020987e-06 0.000417464845203235 0.000355901823825503)
(-2.16740158356313e-06 0.000413003708815654 0.000379714736690421)
(-0.000181909382688846 0.000899609565942764 1.21866852575576e-05)
(-2.54451219482772e-05 0.000228209488623263 1.616355181638e-05)