/*--------------------------------*- C++ -*----------------------------------*\
  =========                 |
  \\      /  F ield         | OpenFOAM: The Open Source CFD Toolbox
   \\    /   O peration     | Website:  https://openfoam.org
    \\  /    A nd           | Version:  12
     \\/     M anipulation  |
\*---------------------------------------------------------------------------*/
/*   Windows 32 and 64 bit porting by blueCAPE: http://www.bluecape.com.pt   *\
|  Based on Windows porting (2.0.x v4) by Symscape: http://www.symscape.com   |
\*---------------------------------------------------------------------------*/
FoamFile
{
    format      ascii;
    class       volScalarField;
    location    "700";
    object      k;
}
// * * * * * * * * * * * * * * * * * * * * * * * * * * * * * * * * * * * * * //

dimensions      [0 2 -2 0 0 0 0];

internalField   nonuniform List<scalar> 
10107
(
2.55599709889268e-07
5.87642098655119e-07
8.01342713818095e-07
3.97378353457471e-07
9.97434041109035e-07
4.44344405091794e-07
1.69768149203966e-07
3.41479358677016e-07
1.89365163653852e-06
2.23970865150443e-06
1.03052822520908e-06
6.38055788558101e-07
4.03599104665639e-07
3.58750388686482e-07
4.30326299396474e-07
3.05973649913749e-07
4.02504715270526e-07
3.16792341617459e-07
3.11241592587153e-07
2.78055198791661e-07
8.35117711192951e-07
2.74581217129003e-06
3.63913885033356e-06
1.01404127062575e-06
2.60362232423731e-06
3.34476046935556e-07
3.70266848631371e-07
3.92256312928072e-07
6.07335660611537e-07
1.98703895503811e-07
5.56578602181289e-07
5.53470914183842e-07
5.77208468815825e-07
4.66526206645799e-07
3.21379852231633e-07
1.53965640131059e-07
3.64155888676617e-07
4.25627602208424e-07
2.85819681148384e-07
3.70098304984156e-07
2.70214687833159e-07
3.83067616313526e-07
3.64053788148347e-07
3.53446223099072e-07
3.15616082565076e-07
2.5352851021105e-07
4.7654858016652e-07
2.95352317421849e-07
1.20771369346689e-06
4.42297166683757e-07
1.82217803644509e-06
1.48417626083547e-07
5.9180954136651e-07
2.56847486773315e-07
7.04333666167216e-07
6.87657760788644e-07
5.2294984008667e-07
1.08467979631803e-07
6.50367133522603e-07
5.15558098714593e-07
4.07200037393901e-07
3.25101962151933e-07
3.77461046222276e-07
7.2888387884496e-08
6.59704976452231e-07
2.89335692875677e-07
2.63946576398478e-07
4.36107671257864e-07
2.6646341176421e-07
3.56564112496714e-07
2.82756911961459e-07
2.87080299664613e-07
3.55025318451822e-07
5.43098680877086e-07
5.04004351776454e-07
6.71488765711506e-07
2.54176414080446e-07
3.4158410253996e-07
7.78751229563503e-07
1.08658072089831e-06
8.36716491514052e-08
5.00812127941726e-07
5.41873895206651e-07
7.91867487408953e-07
1.31233966513783e-06
9.34418845437592e-07
5.03434964614751e-07
1.49507907880869e-07
8.66996819948732e-07
5.84474010455324e-07
7.17655930662699e-07
7.09704866044424e-07
1.15766877940074e-07
1.16929293780345e-06
1.31332394230185e-07
2.50431432578795e-07
6.62914168785852e-07
3.39102231438935e-07
4.34037006774885e-07
3.05815209368091e-07
2.75999282384079e-07
5.10116957440692e-07
3.22568160990891e-07
2.61072124884692e-07
3.16358862096639e-07
3.50514246683211e-07
9.49683166625018e-07
9.52516947059751e-07
9.81547769652155e-07
1.73014793829673e-06
1.1631842384539e-07
4.0567769502811e-07
5.99457430762604e-07
8.38455512609668e-07
9.59899416298585e-07
1.04635207584886e-06
8.04333463422441e-07
2.73785038216085e-07
9.64504043552772e-07
8.03662332483818e-07
6.14703454862574e-07
8.26943467288141e-07
2.65497761898624e-07
3.18486847526652e-06
4.81853523321493e-08
8.43629458843146e-08
7.35550424949781e-07
4.86632555717969e-07
6.02334433234971e-07
3.97377100458185e-07
3.40501829603556e-07
4.10540886459393e-07
3.5160504515843e-07
2.63798490411337e-07
3.67179874207027e-07
2.53956466579775e-07
3.80125104987697e-07
2.99050492570554e-07
3.29743779086149e-07
3.98428112547751e-07
7.21481196972667e-07
2.16477719436455e-06
2.05991805945111e-06
2.43424876194669e-06
3.78033462445726e-06
1.8030920981034e-07
7.44736404755882e-07
7.0032169740468e-07
6.97230846928028e-07
9.40356678160065e-07
8.97240251863012e-07
1.13833037347633e-06
2.42442401567879e-07
5.56454245804277e-07
5.51952098886512e-07
7.48681871255796e-07
3.94653592681217e-07
3.65910713384753e-07
4.04614183453589e-06
7.120850031711e-08
2.89342251065309e-08
1.62070165098681e-07
4.45269563771192e-07
5.5678403857392e-07
4.51332199403108e-07
4.83041453798774e-07
4.77933439592864e-07
5.68082868840514e-07
4.56416821048248e-07
3.46106555263076e-07
2.9156326623114e-07
1.52960344789531e-07
3.66920059994798e-07
2.94404839650431e-07
2.96835115221122e-07
2.39680984381012e-07
2.50194285315255e-07
4.59106787818636e-07
4.85916717833184e-07
5.49373434112664e-07
1.05415609306068e-06
1.28821332233374e-06
4.68808783051496e-06
4.7934747207185e-06
5.46578763502452e-06
5.49372778453065e-06
2.51511662675797e-07
6.02803698224641e-07
6.61149779099346e-07
6.98344847232373e-07
5.41522238930735e-07
4.79308417662163e-07
8.74713621376531e-07
2.91900659362316e-07
4.95426959252954e-07
7.83353597652705e-07
7.45436938342702e-07
1.56313531734704e-07
3.86779487985464e-07
3.29932912887136e-06
1.19889668863305e-07
2.01936016433797e-08
3.95978109467016e-08
2.3004692083964e-07
4.41633043880217e-07
3.884795976866e-07
6.03322983369234e-07
4.83143516690361e-07
3.91492052156533e-07
5.40335910541266e-07
5.21430781423326e-07
4.72160725126943e-07
4.13285637114193e-07
2.6518249177519e-07
4.569415629066e-07
3.90764828059465e-07
2.43661485325714e-07
1.53401429421885e-07
1.02853069912597e-07
3.92320598269047e-07
3.5613131014223e-07
3.15734393456133e-07
2.89868103785024e-07
3.39383319892212e-07
4.61818009787568e-07
1.06469636556982e-06
1.10992343010019e-06
1.57920101911633e-06
2.58429022247489e-06
1.9711873558751e-06
8.67889636936527e-06
8.64544461580153e-06
8.06660354672552e-06
6.75325252567935e-06
1.98420692584877e-07
8.20613990193339e-07
3.44121771933645e-07
2.48767173650018e-07
4.82746249219127e-07
8.51130060661631e-07
9.11555928793733e-07
3.42880242683947e-07
7.68145595350074e-07
5.47208011036712e-07
8.00287275256237e-07
1.05772872923349e-07
2.06028126684599e-07
2.5906567518507e-06
2.17130147928511e-07
5.95902946379083e-08
3.25472309298657e-08
9.36673760167398e-08
3.92904819536292e-07
6.27886548368328e-07
4.07892685384447e-07
4.41948820300119e-07
3.57328215065214e-07
4.71216655551923e-07
6.0396094761849e-07
4.49905895300303e-07
3.98664326624593e-07
3.9027656878813e-07
2.64826575669742e-07
5.0632844491499e-07
5.02973439127064e-07
3.35834738079473e-07
2.4423429636857e-07
1.76284375396174e-07
4.42399618098169e-07
4.28742313788157e-07
2.6922184748398e-07
1.95527122001545e-07
1.46011318802012e-07
2.21544188075156e-07
4.81215070519828e-07
5.27649112127048e-07
4.82409870436117e-07
5.02751059237351e-07
5.91785401024057e-07
1.11290898897565e-06
9.54951456165982e-07
2.89058904215448e-06
3.36612938289867e-06
4.4142078203208e-06
3.98570053051567e-06
1.85429092379389e-06
1.28805408104884e-05
1.19924256140713e-05
1.04492255283537e-05
7.67766487459963e-06
1.99885919828662e-07
8.90381799834674e-07
7.7940853417612e-07
3.75720397588869e-07
6.97652975698991e-07
5.33755919850299e-07
9.71509568285419e-07
5.23287818772409e-07
5.64762469854172e-07
4.32123050972719e-07
1.11219167219154e-06
9.6917632561769e-08
9.42281808925595e-08
2.03528800045163e-06
2.05915237673822e-07
1.94693026024767e-07
8.74341558779813e-08
3.3497294190109e-08
2.01453245649513e-07
7.45158883298557e-07
4.40178893490434e-07
4.92974088981556e-07
3.4537620194688e-07
3.61968018247037e-07
3.66245114556627e-07
8.27429626738436e-07
3.29152708427185e-07
3.86123951560737e-07
4.46059772785369e-07
2.74226015729683e-07
4.11674367956896e-07
4.37031964863768e-07
3.41838636767455e-07
2.44568485687138e-07
1.82827888830238e-07
4.71293960335172e-07
5.20476513755124e-07
3.43750910468476e-07
2.58177865162025e-07
2.04013931926721e-07
2.61598284816583e-07
4.50523203846639e-07
4.97407953018857e-07
3.73498316883279e-07
3.42513845546393e-07
3.13902002789299e-07
5.34702471781746e-07
6.71099528438891e-07
6.89953656156854e-07
9.60527819857905e-07
1.04067127934616e-06
1.13744405806243e-06
1.3473175947299e-06
2.0589767618843e-06
2.33223596347158e-06
1.37561355876609e-06
6.81834395219716e-06
7.22854895665898e-06
6.73183653633521e-06
5.15293184551114e-06
1.47116269887355e-06
1.64709188114721e-05
1.48533703075634e-05
1.23840133519514e-05
8.12985920687196e-06
4.39750578040523e-07
9.44803125092227e-07
4.71154968212548e-07
5.01305863214684e-07
3.14061585528996e-07
4.1200598652461e-07
1.30681482584608e-06
1.0221479806506e-06
2.8403230149928e-07
4.8140962382116e-07
6.10853060516254e-07
9.3283787286712e-08
7.18689398040598e-08
1.89123436951339e-06
1.07159759081663e-07
2.28188864090479e-07
2.59840620893965e-07
8.29054231586565e-08
8.63620161356777e-08
4.20063977605011e-07
1.05654299620613e-06
2.22842480817823e-07
3.21460163581246e-07
3.65044715408902e-07
3.70124462691095e-07
2.68518632514764e-07
4.22286938976992e-07
3.11154715481043e-07
3.01814781486267e-07
5.70610956866732e-07
3.85013739031434e-07
2.94897236511754e-07
3.31598069994873e-07
3.53618233231355e-07
2.50927301450765e-07
1.56928055130808e-07
3.74001687099594e-07
4.6013561409235e-07
3.78505671538223e-07
2.74797105437434e-07
2.08673406995947e-07
2.78974420365755e-07
4.45290691246196e-07
5.38883708942292e-07
4.11774584001209e-07
3.60088245139049e-07
3.3697266282309e-07
5.58999984254886e-07
7.89004392170464e-07
5.00933349769076e-07
6.65345233806675e-07
6.44137216835935e-07
6.89155774642413e-07
7.43645518948002e-07
1.10669172725831e-06
1.63634686891275e-06
1.22061935338048e-06
1.02492697078777e-06
1.90303880392392e-06
2.39503602000845e-06
2.73107476436731e-06
3.14273700959019e-06
4.01740161353465e-06
4.5545504504665e-06
3.6249768814321e-06
1.25769285780021e-06
1.08573901347142e-05
1.00555465355226e-05
8.7828057835605e-06
6.02567863226753e-06
1.32615100230805e-06
1.92099937643957e-05
1.679526143125e-05
1.34126002035116e-05
8.31985356588111e-06
9.43927865506857e-07
1.37476975428028e-06
3.42104296647068e-07
2.36934990781314e-07
4.14103802556255e-07
5.02163965416707e-07
6.81659249277084e-07
1.13224651512366e-06
1.28570169406695e-07
2.88796052993166e-07
3.53822203772524e-07
8.9348960520373e-08
6.78298976369696e-08
1.86732877611925e-06
6.57007597359891e-08
1.38888204111535e-07
2.6022983361976e-07
1.77007096336263e-07
5.46476607162184e-08
1.70779503521825e-07
6.1217129519296e-07
3.17492032739466e-07
6.62612073046607e-08
1.75551605123695e-07
2.09607304488209e-07
2.33211334565484e-07
2.67454001969639e-07
2.66908524582666e-07
2.78705632411033e-07
2.08241627430786e-07
2.87810006106253e-07
3.16136143029063e-07
2.62818551827334e-07
2.49572185448932e-07
3.99876003318333e-07
2.95337590838834e-07
2.00190101575919e-07
2.61148399353812e-07
2.97915506005237e-07
3.2092810674738e-07
2.6106031324621e-07
2.01095610699978e-07
2.061232910453e-07
3.45694600264735e-07
4.71210493263652e-07
4.43832997833562e-07
3.74795764796598e-07
3.50141321367911e-07
5.49301101621145e-07
6.4766199401473e-07
4.38830226371228e-07
5.89497914906978e-07
5.56489094652344e-07
5.71561182384651e-07
6.4481659745405e-07
9.80298677561867e-07
1.50714963907061e-06
1.29125092298281e-06
5.96306427400412e-07
1.00934518089299e-06
1.21417107600489e-06
1.43500963018399e-06
1.667010695806e-06
2.34996825147936e-06
3.30194744300974e-06
2.84590384734283e-06
1.26137291779344e-06
1.3740791330504e-06
3.24868411067298e-06
4.78194684391662e-06
5.58097437706627e-06
5.95292650115254e-06
6.56887379755917e-06
6.8846226835443e-06
6.43190826745687e-06
4.75472183829077e-06
1.08456345358525e-06
1.39664079588591e-05
1.26925239611092e-05
1.04700356477227e-05
6.37324921686233e-06
1.32515220402416e-06
2.10790814573961e-05
1.78619457430933e-05
1.3722727575874e-05
8.36083014173955e-06
1.22615253679453e-06
3.74212717400268e-07
3.57228803190763e-07
3.12421257308725e-07
2.69400404885934e-07
5.19124907237273e-07
3.26635380401356e-07
3.31557422967845e-07
4.81115464695274e-08
2.54639861599875e-07
2.91767317670126e-07
3.22105574041773e-07
8.02782926678639e-08
6.58476758973803e-08
1.90171070143595e-06
5.6415849379396e-08
7.11964760545485e-08
1.71364103531777e-07
1.7814819745573e-07
7.88489189324482e-08
6.34131796765816e-08
2.28981610146449e-07
1.84252413080812e-07
1.09526208083628e-07
7.77221755429313e-08
7.87053964637636e-08
4.19565333034782e-08
1.39717162736676e-07
1.58627645342986e-07
8.46995745884817e-08
1.17205140055325e-07
1.75922438131285e-07
1.95422727976002e-07
1.94424833426655e-07
1.47851298792259e-07
1.34850959937413e-07
2.165122716794e-07
1.69860646322206e-07
2.06285171821379e-07
1.96383951546563e-07
1.6488811359373e-07
2.23294573311293e-07
2.12117370261071e-07
2.92943508254167e-07
2.45718591110903e-07
2.038713196764e-07
2.15538241368059e-07
2.34840885501996e-07
2.79143175821668e-07
3.27094093254349e-07
3.18933216068616e-07
3.13496964064467e-07
3.95905266734976e-07
4.23449093523878e-07
3.28217167380316e-07
4.83743191333523e-07
5.20743976032255e-07
5.21596895773822e-07
5.90219672095779e-07
8.90098642322281e-07
1.3180615082866e-06
9.54115606477535e-07
4.46922162711611e-07
7.018887263582e-07
8.04077593418955e-07
9.61796812036133e-07
1.1912835380551e-06
1.81426781321051e-06
2.79253036269578e-06
2.54499286903952e-06
1.29946999508104e-06
7.06374998751042e-07
1.53091162974527e-06
2.21462465776422e-06
2.66105784844988e-06
3.04280483447899e-06
3.97163678400355e-06
4.99975103173959e-06
5.10185069299678e-06
3.95447585539125e-06
9.49469437102379e-07
1.57222483359352e-06
4.54611804421667e-06
7.61019014678432e-06
9.0584780098202e-06
9.25083970989309e-06
9.57842455743053e-06
9.72839974585767e-06
9.39008735550363e-06
8.22586723734326e-06
5.25107484576212e-06
1.07623719417744e-06
1.66294821977327e-05
1.45318402620025e-05
1.1334274496984e-05
6.53787480339952e-06
1.34200506271222e-06
2.21674580976093e-05
1.81994314108453e-05
1.34709403006976e-05
8.00934568642406e-06
2.80601233493651e-07
1.80642408238019e-07
5.26716192418129e-07
2.12720967206011e-07
2.51368593322341e-07
4.12360220914223e-07
1.84889562480092e-07
2.02053984869444e-08
6.19405342971362e-08
9.91429309545737e-08
2.1687557282269e-07
3.75560817349268e-07
2.71648952651319e-07
2.44828632347001e-07
2.77915582862495e-07
6.5629211912085e-08
6.01934461090361e-08
1.78752287602102e-06
5.43100027070049e-08
5.27203816523258e-08
8.81491101991315e-08
1.42096090671383e-07
1.08282681530441e-07
7.85457107457222e-08
5.37654937589263e-08
5.91410163219591e-08
5.5188601217467e-08
2.38432148740668e-07
1.15745325437786e-07
3.12484195101089e-07
1.00416958623375e-07
8.64813646074642e-08
7.33645049952341e-08
4.0824475389115e-08
5.06477115565785e-08
1.30717265401824e-07
1.28493226582155e-07
9.77614619618845e-08
4.08771946224764e-08
1.61871670357205e-07
8.02967489941561e-08
9.03437489870484e-08
1.48302630407638e-07
1.53485193753447e-07
1.48758027761669e-07
1.03420665110628e-07
1.81305548381579e-07
9.94945490056174e-08
7.36261205467567e-08
5.28691655037462e-08
1.78732566567829e-07
1.47813096420175e-07
1.62297801297725e-07
1.52769291556165e-07
1.48582215478173e-07
1.71760924148919e-07
1.92574385855675e-07
1.87955971026775e-07
2.42172675551032e-07
2.37742039546244e-07
2.56512124360197e-07
3.79440254424214e-07
3.89791960160913e-07
2.17736353993e-07
2.73960256545241e-07
3.55654664361524e-07
4.06015028637355e-07
4.9315106162352e-07
7.26569421817768e-07
1.07298848547979e-06
6.95518393633756e-07
3.15915221188731e-07
5.00930048236482e-07
6.1545699439585e-07
7.13341839959039e-07
9.22635721050357e-07
1.51108640681121e-06
2.41590501926286e-06
2.10665399743687e-06
1.06155468300327e-06
4.56583638161766e-07
8.6476263791038e-07
1.20489871383428e-06
1.49467951843385e-06
1.88009446827217e-06
2.80942346443855e-06
4.01259272470057e-06
4.34301824465237e-06
3.39548493631514e-06
9.06410927324603e-07
7.760360299883e-07
2.09174483452975e-06
3.51023203370597e-06
4.32168433906417e-06
4.75222364381679e-06
5.68674455631514e-06
6.87470300560091e-06
7.30680266620359e-06
6.7872027574859e-06
4.54616372364509e-06
9.24349767697999e-07
1.54646651938075e-06
5.31111269605997e-06
1.00171126581654e-05
1.21896717877548e-05
1.24262849441696e-05
1.26419962536025e-05
1.29177124559686e-05
1.27404368575316e-05
1.17612731521336e-05
9.46858246792451e-06
5.44802755348577e-06
1.09091981455859e-06
1.85300572431602e-05
1.54807241128998e-05
1.14646953505161e-05
6.40840143601365e-06
1.2638760689645e-06
2.25828829915374e-05
1.78871399421487e-05
1.26577526458064e-05
7.11929460991608e-06
2.79688853994756e-07
3.6067643209999e-07
1.94143414970883e-07
2.20606854502645e-07
5.18864532715223e-08
7.15811448701722e-08
2.76470491993737e-08
5.3821811452881e-08
2.18113421477699e-07
2.20159982912979e-07
4.3649411034827e-08
5.05722961958097e-08
1.44794643210357e-06
5.05623879004192e-08
4.84026483762192e-08
5.69361100146815e-08
1.01090961545708e-07
1.17468116075285e-07
1.13467850660633e-07
7.43623512261795e-08
1.7550617239644e-08
1.2894025444757e-08
2.36691267137083e-08
6.60611732008025e-07
8.57296750660398e-07
7.62283954451564e-07
3.09892953557085e-07
1.90035960327801e-07
5.33319486556736e-07
3.30622459137207e-07
2.74268885833401e-07
1.56769969104734e-07
1.76064646763831e-07
1.23240169871755e-07
1.03016202966295e-07
8.67497943001059e-08
5.93506482910657e-08
1.61589123507901e-07
1.31434525616731e-07
1.05770451811313e-07
5.88200180986132e-08
7.08587047968594e-08
3.95830596801983e-08
1.69669408888999e-07
4.47305564323353e-08
1.5515478298799e-07
1.37874213412434e-07
1.3155299865395e-07
1.00824507855471e-07
8.17600799231068e-08
1.71365716728637e-07
1.19759586813743e-07
4.72330726451501e-08
3.54480722131408e-08
1.66283105415743e-07
1.3986319426291e-07
1.50441359167112e-07
1.60067988548616e-07
1.90796548776151e-07
2.89508700551973e-07
3.54309131112771e-07
1.76352986987232e-07
1.75243704578122e-07
2.3180768271756e-07
2.78167231962235e-07
3.76653396259048e-07
6.39002778387961e-07
1.07271651414999e-06
6.77392443272658e-07
2.09811247777193e-07
2.76007387593126e-07
3.99815410209056e-07
5.14503620175392e-07
7.23099536522127e-07
1.21627145691632e-06
2.06318723001207e-06
1.79441230747133e-06
8.69484866778233e-07
3.03732012980378e-07
5.23109784678161e-07
7.31117518392749e-07
9.33919149663177e-07
1.32107873364713e-06
2.25941964212963e-06
3.49954140204378e-06
3.76317186339176e-06
2.8184105906251e-06
1.03223950740505e-06
4.54025239860907e-07
1.03134131826062e-06
1.67781305971742e-06
2.12456443248914e-06
2.62133630641957e-06
3.81817142062761e-06
5.35586712592094e-06
6.11054210198645e-06
5.88920941733524e-06
4.03843888691493e-06
8.49291322276986e-07
7.71717005968102e-07
2.49177698389711e-06
4.77766242067174e-06
6.08325327745224e-06
6.52527373359735e-06
7.61533942399359e-06
9.07707664586043e-06
9.91752056069971e-06
9.72486978931451e-06
8.13470581272665e-06
4.71568154813018e-06
9.38311037372775e-07
5.30016612121228e-06
1.14145325147378e-05
1.44575555730451e-05
1.513063695594e-05
1.55999252859978e-05
1.61100074413727e-05
1.62154793319315e-05
1.53225531719006e-05
1.32225044101886e-05
9.89129493555981e-06
5.37118807980927e-06
1.04135617109862e-06
1.95999805939645e-05
1.56509827213581e-05
1.09735502222158e-05
5.79978064757374e-06
1.03353724244183e-06
2.23750560547961e-05
1.69599475839016e-05
1.12548413031513e-05
5.75797257838299e-06
3.15087656923079e-07
6.85967891314199e-08
1.24502371569626e-07
5.9554061281059e-08
2.88557762923407e-08
3.84580152120756e-08
2.26109549204671e-08
3.39757416893172e-08
9.37549087378158e-07
4.37045001513579e-08
4.52932150173884e-08
4.71161867884784e-08
6.34383522651235e-08
1.02428885015735e-07
1.05874622350505e-07
1.13770417539617e-07
7.47885710033948e-08
2.77378631031117e-08
1.52247951665125e-08
2.254097238252e-08
1.16392744701347e-06
2.13453132950079e-06
1.08604756117545e-06
2.25187463219832e-06
1.25667250530727e-06
9.33149912378139e-07
9.5580058052362e-07
5.44379435045052e-07
4.11503852241334e-07
2.85471453718337e-07
1.41135838881292e-07
1.459263802035e-07
4.2682768718879e-07
2.58920599391718e-07
1.97575362739976e-07
8.96871179154294e-08
5.115642561414e-08
2.98532114106052e-07
1.88728427287567e-07
1.53290953821363e-07
1.01942736504482e-07
7.75715887332846e-08
1.44327114505537e-07
1.10162763783674e-07
3.6925761234087e-08
2.50363983001559e-07
1.57043599139252e-07
1.47800801475658e-07
1.385654362032e-07
1.37165429062034e-07
1.97965110534313e-07
3.21950297418199e-07
1.36157876123841e-07
8.55636744373802e-08
2.32598189898319e-07
2.15100112197101e-07
1.51131368481618e-07
1.69787097162851e-07
2.25844819172108e-07
3.23538257310481e-07
5.32385767495777e-07
9.89745414335771e-07
7.05722253570094e-07
1.96229796615659e-07
1.7770153189697e-07
2.51487586094364e-07
3.71458656176331e-07
6.05389709746834e-07
1.09530985571408e-06
2.02486921507982e-06
1.78243979007165e-06
8.95300759644283e-07
2.188683869077e-07
2.80910285145099e-07
4.53718826554807e-07
6.64322533769764e-07
1.07490367377325e-06
1.91551932265963e-06
3.21954728280811e-06
3.44356582485834e-06
2.50678006382213e-06
9.54218772740733e-07
2.9483823257874e-07
5.35059892033492e-07
8.6830997272964e-07
1.18792262494413e-06
1.83592109885511e-06
3.1561333018271e-06
4.74161674909538e-06
5.493767442567e-06
5.28712699368216e-06
3.61700824047356e-06
9.40669853370065e-07
4.35094745187278e-07
1.13650843018409e-06
2.12307886169575e-06
2.77371764816848e-06
3.46180370465542e-06
5.01887547477171e-06
6.95497980346539e-06
8.26157627119394e-06
8.4773081149992e-06
7.29891222182456e-06
4.25081037500071e-06
8.53984268836818e-07
2.59790286558754e-06
5.73770826197222e-06
7.59925878574979e-06
8.18125117741014e-06
9.53890261101592e-06
1.1408508742758e-05
1.27214469390158e-05
1.28664445821919e-05
1.15604205834669e-05
8.77780406944019e-06
4.64047913100373e-06
9.0360600921036e-07
1.15731161623493e-05
1.57621027067526e-05
1.71461935142279e-05
1.82323928815105e-05
1.91833096542604e-05
1.96398541639335e-05
1.90199189462245e-05
1.70194922103072e-05
1.38095471455108e-05
9.63486880283472e-06
4.88261596087936e-06
8.66754793793844e-07
1.99044605846945e-05
1.51128840865697e-05
9.89417250941785e-06
4.69119444244729e-06
6.88209571155104e-07
2.15221541564454e-05
1.53682134977431e-05
9.31594210835364e-06
4.11997728186681e-06
7.88446946874453e-08
1.01030777810177e-07
1.96375507102338e-07
2.71499431663574e-07
9.07643179234525e-09
1.78177786975492e-08
5.05045971526142e-07
2.98861641367775e-08
3.97809920649095e-08
4.2579923268446e-08
4.9385098147958e-08
7.60214970070129e-08
8.27641018862259e-08
1.06452928324691e-07
1.15081419670536e-07
1.11502439191825e-07
6.56447160003573e-08
7.82079022626053e-08
1.29334314056736e-07
1.62663497056733e-06
3.96750266532538e-06
1.45793113930145e-06
5.22271190808124e-06
2.59335184022299e-06
1.35540403707284e-06
4.56715832675748e-06
2.90334993865621e-06
1.70278176038261e-06
1.01713211665142e-06
2.78606452364282e-06
1.72941489923032e-06
1.18994780177939e-06
6.52309934931589e-07
1.27420213473263e-06
6.85851574828441e-07
5.22981386310425e-07
2.84794322672049e-07
2.32548143629328e-07
8.25321156041951e-07
3.89825146412097e-07
3.04426767597275e-07
2.51333886276843e-07
2.12464856839617e-07
2.90812019238885e-07
6.04439289686069e-07
2.67535750392248e-07
2.30671817999562e-07
2.68127636956047e-07
3.12535238855683e-07
4.47858300136215e-07
9.30504694129139e-07
7.50230407150577e-07
4.92415064805419e-07
2.97897358457214e-07
4.68339953124291e-07
4.15546105284641e-07
2.2112006266099e-07
2.39927547358509e-07
3.96914258373191e-07
6.51998080369273e-07
1.05065486804169e-06
1.89410878473357e-06
1.86340925297986e-06
9.65199730100246e-07
2.99695665069579e-07
2.14624959937247e-07
3.14373139855117e-07
5.80676186208272e-07
1.09342742216116e-06
1.92153516070715e-06
3.18563611129463e-06
3.50865041797157e-06
2.53781178288554e-06
1.00201499481092e-06
2.66537074093544e-07
2.93268062613247e-07
5.17201900986038e-07
9.28339572393479e-07
1.76501910152351e-06
3.12512839236503e-06
4.7338123317364e-06
5.35535451560799e-06
5.07236418563315e-06
3.42611096030745e-06
9.86436363519623e-07
3.01458211105559e-07
5.26683503711407e-07
9.86952892690422e-07
1.51716396110512e-06
2.58380020580908e-06
4.36400547786256e-06
6.35088063072166e-06
7.63757577516823e-06
7.89568393755145e-06
6.86968586839281e-06
4.10377328274782e-06
8.76493034939782e-07
4.13041325741687e-07
1.13412020654912e-06
2.44050430981468e-06
3.33756017242028e-06
4.317476584314e-06
6.3178527745979e-06
8.84034921040939e-06
1.07433563518043e-05
1.13887902446644e-05
1.05385624774443e-05
8.10933278246421e-06
4.22009110256486e-06
8.21960903776047e-07
6.18319024749858e-06
8.67114478330767e-06
9.57452639250494e-06
1.13439302580583e-05
1.37393759997359e-05
1.55680305429036e-05
1.61022772661079e-05
1.50365010779827e-05
1.24649617101664e-05
8.70208900671392e-06
4.23376555899044e-06
7.68243211182688e-07
1.60376205965651e-05
1.84067237711563e-05
2.03924838990076e-05
2.20218007233439e-05
2.29478456443155e-05
2.26843043114209e-05
2.09481537275947e-05
1.78120270528543e-05
1.35995959062837e-05
8.75379646158871e-06
3.96215107941159e-06
5.88139335750075e-07
1.94831924985411e-05
1.38787329376139e-05
8.23168669041187e-06
3.28993631827134e-06
3.72667622382258e-07
1.99252255131526e-05
1.30856888768766e-05
6.98812512209709e-06
2.42102341818733e-06
8.80879936048542e-08
8.55103920562652e-08
1.34301047719682e-07
2.74202016310872e-09
7.29240934915557e-09
2.16657364140442e-07
1.57933707877288e-08
2.76524169877739e-08
3.74020951594034e-08
4.27705831443561e-08
5.38641081535734e-08
6.32457820736818e-08
8.6826934563596e-08
1.16030363894452e-07
1.35972970063612e-07
1.50433201298741e-07
1.63692737539649e-07
1.51426867341184e-07
1.31944277348977e-07
2.03959980128053e-06
5.952805516109e-06
1.76859197972477e-06
8.71047934249314e-06
4.36180672113061e-06
1.58991080512327e-06
9.26781012987043e-06
5.74170675736025e-06
3.13502233628804e-06
1.49632035518446e-06
8.52631877995601e-06
5.56500160356186e-06
3.60914099061185e-06
2.0506581980722e-06
1.24518618558336e-06
6.63299199256359e-06
4.23746772138189e-06
3.03012944277297e-06
1.82047791936283e-06
1.17664560173539e-06
3.72591366234061e-06
1.97699097547469e-06
1.44950719768061e-06
9.86789652924154e-07
7.41770116999992e-07
9.39027207383926e-07
2.31057306392485e-06
1.09554224487361e-06
7.51292387089673e-07
7.16923922999321e-07
6.91587754980075e-07
7.98975931973821e-07
1.31535953438085e-06
1.47706209744042e-06
6.71011282509332e-07
4.97489449325094e-07
6.53194392935285e-07
8.52838198046036e-07
1.16042934472367e-06
1.91670420079787e-06
2.0590190773673e-06
1.08469079126008e-06
9.56922306575488e-07
8.71190012784664e-07
9.50155072534805e-07
8.88124268755763e-07
4.58185596784019e-07
4.65822028197283e-07
8.60208241205466e-07
1.47722629891821e-06
2.20637483882022e-06
3.30556786354007e-06
3.74105167938645e-06
2.76825495605832e-06
1.09896280225937e-06
5.34802023418163e-07
3.42080028026226e-07
4.90605971507361e-07
1.09641255446154e-06
2.24284519760281e-06
3.61916641836047e-06
5.10819528488791e-06
5.67732527009084e-06
5.32989749881529e-06
3.56975579752003e-06
1.07133843071015e-06
3.71158147842194e-07
3.31990603683059e-07
6.17834476716154e-07
1.40331189685465e-06
2.94761650675251e-06
4.9036938831818e-06
6.75949652660278e-06
7.81938319238207e-06
7.91820164049089e-06
6.84862378838383e-06
4.2045425785941e-06
9.75985229234553e-07
3.32826550824157e-07
5.07136238092406e-07
1.05620100761086e-06
1.88193214493905e-06
3.53916530950646e-06
5.87863686973779e-06
8.34090466107259e-06
1.01441813491881e-05
1.08297629861902e-05
1.01130802445012e-05
7.86601452946408e-06
4.15412378766247e-06
8.13816896086437e-07
4.02006981077777e-07
1.04034493571397e-06
2.56976250231456e-06
3.76818621838114e-06
5.09578234849477e-06
7.55161896770669e-06
1.06948658962617e-05
1.3233174746288e-05
1.43725137238664e-05
1.38324285975425e-05
1.16638123326675e-05
8.17326096931244e-06
3.85604176082784e-06
7.06356146287285e-07
9.21652246707868e-06
1.06002114859478e-05
1.29314587518836e-05
1.59521627073224e-05
1.83814914631535e-05
1.93607637413684e-05
1.86023376522459e-05
1.62106536955859e-05
1.25097540454349e-05
7.97902602174012e-06
3.46072085504787e-06
5.31486479505267e-07
1.89029494589e-05
2.20277587212316e-05
2.45872082062411e-05
2.61341282328873e-05
2.63151451087595e-05
2.49141751427794e-05
2.20010636690894e-05
1.77725002163046e-05
1.2660477858133e-05
7.30421692325434e-06
2.78919312744605e-06
3.18105736742372e-07
1.82788050953139e-05
1.19206225369918e-05
6.14337500815113e-06
1.86593232620353e-06
1.61764029588632e-07
1.74896834596834e-05
1.01563687403874e-05
4.52233356743641e-06
1.03682399657635e-06
9.92919493870491e-08
8.62805458690243e-08
9.21884837930546e-08
5.27562693193385e-10
2.25700660834434e-09
6.8712558585858e-08
6.50215422853429e-09
1.46362599549133e-08
2.61716009326465e-08
3.67859980798274e-08
4.49364150766506e-08
5.28033949846901e-08
6.82185048447006e-08
1.00837380139785e-07
1.33412978501398e-07
1.53103395654197e-07
1.7172445047459e-07
1.69700881280107e-07
1.31385001006478e-07
9.80388037003238e-08
2.33857136560799e-06
7.51580935693007e-06
2.10599305366663e-06
1.15758401982046e-05
6.17865836865932e-06
1.82974840509618e-06
1.37055279680133e-05
9.02153794461794e-06
4.80867482186288e-06
1.71032497199568e-06
1.43743333528904e-05
9.87386750993483e-06
6.47933209528396e-06
3.73724192667441e-06
1.66960656766418e-06
1.37912827452156e-05
9.49437273013218e-06
6.75498606170263e-06
4.52520372582406e-06
2.83880598214226e-06
1.59901889166855e-06
1.19719655671131e-05
8.27825615675611e-06
5.99914461226435e-06
4.16062567884895e-06
3.03141764558979e-06
2.27703236837968e-06
8.09105423060905e-06
5.08120251942682e-06
3.71253943193341e-06
2.83849556962715e-06
2.32733774551468e-06
2.35737833228663e-06
2.24887369784819e-06
5.11537826526926e-06
2.93078855985779e-06
2.08458800874943e-06
2.02389957953995e-06
2.15044760058854e-06
2.39485659948885e-06
2.93954512127042e-06
2.65612234938872e-06
3.05720121373904e-06
1.70643387605631e-06
1.35435154050763e-06
1.78032855822177e-06
2.37023818152047e-06
3.0015475625522e-06
3.92291661969511e-06
4.30796369528852e-06
3.23222047345698e-06
1.28550630823282e-06
1.30924061772258e-06
1.31423928446377e-06
1.42813870975434e-06
1.68915244499417e-06
1.05603177310001e-06
1.12006148975529e-06
2.08289678532967e-06
3.46765484150856e-06
4.66006215328271e-06
5.85885579849252e-06
6.35839706590802e-06