/*--------------------------------*- C++ -*----------------------------------*\
  =========                 |
  \\      /  F ield         | OpenFOAM: The Open Source CFD Toolbox
   \\    /   O peration     | Website:  https://openfoam.org
    \\  /    A nd           | Version:  12
     \\/     M anipulation  |
\*---------------------------------------------------------------------------*/
/*   Windows 32 and 64 bit porting by blueCAPE: http://www.bluecape.com.pt   *\
|  Based on Windows porting (2.0.x v4) by Symscape: http://www.symscape.com   |
\*---------------------------------------------------------------------------*/
FoamFile
{
    format      ascii;
    class       volScalarField;
    location    "700";
    object      nut;
}
// * * * * * * * * * * * * * * * * * * * * * * * * * * * * * * * * * * * * * //

dimensions      [0 2 -1 0 0 0 0];

internalField   nonuniform List<scalar> 
10107
(
4.85005732315819e-08
8.0739440605075e-08
3.66917381432539e-07
6.65819429760292e-08
1.65435578704419e-07
1.27396452300525e-07
1.85731162309734e-08
1.43839849547394e-07
1.09184574568324e-06
8.86030545734208e-07
2.72600362126559e-07
2.09009029785048e-07
8.64413983515016e-08
2.9068546048573e-07
1.56836094286413e-07
3.33245811688791e-08
9.14205747593501e-08
2.7739157659322e-07
2.03301946797533e-07
1.38328725560222e-07
3.41849819191679e-07
1.55578115086925e-06
4.10442364733156e-06
3.63315864025312e-07
2.0206686392074e-06
8.20466739691202e-08
2.94206379431383e-07
3.25483322158663e-07
2.08024969020892e-07
3.8994326608081e-08
4.75771521086605e-07
5.25241586419726e-07
1.02983497844045e-07
2.08591406115736e-07
1.19488544679228e-07
3.4748186111996e-08
1.17731947018766e-07
1.21256554861707e-07
8.67509949908026e-08
3.8224076268894e-07
2.89605312490603e-07
3.55756480153467e-07
3.7447036464236e-07
3.0661232098827e-07
2.03040448605451e-07
1.01836900038694e-07
1.33980238866036e-07
1.87737225638372e-07
7.65552920219916e-07
1.8333275576713e-07
6.54588155883536e-07
3.26390664590261e-08
8.73122216583022e-07
1.69458300251458e-07
6.61989317412693e-07
3.48842434022143e-07
1.40010262420873e-07
2.74385623006598e-08
5.95230019455181e-07
3.71956514028289e-07
2.5451930106857e-07
1.34969469739144e-07
7.93386283066691e-08
1.65238372726967e-08
3.01530603111928e-07
8.89427179794157e-08
9.46612134487392e-08
4.54485499790954e-07
3.30454768352203e-07
2.83549648468173e-07
3.70068866051312e-07
2.87690235958799e-07
2.46598170324352e-07
7.86574333284128e-07
5.66444047458543e-07
4.75989251809649e-07
1.14278226995223e-07
1.89835979244776e-07
3.22822033130543e-07
4.24654244385149e-07
1.9868586845649e-08
1.42759976766705e-07
2.33793759320179e-07
7.25969345220357e-07
1.07092520129146e-06
4.4340648289732e-07
2.50789587704351e-07
4.32652798206203e-08
8.4122357448025e-07
4.404207721919e-07
6.96784699533868e-07
2.23306892215677e-07
2.24255065415011e-08
6.48095740075473e-07
2.95537029887817e-08
1.03314539329602e-07
6.50175703666338e-07
3.71747592885865e-07
3.2159554886526e-07
4.11052715920914e-07
2.44193108700138e-07
4.48395627901407e-07
5.02696359423988e-07
2.96592575917829e-07
2.58355580977208e-07
1.80868966780844e-07
1.74334643626464e-06
1.35142409245023e-06
9.79651324250133e-07
1.42374378927826e-06
3.17263506974032e-08
1.48224446699337e-07
6.50794451539774e-07
1.16200158183187e-06
1.27311303769369e-06
8.99917321961867e-07
4.08145008411076e-07
8.25195172740245e-08
1.433218700717e-06
6.77887655620951e-07
3.14765283273537e-07
2.76782866608803e-07
8.13241358990018e-08
3.51418737768347e-06
9.20276711529916e-09
1.87130888192361e-08
9.08337016642208e-07
5.37466352863168e-07
4.68719885915076e-07
4.61472793317873e-07
2.76486971203801e-07
2.7049992348856e-07
5.29149680453456e-07
2.67065233564667e-07
3.33034332016843e-07
1.34681313638055e-07
6.97646170871844e-07
3.97531786097923e-07
3.30025364813057e-07
2.96177967171619e-07
5.08987599610584e-07
3.79610960213285e-06
2.81070745355244e-06
2.83319617040425e-06
4.44280194227611e-06
5.31651260100537e-08
8.79557233129322e-07
5.73766249681303e-07
4.50646925015946e-07
1.33698818027321e-06
7.50813087010966e-07
2.93006550135217e-07
5.42149448433565e-08
7.76553776903314e-07
5.91168100958475e-07
5.35260354229541e-07
1.32958042615223e-07
1.21739076386123e-07
6.22440330976368e-06
2.16084872502599e-08
5.50378955951267e-09
3.59442279728971e-08
5.97935943290968e-07
6.56090935099277e-07
4.4711407933e-07
5.58926831622196e-07
4.02000274345474e-07
3.99773648052463e-07
5.92179228494348e-07
3.16621652723897e-07
2.18264561368496e-07
6.64717660661883e-08
6.39797723222792e-07
3.52917957959773e-07
3.01121062667686e-07
1.76966178046855e-07
1.63496700885356e-07
7.23027126013531e-07
5.95775140121783e-07
5.52046736999259e-07
1.00111816568046e-06
1.3669124245039e-06
8.65217849682608e-06
7.90175700834473e-06
8.748162087007e-06
9.45924549355355e-06
7.66682301385947e-08
2.0437550542575e-07
2.88076989486946e-07
4.07984335819677e-07
8.13457258760376e-07
9.43410449494363e-07
5.0406900537466e-07
7.95417691006852e-08
1.17320884236873e-06
9.5456830960669e-07
5.84810622834199e-07
5.24801722658364e-08
1.30197671253009e-07
5.61483692143097e-06
3.97354849995465e-08
6.10660697741717e-09
7.52543525065371e-09
5.07070170687963e-08
7.73508959282735e-07
5.05904057299163e-07
6.25336221189021e-07
5.73474226307184e-07
4.00917485335517e-07
3.89066670130604e-07
6.51040999335405e-07
4.43399794075296e-07
3.18968655667008e-07
1.26551347553494e-07
6.93799024218641e-07
4.21645330731723e-07
2.14839528532566e-07
9.95277991437578e-08
5.6587761661033e-08
7.98787313167516e-07
5.1713007061149e-07
3.73588323761645e-07
2.7930102598074e-07
3.01165275860497e-07
4.08133929270022e-07
1.5881926381828e-06
1.45859203815974e-06
1.98699808052918e-06
3.31351700607586e-06
3.1805629098496e-06
2.09571239440475e-05
2.0352090668915e-05
1.89644707273002e-05
1.70195640262091e-05
5.81333991657961e-08
5.53461989221932e-07
3.18234491472861e-07
5.09464324488973e-07
3.44508851190521e-07
4.23849890281487e-07
5.96372663122334e-07
9.21413091677305e-08
1.28058491462231e-06
5.23646934525953e-07
4.28616340020946e-07
3.53837071134766e-08
6.91974731048773e-08
4.39534146605915e-06
7.30248084912683e-08
1.97079947996073e-08
9.81668663123691e-09
1.76254378760287e-08
8.645369442998e-08
8.82535000902532e-07
6.12463509399599e-07
3.96243806981996e-07
4.67572633002389e-07
4.70800428594785e-07
3.89261055291384e-07
5.69598269862849e-07
4.26534644880821e-07
3.10093246505439e-07
1.27744519084064e-07
7.2127173289583e-07
5.44340570353504e-07
3.0544850840006e-07
1.67676802373489e-07
1.10155526456662e-07
7.97112022288652e-07
5.63858564749697e-07
2.84946620330749e-07
1.69945537169125e-07
1.14674651734108e-07
1.68613265411675e-07
1.13117681041251e-06
9.26669285314861e-07
6.78968834319042e-07
6.11419175419466e-07
6.82482571306584e-07
1.25454616214386e-06
1.219665966489e-06
4.88401765439142e-06
5.68045199343865e-06
7.601927983626e-06
7.29082861071005e-06
3.39061686003796e-06
4.42000207265838e-05
4.2055086272524e-05
3.71024514123379e-05
2.52879311508637e-05
6.19916695955582e-08
5.42381868069607e-07
3.71754664968771e-07
1.9696282404705e-07
3.30874578510218e-07
4.58641857407729e-07
4.13904786797567e-07
1.14809680480258e-07
5.33584114537258e-07
5.68670666296759e-07
4.46244246284445e-07
3.23362103803368e-08
3.15367027040277e-08
2.80844213953271e-06
6.91645137221984e-08
6.54179624855308e-08
2.88538024355053e-08
1.00542989751727e-08
3.76124788076306e-08
1.30954961901599e-07
5.31349488544682e-07
6.64187884362612e-07
3.83598184431605e-07
5.27794716700017e-07
3.38446115499279e-07
5.74486292905321e-07
4.53386791968873e-07
4.00978821660703e-07
3.16881509590184e-07
1.1112282658912e-07
5.85135781229424e-07
5.08182916042713e-07
3.24438452826252e-07
1.72728547151014e-07
1.140031367957e-07
7.88794959167234e-07
6.72805902474075e-07
3.76034492468947e-07
2.3559716757114e-07
1.67227378273958e-07
2.28759722439258e-07
9.55977812601385e-07
8.0037004920473e-07
4.79991298501676e-07
3.82361006646868e-07
3.36352643045705e-07
5.4343476617324e-07
7.83898287077735e-07
1.82907425723298e-06
2.0086920189419e-06
1.75857804453963e-06
1.71456142284916e-06
1.99896471079663e-06
3.05453015864872e-06
3.49939846739633e-06
2.34734070506103e-06
1.60036694972133e-05
1.78422395533059e-05
1.67853599923026e-05
1.38523952098567e-05
2.23950648882869e-06
8.00849397975729e-05
7.63240393787791e-05
6.19925050792383e-05
2.85734307014779e-05
1.21986302324578e-07
4.74760710535003e-07
1.33086100725179e-07
4.6173021720735e-07
5.72533172413599e-07
5.19172016160841e-07
4.67782658698104e-07
1.31613330506755e-07
1.85741010547272e-07
7.0001423369314e-07
2.37038410281521e-07
3.10657889197965e-08
2.3987246908164e-08
2.35099935734765e-06
3.58739424844252e-08
7.66251799915398e-08
8.71914279469121e-08
2.72790063567745e-08
2.57852200584463e-08
7.63275540714814e-08
1.64408518336066e-07
1.96359223448376e-07
4.12059024292606e-07
4.45807857541482e-07
5.27360146330082e-07
2.99287288910149e-07
1.98803565727108e-07
4.74471072068597e-07
3.10263248238301e-07
4.24951099636673e-07
1.35706913344178e-07
4.46868369286708e-07
3.80899388669457e-07
2.96263484275526e-07
1.49400040220426e-07
7.93683989690163e-08
6.13406383224223e-07
6.04975513080857e-07
4.28221433625624e-07
2.61189373231387e-07
1.78040869419301e-07
2.3212060064218e-07
8.77826695174732e-07
8.41939189968947e-07
5.44588582114803e-07
4.19729152266429e-07
3.59987848519039e-07
5.79819937831387e-07
1.06693467949677e-06
1.22765745968591e-06
1.29106632319271e-06
1.00907844577853e-06
9.64594978602284e-07
1.04012463856708e-06
1.50983631243084e-06
2.22742830218861e-06
2.04031866647067e-06
2.97523196953211e-06
4.63867678214051e-06
4.89108463171781e-06
5.12812243345124e-06
6.01482074162889e-06
8.04558035338038e-06
9.19517616318435e-06
7.79073576840901e-06
2.26077989051205e-06
3.8836659496097e-05
3.70855490578879e-05
3.31223026516867e-05
2.00087135746815e-05
1.58444616441055e-06
0.000125747395612277
0.000114101277920639
8.09900819242153e-05
3.00759625106891e-05
2.3366414020809e-07
1.45963214505075e-06
1.74932519340127e-07
5.87914409464157e-08
2.46873824549111e-07
1.7502594551803e-07
1.53028399616019e-07
3.31752496766952e-07
4.17610691609123e-08
1.08418818666293e-07
2.61753047255917e-07
2.97173216778615e-08
2.25940110952069e-08
2.33511092540387e-06
2.19334143673875e-08
4.6494973840466e-08
8.73216139759726e-08
5.92818555413471e-08
1.79163888726921e-08
5.05172017033839e-08
1.07580378375575e-07
8.19746990196796e-08
2.43942115236341e-08
1.87338791506602e-07
1.20343349737138e-07
3.31717460206467e-07
3.18980611586607e-07
1.94039686197454e-07
4.39293083219686e-07
2.56861324685999e-07
1.73156531987867e-07
9.12216909758129e-08
4.37564484463939e-07
2.97642961533341e-07
3.44595108841185e-07
1.52707271355732e-07
8.86918195175726e-08
4.47959519217015e-07
3.91164960069357e-07
3.24581370492296e-07
2.11324437802335e-07
1.4703024233164e-07
1.41410891932014e-07
6.58752656056559e-07
7.19621384080922e-07
5.97062499810551e-07
4.52278572927593e-07
3.87473854152387e-07
5.78805636597194e-07
7.82064785159041e-07
1.0042387353844e-06
1.10885778783095e-06
8.89097790395128e-07
8.27460889823164e-07
8.93724610298721e-07
1.31936263632004e-06
2.08472330079175e-06
2.32223563232296e-06
1.64606979134186e-06
2.31283658140668e-06
2.30525335488782e-06
2.49099098299058e-06
2.9628579654462e-06
4.29339209108398e-06
6.02253146316539e-06
5.48133698846534e-06
2.35185531718622e-06
4.26001173169485e-06
8.94841695482192e-06
1.18934355671224e-05
1.34349865770053e-05
1.51368021289671e-05
1.81616464039786e-05
2.01232748690535e-05
1.91911593222541e-05
1.46182954980136e-05
1.42079179462982e-06
7.17828118987663e-05
6.95692219358094e-05
5.49902307378498e-05
2.10579495550531e-05
1.53076420288732e-06
0.000171767461059778
0.000145559283671406
9.31933608271572e-05
3.28102105774822e-05
3.57200390333934e-07
7.72999881947314e-08
2.71750394004133e-07
9.08575285442086e-08
9.96493306492527e-08
1.22801205834276e-07
2.80109020968526e-07
8.19525143799645e-08
8.63861883506843e-09
8.57949102501308e-08
1.84716756724875e-07
2.11681701530588e-07
2.66873099413683e-08
2.19035348014762e-08
2.60128017346234e-06
1.87948055729901e-08
2.37693408038503e-08
5.73467091383547e-08
5.97079266384569e-08
2.63473202493558e-08
2.07148379021078e-08
6.71058280142357e-08
3.08402062402242e-08
3.2999416891702e-08
3.67025501188025e-08
4.87006251937878e-08
1.34975482836029e-08
1.75593369321972e-07
1.23293837603165e-07
3.27901402827317e-08
6.03294091081235e-08
2.82568109028214e-07
2.51786241160822e-07
1.61334308683078e-07
9.07348842472842e-08
4.42091955125903e-08
3.84215360677224e-07
2.40353848651298e-07
1.60708760459278e-07
8.39974340719921e-08
6.75021013092323e-08
4.14923533228762e-07
2.96814615424544e-07
3.06906456864667e-07
1.7855358939302e-07
1.29652011298897e-07
1.33774683610963e-07
4.6192743143928e-07
4.2624842318426e-07
4.02097556949868e-07
3.3554646674519e-07
3.08499589173381e-07
3.73789551960609e-07
4.0049295496767e-07
7.2259866307697e-07
8.66937317627085e-07
8.34615790068676e-07
7.73600855447046e-07
8.30352370047753e-07
1.2052332025718e-06
1.78033973889782e-06
1.53214672277063e-06
1.16244998903555e-06
1.56306677103048e-06
1.54458395361086e-06
1.7047975223195e-06
2.0911426572333e-06
3.19002870154093e-06
4.95418614753023e-06
4.9637679279229e-06
2.52629514539966e-06
2.14662197883057e-06
4.02604006462417e-06
5.07102563222549e-06
5.71179867843711e-06
6.86833084182804e-06
9.67786645657094e-06
1.28958418702472e-05
1.34423167517779e-05
1.12534734833221e-05
1.37384084767096e-06
5.13520481110439e-06
1.3674367475954e-05
2.25424002677971e-05
2.79527289005138e-05
3.12856469059474e-05
3.63414002555199e-05
4.03251863241424e-05
4.11869538580603e-05
3.66719593316236e-05
1.7101477154412e-05
1.26413519076679e-06
0.000115983087197151
0.000105375700797868
7.09928573386134e-05
2.25542669982359e-05
1.65811583391639e-06
0.000209663462013701
0.000166803906960136
0.000100025123815547
3.470863190741e-05
5.40349593093506e-08
2.36205439661929e-07
2.36675462132906e-07
8.56080436647012e-08
9.6883143964896e-08
1.3962244943561e-07
4.87322432865671e-08
4.80095510237857e-09
8.79108046789705e-09
2.24028971239167e-08
1.06697516328267e-07
2.53512048180888e-07
1.30762278640665e-07
1.29854989481929e-07
1.82927219865344e-07
2.1841494719787e-08
2.00116351711551e-08
2.72430408799502e-06
1.80671951986854e-08
1.75646067208212e-08
2.94245133422239e-08
4.75201465768793e-08
3.62396739464965e-08
2.61945616674711e-08
1.75148256822204e-08
1.71303410174858e-08
1.02672806437425e-08
1.76132811948135e-07
8.53554765287042e-08
2.44090065088477e-07
9.64667306229602e-08
6.12351032059714e-08
2.39657347937845e-08
7.84667602628221e-09
2.02785765292732e-08
1.91281685714184e-07
1.31701143562429e-07
7.76002629169042e-08
1.54610011562243e-08
7.37360956199375e-08
4.40845249759699e-08
4.04132942673157e-08
2.68946508817257e-07
2.22479293721253e-07
1.46500568651945e-07
5.25910589796515e-08
9.07592084434721e-08
5.13105312778107e-08
3.23786503219377e-08
1.87376700129029e-08
3.58488512406082e-07
2.42436651719257e-07
1.65175000256499e-07
9.50080979349508e-08
8.68709415171709e-08
1.05365541269491e-07
4.05287886608993e-07
3.08626499672685e-07
3.10839107734522e-07
2.33831992790372e-07
2.2646459794747e-07
3.22664375327636e-07
3.53018781168623e-07
4.92187051060676e-07
4.89324581672915e-07
5.30069474211271e-07
5.40545680957841e-07
6.25545401741401e-07
9.02184928851049e-07
1.29805555129679e-06
9.17198311984542e-07
7.93887422490399e-07
1.05353126754671e-06
1.17644654297501e-06
1.28117547041038e-06
1.61001905516724e-06
2.59120925998221e-06
4.13904273387807e-06
3.90445411910876e-06
1.94902993162192e-06
1.3233728111422e-06
2.21919154787481e-06
2.75426296038925e-06
3.21142668416105e-06
4.12962420569911e-06
6.43856925369628e-06
9.68762231581111e-06
1.0892599551146e-05
9.39800397974476e-06
1.40905031474655e-06
2.55493090388719e-06
6.11816905457233e-06
9.49115974219503e-06
1.14990569921948e-05
1.37247590932531e-05
1.82723614904999e-05
2.45655064851521e-05
2.79453651891076e-05
2.70137568388441e-05
1.5226769570112e-05
1.11601780721304e-06
5.29517827051964e-06
1.69757236716428e-05
3.3632855928072e-05
4.56894152159491e-05
5.24289391166205e-05
6.04169265164679e-05
6.93646160089335e-05
7.55756204022974e-05
7.52927700816801e-05
5.51842793888931e-05
1.79585719301949e-05
1.30976234378037e-06
0.000160477720967537
0.000132992063784034
8.01800886782024e-05
2.43845333275731e-05
1.73587116365145e-06
0.000234393047229977
0.000174663795740982
9.91978870564755e-05
3.3148538128782e-05
5.81761157820267e-08
2.14513774015843e-07
7.11643518264953e-08
4.43671034525576e-08
1.56604168759231e-08
1.61649476796318e-08
5.64357216952175e-09
1.14002533925158e-08
7.54849612540185e-08
1.11981433524394e-07
1.45714819273849e-08
1.68309920023348e-08
2.32096512372292e-06
1.68104676312187e-08
1.61025988108256e-08
1.89679766118682e-08
3.37326402071826e-08
3.92502521116571e-08
3.79296459409e-08
2.47831778050515e-08
5.72065194258044e-09
3.71389133968702e-09
7.49225179365534e-09
7.92499434570996e-07
9.28808188494912e-07
9.73181022451604e-07
3.6520943116779e-07
1.78200500787818e-07
5.99159378919083e-07
2.05242877531113e-07
1.74410264603012e-07
6.37175902207197e-08
2.29217318542574e-07
1.22574868969713e-07
8.79841718218884e-08
3.31264030996551e-08
1.54046857259406e-08
2.72017894486305e-07
1.6771853624383e-07
1.06649691920823e-07
3.41290413911019e-08
2.54670184479427e-08
1.56335385616395e-08
6.96972953991916e-08
1.74801568570416e-08
3.15475461845343e-07
2.2851811917465e-07
1.56640542165702e-07
7.40029402704241e-08
5.26924986153246e-08
7.93457674195042e-08
8.03676857440532e-08
2.40372076925568e-08
1.81793647920914e-08
3.76076312856425e-07
2.64872983445128e-07
1.96455480651308e-07
1.41805132210431e-07
1.57324796233479e-07
2.39624234903825e-07
3.33586486867391e-07
4.21965788077644e-07
3.36345073632624e-07
3.60289603613309e-07
3.54753070013183e-07
4.42333261196054e-07
7.37975183902197e-07
1.22634713986968e-06
9.08797714321308e-07
5.41926520933317e-07
5.76167451168194e-07
7.16304545962187e-07
8.46647214832745e-07
1.15198989868759e-06
1.9174954943194e-06
3.25086403317827e-06
2.91634916615316e-06
1.42328255279338e-06
8.58396348294896e-07
1.27514585066905e-06
1.65186075305177e-06
2.01318135796175e-06
2.82416125590494e-06
4.88838149643606e-06
7.91441825247926e-06
8.89002209206072e-06
7.24203450038615e-06
1.91806502505277e-06
1.44233488797519e-06
2.95663705046527e-06
4.46256774230296e-06
5.50304798941122e-06
7.12951361384601e-06
1.12480126223585e-05
1.74879616655384e-05
2.1562490031979e-05
2.21137904277959e-05
1.40510616368045e-05
1.04705528072977e-06
2.72370001901104e-06
7.89027702195126e-06
1.47342151532407e-05
1.95951817296659e-05
2.33469139639782e-05
3.10547607043156e-05
4.25816668912609e-05
5.19914494198865e-05
5.54967770444992e-05
4.4935926728305e-05
1.56358064208217e-05
1.11587766342043e-06
1.77203981622075e-05
4.11257871378915e-05
6.10754521628877e-05
7.33860739414354e-05
8.58578258069353e-05
0.000100656867462093
0.000114674318439891
0.000120791257364497
0.000106717443414406
6.58837790425459e-05
1.89337692788909e-05
1.37894445416458e-06
0.000194192509806962
0.00014786964181201
8.24717357502755e-05
2.41610336027961e-05
1.52204854206801e-06
0.000242390608707099
0.000167478301087181
8.83438163792268e-05
2.71476675865925e-05
9.80579093764964e-08
2.1585302404659e-08
3.68527235732137e-08
1.51366468531969e-08
7.92195053897048e-09
9.98909918890322e-09
7.56622989663965e-09
1.13422453463837e-08
1.46536259360698e-06
1.45456012544995e-08
1.50589506911744e-08
1.56742843866771e-08
2.11306127745857e-08
3.41629202439568e-08
3.53505928317346e-08
3.80204679823509e-08
2.4962353450725e-08
9.1321472628237e-09
4.72365543968253e-09
6.09012575131395e-09
1.93879937473273e-06
3.6450459733598e-06
1.79320552597532e-06
4.01053662260402e-06
1.61882789491086e-06
1.31402737159104e-06
1.60228859213456e-06
7.19890072186258e-07
4.62178313045203e-07
2.35966174804918e-07
5.13613305011503e-08
6.45264978205523e-08
6.94069309954635e-07
3.41549968846403e-07
2.31445085191716e-07
7.09664900171851e-08
2.56806013626879e-08
5.70004041890421e-07
2.89368223192547e-07
1.92352658780094e-07
8.79934651634544e-08
5.93678603637307e-08
5.98086252492293e-08
5.04752719714167e-08
1.83085164177753e-08
5.64499191314002e-07
2.97200328807923e-07
2.12529304323553e-07
1.38466570678766e-07
1.23291283656707e-07
1.81299085248236e-07
3.28352874519186e-07
1.06501289817952e-07
6.2580599715519e-08
2.55088476746505e-07
5.43452502169651e-07
3.27279275230414e-07
2.75502773490427e-07
2.72151432490024e-07
3.64087402644543e-07
6.05225935216813e-07
1.14073314942345e-06
9.79021923143929e-07
5.2965707059177e-07
3.95712452648706e-07
4.65895143630826e-07
5.90710496620602e-07
9.06236454730474e-07
1.64253767080162e-06
3.1232248454706e-06
2.83833880870323e-06
1.50892439621941e-06
6.37028807571417e-07
6.80070633392603e-07
9.66769835736706e-07
1.32738115318386e-06
2.10799950418846e-06
3.78661769532015e-06
6.67966692117811e-06
7.54429865555977e-06
5.8026777860681e-06
1.71441586209403e-06
9.20861879212954e-07
1.47904437711803e-06
2.27442204331973e-06
3.03065876633069e-06
4.76931411125753e-06
8.62867787399449e-06
1.42858623601716e-05
1.80718184943927e-05
1.87345504403189e-05
1.25522307832379e-05
1.48392391466004e-06
1.49326694623406e-06
3.54692202458053e-06
6.35791201542877e-06
8.44020143929021e-06
1.1360736944736e-05
1.85069370062096e-05
2.95221694681413e-05
3.96376060765306e-05
4.47555732450354e-05
3.92584399624998e-05
1.47227718005954e-05
1.01078238298275e-06
8.75014587849701e-06
1.93835383601389e-05
2.82121708155239e-05
3.42986355730162e-05
4.5901765864957e-05
6.39772026724923e-05
8.18047472306168e-05
9.33185019651208e-05
8.87012270056033e-05
5.71328086239669e-05
1.58347722570503e-05
1.15983377514618e-06
4.29678672915146e-05
7.0114321291339e-05
8.90635765632257e-05
0.00010746981096869
0.000128775117585222
0.000150956766921743
0.000166377830801773
0.000160818122832973
0.000126434002445156
6.94027568780293e-05
1.87430747339445e-05
1.24416992320634e-06
0.000211179733656848
0.000147289294801503
7.55707084774075e-05
1.99447574296464e-05
1.02213052492943e-06
0.000231807257459515
0.000145349343367755
6.91189730462105e-05
1.86717697495267e-05
2.57459761148782e-08
3.16449158816073e-08
6.06861949713012e-08
2.4791765641229e-07
3.02535305033802e-09
5.96233475854688e-09
7.82318578346271e-07
9.97708467877197e-09
1.32399431708335e-08
1.41567501339538e-08
1.64279107963055e-08
2.53159055119878e-08
2.75924882374374e-08
3.55360648085637e-08
3.85028270066848e-08
3.7379486191157e-08
2.19220684228618e-08
2.54938001245333e-08
4.05135238327797e-08
3.11048080583415e-06
1.14083770781448e-05
2.77105798898564e-06
1.54995855769411e-05
4.95800597013328e-06
2.42957231539592e-06
1.29036070633193e-05
5.57756700901263e-06
2.54262847806622e-06
1.68600436040788e-06
6.41239385254542e-06
3.1756386236053e-06
1.84738376911296e-06
7.9822797226633e-07
2.5255021438852e-06
1.14087976930334e-06
7.99390511493664e-07
3.34562067257626e-07
2.42462629183794e-07
1.78575956068141e-06
6.9974493992496e-07
4.63616312138246e-07
2.97688296933689e-07
2.34552229468451e-07
3.14463906370684e-07
1.50157448650654e-06
5.71924113597779e-07
3.92805400218449e-07
3.47621329181346e-07
3.73792765584875e-07
5.55882144157497e-07
1.22145950537917e-06
1.11372717231438e-06
6.01637105353845e-07
3.33267141929161e-07
5.98501831123038e-07
1.15670651889425e-06
5.40021406537911e-07
4.6701985244105e-07
6.16028927645743e-07
9.59826700963725e-07
1.58665815677933e-06
3.0126696731187e-06
3.04244767409468e-06
1.64050314573221e-06
8.96081749803579e-07
5.47940812119461e-07
6.84473420534323e-07
1.11938382733545e-06
2.02476808611484e-06
3.64865371497164e-06
6.5434940581769e-06
7.7197374007315e-06
5.87802841913399e-06
1.82812591791697e-06
8.53365048058725e-07
8.10473244319688e-07
1.29039513756964e-06
2.21874469305282e-06
4.23684825183042e-06
7.86824342791617e-06
1.3248800803308e-05
1.66081295141154e-05
1.70874411480019e-05
1.13977627167845e-05
1.80154401759245e-06
1.01945557354006e-06
1.60983555428201e-06
2.90847431838843e-06
4.47284052317023e-06
8.02530259416989e-06
1.49199188054895e-05
2.50304755491174e-05
3.43633752168485e-05
3.94292749533582e-05
3.60846799865702e-05
1.59466804097706e-05
1.13622228562394e-06
1.50799395595282e-06
3.7832131277755e-06
7.96035921044053e-06
1.14753087835075e-05
1.63625640447947e-05
2.76299949043599e-05
4.57997844123245e-05
6.46648824831666e-05
7.77738037528624e-05
7.81456787298253e-05
5.29206245338261e-05
1.4497453263539e-05
1.02009713026219e-06
2.20977422008939e-05
3.50570876772554e-05
4.42637280173505e-05
6.01457878245044e-05
8.5000844410112e-05
0.000111566971591209
0.000132470390716729
0.000136595349803813
0.000111688079214118
6.13178426252846e-05
1.53390255823478e-05
1.06833154633517e-06
7.17098621634055e-05
9.73394698624967e-05
0.000122600341219505
0.000150757952933024
0.000180655565388678
0.000205537833712915
0.000210853093966528
0.00018515793559827
0.000130737471047233
6.4380043926046e-05
1.5708961636609e-05
8.66727844171722e-07
0.000208584069126633
0.000130732486197755
5.9703381541212e-05
1.34395563866751e-05
5.59926599924055e-07
0.000202754320240788
0.000111861793896371
4.63365006724718e-05
1.01886027622486e-05
2.89854040270193e-08
2.76996832283307e-08
4.30248538949168e-08
9.04277331700174e-10
2.4307073822475e-09
3.37162480864276e-07
5.28491793133861e-09
9.23142757189104e-09
1.24481699211047e-08
1.4219747247264e-08
1.79159163841955e-08
2.10567471164029e-08
2.89420468864813e-08
3.87534544114839e-08
4.55910906512923e-08
5.06649948766589e-08
5.50394250528383e-08
5.0074973083088e-08
4.34186436047368e-08
4.07497072905901e-06
2.53099164577343e-05
3.51650488170683e-06
4.38048504972523e-05
1.34515174169048e-05
3.15039489751369e-06
4.35117727077547e-05
1.75797631264107e-05
6.98693167881852e-06
2.91494375400648e-06
3.56849138358197e-05
1.67127120575951e-05
7.93486571204361e-06
3.74867485532109e-06
2.27251115099678e-06
2.14678440001388e-05
1.09347865516669e-05
6.69779278315391e-06
3.21816794309734e-06
1.814060213742e-06
9.28017517118265e-06
4.10095612947294e-06
2.81005601975178e-06
1.64032652239034e-06
1.12534021709482e-06
1.35583307904024e-06
5.77231143790535e-06
2.286519894881e-06
1.36158916947987e-06
1.10137274771826e-06
1.03202533478465e-06
1.21108648851247e-06
2.02466184731404e-06
4.05223198675335e-06
1.60582908613484e-06
9.84287236210556e-07
1.05561775470655e-06
1.31319881818883e-06
1.88876324079771e-06
3.44519162256273e-06
3.8542307255023e-06
1.91577530024995e-06
1.57594471535623e-06
1.40122592433417e-06
1.57506013040981e-06
2.68940249250857e-06
1.24163065498444e-06
1.0563733747397e-06
1.64622110447446e-06
2.75482302251581e-06
4.34193125435251e-06
7.18857320387342e-06
8.71824520062798e-06
6.57730892360089e-06
2.01164379957326e-06
1.73134455196157e-06
9.80143129187949e-07
1.2358675870534e-06
2.5204924275884e-06
5.13510516316283e-06
8.89059287300647e-06
1.43124807634707e-05
1.78999996306731e-05
1.84503572808562e-05
1.20030495567771e-05
1.99418808713261e-06
1.27306439717676e-06
1.02253957531771e-06
1.75786126271937e-06
3.91151362156736e-06
8.60685239612905e-06
1.5851094052756e-05
2.54146745897121e-05
3.38321267571289e-05
3.84064816608204e-05
3.5480473551694e-05
1.76428996884199e-05
1.51959305531145e-06
1.19336654258465e-06
1.67819445075839e-06
3.38983603985551e-06
6.18337191821349e-06
1.27360548276974e-05
2.44311307633299e-05
4.11384664271226e-05
5.82084867978574e-05
7.0779778919066e-05
7.30705179900536e-05
5.26658321111535e-05
1.56163541146256e-05
1.02152506214207e-06
1.53233781389126e-06
3.66660869061343e-06
8.88727312514341e-06
1.40595030229527e-05
2.13040395903661e-05
3.70182100657072e-05
6.26655444567985e-05
9.08098845314336e-05
0.000113577524447969
0.000122562382281077
0.000103779957564954
5.77367075332936e-05
1.34851231937697e-05
9.39013378773266e-07
3.86743328530527e-05
5.13602941689592e-05
7.1703682191115e-05
0.000102776016648783
0.000137534715480513
0.00016766869852849
0.000181885488380813
0.000166065211451702
0.000119341527106342
5.72805971633585e-05
1.29536495549684e-05
7.68674322486454e-07
9.84780879781831e-05
0.000131088833028302
0.000166509942129441
0.000203594719959938
0.000237053498509355
0.000253480526252796
0.000238838963451226
0.000189340234662634
0.000118934165742876
5.12229688765242e-05
1.08009440726369e-05
4.77095379666095e-07
0.000186081908865029
0.000101823014849625
3.98624422683215e-05
7.16901155833596e-06
2.47949585231226e-07
0.000158572160084831
7.38615915008589e-05
2.543916898705e-05
4.06268139203205e-06
3.28385111941497e-08
2.82114373816341e-08
3.02006151446565e-08
1.72993833844632e-10
7.44330230551816e-10
1.03658413788884e-07
2.16728566972242e-09
4.89772308172081e-09
8.73706262822232e-09
1.22429999113666e-08
1.49391540453091e-08
1.75612298984631e-08
2.27096723525546e-08
3.36183287377039e-08
4.46033806984882e-08
5.14197847028829e-08
5.78983898271138e-08
5.70702509942556e-08
4.39052122492704e-08
3.26330693809041e-08
4.70162833457163e-06
3.80994930667007e-05
4.24561334744168e-06
8.22239207814531e-05
2.67924773801174e-05
3.69353472436934e-06
9.93516478794799e-05
4.56368555461335e-05
1.65552736743719e-05
3.49254175106553e-06
9.36724935336881e-05
4.77840516211974e-05
2.22244158563173e-05
1.0353334635707e-05
3.41688037126305e-06
7.76976708582882e-05
4.21864743402789e-05
2.32752643504227e-05
1.19570991291573e-05
6.60815542982645e-06
3.19356550394186e-06
5.28077453636522e-05
3.01530389374014e-05
1.90940312194227e-05
1.11825018068628e-05
6.86807041562612e-06
4.715646841733e-06
2.61080760822883e-05
1.35685024966173e-05
9.23381213605305e-06
6.5167511511242e-06
5.14174983824598e-06
4.91345195629831e-06
4.60290361527535e-06
1.50879510843315e-05
7.20862691241091e-06
4.51661456843995e-06
3.95454316424463e-06
4.26953518819905e-06
5.06257312570849e-06
6.48778581285122e-06
5.93124686843214e-06
9.29848196864416e-06
4.56806970041558e-06
3.08670900764212e-06
3.53021696083086e-06
4.67712604343641e-06
6.47478546656121e-06
9.74902596278005e-06
1.167080384793e-05
8.71466893319782e-06
2.41473309945326e-06
2.43705829709186e-06
2.46239614948565e-06
2.75730536907911e-06
5.49983511339999e-06
3.12213348002832e-06
2.88750342886228e-06
4.81073045346006e-06
8.24871351304672e-06
1.22529027429836e-05
1.77613104899444e-05
2.15572701925917e-05