/*--------------------------------*- C++ -*----------------------------------*\
  =========                 |
  \\      /  F ield         | OpenFOAM: The Open Source CFD Toolbox
   \\    /   O peration     | Website:  https://openfoam.org
    \\  /    A nd           | Version:  12
     \\/     M anipulation  |
\*---------------------------------------------------------------------------*/
/*   Windows 32 and 64 bit porting by blueCAPE: http://www.bluecape.com.pt   *\
|  Based on Windows porting (2.0.x v4) by Symscape: http://www.symscape.com   |
\*---------------------------------------------------------------------------*/
FoamFile
{
    format      ascii;
    class       volScalarField;
    location    "700";
    object      omega;
}
// * * * * * * * * * * * * * * * * * * * * * * * * * * * * * * * * * * * * * //

dimensions      [0 0 -1 0 0 0 0];

internalField   nonuniform List<scalar> 
10107
(
5.27003482348185
7.27825328304519
2.1839867893133
5.96826009719384
4.14927083928547
3.48788680585545
9.14053124380136
2.37402472090672
1.43304294185339
1.87167836609778
3.78036264211066
2.31160324455609
4.66904877017909
1.23415319117446
2.28545463910316
9.18162026892896
3.13271763057135
1.14204023607399
1.53093267177179
2.01010453660696
1.83171924076692
1.15279614349577
0.88663821355271
2.01521164107145
1.13403713076968
4.07665577109734
0.860283246918291
0.953732197879125
1.12408096097281
5.09571296103964
1.16984430028542
1.05374541638361
1.76677093177918
2.1782692107733
2.67388362096384
4.43089718798029
3.09309323338186
2.35680585039043
3.2183673784282
0.968233482950992
0.933044651388869
1.07676918814881
0.972183175285551
1.15274631482469
1.55444929684126
2.48955447499598
2.06590769671596
1.57322191386151
1.57757048738049
2.41253760045785
1.51533758862634
4.54723869844334
0.279965555556932
0.299125414547657
1.06396530524091
0.753859662324324
1.64628121206203
3.95312183062866
1.09263160839551
1.3860708961139
1.59987881345076
2.40870741198184
4.75759480946997
4.41110540376318
2.1878541336892
2.63919097042988
2.78832868058902
0.959563443626821
0.806353659512669
1.25750151489515
0.76406565885565
0.99787988531431
1.43969161646599
0.690460720488455
0.889768996669245
1.41072253870984
2.22418933828113
1.79936439814456
1.85212072007825
1.82657374425541
4.21125316065085
0.634562103840655
0.248678257496505
1.09077262369611
1.22542607416021
1.57407996427132
1.01980348238982
3.45560940552646
1.03063780694021
1.32708093568452
1.0299536300708
3.17815925430089
5.16228597672177
1.80419784531723
4.4438557929623
2.42397085834985
1.01959234257399
0.912184067707056
1.34963623814562
0.743980510341475
1.13025008712673
1.13764926707282
0.641675944024149
0.8802382327905
1.22450949540179
1.93794575665335
0.54474724407608
0.70482460123437
1.00193583712396
1.21521017427848
3.66630328696804
0.424740876285094
0.899895235818834
0.721561421016194
0.753978152668592
1.16272023030711
0.546046308757395
3.31782161675668
0.672963618930074
1.18553911672526
1.68841198979196
2.98769745909496
3.26468592581607
0.906288747006417
5.23596345843017
4.50823200270357
0.809777000687304
0.905419573012526
1.28506268100625
0.861106236840409
1.23152938498707
1.51771165464583
0.664471808538411
0.987767995445431
1.10252859512531
1.88561025817035
0.544868044660313
0.752268128055777
0.999146775499917
1.34523211281575
1.41748285719467
0.570262036993943
0.732882412521298
0.85918821554787
0.850889747860455
3.39149407407109
0.195493069037592
0.950165531598508
0.427525648022757
0.447002245449531
0.733756531555561
1.40006898229119
3.27878063814882
0.716568848616338
0.933663534943138
1.39872468666852
2.9682566388506
3.00569648010294
0.650044933333459
3.29539497570583
5.25714597072873
4.50893437524619
0.744677701294359
0.848638517600718
1.00943410254365
0.86423021130838
1.18888834185753
1.42101129378584
0.770741017392176
1.0931234559782
1.33582503913173
2.30113255359009
0.573493850754183
0.834201924301027
0.985766696595068
1.35438865791378
1.53027115507787
0.634978649210519
0.815604218957268
0.995157469997693
1.05297868842902
0.942425644277301
0.541839009936598
0.606634032868424
0.624792679955308
0.580778645429449
3.2805200044547
1.75382155644651
0.244621628101018
0.144619903072446
0.466272348628911
0.508059262984692
0.678947059652828
3.25698095035996
0.4222836901337
0.820636501095945
1.27466381292811
2.97852550755558
2.9707097236313
0.587609074856355
3.0171940487117
3.30684481874429
5.26186321824533
4.53678670404781
0.570947548286625
0.767891840521205
0.964797756672513
0.84248514497592
0.9764903414699
1.38880030602437
0.800918501224366
1.06486455662802
1.29569357293103
2.0954537182079
0.658607964202904
0.926761900532214
1.13415574401048
1.54129228960758
1.81758505538173
0.491145254565119
0.688668732261336
0.845139886271113
1.03783400997966
1.1269005662174
1.13153545115341
0.670382383076678
0.760955360417667
0.794767259511268
0.779923633328632
0.619760530367346
0.41412630819652
0.424793931809975
0.425353476124872
0.396793508651558
3.23734644487135
0.329559269407309
0.172276463008061
0.185449952383274
0.257486079175315
0.498378691506699
0.532697684290519
3.25879707512224
0.599839640916454
1.04499420307328
1.4484934710536
2.98931009642749
2.97739378968851
0.589409667452635
2.9733751092887
3.02366096824299
3.31550065235858
5.31432902124554
4.54468513030997
0.711457956597998
0.665986918607292
1.11534568493634
0.764219695174905
1.00088408364109
1.55155759716674
0.789865277169178
0.934658723293121
1.25857809928564
2.07309540611656
0.701994022255849
0.924005055879677
1.09948069427013
1.4565777311554
1.60032257179152
0.555003068236207
0.760372087242269
0.944815022446954
1.15052813541648
1.27326585774652
1.31391908895334
0.425411010984519
0.569403907617123
0.710503702161735
0.822269041353565
0.867106979583535
0.887100867674592
0.782961468470718
0.591846558858244
0.592581257052573
0.580669513027312
0.546673189472699
0.546888958657843
0.291414813811195
0.285159933720227
0.281631674743705
0.303609845692632
3.22439968358239
0.24060408924128
0.197504957336106
0.122777859931862
0.407685322770466
0.708391395749187
0.629523884274096
3.27988146396991
0.797722270757656
0.759882787320029
1.30311783241778
2.9971858613557
2.98788943717078
0.724703554259544
2.97718044401914
2.97614017048956
3.03024726371563
3.33163896088872
5.35602151296243
4.61092380035489
0.828416895057234
0.742220839295554
0.900359323802951
0.685812128833356
1.08213714911852
1.44029481113277
0.725986540097054
0.962953479591659
1.40765478352539
2.4677739412051
0.703553570236179
0.859989486201136
1.05363169436183
1.41591236492781
1.60370928352503
0.597486019475502
0.773590885337364
0.914147285296874
1.09584452064376
1.21997925239548
1.14355045559231
0.471269518923965
0.621472472031025
0.778135599643532
0.895786546201672
0.933252671799712
0.983931292337101
0.856105364052597
0.377214677549842
0.478185710303102
0.591768606788557
0.663402338874678
0.674007693809143
0.674073148714683
0.6664676758594
0.586030632792321
0.426048785460386
0.405136862727506
0.401054045872253
0.371988509383889
0.656913791592985
0.205668117540013
0.194609331849556
0.199766299750628
0.28452513426928
3.24998785049072
0.258311332047088
0.535588880502498
0.0771954855255636
0.548547404170527
0.340341414057946
0.640604247254361
3.33405604383619
1.22467422398447
0.687714050157717
2.57651610813107
3.00278185522813
2.99613123920442
0.804438488510284
2.98711966570684
2.97798796838942
2.98011658958233
3.03916579930953
3.34928365706884
5.50343821068362
4.57673898216596
1.13487147129816
0.780131351650668
0.818838675078612
0.701843825830988
0.897193574416647
2.12414167438351
0.655792805501233
0.972770004826531
1.3427685146705
2.83709745910268
0.65991969174831
0.870566033600628
1.19359371640444
1.67956649195372
1.97721079383332
0.609712740734363
0.760585518162701
0.883901742921945
1.05209910356495
1.17205340367388
1.20185119112199
0.507264923354331
0.640050629977407
0.756120487143089
0.857906207359355
0.936066770612864
0.964092380723625
0.739505807930628
0.408039999933889
0.515345510803291
0.638342063028577
0.714450924927074
0.714958084227751
0.732987886267308
0.734635035078308
0.598249368316519
0.344486406869631
0.410254668152535
0.489673804553915
0.532568166967356
0.522498864818887
0.499330245561058
0.495319542512084
0.465293264871231
0.556309290912595
0.279565500112217
0.271144604595893
0.265162898724773
0.301152725775048
0.836980789941456
0.152766533818535
0.14719608524395
0.165607934759989
0.276628006931589
3.30374280047492
0.236159160849264
0.160807298879757
0.47109117530182
0.834858605128276
0.528755116812631
1.79147149971476
3.41292537707422
3.07870875889917
2.38865467657362
1.35174053361293
3.00662897851038
3.00211845303373
0.799674548992264
2.99546430097443
2.98716598030766
2.98013082638813
2.98585620709538
3.05014928535692
3.38062081357103
5.69036198270097
3.8730490814397
2.71626763752804
0.937080909468277
1.74174397626498
0.703042084128852
0.83846476009725
1.37553574638881
0.6344412035089
0.810716162448169
1.66213773631376
3.46558082455284
0.600639588355333
0.838495169390982
1.16042274849184
1.93401131600894
2.25714279698879
0.582973211084499
0.761610922288168
0.988744690616794
1.23535316578197
1.36771597129241
1.45761962341909
0.524771470879739
0.65480335032771
0.743361035024626
0.828683442530894
0.903651478972323
0.949025142274863
0.828143660608656
0.436977992293091
0.531626256654698
0.625903135362683
0.690741024034138
0.721493612264436
0.743009276279123
0.722949486149177
0.556037856369965
0.362260719768334
0.436410072811587
0.526697455371008
0.576079817222452
0.562636047777925
0.547345362739989
0.548265702421796
0.519198847531472
0.536331001561166
0.322552898816483
0.363045679149137
0.402066065513954
0.415406025534734
0.393275042537584
0.361689334295164
0.342122379599942
0.335149542529118
0.325258292865735
0.763351433816404
0.194564793290009
0.1824445294619
0.190398103576535
0.302652886512067
0.865680162578058
0.122718711258474
0.122712514740151
0.147250055734389
0.254824031744485
3.4326741234752
0.871643412750582
0.14963306145324
0.664039585151495
2.51310024892921
2.27885717067697
0.696073997790217
3.40587309548597
5.56935632745119
2.96800662017695
1.5795389808879
1.50046467039773
3.00810733057151
3.00625796220537
0.731067234062966
3.00167241210895
2.9953071329187
2.98821163596928
2.983660754701
2.99267318976685
3.06124431078117
3.41224625226103
5.97442220864581
3.31903464970527
2.11762330659184
1.61610649043173
3.10845587820181
0.795685869438994
1.28658210683284
2.58308058026477
1.94275299208166
0.622584193015637
0.776145380601557
1.20510531835222
1.62948682878476
3.0502921026692
0.563518000159526
0.706710740332839
1.2835963094473
2.33797560266243
2.44271082522846
0.538158372396253
0.714645975090118
0.954504220102946
1.37616158793674
1.57245011191072
1.6112035218478
0.508393460787282
0.654883773496094
0.813469486697551
0.950488971504534
1.01619896773437
1.05916621975752
1.0573197063056
0.454217789419512
0.55799096601077
0.62393257140439
0.674245500248837
0.710806271392753
0.738528145775386
0.74034268824589
0.622731225604935
0.384465712010897
0.44904590089614
0.520578756201124
0.564170700299668
0.56968066426957
0.568730874532301
0.563670859256656
0.51271391128563
0.514377743015243
0.329063526655894
0.380252457792712
0.436721250961671
0.465887892459475
0.443019549371203
0.410383507752056
0.387702569715501
0.379536562573709
0.351400468597705
0.691105842945342
0.306165944967517
0.332455453768584
0.337594491109087
0.324064174272934
0.2956895773229
0.263567845214651
0.241248724002382
0.227986934597398
0.224309455705842
0.307053876010202
0.851362419176563
0.14337850974311
0.137905040269934
0.159653730274908
0.289873078292054
0.809355435405543
0.105728761152292
0.10910674541451
0.134675567365844
0.230759475273761
3.72831592294191
0.227819887422489
0.99612317522227
2.48482453400255
2.59455446050988
0.752135911443198
3.79398833320395
4.20862058821044
7.04583862283236
4.42545133364611
2.03262062966347
1.00851570674792
1.74364773693803
1.88540027090042
1.51926860894225
3.00479489861237
3.00792242084241
0.656139262829712
3.00600077155068
3.00151221660038
2.9957712188442
2.99022837485353
2.98795959616821
2.9985502999755
3.06971332369608
3.45241325094409
5.37519165321561
1.35370659278907
1.35603865322997
1.28020038418123
1.04094912282095
1.41228413246197
3.06122493745784
5.20277315545776
2.49759698287826
0.683375749820313
0.975642451587725
1.25980838578562
2.64389053525295
2.19528399213798
1.82142711162081
2.23549578486389
0.551420544776085
0.689885297576278
1.01540921738733
1.96650661000462
1.99765457952955
1.93906682561761
2.27390949946027
2.82154427243836
0.498572647051428
0.609697813313077
0.982580905377287
1.60796074099664
1.71037878585447
1.63014323354169
0.475154556103138
0.609007882427829
0.779093330038331
1.01672160729254
1.13268089884715
1.17595955251932
1.10416776940467
0.442385376705406
0.559874297769016
0.670958584986863
0.751120659992882
0.788353747386968
0.805344224429761
0.826612146458483
0.758307537798302
0.39793453358628
0.475477153519103
0.523149137605076
0.556786994782646
0.573058882805905
0.58315877075153
0.583686899265059
0.539551479713056
0.544657968448888
0.34501512674096
0.38967462666236
0.437466840008623
0.465425390467639
0.455270110456426
0.436342819924739
0.414197890245126
0.398712742927876
0.361298520795834
0.643277899900715
0.303740515568387
0.341890656481045
0.369842266809657
0.375829456450002
0.346251880381123
0.311221106219455
0.279851873184709
0.261467424625089
0.251249864947563
0.298563901076467
0.828257185256138
0.292051832889281
0.312865171393662
0.297837111412372
0.266794217657216
0.23701194709527
0.209245934583525
0.186229135245337
0.168578660548373
0.15620720474721
0.171581156314424
0.303366413246126
0.832914322005824
0.115468098197311
0.1164033677832
0.14298681305441
0.262805990581221
0.728093245299324
0.0963462152927256
0.102408973000189
0.127601030842523
0.214769489449509
4.29884457005381
0.41385444384596
2.72809925177456
3.11198871262333
3.31322299288818
4.42817052605534
4.89885632165427
4.72110659296529
2.21595104938844
1.96263602343114
2.99553684740839
3.00471274591505
0.623855316611135
3.00779187168594
3.00589047425553
3.00169655307656
2.99682921125701
2.99279902052904
2.99153466492761
3.00051719804159
3.06794005574955
3.47183702090853
3.15914725847201
0.83358006730394
0.923007313328713
0.783291018695827
0.848534914791698
1.06641653355439
0.890112890361283
1.44856054273687
1.2350902586072
2.46038760351227
0.768112321893029
1.00542771048939
1.17084926564789
2.61875079039321
3.85276592765035
0.594038579017221
0.783661296838714
0.991755812007755
1.7234594263743
2.78237144021009
2.5319321997468
2.4343757948887
2.55893335501256
0.491812523485748
0.603340399922776
0.839840036526351
1.36243921507759
1.55164552966043
2.15973355985858
1.4901460170838
1.96499831633006
1.94990708523335
0.442152562475331
0.528038731786643
0.765778377209708
1.12878840175604
1.21275573427725
1.20817788179134
1.06212075447054
0.417931955551766
0.521023550859359
0.643392649670664
0.784115080249758
0.851514975926952
0.865886539719535
0.874725009970651
0.745372080714943
0.387158110320661
0.479040228727801
0.558163999464777
0.607695402715087
0.627696073850928
0.634302119884787
0.634658112106569
0.615294056108606
0.610901092739284
0.353836562310296
0.410235256150263
0.442602390693057
0.463902144717219
0.4677773731528
0.462201987258336
0.4421729166193
0.42330286971418
0.389173869645998
0.538167107956444
0.314784897492347
0.348822429218469
0.375974810155277
0.386070489768062
0.367673932388424
0.339452981501633
0.306260227941554
0.283387590808112
0.266313883934289
0.287411655524797
0.811123670266052
0.283334067842136
0.315803485348465
0.324256322510734
0.310446382247252
0.279491916733198
0.245222930438981
0.213168654694524
0.190752915553578
0.175233055092853
0.181028998509619
0.30159503265853
0.840872676397724
0.299099719582825
0.277551709258859
0.236716308452158
0.206178585980969
0.181694855878097
0.160048766145437
0.141404627928364
0.126851508182117
0.123901997528584
0.150132476905617
0.283682979373661
0.755183552139173
0.100930672421134
0.105843109711834
0.133058315341437
0.240046876425955
0.679043548136487
0.0923099132187659
0.101266537060661
0.127398178666388
0.212098242326596
3.21328140612594
3.17793968532096
3.37837639929876
3.93442892991065
3.64250901976608
3.84999833166119
2.988404427218
2.99550403396536
0.639806892484122
3.00465407972314
3.00772716149031
3.00595457031049
3.00220125851827
2.99824734783479
2.99498859480117
2.99234658532949
2.99605448464726
3.0373867508719
3.22309604519668
3.70123266792263
0.600334135745178
0.585597917036229
0.605645892477804
0.561489607028246
0.776285428029682
0.710144957824028
0.596522115438833
0.756198003108737
0.890357337474394
1.19809636132521
2.74790075537726
2.26149543415978
0.614964069246467
0.758075312570607
0.853659789648659
1.26379531936427
1.99202600015694
0.523736837226572
0.652208543168149
0.796926617981464
1.15852621913588
1.30662598008459
2.41314883771546
2.18250956321854
2.01686255682829
0.443515219957676
0.528409910477413
0.695437280736814
1.00071400283801
1.11253143769643
1.0919255894935
0.980500925687458
1.27846222666958
1.36725558441975
0.911833387634613
0.395802965923143
0.461781053429728
0.61628089986815
0.829849827009036
0.888627991412133
0.879647973620063
0.867639741017442
0.720844178140375
0.37048461638852
0.44906732327356
0.539794392649094
0.628833681306511
0.668026216101497
0.666840021501323
0.64832643029731
0.627986970620326
0.593337056440632
0.34357690626599
0.413060454829154
0.469314215010712
0.50047609322787
0.509916473717135
0.505865518197679
0.481992189251298
0.456446116740169
0.43200400853564
0.556585361719198
0.320176390438416
0.361760539650659
0.381771701202061
0.391968451922545
0.384944471265079
0.365772525978656
0.331909732121934
0.303996382227478
0.282212642920091
0.288156607613021
0.633907064962671
0.291371041383166
0.320421036128781
0.333927059157733
0.328631688250528
0.304716474071645
0.271188877613175
0.235584983379044
0.208427730353918
0.189413462957701
0.185919568602231
0.288723511616801
0.844874508315792
0.296898234802204
0.296009333041664
0.269361008603006
0.238529931022871
0.20781123408366
0.178321468682518
0.155509886280225
0.137876673020329
0.130329883517132
0.153638588419718
0.29305625970955
0.779082337981124
0.269343509274773
0.224805751755878
0.192516336934391
0.169651297579952
0.14896751805771
0.130102509244352
0.114317627862845
0.105830685686984
0.109223364588976
0.13882544780991
0.260502400496581
0.696653067741856
0.0942536494389083
0.102606805925284
0.130926025556262
0.235209400715708
0.673308891936889
0.0928450402818137
0.105732940663236
0.134781257558982
0.220652746747332
3.06240844532914
3.19263853277925
3.23591728226173
1.09511938597898
3.00012317284131
2.98838951838587
0.645575837651394
2.99548065381921
3.00461954795575
3.00774703696448
3.00617033780488
3.00291439194283
2.99951570782702
2.99563074578356
2.98890831186384
2.98298480138562
2.99445812932044
3.06772242194462
3.19237385003994
0.52295290410291
0.347770996536042
0.526127978951151
0.336958164600938
0.52306347669712
0.557877626643917
0.353944312186972
0.520540575122589
0.669693498311498
0.603279647749758
0.434481191846456
0.544588066908861
0.644125937271149
0.817197539544436
0.504534172666514
0.601160256568703
0.654225161283478
0.851245106794329
0.959109221953746
0.462168129581243
0.557096056248583
0.656635152014448
0.844285411504868
0.905831751508442
0.924786639570908
0.40253700040703
0.467781903283063
0.587241972415044
0.771321016427538
0.836119014680924
0.805671318719899
0.761797415330838
0.673621355211765
0.818458603074043
0.893869574818552
0.782520501642394
0.359249384780749
0.409465365602071
0.513741645252209
0.64431107138112
0.679287291877405
0.66218098936595
0.628714392963235
0.612470435842202
0.588355915446566
0.334451254179959
0.391693692439275
0.459291961417153
0.518746270964532
0.540026005772965
0.526642238703676
0.48684022373548
0.45450385626318
0.431745408821864
0.548110491181399
0.312336525499696
0.361847926095842
0.400808935129863
0.418407568613113
0.416587755004203
0.397182474207295
0.357301192916605
0.32245380258243
0.29684749996791
0.300595041802557
0.547550519935605
0.295705098809501
0.327166027803571
0.339336980371649
0.339194736151647
0.321956733156221
0.292495256492744
0.253725927749926
0.222259185163613
0.200249280436717
0.190376798989198
0.25734342052992
0.771409825374504
0.273901181175961
0.299776980107904
0.306582183705203
0.290847090512899
0.263863082368651
0.228659208822401
0.193021633700758
0.166138960425714
0.146434785173346
0.134857904477091
0.15323577251589
0.291091892200017
0.805767293517219
0.279810950425897
0.247343557546379
0.216306371409835
0.188607227012439
0.161638111892702
0.139539778850915
0.121553784049301
0.110080622067875
0.111605122031598
0.141917729557002
0.276012679962062
0.719105612689324
0.22364595486211
0.189098253741858
0.166333010953833
0.146073890596852
0.127025401043934
0.110365590128312
0.0993495202442708
0.0961991015686218
0.104022173576926
0.135970650651377
0.252222341047544
0.67857441030076
0.0934069058107824
0.106161317215523
0.137876389543023
0.244795008377896
0.665565133774327
0.0982727543831853
0.116980860230073
0.15081253484143
0.237620748858505
3.03904660161857
3.08705306668659
3.12147597404275
3.03227789416475
3.00011815589781
0.642590372407591
2.98838524891312
2.99546486959106
3.00462601301671
3.00783005496708
3.00649472784376
3.00358748310247
3.00002743082254
2.99406506223786
2.98244609025947
2.96917431186883
2.97409970003325
3.02400297030466
3.03888528969574
0.500518883911471
0.235196569141181
0.502940288502127
0.198847370636261
0.324261314611916
0.50467032129148
0.212995461989502
0.326608880681349
0.448698009426961
0.513327350871804
0.238933427699564
0.332980164104057
0.454845881655421
0.547035493132026
0.547934026654696
0.308973364652766
0.387521759236895
0.452407164699729
0.565687668124212
0.648625438572533
0.401491738422195
0.482080498561385
0.515828576900985
0.601581233647415
0.659151877567252
0.692583196191552
0.400285585554494
0.479130860538883
0.551776118619296
0.650936682866531
0.670126722348718
0.659718310419901
0.649668751414383
0.364505808716999
0.417859713902945
0.505431169909707
0.618779278790044
0.649435703286933
0.614385815891654
0.556341826749283
0.534223097684158
0.566188942470739
0.607205504895635
0.621734152683934
0.603250031024266
0.330231072228744
0.36901923687585
0.440963431430733
0.522535058545539
0.53623274048623
0.508155175558911
0.459836433432845
0.429106040641869
0.420879570689647
0.546300892082631
0.308894045851385
0.349010280069647
0.396972925454808
0.434999344755255
0.43676714036785
0.407078185904671
0.356904953746761
0.317169016046362
0.28887773920484
0.297404070576755
0.537230383444218
0.291547033021504
0.324672620695299
0.351469419014547
0.358764415165794
0.342473226109723
0.309359963852414
0.265968250065221
0.231123016549186
0.206168367892144
0.193025151662804
0.238313579561629
0.642267497750914
0.27889716943405
0.30219158325975
0.311578788824215
0.304353703744668
0.277885527142184
0.240620744356269
0.202751959066064
0.174273235867068
0.153006453984176
0.138401649840197
0.149357072966445
0.266011116113965
0.796668555913759
0.262348796351184
0.283734923330452
0.289150841448129
0.268017028214256
0.239193244402303
0.203997409769478
0.170665809879538
0.145723946402634
0.126543643152308
0.112860311133803
0.112389835247015
0.141560911913783
0.285947833432428
0.752232249566108
0.238311091288836
0.206389228439315
0.180345811494266
0.155212891367797
0.133649830873122
0.115470352613721
0.102274996305908
0.0976161927828007
0.104823143701587
0.139297186427452
0.267161840403542
0.691432592396285
0.1919508171512
0.168036881650139
0.14766210288589
0.128363487216318
0.111009309182252
0.0982883202551524
0.0921167273177451
0.0938654177120437
0.106449461170844
0.14259651643507
0.258236049431288
0.666755014406144
0.0982298881541033
0.117071985686109
0.154114365768132
0.260277488886716
0.652406937635238
0.110294792290948
0.137505414302768
0.177770491234935
0.25520681946899
3.02364345326162
3.05835341538442
3.05253662388946
3.04960403194021
3.03226513676743
0.662874879851062
3.00013713898965
2.98838045979743
2.99546907768607
3.00465558655069
3.00796249508925
3.00681645249182
3.00394051422881
2.9994762954023
2.99109566163266
2.97751918913836
2.96596245573261
2.97354362953806
2.99246932825524
3.00427773299478
0.497396050728255
0.197267962168739
0.49603976653589
0.140784337309487
0.230611685548888
0.495392230381319
0.137949679351459
0.197680971588812
0.290461813947954
0.489707809927794
0.153453087567492
0.206635209341577
0.291541165228971
0.360969876679661
0.488634773902549
0.177499307159018
0.225057269625092
0.290221668806951
0.378453308527766
0.429591284933927
0.500700201606905
0.226708515666974
0.274541354652247
0.314189525686013
0.372065728287702
0.441378358424043
0.48286745059621
0.309906184013995
0.374485137228193
0.402059233741387
0.435569120839835
0.452635351530174
0.479780478827076
0.488577186449223
0.339037304447618
0.406566825481275
0.461537724143118
0.511790994681567
0.503672532441554
0.473051260697335
0.453089113306989
0.447818546134943
0.328784980607412
0.373556882440098
0.438768778383225
0.504311371786838
0.506772355396903
0.463574828548927
0.402390621860284
0.369123134226321
0.37089423571148
0.532359583973848
0.537221706712921
0.533723740892909
0.517947241451647
0.307127833865175
0.338240430735983
0.387899622407241
0.432968923426499
0.420387353255012
0.38032311616537
0.329866188748264
0.294953721371138
0.270241478583405
0.288881500634139
0.530219708971178
0.290598442044609
0.320191114752973
0.352420503721178
0.3705102823775
0.350059044750001
0.307970158786608
0.261126424633422
0.225847322997603
0.199666406930059
0.186978763573151
0.228966832841609
0.603273896263176
0.277557581207442
0.29920835264887
0.318526925603111
0.31843343507585
0.287535351301921
0.245460597904645
0.206387519983628
0.177439496174063
0.154999692490846
0.138903816588253
0.145170382532587
0.232713876207496
0.741398228278065
0.26788186883715
0.283834491143921
0.293161322957308
0.283081845801746
0.249623115253309
0.208513847571088
0.173808749539765
0.148565951094304
0.128903645886188
0.1139302232329
0.111547512566861
0.136673925993033
0.277594465342263
0.766084853265067
0.255517478109009
0.27177201039742
0.277627801672287
0.2554551312829
0.225448248926014
0.190895724452944
0.160054405739421
0.136877938434739
0.11828522138214
0.103868059383066
0.0980652117069901
0.10453226609867
0.140191205846432
0.282753406152969
0.719363218712656
0.204375381793848
0.178700854785837
0.154668971231516
0.133349194240573
0.114923312899384
0.100493830374156
0.0930282907789864
0.0939664485108104
0.106518705019344
0.14635377511333
0.270110418727564
0.67554764224281
0.173027698572014
0.151735863654512
0.132053989449451
0.114200575919201
0.100067299249286
0.0918232233297365
0.0904678597435608
0.0979152096396323
0.11682510777203
0.158493259268688
0.271037943289831
0.652050716118216
0.110015774665388
0.137355603301102
0.181295969528395
0.268132255204903
0.670766795820306
0.132265216600076
0.17158386423587
0.216086327380753
0.324232734698863
3.02471770644669
3.05020418506065
3.03429078017122
3.73006693002183
3.04959415554777
0.888957750654395
3.03228292887633
3.00012142561296
2.98838437108533
2.99547885057045
3.00470379617671
3.00809964913782
3.00701746144821
3.00383444881016
2.9982515987981
2.98890124898374
2.97806516607392
2.97319974693783
2.97806331878807
2.9822999625052
2.99773181936069
0.498225770910622
0.185984610317973
0.49622255241642
0.121446241621274
0.197289669408822
0.49251762674343
0.107560154863018
0.14126578709223
0.21965198991632
0.489616063123363
0.111049837767436
0.136792624779966
0.184054646090785
0.253738225337668
0.483454534487319
0.125464972127828
0.149235026495689
0.188013141152358
0.241988845592537
0.291086621823896
0.477608787546676
0.147922466486503
0.169902438169303
0.19986260091506
0.241378663048848
0.289329669709568
0.325753774073215
0.480545919030509
0.182358706348895
0.20878283363513
0.227579720560235
0.254231042168835
0.286672022636687
0.318590005899123
0.344770076422196
0.242827053873847
0.287589103649874
0.306782614837764
0.313512758303001
0.312367157876563
0.316856502423184
0.324316956022601
0.342142544095551
0.287030116463879
0.339425343813381
0.379090865369178
0.392308753981493
0.366932826842626
0.330932570316418
0.306643187153664
0.294445430777032
0.3129396682535
0.298066178140974
0.334585231466428
0.380133317695358
0.405252498094646
0.379291619468003
0.333720417865586
0.284780278853622
0.254227965683632
0.234756058595886
0.263832969139888
0.517502134289437
0.514808391441546
0.508190909604611
0.492830481097807
0.288482857136218
0.314361414080869
0.347748764132216
0.362012490997573
0.326253395481365
0.280911274430086
0.239243300298511
0.20922460625116
0.18496811542488
0.176225567428424
0.221493307993548
0.560898370651567
0.276682149595458
0.300968865973161
0.322606257132444
0.323112111681729
0.284401275790625
0.237965336473743
0.199961976483998
0.172339181663024
0.149662518392437
0.134443021040101
0.1399744902284
0.215356260707138
0.673887235847241
0.267323221736365
0.283463193145292
0.297611268617653
0.292381700480099
0.250773981364586
0.205380757995531
0.171648912843158
0.147561836143244
0.127858486324928
0.112696487551099
0.109409777160068
0.129865829134792
0.251960833605561
0.749123846922788
0.260231213463974
0.270939231842438
0.280231131927936
0.269957052398422
0.233103409357749
0.190617885519192
0.158982292504343
0.136512667496912
0.11837162389494
0.103720711370349
0.0973527826130455
0.102907035564218
0.13709180563625
0.28832469242428
0.737691323485866
0.251456204140409
0.26349187564387
0.269037634413981
0.249723929471711
0.218976774095107
0.185356248926224
0.156456443207715
0.134589666689185
0.116314263820037
0.10131252302672
0.0930974261169726
0.0934426833784313
0.105796058272535
0.14854170528468
0.285132771973574
0.699455467279586
0.181615272365657
0.157704109986416
0.136300638652533
0.117535588411634
0.102027128445138
0.0925555759573297
0.0903971192872428
0.0973265822287786
0.116424194957223
0.162323060539769
0.280752536372049