/*--------------------------------*- C++ -*----------------------------------*\
  =========                 |
  \\      /  F ield         | OpenFOAM: The Open Source CFD Toolbox
   \\    /   O peration     | Website:  https://openfoam.org
    \\  /    A nd           | Version:  12
     \\/     M anipulation  |
\*---------------------------------------------------------------------------*/
/*   Windows 32 and 64 bit porting by blueCAPE: http://www.bluecape.com.pt   *\
|  Based on Windows porting (2.0.x v4) by Symscape: http://www.symscape.com   |
\*---------------------------------------------------------------------------*/
FoamFile
{
    format      ascii;
    class       volScalarField;
    location    "700";
    object      p;
}
// * * * * * * * * * * * * * * * * * * * * * * * * * * * * * * * * * * * * * //

dimensions      [0 2 -2 0 0 0 0];

internalField   nonuniform List<scalar> 
10107
(
83333.3358917951
83333.3363218046
83333.3358607582
83333.3358240549
83333.336458878
83333.3362687361
83333.336002702
83333.3360524474
83333.3358396644
83333.3358344945
83333.3349692976
83333.3363149096
83333.3358540549
83333.3363265453
83333.3361523648
83333.3358222962
83333.3360739372
83333.336239815
83333.3358807986
83333.3359872555
83333.3359001476
83333.3357896145
83333.3357685049
83333.3359024766
83333.3357949508
83333.3342999275
83333.3348790329
83333.335998055
83333.3359375655
83333.3356938316
83333.3363262002
83333.3360444848
83333.3361755623
83333.3360861422
83333.3360829925
83333.335778951
83333.3359215891
83333.3360392885
83333.3360542533
83333.3363538958
83333.3360418781
83333.3360793281
83333.3357589819
83333.3358298668
83333.335979246
83333.3360498056
83333.3359524826
83333.3358849007
83333.3358707538
83333.3359710544
83333.3358872303
83333.3343377651
83333.3343467883
83333.3343642461
83333.3359001799
83333.3357219897
83333.3357345138
83333.3354910702
83333.3362758282
83333.3359586228
83333.3358225291
83333.3360583251
83333.3357526538
83333.3356495176
83333.3358527911
83333.3360189195
83333.3360302951
83333.3363482423
83333.3362147312
83333.3361295236
83333.3358758811
83333.3359789881
83333.3359079165
83333.3356763633
83333.3357306749
83333.3357821601
83333.3360255038
83333.3359096039
83333.3358962426
83333.3359189892
83333.3342552969
83333.334448601
83333.3341559131
83333.334323859
83333.3357257444
83333.3355026717
83333.3354837966
83333.3351469138
83333.3361613876
83333.3359645237
83333.3358155679
83333.3356716493
83333.335732083
83333.3357662363
83333.3355968536
83333.3359844349
83333.3362503337
83333.3362565188
83333.3361919346
83333.3360213852
83333.3361518302
83333.3359845645
83333.3357455073
83333.3358368786
83333.3358743096
83333.3358188465
83333.335620934
83333.3356634631
83333.3357092615
83333.3357246379
83333.3339442917
83333.334193302
83333.3341253941
83333.3340178441
83333.3357628742
83333.3353261415
83333.3353681467
83333.334996072
83333.3360247238
83333.3360689226
83333.3357577648
83333.335590964
83333.3357228942
83333.3356763879
83333.3357247353
83333.3355299262
83333.3361516671
83333.3362094149
83333.3361806381
83333.3360964729
83333.3361851258
83333.3360375395
83333.3358386265
83333.3359832727
83333.3360147514
83333.3358564436
83333.3356583257
83333.3357255845
83333.3357806584
83333.3357887776
83333.3357407497
83333.3356180666
83333.3356548503
83333.3356806848
83333.3356712568
83333.3339002141
83333.3339514887
83333.333920364
83333.3340514051
83333.3357315398
83333.3356765009
83333.3351088988
83333.3348794633
83333.3356706491
83333.3360025692
83333.3359357028
83333.3355459584
83333.3356565273
83333.3356028733
83333.3357336219
83333.3357294495
83333.3356781165
83333.3359621315
83333.3361444165
83333.3360905383
83333.3360890932
83333.336160307
83333.3361022657
83333.3359062945
83333.3360512559
83333.3360909824
83333.3358834264
83333.3357118224
83333.3358172396
83333.3359033067
83333.3358655247
83333.3357781997
83333.3356540294
83333.3357001306
83333.3357317981
83333.3357304384
83333.3356721985
83333.3356172895
83333.3356412294
83333.3356453363
83333.3356099123
83333.3338953843
83333.333701087
83333.3341974836
83333.3345585448
83333.3349799585
83333.3357217777
83333.3353933067
83333.3349631542
83333.3354231446
83333.3357884756
83333.3360257395
83333.3355194504
83333.3356021551
83333.335554705
83333.3356925227
83333.3357502212
83333.3357790918
83333.3359132545
83333.3356448839
83333.335959759
83333.335940914
83333.3360203528
83333.3360827464
83333.336036177
83333.3359153927
83333.3360531643
83333.3360940285
83333.3359104215
83333.3357572805
83333.3358861475
83333.3359843789
83333.3359257001
83333.3358070939
83333.3356434187
83333.3357061929
83333.3357788311
83333.335806831
83333.3357834484
83333.3357165869
83333.3356484565
83333.3356781758
83333.3356933339
83333.3356718108
83333.3356100652
83333.3356098979
83333.3356180164
83333.3356034492
83333.3355629065
83333.3337399742
83333.3337639508
83333.3349015143
83333.3337417322
83333.3348490014
83333.3352654289
83333.3357617316
83333.335411571
83333.3353363718
83333.3355736049
83333.3360415104
83333.3354965906
83333.3355633069
83333.3355227795
83333.3356411181
83333.3357162972
83333.3357851425
83333.3358276168
83333.336142861
83333.3355576568
83333.3356958692
83333.335716736
83333.3358481523
83333.3359146922
83333.3359476457
83333.3358582236
83333.3359819932
83333.3360112016
83333.3358979643
83333.3357662826
83333.3358998398
83333.3359900061
83333.3359342485
83333.3358197392
83333.3356738421
83333.3357548237
83333.3358488242
83333.3358687708
83333.3358203176
83333.3357418599
83333.3356110508
83333.3356460881
83333.335695055
83333.3357302858
83333.3357427446
83333.3357163363
83333.3356522606
83333.3356409254
83333.3356556003
83333.3356503015
83333.3356124198
83333.3355665413
83333.3355941921
83333.3355890665
83333.3355642275
83333.3355276032
83333.3338958936
83333.3345277214
83333.3337531282
83333.3335651938
83333.3348167694
83333.3349821174
83333.3357937683
83333.3362995537
83333.3353514903
83333.3354875639
83333.3360653214
83333.3354754274
83333.3355347769
83333.3354962857
83333.3355966215
83333.3356605556
83333.3357355629
83333.3357888841
83333.3358198309
83333.3363687241
83333.3356048963
83333.3356195872
83333.3356362398
83333.3356469732
83333.3357150602
83333.3358527687
83333.3357265196
83333.3358180534
83333.3358757415
83333.3358453702
83333.3357237851
83333.3358436433
83333.335924853
83333.3358979755
83333.3358135503
83333.3356808622
83333.3357684881
83333.3358660259
83333.3358831069
83333.3358285372
83333.3357550589
83333.335639035
83333.3356781273
83333.3357438411
83333.3357819199
83333.3357805814
83333.3357417229
83333.3356759482
83333.335594409
83333.3356157294
83333.3356485735
83333.3356765715
83333.3356936424
83333.3356897022
83333.3356537627
83333.3356016447
83333.3356274142
83333.3356269043
83333.3356062328
83333.3355687857
83333.3355348049
83333.3355729752
83333.3355584279
83333.3355306811
83333.3354985863
83333.3349764582
83333.3342383479
83333.3332174245
83333.3335151761
83333.3348449505
83333.3349820449
83333.3359262267
83333.3372540913
83333.3355108592
83333.3354666355
83333.3358373025
83333.3354566975
83333.3355096546
83333.3354739073
83333.3355645176
83333.3356162319
83333.3356743008
83333.3357425055
83333.3357691411
83333.3357809917
83333.3362059751
83333.3357163305
83333.3356518907
83333.3356705892
83333.3355793614
83333.3356529397
83333.33578282
83333.3355719882
83333.335654524
83333.3357636454
83333.3357941425
83333.3356334112
83333.3357175016
83333.3357973951
83333.3358220724
83333.3357790436
83333.3356513802
83333.3357289712
83333.3358178353
83333.3358488414
83333.3358135884
83333.3357553096
83333.3356518736
83333.3356882788
83333.3357596961
83333.3358015618
83333.3357974935
83333.3357554362
83333.3356893305
83333.3356273145
83333.335641781
83333.3356803167
83333.3357140845
83333.3357286134
83333.3357174308
83333.3356788023
83333.3356240458
83333.3355815467
83333.3355978409
83333.3356211455
83333.3356428784
83333.3356587635
83333.3356606897
83333.3356421319
83333.335603035
83333.3355657563
83333.3356067234
83333.3355945738
83333.3355676424
83333.3355349746
83333.3355081049
83333.3355482634
83333.335528402
83333.3355015423
83333.3354749781
83333.3379530965
83333.3338105747
83333.33369799
83333.3337957126
83333.3350818724
83333.3349767628
83333.3354446332
83333.3362469872
83333.3355253565
83333.3355452902
83333.3355664472
83333.3354408652
83333.3354875518
83333.3354552056
83333.335537308
83333.3355848734
83333.3356309037
83333.335689657
83333.3357324605
83333.3357479325
83333.3357574137
83333.3355318502
83333.3357642768
83333.33571596
83333.335745991
83333.3356088446
83333.3356755622
83333.3357588178
83333.3355242272
83333.3356059534
83333.3357150196
83333.33577032
83333.3355284568
83333.3355815984
83333.3356897994
83333.3357655448
83333.3357540604
83333.3355891338
83333.3356401294
83333.3357150838
83333.3357709981
83333.3357724844
83333.3357359304
83333.3356332345
83333.335662499
83333.3357262085
83333.335775869
83333.3357832909
83333.3357519164
83333.3356966009
83333.335650651
83333.3356552935
83333.3356912765
83333.3357304279
83333.3357472279
83333.3357328268
83333.3356921556
83333.3356379245
83333.335619324
83333.3356259406
83333.3356446414
83333.3356694407
83333.3356872734
83333.3356879578
83333.3356670377
83333.3356263475
83333.3355872457
83333.3355679227
83333.3355828242
83333.3356011265
83333.335617962
83333.3356319557
83333.3356364925
83333.3356258472
83333.3355994735
83333.335565599
83333.335536371
83333.3355807743
83333.3355620725
83333.3355349822
83333.3355071393
83333.3354855005
83333.3355222649
83333.3355008041
83333.3354768718
83333.3354557674
83333.334577696
83333.3340658699
83333.333826796
83333.3340788513
83333.3351509792
83333.3350786765
83333.3349711179
83333.3347153921
83333.3356788562
83333.3356083045
83333.3355572924
83333.3355978634
83333.3354281125
83333.3354686013
83333.3354398239
83333.335513276
83333.3355579037
83333.3355988395
83333.3356442733
83333.3356911201
83333.3357172179
83333.3357354795
83333.335681244
83333.335483863
83333.3357115805
83333.3357361361
83333.335761379
83333.3356609725
83333.3357191673
83333.3357651128
83333.3357334357
83333.335561981
83333.3356214306
83333.3357123597
83333.3357409028
83333.3357533392
83333.3354975319
83333.335540589
83333.3356489997
83333.3357340232
83333.3357301608
83333.3355215615
83333.3355394912
83333.3356129676
83333.3357080565
83333.3357408966
83333.3357178682
83333.3355852114
83333.3356003451
83333.3356505266
83333.3357075479
83333.3357405492
83333.3357288673
83333.335691715
83333.3356417055
83333.3356405094
83333.3356688645
83333.335709848
83333.3357363281
83333.3357303163
83333.3356963392
83333.3356472225
83333.3356508991
83333.3356472584
83333.3356560295
83333.335680742
83333.3357019861
83333.3357037154
83333.3356820555
83333.3356406531
83333.3356008445
83333.335604189
83333.3356144302
83333.3356236097
83333.3356387849
83333.3356549169
83333.3356605143
83333.3356497191
83333.3356226293
83333.3355875486
83333.3355572666
83333.335552021
83333.3355669766
83333.3355825961
83333.335596781
83333.3356082434
83333.3356137915
83333.335608502
83333.3355906119
83333.3355634798
83333.3355347983
83333.3355112877
83333.3355526191
83333.335531548
83333.3355068289
83333.3354842194
83333.3354669634
83333.3354975259
83333.335476675
83333.3354566275
83333.335440203
83333.3334320111
83333.3338220927
83333.3340571542
83333.3340367261
83333.3353029547
83333.335079071
83333.3350041591
83333.3356987802
83333.335734756
83333.3355192681
83333.3356351702
83333.3354891878
83333.3355485748
83333.3356633998
83333.3355460838
83333.3354179302
83333.3354531755
83333.3354274515
83333.3354925328
83333.3355330228
83333.3355715081
83333.3356075579
83333.3356475445
83333.3356773433
83333.3356969627
83333.3356994836
83333.3356502522
83333.3356571707
83333.3356887802
83333.3357059579
83333.3356796032
83333.3357127596
83333.3357433178
83333.3357686022
83333.3357181334
83333.3356141537
83333.3356570688
83333.3357031521
83333.3357494648
83333.3356746854
83333.3357085975
83333.3357322326
83333.3355334438
83333.3355717925
83333.3356501046
83333.3357242752
83333.3356849046
83333.3357135526
83333.3357080445
83333.3357090757
83333.335499188
83333.3355091202
83333.3355787809
83333.3356802648
83333.3357152581
83333.3356960509
83333.3355350279
83333.3355324231
83333.3355689811
83333.335643502
83333.3357044889
83333.3357077682
83333.3356797443
83333.3356012596
83333.3355947061
83333.3356148732
83333.3356557446
83333.3356969133
83333.3357093943
83333.3356889239
83333.335648529
83333.3356510726
83333.335642069
83333.3356436074
83333.3356650611
83333.3356914175
83333.3357015035
83333.335686512
83333.335649151
83333.3356093508
83333.3356378403
83333.335642413
83333.3356394815
83333.3356487705
83333.33566574
83333.3356739547
83333.3356643893
83333.3356375807
83333.3356020809
83333.3355709251
83333.3355805723
83333.3355974941
83333.3356064627
83333.335615977
83333.3356276947
83333.335634609
83333.3356297825
83333.3356121816
83333.3355850507
83333.3355555546
83333.3355311127
83333.3355357803
83333.3355493008
83333.3355633962
83333.3355764815
83333.3355866921
83333.3355921423
83333.3355899066
83333.335578234
83333.3355577163
83333.3355326369
83333.3355090264
83333.3354905833
83333.335525118
83333.3355042231
83333.3354831604
83333.3354656102
83333.3354520569
83333.3354753269
83333.3354565007
83333.3354402942
83333.3354275399
83333.3336815977
83333.3339658608
83333.3342265489
83333.3350024916
83333.3356495866
83333.3357051494
83333.3357243625
83333.3356891614
83333.3356460208
83333.3356274844
83333.3354101056
83333.335440841
83333.3354174854
83333.3354752649
83333.3355114031
83333.3355468997
83333.3355778796
83333.3356102372
83333.335638627
83333.3356622838
83333.3356719267
83333.3356662001
83333.3356732144
83333.3356224963
83333.3356504948
83333.3356471516
83333.3356591238
83333.3356708493
83333.3356931729
83333.3356983747
83333.3356900239
83333.3357192737
83333.3356377748
83333.3356632814
83333.3356843003
83333.3357193967
83333.3357514093
83333.3355841669
83333.3356145804
83333.3356542357
83333.3356942721
83333.3357336169
83333.335741029
83333.3356953126
83333.3357243038
83333.3355284069
83333.3355438091
83333.3355986822
83333.3356722129
83333.3356989053
83333.3356757472
83333.3356767028
83333.3356814454
83333.3356834393
83333.3355169769
83333.3355107963
83333.3355437148
83333.3356226144
83333.3356845202
83333.3356883626
83333.33566487
83333.3355583716
83333.3355445708
83333.3355580798
83333.3356042345
83333.3356616593
83333.3356886481
83333.3356771909
83333.335641947
83333.3356199783
83333.335606547
83333.3356053451
83333.3356253916
83333.3356589073
83333.3356826696
83333.3356794862
83333.3356502272
83333.335612337
83333.3356473392
83333.3356458638
83333.3356362813
83333.3356400647
83333.3356573026
83333.3356715704
83333.3356685102
83333.3356458154
83333.3356113446
83333.3355788307
83333.3356114027
83333.3356276596
83333.3356272863
83333.3356278403
83333.3356375418
83333.3356459712
83333.3356429329
83333.335626293
83333.3355996229
83333.3355698176
83333.3355447831
83333.3355546994
83333.3355741576
83333.3355865138
83333.335595746
83333.3356045206
83333.3356105217
83333.335608803
83333.335597564
83333.3355777295
83333.3355527117
83333.3355284013
83333.3355092009
83333.3355319569
83333.3355433444
83333.3355558903
83333.3355662134
83333.3355720772
83333.3355716851
83333.335564144
83333.3355488363
83333.3355280985
83333.3355064094
83333.3354880943
83333.3354738372
83333.3355000908
83333.3354810041
83333.3354639857
83333.3354506698
83333.335440052
83333.335455966
83333.3354398472
83333.3354270669
83333.3354172238
83333.3338590329
83333.3356159559
83333.3356493662
83333.335679429
83333.3357343205
83333.3357341504
83333.3354043034
83333.3354311864
83333.3354097141
83333.3354612933
83333.3354931718
83333.3355250013
83333.3355540482
83333.3355805829
83333.3356076138
83333.3356293967
83333.3356447223
83333.3356482062
83333.3356499997
83333.3356519347
83333.3355987884
83333.3356239191
83333.3356188235
83333.3356417918
83333.3356459159
83333.3356400704
83333.3356372243
83333.3356520018
83333.335656725
83333.3356875342
83333.3357160059
83333.3357114055
83333.3356136773
83333.335633635
83333.3356521488
83333.3356712204
83333.3356993152
83333.3355736813
83333.3355898049
83333.3356204322
83333.3356581272
83333.33567415
83333.3357131183
83333.3357012956
83333.3357089719
83333.3355411322
83333.3355408472
83333.3355714783
83333.3356289902
83333.3356717587
83333.3356719379
83333.3356501324
83333.335656876
83333.3356612445
83333.3356555973
83333.3355430285
83333.3355280635
83333.3355418546
83333.3355907803
83333.3356478998
83333.3356741309
83333.3356640193
83333.3356326865
83333.335585718
83333.3355649008
83333.3355643647
83333.3355898271
83333.3356316779
83333.3356640473
83333.3356682427
83333.3356451423
83333.335610011
83333.3356304907
83333.3356207521
83333.3356097462
83333.3356133034
83333.3356341574
83333.3356566598
83333.3356625669
83333.3356464263
83333.3356148116
83333.3355824629
83333.3356285537
83333.3356392417
83333.3356322727
83333.3356266055
83333.3356339832
83333.335645611
83333.3356470694
83333.3356335241
83333.3356083347
83333.3355785978
83333.3355530738
83333.3355793324
83333.3356021121
83333.3356099376
83333.3356108166
83333.3356155927
83333.3356213847
83333.3356209538
83333.335610477
83333.335591425
83333.3355667096
83333.3355421674
83333.3355225908
83333.3355493726
83333.3355630448
83333.3355744965
83333.3355836286
83333.3355888972
83333.3355886959
83333.3355816767
83333.3355673137
83333.3355469292
83333.3355250336
83333.3355060274
83333.3354914037
83333.3355243782
83333.3355350786
83333.3355461445
83333.3355530736
83333.3355544337
83333.3355498139
83333.3355385467
83333.3355216733
83333.3355025879
83333.3354850116
83333.335471403
83333.3354602456
83333.335478246
83333.3354618434
83333.3354485867
83333.3354386043
83333.3354304912
83333.3354392585
83333.3354261422
83333.3354166466
83333.3354091121
83333.3355953166
83333.3356153748
83333.3356387179
83333.3356642884
83333.3354005032
83333.3354237773
83333.335403909
83333.3354501711
83333.335478255
83333.3355064727
83333.3355333858
83333.3355568585
83333.3355818222
83333.3356024749
83333.335617802
83333.3356260333
83333.3356301887
83333.3356309019
83333.3356235107
83333.3355810597
83333.3356007992
83333.3355965932
83333.3356216894
83333.3356213936
83333.335613386
83333.3356300567
83333.335639359
83333.3356390843
83333.3356274961
83333.3356213764
83333.3356349366
83333.3356455082
83333.3356491119
83333.3356028243
83333.3356154149
83333.3356324929
83333.3356506594
83333.3356558259
83333.3355781951
83333.3355817232
83333.335602127
83333.3356320601
83333.3356555209
83333.3356544202
83333.3355622818
83333.3355526339
83333.3355681588
83333.3356058287
83333.3356443217
83333.3356602175
83333.3356500612
83333.3356222477
83333.3356336692
83333.3356382694
83333.3356362674
83333.3355735834
83333.335551038
83333.3355539033
83333.3355833945
83333.3356237202
83333.3356530668
83333.3356571849
83333.3356370192
83333.3356049975
83333.3356089977
83333.3355880309
83333.3355779883
83333.3355892228
83333.335616609
83333.3356429417
83333.3356531254
83333.3356413851
83333.3356127719
83333.3355826033
83333.3356269607
83333.3356273294
83333.3356165183
83333.3356109338
83333.3356208148
83333.3356368429
83333.335643742
83333.3356346204
83333.3356115177
83333.3355826889
83333.335557234
83333.3356002744
83333.335619918
83333.3356221844
83333.3356160897
83333.3356174323
83333.3356243744
83333.3356264123
83333.335617748
83333.3355997632
83333.3355755371
83333.3355510036
83333.3355312967
83333.3355511518
83333.3355720998
83333.3355857125
83333.3355917815
83333.3355966395
83333.3356002655
83333.335600468
83333.3355938915
83333.3355802825
83333.3355604846
83333.3355386412
83333.3355192546
83333.3355044468
83333.3355396324
83333.3355517246
83333.3355629987
83333.3355692031
83333.3355699743
83333.3355657311
83333.3355555045
83333.3355392362
83333.3355202004
83333.3355022361
83333.3354882234
83333.3354769454
83333.3355156149
83333.3355265489
83333.3355348212
83333.3355378484
83333.3355356357
83333.3355277248
83333.3355144166
83333.3354978485
83333.3354814145
83333.3354679186
83333.3354579629
83333.3354492858
83333.3354595003
83333.3354461256
83333.3354364309
83333.3354290806
83333.335423141
83333.3354251953
83333.3354153283
83333.3354086543
83333.3354031687
83333.3355791459
83333.3355945703
83333.3356107348
83333.3353982995
83333.3354185652
83333.3354000606
83333.3354415098
83333.3354662498
83333.3354912322
83333.3355153657
83333.3355373958
83333.3355592578
83333.3355794904
83333.3355949751
83333.3356046795
83333.3356094527
83333.3356112037
83333.3356089027
83333.3356021426
83333.3355659244
83333.3355825571
83333.3355794781
83333.3356018073
83333.3355988828
83333.3355931426
83333.335615291
83333.3356198101
83333.3356155367
83333.3356047425
83333.3356187948
83333.3356282943
83333.3356340032
83333.3356281843
83333.3356129629
83333.3356119852
83333.3356209138
83333.3356323966
83333.3356399682
83333.3356351067
83333.3356004875
83333.3356060796
83333.3356188553
83333.3356338012
83333.3356439744
83333.3356384536
83333.3355887735
83333.3355853275
83333.3355963171
83333.3356172608
83333.3356374869
83333.335645826
83333.3356358049
83333.3355846019
83333.335570129
83333.3355757607
83333.3355993018
83333.3356264359
83333.3356444903
83333.3356449892
83333.3356265991
83333.3355976874
83333.3356096564
83333.3356164742
83333.3356168153
83333.3355992481
83333.3355768788
83333.3355701317
83333.3355868221
83333.3356126975
83333.335635362
83333.3356442043
83333.335633995
83333.3356077233
83333.3355802954
83333.3356180465
83333.3356068762
83333.335593674
83333.3355950112
83333.3356107722
83333.3356284869
83333.3356374316
83333.335631104
83333.3356101287
83333.3355829765
83333.3355588915
83333.3356094776
83333.3356211069
83333.3356174228
83333.3356098339
83333.335612558
83333.3356215295
83333.3356260961
83333.3356200143
83333.3356034528
83333.335580017
83333.3355558717
83333.3355361735
83333.3355708502
83333.3355924587
83333.3356031438
83333.3356022985
83333.3356025704
83333.3356059985
83333.3356071596
83333.3356014946
83333.3355886448
83333.3355694791
83333.3355477688
83333.3355283264
83333.3355133938
83333.3355330634
83333.3355458719
83333.3355590889
83333.3355693161
83333.3355771715
83333.3355809471
83333.3355813368
83333.3355773112
83333.3355678165
83333.3355523256
83333.3355334733
83333.3355153395
83333.3355008898
83333.3354896967
83333.3355298967
83333.3355422038
83333.3355501785
83333.3355523216
83333.3355500064
83333.3355429746
83333.3355303769
83333.335514246
83333.3354977617
83333.3354840291
83333.3354740025
83333.3354651978
83333.3355084607
83333.3355172017
83333.3355217988
83333.3355215654
83333.3355166238
83333.3355065977
83333.3354926551
83333.3354774547
83333.3354641512
83333.3354543665
83333.3354473306
83333.3354407372
83333.3354436388
83333.3354336262
83333.3354271877
83333.3354219231
83333.3354179666
83333.3354139944
83333.3354072827
83333.3354028189
83333.3353993172
83333.3355649013
83333.3355781307
83333.3355917853
83333.335397156
83333.3354153127
83333.335397906
83333.3354351046
83333.3354568328
83333.3354788882
83333.3355003928
83333.3355206373
83333.3355397774
83333.3355585212
83333.3355744603
83333.3355859303
83333.3355921592
83333.335594777
83333.3355951417
83333.335592346
83333.335585724
83333.3355526821
83333.3355668778
83333.3355646376
83333.3355841342
83333.3355809315
83333.3355766582
83333.3355992869
83333.3356000776
83333.3355949857
83333.3355871725
83333.3356073881
83333.3356135267
83333.3356150524
83333.3356070846
83333.3355948618
83333.3356093226
83333.3356171776
83333.3356243122
83333.3356255027
83333.3356149549
83333.3355988029
83333.3356057899
83333.3356117141
83333.3356201379
83333.3356285235
83333.3356300258
83333.3356190818
83333.3356003383
83333.335602831
83333.335610631
83333.3356213088
83333.3356308866
83333.3356325379
83333.3356200644
83333.3355969278
83333.3355934045
83333.3355975321
83333.3356105224
83333.3356246944
83333.3356340509
83333.3356320185
83333.3356141639
83333.3355985495
83333.3355879728
83333.3355861712
83333.335599471
83333.3356165189
83333.3356306942
83333.3356348239
83333.3356243661
83333.3356004576
83333.3355755231
83333.3355884099
83333.3355965166
83333.3355995452
83333.3356081905
83333.3355977601
83333.3355871204
83333.3355933686
83333.3356081925
83333.3356230534
83333.3356306281
83333.3356251826
83333.3356060146
83333.3355806951
83333.3355582407
83333.3356084216
83333.3356123877
83333.3356041296
83333.3356005008
83333.3356073833
83333.3356172086
83333.335622583
83333.3356183292
83333.3356032878
83333.3355810406
83333.3355578385
83333.3355387318
83333.3355838243
83333.3356022452
83333.3356076358
83333.3356033295
83333.3356027143
83333.3356067356
83333.3356087751
83333.3356046247
83333.3355928753
83333.3355745092
83333.3355532281
83333.3355339298
83333.3355189067
83333.3355470389
83333.3355644194
83333.3355780634
83333.3355829255
83333.33558539
83333.3355877487
83333.3355884112
83333.3355848764
83333.3355760585
83333.3355613052
83333.3355427953
83333.3355246635
83333.3355099746
83333.3354988292
83333.3355264666
83333.3355292369
83333.3355363608
83333.3355459859
83333.3355564073
83333.3355618973
83333.3355630173
83333.3355607402
83333.3355544413
83333.3355427238
83333.3355270184
83333.3355105193
83333.3354965747
83333.3354862839
83333.335477669
83333.3355226097
83333.3355316217
83333.3355352755
83333.3355346191
83333.3355301628
83333.3355208696
83333.3355075999
83333.3354927424
83333.3354794617
83333.335469548
83333.3354627229
83333.3354559406
83333.3355013192
83333.3355065396
83333.3355077854
83333.3355053038
83333.3354982754
83333.3354869471
83333.335473284
83333.3354602765
83333.3354503537
83333.3354441551
83333.3354392004
83333.3354344552
83333.335430865
83333.3354242892
83333.3354203779
83333.3354169801
83333.3354147559
83333.3354056453
83333.3354017259
83333.3353988819
83333.3353973365
83333.3355522341
83333.3355638263
83333.3355757806
83333.3353966181
83333.3354134737
83333.3353969284
83333.3354309152
83333.3354496774
83333.3354691641
83333.3354881802
83333.3355063235
83333.3355234258
83333.3355401293
83333.3355556672
83333.3355680483
83333.3355765181
83333.3355807009
83333.335582336
83333.335581878
83333.3355782014
83333.3355712236
83333.3355411049
83333.3355531155
83333.3355516637
83333.3355679954
83333.3355655295
83333.3355622594
83333.3355831111
83333.3355823321
83333.3355777785
83333.3355719749
83333.3355938507
83333.3355972581
83333.3355961763
83333.3355888784
83333.33557952
83333.3355985929
83333.335605454
83333.3356094954
83333.335607461
83333.3355971187
83333.3355840262
83333.3355997336
83333.3356075809
83333.3356139218
83333.3356176654
83333.3356141916
83333.3356016294
83333.3355852933
83333.3355981169
83333.3356049099
83333.3356108666
83333.3356174312
83333.3356211162
83333.3356171552
83333.3356029006
83333.3355957038
83333.3356007918
83333.3356055667
83333.3356126636
83333.3356200372
83333.3356234309
83333.3356178437
83333.3356001218
83333.3355952534
83333.3355982873
83333.3356004548
83333.335606563
83333.3356155896
83333.3356229714
83333.3356237292
83333.3356128673
83333.3355909923
83333.3355967446
83333.3355976653
83333.3355949743
83333.3356003232
83333.335609862
83333.3356193185
83333.3356233628
83333.3356172343
83333.3355995693
83333.3355761575
83333.3355555359
83333.3355690328
83333.3355784262
83333.3355836218
83333.3355972645
83333.3356028167
83333.3355973067
83333.3355975108
83333.335604105
83333.3356126845
83333.3356174745
83333.33561403
83333.3356003538
83333.335579466
83333.3355575293
83333.335539349
83333.3355850833
83333.3356009317
83333.3356017307
83333.3355982699
83333.3355997204
83333.3356044527
83333.3356071009
83333.3356042108
83333.3355936652
83333.3355762709
83333.3355557498
83333.3355369603
83333.3355220662
83333.3355581175
83333.3355764062
83333.3355874503
83333.3355881348
83333.3355874201
83333.3355896343
83333.3355907767
83333.3355883798
83333.3355805415
83333.3355665964
83333.3355486672
83333.335530768
83333.3355160526
83333.3355048422
83333.3355325307
83333.3355423699
83333.335553168
83333.3355601903
83333.3355651647
83333.3355685155
83333.3355696147
83333.3355679111
83333.3355623261
83333.3355514404
83333.3355362604
83333.3355198909
83333.3355058458
83333.3354952512
83333.3354868995
83333.3355271296
83333.3355235901
83333.3355225921
83333.3355263187
83333.3355359441
83333.3355430705
83333.335545245
83333.335544446
83333.3355406233
83333.3355322236
83333.3355195737
83333.3355050054
83333.3354916783
83333.3354816267
83333.3354747913
83333.3354681605
83333.3355143853
83333.3355189305
83333.3355196593
83333.335517362
83333.3355110152
83333.3355004945
83333.3354873992
83333.3354746818
83333.335464805
83333.3354586153
83333.3354540384
83333.3354489856
83333.3354930064
83333.3354948445
83333.3354940951
83333.3354895487
83333.3354806589
83333.3354687743
83333.3354564372
83333.3354463447
83333.3354400146
83333.3354366196
83333.3354333091
83333.3354303208
83333.3354212926
83333.3354178435
83333.3354156567
83333.3354139339
83333.3354130324
83333.3353999861
83333.3353979877
83333.3353967004
83333.3353964037
83333.3355410285
83333.3355512593
83333.335561682
83333.3354126212
83333.3353964208
83333.3354284602
83333.3354448265
83333.3354617066
83333.3354785162
83333.3354945752
83333.335509826
83333.3355246565
83333.3355389624
83333.3355514458
83333.3355611724
83333.3355672995
83333.3355703486
83333.3355712443
83333.3355696869
83333.3355651875
83333.3355581009
83333.3355311397
83333.3355411477
83333.3355403135
83333.3355535677
83333.3355520636
83333.3355497173
83333.3355673191
83333.3355664662
83333.3355630008
83333.3355585405
83333.335579027
83333.3355811392
83333.335578974
83333.3355729747
83333.3355658308
83333.3355860638
83333.3355917839
83333.3355934586
83333.3355899079
83333.3355809743
83333.3355707402
83333.3355884432
83333.3355967677
83333.3356018451
83333.3356029037
83333.335597644
83333.335586064
83333.3355728148