/*--------------------------------*- C++ -*----------------------------------*\
  =========                 |
  \\      /  F ield         | OpenFOAM: The Open Source CFD Toolbox
   \\    /   O peration     | Website:  https://openfoam.org
    \\  /    A nd           | Version:  12
     \\/     M anipulation  |
\*---------------------------------------------------------------------------*/
/*   Windows 32 and 64 bit porting by blueCAPE: http://www.bluecape.com.pt   *\
|  Based on Windows porting (2.0.x v4) by Symscape: http://www.symscape.com   |
\*---------------------------------------------------------------------------*/
FoamFile
{
    format      ascii;
    class       surfaceScalarField;
    location    "700";
    object      phi;
}
// * * * * * * * * * * * * * * * * * * * * * * * * * * * * * * * * * * * * * //

dimensions      [0 3 -1 0 0 0 0];

internalField   nonuniform List<scalar> 
28758
(
-2.01932349765972e-05
1.14839626146343e-05
-5.38151198661509e-06
-6.60951482395681e-05
3.9986539973493e-05
5.91537184631712e-06
-3.47320748224751e-05
-2.87596030754277e-06
1.07261737517447e-05
-4.0116562452908e-06
-0.000114340794485037
3.67774587497219e-05
1.14681880926497e-05
8.63145343870233e-05
-5.34823462352135e-05
7.54840895649848e-06
-3.94059468811008e-07
3.58020618589413e-06
1.4375374350709e-05
-1.31403553224461e-06
-1.81139047244739e-05
6.30438462196008e-05
6.65252060377225e-06
-7.28150458439583e-07
-1.04113236251782e-06
5.44641212338824e-07
-1.65131822628723e-06
-4.26670025724696e-06
-4.37689313746304e-07
-3.54178430906865e-08
4.46436009419725e-06
5.89625463451115e-06
-3.27693858794178e-05
2.30940916142487e-05
-7.0295923787084e-06
-6.59457710281469e-06
1.16924395663815e-05
9.95053221405829e-06
5.92117881120564e-05
-5.94426490729138e-05
-6.92598539245174e-07
8.47187081547417e-06
-2.37070404520545e-07
-6.0095672202571e-06
1.55114193359955e-06
4.30143619600386e-06
1.12809958773406e-05
1.1852346554155e-05
1.88691044435705e-05
-8.6841562256377e-06
4.48810637103629e-06
2.64494408700602e-06
-1.40945090299057e-05
3.88537554602749e-05
1.63386366714697e-05
-2.24775176244892e-05
3.11215728155567e-05
2.15754684454586e-05
2.44921671922458e-06
-2.71971890857511e-06
5.534467212035e-07
6.36957380889456e-06
-5.46904870796164e-07
-5.66758055314074e-07
7.25305320629897e-08
-1.13048673797847e-06
3.52954598364588e-07
-4.2324917172062e-07
2.1670747824179e-06
-4.69810993033812e-07
-5.14782645313813e-07
1.74095499231949e-06
4.29660674545976e-06
3.85071699228037e-06
-6.50959070246776e-06
5.42530210779736e-06
-4.80951385349891e-05
1.10727560933782e-05
6.73824021449472e-07
4.32984906858248e-05
-8.21784272529346e-05
2.69690658152765e-05
1.65737175350894e-05
9.1362702960835e-06
5.83288600119871e-06
6.26237085819549e-06
1.19053261162351e-05
-5.57181479184063e-06
-1.9699127298119e-05
1.26730169596664e-05
-9.87981144466095e-06
7.12638143432126e-05
-7.99712669424128e-05
5.74084371569689e-06
2.13182948119446e-05
1.4067393482456e-05
1.4537374064507e-05
1.95544907334095e-06
3.7832751764922e-06
8.79318287608401e-08
3.4229788733688e-06
7.90525078801942e-07
6.68662342972583e-06
1.07153429148106e-05
-1.28965400622723e-05
7.34692083775703e-06
-1.81550318204767e-05
-4.15611841203256e-05
2.30199278403752e-05
6.22520186629821e-05
2.82589676784093e-06
5.49017667864585e-07
2.18385799549752e-06
-2.49649470119415e-05
1.16027510010417e-05
1.11730168788674e-05
-2.05217660966872e-05
2.65538193671838e-05
1.03441863872869e-05
1.03893011501664e-05
-8.03178356801736e-06
5.9729472496704e-05
2.55154596417579e-05
-1.83255617315816e-05
2.06185928704268e-05
7.38932262544882e-06
-2.44354051343831e-05
-2.01298137858377e-05
3.29449540199886e-05
1.1030726707195e-05
1.13980163461279e-05
-4.21150595837812e-06
5.6520059495312e-06
-2.39196693029292e-09
7.05652023064573e-07
-6.18501774570804e-07
6.05189730982468e-07
-5.13992475839691e-06
-1.52788963071978e-06
-4.32968574830344e-07
8.22509564292949e-08
-1.30641318008938e-06
2.18100521846087e-07
7.93203691968349e-07
1.67137629028822e-06
4.20971148433432e-07
-3.95135291589152e-06
1.57843679131884e-06
-1.72796185400422e-06
6.12941793240665e-06
5.77468123857307e-06
-1.18748872386332e-05
1.1601148309181e-05
-7.82735302780404e-05
1.43841581549721e-05
1.15609945060176e-05
2.24567682916469e-06
-4.3109686028882e-05
2.17094291888467e-05
1.04719455838425e-05
8.75144576869166e-06
1.10471047972636e-05
-1.11721645622766e-05
-2.52329689513222e-05
5.65890455670713e-06
4.01976137648181e-05
-1.81165024333883e-05
-1.72955052973974e-05
1.36282549116533e-05
-5.72630343798702e-06
0.000113980468491005
-7.2338004476587e-05
8.42206423332206e-06
4.76336271407936e-07
4.09746435591772e-06
-1.9561550563125e-05
1.30814221014658e-05
6.91809923495958e-06
-1.13087124867696e-05
6.94657080881157e-06
5.98275897157927e-06
-5.68680610114149e-06
5.48142517198468e-05
-6.00085092660017e-06
1.55686020988851e-05
3.85125055402197e-06
8.75052924202865e-07
-2.3600547907308e-05
9.86404123299899e-06
-1.81335379934393e-07
-2.48051406570545e-05
1.45791967433664e-05
1.30692846318788e-06
-2.14591671046597e-05
3.85279363762065e-05
2.62700782635438e-05
-1.87788933033748e-05
2.20700377714666e-05
4.93711115614851e-06
-1.3579968088381e-05
4.57569422233685e-05
1.77668745481357e-05
-8.37296729382877e-07
7.59174771135318e-05
5.87289398973944e-05
-1.17293740375241e-05
1.81807877206412e-05
2.75682673703094e-06
-1.32981141996094e-05
2.52315940969289e-05
8.59776198405622e-06
-2.64255562689508e-05
3.85851260009594e-05
2.62004362130713e-05
5.91610976770172e-07
-1.7085569139866e-07
-5.31791448515748e-06
-8.40448691386156e-07
-6.94178653923797e-08
4.88758640847406e-06
1.9372382089105e-06
-1.33408030141555e-06
6.74364943259437e-06
1.39194137299496e-07
-1.13442558102106e-05
4.54740958298958e-06
-3.53008923911937e-05
7.70642989650386e-06
8.05849765909745e-06
-3.12550791361845e-06
2.93581218078332e-06
9.75029742708073e-06
-6.07732616126241e-05
1.19553799284171e-05
-2.63510304559289e-06
9.82813333054352e-06
4.04285274014944e-05
-5.68343834796782e-05
-1.10475784553585e-05
2.22047369422043e-06
4.50687221931737e-05
-2.5185015869894e-05
-3.65181299408953e-05
4.99782571152635e-06
-3.4088118761384e-06
0.000111769326044553
-9.43321626981694e-05
8.021966653825e-06
-1.46306312386825e-05
1.4691603429525e-05
-6.21357039152203e-06
2.3291404886043e-05
-1.06429457827227e-05
7.3795316749527e-06
-1.31297557630332e-06
2.39695206562304e-05
2.82645667134296e-06
-2.12825419241673e-05
1.78757582746077e-05
5.98073298889579e-06
-1.86592156332387e-05
2.6763843402456e-05
8.72334822465943e-06
-2.27058535508569e-05
1.35077538007771e-05
-5.743001239652e-06
-2.49264314685857e-05
3.91504662081149e-05
9.20418531063656e-06
-2.0729088318825e-05
1.68977671998975e-05
-3.68376012401441e-07
-1.85056232411528e-05
3.21869681939876e-05
1.25735498062397e-05
-2.86073985595382e-06
7.38680833830036e-05
6.61947573403306e-05
-1.32743905764102e-05
2.07297018458448e-05
2.8853487828745e-06
-1.15910418519987e-05
3.68649246536025e-05
1.21220588108501e-05
-5.16509676814756e-06
4.52324373096664e-05
2.71914616809023e-05
-2.59565839359336e-06
5.05090522601299e-05
3.27939778430298e-05
-7.25332332941238e-06
3.77623605225142e-07
-7.84843033711791e-06
2.08553055325255e-05
5.19781849848184e-06
-9.92238675833396e-06
2.36813566348848e-05
1.56018263253528e-05
-1.59351611015576e-05
3.20245800748286e-05
1.67528812667612e-05
-4.18351504133922e-06
7.40257370825329e-06
9.07489185903497e-06
7.42757832280331e-06
3.38742295094647e-06
-2.43187281932398e-06
-2.89909990407999e-05
-6.24514207891276e-05
-2.03226876945385e-05
-9.36116966212154e-06
2.21836980082836e-06
-3.50716863270311e-05
1.22492212947904e-05
1.12484454813814e-05
-0.000112266503566856
2.15770895402252e-05
-1.18238423500878e-05
1.16178790494889e-05
8.15298350569197e-05
-9.37583812472835e-05
-1.4398413189108e-06
2.62081033953681e-06
8.1773960070182e-05
-8.14677279786768e-05
-2.79076265615436e-05
-6.69625851607905e-06
-3.88546451184436e-06
7.95892862190809e-05
-4.01880395547822e-05
-2.24959887763404e-05
-5.62038241575e-06
4.95447956720045e-06
-7.39696314321679e-06
2.79030838721481e-07
-5.6257545584217e-06
9.39538016674413e-06
2.83357286238012e-06
9.34354357645826e-07
-2.83317633546376e-06
2.42400608125414e-05
-1.25930104228195e-06
2.27452544844268e-06
-7.60597499992265e-06
2.09748362843429e-05
-1.12735964801048e-05
-1.17094192260936e-05
6.36314878716065e-05
1.09485510717904e-05
-2.5148520184097e-05
2.73421964030304e-05
1.86430953929235e-06
-2.10143168422309e-05
7.33936255651574e-05
1.31915790771035e-05
-1.84086058488829e-05
1.65048730434444e-05
-5.3175981813434e-06
-1.88703831273994e-05
3.40685269686312e-05
-2.96302658548883e-07
-2.04711467741969e-05
6.19570604858443e-05
4.44468214306217e-05
-1.5034705000691e-05
1.8502678258212e-05
1.55395131947049e-07
-1.4956305017272e-05
2.89615427078503e-05
6.22231348368962e-06
-3.59589481729157e-06
5.58744990213064e-05
2.89979285299115e-05
-9.08499385636742e-06
4.8997780923546e-05
4.79263811373985e-05
-8.75661235364102e-06
1.09789784127023e-06
-7.8341909902257e-06
3.14103623488208e-05
8.32566817873186e-06
-3.66670127466016e-06
3.54649761286502e-05
1.56338259447158e-05
-6.95081979778557e-06
3.59116376906746e-05
3.28045423467799e-05
1.96371468634379e-06
2.19623152152899e-05
1.19805533310159e-05
-3.82962428331401e-06
8.00250677619449e-07
-5.28930948716409e-06
1.9267662269734e-05
4.91974724445217e-06
-1.25560317966539e-05
2.34909726026585e-05
1.51559055101907e-05
-1.32528096836875e-05
1.16864419589844e-05
8.17884166057329e-06
-7.98042604793491e-07
8.79708702362589e-06
1.53175363315744e-05
1.71126686612638e-05
-1.28563120711244e-05
-9.68165942925968e-06
-1.98255007494178e-05
-0.00010978605299844
-5.40096770497272e-06
1.10595427770048e-06
-9.71066567921039e-05
-1.97552761585496e-05
-9.03865385890141e-06
7.95279981690872e-08
1.28728825567895e-05
-1.93141417149889e-05
1.68347426456593e-05
-1.27433158058897e-05
7.92025405972572e-05
-7.0335335463315e-05
-5.80328023776608e-06
-4.50376946478276e-06
7.16580898762768e-05
-7.57613585430099e-05
-1.79370632546408e-05
-3.24648176718762e-06
-2.12484900133953e-05
0.000136470246593248
-0.000121745365419848
-2.26686427013612e-05
-1.76761999836479e-07
-4.67249551272621e-06
-2.72301402479849e-06
-7.2897969144723e-06
3.3450619947317e-06
3.27346507296776e-06
2.32443895418132e-06
-4.67991645520067e-06
-4.17915241654342e-06
3.68945455127514e-06
1.90202555640214e-06
2.54460143639803e-06
2.84673334858008e-05
-1.19359478745622e-06
-4.02437580278772e-06
-3.27181359315007e-05
1.46161814395052e-05
-1.44201351196474e-05
-4.64265482059365e-06
7.13588976027916e-05
7.76878105728076e-07
-1.75165261906762e-05
4.5192087268412e-05
1.08074079433452e-05
-2.10367390636437e-05
6.69399043337796e-05
1.56891576893129e-05
-1.94547600843076e-05
2.95593109713976e-05
-1.17095863034438e-06
-1.13886553316966e-05
5.60939272051352e-05
1.16822734565919e-05
-2.0832560091305e-05
7.9186214820809e-05
7.08370203626779e-05
-1.4481084849313e-05
1.89051912966552e-05
-2.95393522571579e-06
-1.4370552924805e-05
3.16133373679977e-05
-3.4481601084413e-06
-1.40107258510795e-05
4.94450761453221e-05
2.26305060264952e-05
-1.52254172205076e-05
3.55324213543574e-05
4.35221716648259e-05
-1.03760138755679e-05
1.98341704648988e-05
2.87901538877557e-07
-1.01489567909978e-05
2.7191050720081e-05
4.24066394151922e-06
-1.90946823370348e-06
4.48674447733862e-05
1.54721350760599e-05
-7.58524651678165e-06
3.67446302324971e-05
4.18855055108025e-05
-3.73923045885718e-06
3.0072205697198e-05
2.72465752150471e-05
-4.20255718586281e-06
4.83155318275419e-06
-1.2901984366949e-06
3.0233817518583e-05
9.55771228431703e-06
-3.81235538105587e-06
2.60564561227868e-05
1.67453306458887e-05
-1.29755591599223e-05
2.9482270003542e-05
2.5007335135539e-05
2.77500333819889e-06
1.02189766628076e-06
3.21829469773815e-06
-2.99938578756932e-06
-8.90082246411856e-07
-5.22161882217559e-06
1.79927744050333e-05
3.80272506532069e-06
-1.48403042178499e-05
1.38008882053866e-05
9.91188767037243e-06
-8.99935718076405e-06
1.74468590635926e-06
2.78173616451116e-06
4.5290561027688e-05
-4.16136626771124e-06
-6.57209378022211e-06
-1.64434338644523e-06
-1.1352119733815e-05
-2.27520965678063e-06
-1.21258886251622e-05
-5.66830539149859e-05
-1.05963025811957e-05
-8.45694644008338e-06
-7.82573416956817e-05
-8.0520653234061e-06
-8.10126736718235e-06
-5.37808839200292e-06
-0.000132626832107275
-1.20932412117351e-05
-3.34291047026671e-05
-1.74104352070563e-05
6.33342808967161e-05
-6.78890637821588e-05
-7.51599675330329e-06
6.26749670881892e-06
0.000108131462431466
-0.000120790448705293
-7.04190387437679e-06
-2.73994235728051e-06
-1.50267267712126e-05
0.000138681424151131
-0.000126660758257695
-2.29090625012519e-05
3.536642871486e-06
-1.11997346194906e-05
-4.26564332943854e-07
-6.05189233874799e-06
8.02513807946914e-06
-3.3006677027764e-06
9.46986124473407e-07
-2.0453259890567e-06
-4.20229813171125e-06
-6.33233085538062e-06
1.02673567854954e-05
1.24046318737998e-06
1.13089096664732e-05
-4.68563444788264e-06
-5.27226839242802e-06
3.03257378665984e-05
-1.29264532147405e-05
-6.80747971831967e-06
-5.24170283424087e-05
4.02498620211412e-05
-1.72796989243722e-05
-5.27632817796787e-06
5.67413350032508e-05
7.22661878886875e-06
-6.65600477141059e-06
5.83192858186158e-05
2.17908679916033e-06
-9.05400249551403e-06
8.62764994589788e-05
1.06491081133371e-05
-1.54598423687147e-05
3.64809928223426e-05
4.71617483923505e-06
-1.52478260853964e-05
6.06783171133207e-05
2.09281654367622e-05
-2.11710856138101e-05
7.89837529090149e-05
7.57253550615533e-05
-1.18476369722238e-05
2.67666684812406e-05
1.59195292157942e-07
-8.83857422552346e-06
4.13074770569301e-05
8.0835216317944e-06
-1.33889714156304e-05
5.33346331664693e-05
3.69121033378114e-05
-4.15045723166481e-06
4.94786116568942e-05
4.06091865749897e-05
-1.04091824666289e-05
2.01778564733046e-05
-1.23950259184323e-06
-8.72749704119613e-06
2.86666976659639e-05
-1.42875910021747e-06
-8.80904635702696e-06
4.2015473584373e-05
1.08810138956135e-05
-1.30281064937278e-05
3.26682260633501e-05
3.09375635116423e-05
-5.18335278814352e-06
2.61845147918254e-05
3.00906910821871e-05
-6.6809085886435e-06
2.10291160634926e-05
4.17318551436674e-08
-5.84283501455373e-06
2.61981817139962e-05
2.92103829112872e-06
7.94839672395416e-08
3.76813467041732e-05
1.00570799304024e-05
-3.16320802488674e-06
3.15767768900493e-05
1.99908435681819e-05
-9.32188771064139e-06
2.96912656099391e-05
3.86127734649035e-05
2.79509145034966e-06
8.3447810372199e-06
1.2549382333882e-05
-3.01766682958442e-07
5.03233679336862e-06
-9.68132854731194e-07
2.30924197451742e-05
8.26826818451234e-06
-8.09281851513547e-06
2.11955934669608e-05
1.82845138010609e-05
-6.26697234945822e-06
1.12491957599467e-05
1.20476620132249e-05
2.38218443822065e-06
-3.66047429559931e-06
-6.08332546570527e-07
-4.14003838143526e-06
-2.36173112521543e-06
-8.64194483230819e-06
1.37813527067213e-05
1.54563480951205e-06
-1.39899927215551e-05
7.49967090597133e-06
4.6534531957301e-06
-6.87263247466561e-06
-1.68796324939385e-07
2.18744038919452e-07
8.40220479800242e-06
-1.12168736137932e-05
-3.1839211112803e-06
2.92566636106976e-06
-5.97150248602259e-06
4.72177940234241e-06
-6.59949430949873e-06
-8.50120888896943e-05
-9.74025566266914e-06
1.62669787473249e-05
-0.00013289089423224
-6.36186221548594e-06
1.95329548906362e-06
2.70552032347802e-06
-0.00014190359811211
-7.65718809818482e-06
-4.70758536136674e-05
-2.00460884151699e-05
6.07552787201934e-05
-8.10138521917453e-05
9.44667421316823e-06
3.29590171189578e-06
8.052332675571e-05
-8.00183297276489e-05
-3.5999701102603e-06
2.32056629727809e-06
-1.14718914624256e-05
0.000146471291244143
-0.000146317678180475
-1.43307248765628e-05
5.37323653682161e-06
-1.32071256448098e-05
1.08101938699967e-06
-2.18954529022684e-06
9.8864708617674e-06
-1.08715022784492e-05
-9.75028280802928e-08
-6.24525981794376e-07
-3.38274410806381e-06
-8.29057704761303e-06
1.5636011919035e-05
-3.78746033168373e-07
-7.6727002757998e-06
5.45541423366974e-06
-1.22787638993241e-06
-2.64917932106403e-07
-1.19763392829403e-05
-5.95747211177101e-06
2.98466419006492e-05
8.20778899858253e-06
-4.61204994673545e-06
-8.82667685525209e-05
7.29962696767194e-05
-1.34810902760741e-05
6.42875073487679e-06
4.46568881740047e-05
4.39331216653361e-06
-3.25935438704449e-06
4.82640008223286e-05
5.08068276487539e-06
-8.07491793130064e-07
6.5914351934046e-05
1.35890831131582e-05
-5.62188733204414e-06
4.76477096252118e-05
8.33621019417448e-07
-6.54239974600525e-06
6.47318947637734e-05
1.50182697320989e-05
-1.24517746490167e-05
8.80186269467359e-05
6.03824622396577e-05
-1.0139176944985e-05
3.14328340288195e-05
3.3397007565241e-06
-1.01860329473581e-05
4.90297706109886e-05
1.77121653376314e-05
-1.15747023519085e-05
5.36654981374609e-05
4.44321561728062e-05
-1.74435678698404e-06
5.5191223289776e-05
4.79746682061963e-05
-8.01367620924323e-06
2.33335164568309e-05
1.03764922302908e-06
-4.15218573356423e-06
3.19595888583488e-05
4.93177725669054e-06
-8.39030651932849e-06
4.10926576005907e-05
1.99067506876131e-05
-1.03701046120171e-05
3.61988087432625e-05
4.7533909012322e-05
-1.62242185556046e-06
2.22888418474735e-05
1.44944965519685e-05
-6.77518585398561e-06
2.11067641980962e-05
-8.34630018654041e-07
-5.02902923024561e-06
2.69427290944757e-05
-3.2934436821427e-07
-3.80439576019288e-06
3.71621390960668e-05
7.3084658864462e-06
-7.95903594074568e-06
3.01885805310831e-05
1.81564945427214e-05
-5.68864347615819e-06
2.04682090092759e-05
3.30206244504897e-05
3.36429936958792e-06
9.10933328348849e-06
1.27394359734059e-05
-3.88082842965681e-06
2.26812900931891e-05
-4.80480954470441e-07
-2.67232056156128e-06
2.59193404255837e-05
1.20385453164919e-06
9.41520998376239e-07
3.31214953161988e-05
6.23761299937797e-06
-3.27494058582164e-08
2.83091616164723e-05
1.23893138411452e-05
-1.83155596923696e-06
2.11775779183562e-05
2.22432782438677e-05
-1.07678820417541e-06
1.87723293135685e-05
2.2995071308838e-05
5.31143580124759e-06
-3.09917802063637e-06
4.42873266231637e-06
-7.68349670236061e-07
2.69699869598135e-06
-3.76388720342562e-06
1.80172580341765e-05
6.56853345101057e-06
-9.78727129989276e-06
1.30405802599054e-05
1.22904103496618e-05
-4.14979644151202e-06
1.84388594952233e-06
3.82045311729665e-06
1.20580822818005e-07
-1.25535239623213e-06
-1.76060809786972e-06
-6.02924856905206e-06
-3.24356158365185e-06
-9.09356727710927e-06
9.68696969583285e-06
-7.12473277261432e-07
-1.07097577850727e-05
4.32808127404763e-06
7.42351707138972e-07
-5.9922384376665e-06
-1.52129446527283e-07
-1.03627188824436e-06
4.92065690432651e-06
-8.55188598360258e-06
-1.52596481143281e-06
1.58549821037858e-05
-9.54428906091719e-06
2.01343501575609e-05
-6.13854417465264e-06
-0.000100422561706339
-2.87937714415828e-07
9.9563892255991e-06
-7.75342266318782e-05
-1.02926901294032e-05
1.7713703733557e-05
7.19292836920987e-06
-0.000155234102661765
-3.98039748154903e-06
-8.51472469876304e-05
-1.59726820303304e-05
4.76247077168816e-05
-4.40905691258342e-05
3.43663216986591e-06
2.47590728359175e-06
6.76491716391505e-05
-7.22562326531472e-05
9.28021213267867e-06
-4.97721978434389e-06
-1.10377330394767e-05
0.000185471015394789
-0.000195952533924388
9.50909273494141e-06
5.95040281742364e-06
-1.32903272035544e-05
1.76158116829668e-06
5.79121824939635e-07
1.06164957418746e-05
-1.45162781340115e-05
-5.50021508366658e-07
1.73034088777333e-07
-2.47588924439045e-06
-4.68538752208841e-06
1.68182152273965e-05
-7.36831845151201e-06
-1.21115252951991e-05
1.64608591944568e-05
7.27335341278825e-07
-1.36218065778719e-05
3.56894582376864e-06
-3.15135895901603e-06
-1.85124786509523e-06
3.58713955352574e-06
5.14421183693139e-07
3.49758743154675e-05
3.55193437220322e-05
-2.11099622173902e-06
-0.000120062833094065
0.000102736098397436
-7.19208841402866e-06
1.22899390114922e-05
3.64262173603054e-05
5.33730048011039e-06
5.1463567871198e-06
3.45939818251644e-05
1.65719536722394e-06
1.09295146799383e-05
5.40326839333871e-05
6.27279310507862e-06
-1.45966308747966e-06
4.11983420018152e-05
2.90343555737997e-06
1.4276573357231e-06
5.13826284560967e-05
1.16423455081835e-05
6.63500503263245e-06
0.000106310467269584
7.36628500587909e-05
-2.66831332618027e-06
3.999376864999e-05
1.83081309984056e-07
-5.14133811347821e-06
5.08717577905872e-05
9.64906627960907e-06
-6.2655352088842e-06
6.29974025231539e-05
3.47303258231682e-05
-8.03394733457683e-06
5.13789439955903e-05
5.0268983103049e-05
-6.44636274212657e-06
2.79860206140516e-05
1.87950730955585e-06
-3.90462215456101e-06
3.96742693977157e-05
1.24476428373395e-05
-6.30137886351123e-06
4.06952010797596e-05
2.85935411483135e-05
-3.12794930933358e-06
4.015908523645e-05
5.22221371907137e-05
2.84206782774038e-06
2.06784611402879e-05
2.09804638123743e-05
-5.70527254827414e-06
2.21684002239364e-05
9.52015399387413e-08
-2.52833899324753e-06
2.73074765455243e-05
3.18907668754815e-06
-4.37380522429637e-06
3.48180022100711e-05
1.17758411686886e-05
-7.49234407962701e-06
3.07300200504638e-05
2.49088459130843e-05
2.87063400372159e-06
2.61754944490937e-05
3.50879781173227e-05
1.00174302792184e-06
-5.04091203004473e-07
3.73933357027214e-06
-4.26347123899856e-06
2.23894796842204e-05
-9.00079919336533e-07
-2.23977157858212e-06
2.63483828984401e-05
-6.72827058637377e-07
-6.72374336233797e-07
3.34419819526185e-05
5.00470470770689e-06
-3.14218844037986e-06
2.84119511004111e-05
1.21945346964696e-05
-3.34857154329394e-06
1.83291316999e-05
2.18125893002273e-05
1.9930914665914e-06
1.64479089330783e-05
2.26121857955877e-05
6.16770690474847e-06
-4.05546332818723e-06
3.82709991726973e-06
-2.03400256793771e-06
2.45867006833329e-05
-9.95741124621757e-07
-5.64476364208733e-07
2.62743742578875e-05
-5.00420428638465e-07
1.78814417982203e-06
3.01512108241106e-05
2.69539675507684e-06
7.17224431002611e-07
2.65669804207153e-05
6.49421289588111e-06
-3.32461728186323e-07
1.98790563662918e-05
1.02564039993828e-05
-3.35690742668104e-06
1.63114236197624e-05
1.82737951963897e-05
1.068624924864e-06
4.83811743704179e-06
9.83934261226076e-06
2.49745108805448e-06
-2.7910310640191e-06
1.57516566892674e-07
-3.10484974553342e-06
2.13408218104359e-08
-6.42065021493563e-06
1.34718180412379e-05
3.46437152331047e-06
-8.71686065481378e-06
6.92270124290202e-06
5.21870191267759e-06
-4.7854800007821e-06
5.55063843072267e-07
8.03274955315422e-07
-4.23150355212546e-07
4.33247405078732e-07
-1.74159141927261e-06
-6.60344750689305e-06
-3.90920450025571e-06
-8.06768585014827e-06
6.40224869971208e-06
-2.51600366104101e-06
-8.48746039100794e-06
2.49662007890739e-06
-1.65820035186053e-06
-6.0066617415143e-06
-2.2605033229219e-07
-1.60866041647655e-06
-1.1237462038752e-05
-9.62468526973048e-06
-1.16840687297454e-06
5.69634179261409e-05
-8.78209628052329e-06
1.15920008647406e-05
4.33120432345119e-08
-4.9236098996377e-05
1.77360505642769e-06
3.0839863615418e-06
-7.97374515840183e-05
1.95615539685568e-06
5.18875691456316e-06
2.39018290779741e-05
-0.000209735611062082
3.6145551867457e-06
-9.89772772562538e-05
-1.31564077937232e-05
1.6157815850834e-05
-8.92855253452102e-06
-1.51290253657605e-06
-2.27972111754066e-06
6.52849145470401e-05
-6.65598293727933e-05
2.57780395599937e-06
1.04532324137942e-05
-4.60286047909058e-05
0.000131690389565493
-0.00010441699132903
2.32870821554159e-05
6.01816096908952e-06
-1.27665252223943e-05
1.70890293686803e-06
2.02925791382143e-06
9.87880486258507e-06
-1.45818862661375e-05
-1.40832519897097e-06
3.1935669265921e-07
-1.3885642083167e-06
-8.227066251428e-07
1.67356453930872e-05
-1.36110366233613e-05
-7.68491563583011e-06
2.20745031040484e-05
-5.29704746548268e-06
-1.55175107873629e-05
2.31356431779167e-05
-3.32185227628347e-06
-1.22609466670662e-05
1.40842912228627e-05
-1.38755966453689e-06
1.28454380312556e-05
2.26964031639139e-05
4.91930171970428e-07
5.96552132179638e-05
3.48775838918013e-05
6.09230939164832e-06
-0.000184780270312393
0.000116818714961339
1.4740861994686e-05
1.68993576746284e-05
1.74673830432334e-05
-5.91898880428752e-06
1.07973814576829e-05
2.79635778679492e-05
2.81161744918637e-06
1.50976242263898e-05
5.170670148959e-05
1.47474029708034e-05
4.13411616409377e-06
2.9233284662529e-05
-2.33083871701149e-07
9.81047621392482e-06
4.20340581964609e-05
5.27300603096885e-06
1.42354696093547e-05
8.15366106786149e-05
4.8826106179707e-05
2.80056924560795e-07
3.60043915315424e-05
2.245583886688e-06
1.31308290575302e-06
4.21781551405524e-05
5.65349549105636e-06
5.60155479605623e-06
7.23581492858809e-05
3.3727570091418e-05
-4.33569067278642e-07
6.76755747083517e-05
5.80421111397217e-05
-1.14627007489195e-06
3.43921600009717e-05
3.01515739622753e-07
-1.85483388826658e-06
4.22609111395128e-05
6.74415662332577e-06
-4.23738779989664e-06
4.90274123412827e-05
2.15550557725542e-05
-3.88080020697066e-06
4.45522876492012e-05
4.23098436698285e-05
2.59287358408165e-06
2.80888451551873e-05
3.5274785142018e-05
-4.4654695259004e-06
2.59794626165806e-05
7.66756249945588e-07
-1.55263938101486e-06
3.19591940226872e-05
8.61888776435993e-06
-2.71045876877036e-06
3.36712840450098e-05
1.7808209107589e-05
-2.16527345096179e-06
3.1211126549551e-05
3.22144273872798e-05
8.69277841404203e-06
2.84915308591069e-05
3.85869316579931e-05
-2.51822981495425e-07
-8.15905758234916e-07
1.07889814049005e-05
-4.14165420958062e-06
2.28424341037984e-05
-7.95858676522084e-07
-1.45818973153217e-06
2.58209391447723e-05
8.00147995467776e-07
-1.06533464415072e-06
3.12638271846982e-05
7.1362174667859e-06
-3.9045998330081e-06
2.81115477683668e-05
1.51567312608785e-05
1.56307385843897e-07
2.08059153113879e-05
2.67735410547828e-05
5.08865617210593e-06
1.27032336222043e-05
1.87850805430143e-05
1.83996736971845e-06
-7.20140220049773e-06
-2.49041622709566e-07
-2.69789605932534e-06
2.40411757305481e-05
-9.87791440798006e-07
-4.63198394086374e-07
2.6589463094595e-05
-1.24244613922331e-06
1.12784934659586e-06
3.11557149797331e-05
2.27373645678921e-06
-4.14891441978118e-07
2.71106810449184e-05
7.43809375757889e-06
-6.60866095975372e-07
1.92622174450597e-05
1.15898630001878e-05
1.16742130555914e-07
1.53543649953897e-05
1.9432485204982e-05
3.71192257748648e-06
4.94161285745071e-06
1.09717980290613e-05
3.26006788541028e-06
-4.46342310716535e-06
-1.57012224586515e-07
-1.07860804078661e-06
2.67520180529149e-05
-1.48857665240517e-06
5.53599940661631e-07
2.71980002568813e-05
-2.03214865705945e-06
2.14552469143038e-06
2.83951834834015e-05
-4.73066742068256e-07
9.77251962505866e-07
2.55405218538922e-05
1.78968248092937e-06
-8.75117794399695e-07
2.05476449740248e-05
3.59589480367794e-06
-3.08155061616496e-06
1.58674392202978e-05
7.3612778273427e-06
-4.69945125593748e-06
9.15622333321831e-06
9.93826785561356e-06
-2.16036387062974e-06
1.18895136983947e-06
3.23425875273199e-06
3.81026077258795e-07
-2.86806620389998e-07
-1.18256651032816e-06
-5.25428039871005e-06
-1.67654693831002e-06
-7.24052793303698e-06
9.27877437723252e-06
2.8115083156021e-07
-7.96850367462482e-06
4.18817757386376e-06
1.06664474926968e-06
-4.92826357165741e-06
6.86125742369084e-07
-5.28012370589056e-07
-9.87372743999597e-07
9.72761511237125e-07
-1.10605596949086e-06
-6.44157407401115e-06
-4.48369891853394e-06
-7.23979670896839e-06
3.9818371399171e-06
-3.75919918304731e-06
-7.68972382352839e-06
1.27606409128828e-06
-2.93262079768622e-06
-6.51777963962158e-06
-3.64253542811724e-07
-1.69540588963802e-06
-4.89557735900227e-05
-1.50249851629394e-05
-7.84408282718019e-06
2.2181129438816e-05
2.47452959693729e-06
1.08022091942745e-05
1.41516686954568e-05
-2.70926950435781e-05
1.28441592326121e-05
7.09358681452656e-06
-8.16659229168361e-05
2.24623555280865e-06
1.78999990306911e-05
-1.57549495552761e-05
-8.82598660607864e-05
8.40113997184846e-06
-0.0002097560185402
-3.93561030138557e-06
-1.54839812448922e-05
1.98291966641178e-05
-5.85812497399511e-06
4.20955056612694e-05
-2.689605358449e-05
-1.48685529097572e-05
-3.28191225737946e-08
1.76480234560774e-06
8.43195584306068e-05
-5.55161580168546e-05
3.1721104408453e-06
5.79834034963954e-06
-1.20569174128546e-05
1.25874783606042e-06
2.23326223784988e-06
8.87523366318536e-06
-1.39962092187641e-05
-2.26907465738843e-06
1.21249514812234e-07
-3.21404931588985e-07
1.38432238317905e-06
1.49195063000782e-05
-1.41500513428438e-05
-2.58020621402303e-06
2.24718577253144e-05
-1.14281874318661e-05
-9.52621665727305e-06
3.46292272365758e-05
-7.26440226433092e-06
-1.2779465407264e-05
2.76447283168832e-05
-4.10279440744845e-06
-2.83692653537108e-06
2.36032643059274e-05
5.42489411794909e-07
2.30006976456006e-05
1.44516464053432e-05
-2.08283675967914e-06
8.09762197653416e-05
3.01953235484616e-05
1.17394800097432e-05
-6.28031801369693e-05
7.60305695367009e-05
3.27827223229098e-06
-2.13654628332815e-05
1.43651117509431e-05
2.67876598965033e-05
-2.88795249722183e-06
1.56007576215573e-05
1.43823708534288e-05
-1.7183684333746e-06
4.00740408677718e-05
6.71969911001043e-06
4.48039812843595e-06
7.12241221573253e-06
2.43985562145343e-05
5.76725894305114e-07
1.45649167434551e-05
3.75339598693008e-05
1.222991309871e-05
5.93952621939652e-05
7.22841048602496e-06
4.66787587381106e-05
2.66223124974351e-06
2.6494178566791e-05
3.56933468745829e-07
7.6444388011004e-06
3.35476032309357e-05
1.92201907224056e-06
1.19297241894037e-05
5.80376674881275e-05
2.24437782343959e-05
1.16023875142902e-05
7.34397354029864e-05
4.4326649800649e-05
1.22336707709176e-06
3.21955441482951e-05
1.43920208950552e-06
1.58307094269865e-06
3.68921942653595e-05
4.09363348391119e-06
3.99734504915529e-06
5.15425934316759e-05
1.82343219025177e-05
3.12917126861999e-06
5.20746291616823e-05
4.23185516749198e-05
9.08964202159814e-06
3.70460510798334e-05
3.74999915748047e-05
-7.9883937558775e-07
3.05187751413606e-05
2.06759491726617e-07
6.33966339537075e-08
3.60345097750413e-05
4.91188164625199e-06
-5.65994569789358e-07
3.9843073130881e-05
1.37840255612306e-05
-1.26598906599579e-06
3.76795378918992e-05
2.75285266220442e-05
5.92915742416376e-06
3.14342085247211e-05
4.17281174319709e-05
9.92267859974627e-07
7.80587499767864e-06
2.33878970948755e-05
-3.37298910711421e-06
2.55717820135463e-05
-3.60989469469188e-07
-1.18987810240701e-06
2.79376803533741e-05
4.51995522009307e-06
-1.00090838453e-07
3.01266407134683e-05
1.11982957535327e-05