/*--------------------------------*- C++ -*----------------------------------*\
  =========                 |
  \\      /  F ield         | OpenFOAM: The Open Source CFD Toolbox
   \\    /   O peration     | Website:  https://openfoam.org
    \\  /    A nd           | Version:  12
     \\/     M anipulation  |
\*---------------------------------------------------------------------------*/
/*   Windows 32 and 64 bit porting by blueCAPE: http://www.bluecape.com.pt   *\
|  Based on Windows porting (2.0.x v4) by Symscape: http://www.symscape.com   |
\*---------------------------------------------------------------------------*/
FoamFile
{
    format      ascii;
    class       surfaceScalarField;
    location    "0";
    object      phi;
}
// * * * * * * * * * * * * * * * * * * * * * * * * * * * * * * * * * * * * * //

dimensions      [0 3 -1 0 0 0 0];

internalField   nonuniform List<scalar> 
28893
(
8.7803517838636e-06
-4.37143107221402e-07
-2.6119244770229e-07
9.54263982467237e-06
-4.48077322305689e-07
-3.14210116240327e-07
8.8661659568335e-06
-8.65376615457858e-07
-2.81777554265086e-07
9.39313918270709e-06
-4.70071393848137e-07
-5.35442255650682e-07
1.03719337263226e-05
-4.5122093493847e-07
-3.78072518427441e-07
9.643112332312e-06
-8.88349714945685e-07
-3.36673485057017e-07
1.02050269192077e-05
-4.81263376767728e-07
-6.44833912510074e-07
9.08018180353005e-06
-1.31480740336482e-06
-2.8804603377422e-07
9.75506303676633e-06
-9.51314139674834e-07
-5.79191931076399e-07
1.03236533350175e-05
-5.19855753866403e-07
-8.26947517878227e-07
1.12695777594141e-05
-4.42623970659841e-07
-4.55019567987687e-07
1.0491038133239e-05
-8.96635645798853e-07
-4.02510656211302e-07
1.10875378782332e-05
-4.83891968917168e-07
-7.76691001562699e-07
9.89132294359895e-06
-1.35395682759724e-06
-3.45533459088474e-07
1.0606607777822e-05
-9.75950774068915e-07
-6.9353030705599e-07
1.12072045579753e-05
-5.31706936165447e-07
-9.96677707912826e-07
9.27076440050058e-06
-1.80241681918723e-06
-2.81362932435356e-07
1.01383465431386e-05
-1.46236137618883e-06
-5.98406721806114e-07
1.09481875542297e-05
-1.08026236314546e-06
-8.85876759951196e-07
1.12158475018894e-05
-5.74945708466285e-07
-1.12125429743923e-06
1.22341305192929e-05
-4.16835402774705e-07
-5.47716858013911e-07
1.14125628326742e-05
-8.82576351244698e-07
-4.81571927517461e-07
1.20418632623093e-05
-4.73717168599979e-07
-9.35627329409488e-07
1.07823231104974e-05
-1.3732235592566e-06
-4.14411835803093e-07
1.1535259397004e-05
-9.8407007941946e-07
-8.30983765571129e-07
1.21658422372674e-05
-5.34023311555254e-07
-1.20130497386083e-06
1.01226037403887e-05
-1.86276351319962e-06
-3.43031866399191e-07
1.10414001702791e-05
-1.50616650970885e-06
-7.18370724680173e-07
1.18949714944766e-05
-1.10798419827472e-06
-1.0640365149005e-06
1.21598018981676e-05
-5.89350438593509e-07
-1.35128122717611e-06
9.32054759134699e-06
-2.31142973840839e-06
-2.85630923195514e-07
1.03109358204688e-05
-2.00863674919372e-06
-5.89222920434296e-07
1.15477044290382e-05
-1.68704441813635e-06
-9.20444001466435e-07
1.19465437513495e-05
-1.20492508949541e-06
-1.18900689174179e-06
1.1761758858051e-05
-6.19663425086621e-07
-1.39441417877054e-06
1.32597956464302e-05
-3.66364755244314e-07
-6.59299736230594e-07
1.24079005093052e-05
-8.35625047392739e-07
-5.7654751713486e-07
1.30661468766778e-05
-4.44869209833931e-07
-1.1271306800446e-06
1.17586133901434e-05
-1.36144361987736e-06
-4.97422558214656e-07
1.25436800017172e-05
-9.67387102610884e-07
-9.96322170093947e-07
1.32002307089779e-05
-5.22180318751149e-07
-1.44783510967894e-06
1.10676492391293e-05
-1.90298805014771e-06
-4.15280365304419e-07
1.20327979831504e-05
-1.52678789580095e-06
-8.63091328488829e-07
1.29256590964727e-05
-1.1170370959437e-06
-1.27865731682086e-06
1.31806944758763e-05
-5.93902244036842e-07
-1.6282950953361e-06
1.02046873041257e-05
-2.41064284518165e-06
-3.36259391569935e-07
1.12573385668946e-05
-2.08313549767538e-06
-7.12464758310384e-07
1.25673976542357e-05
-1.73825593258724e-06
-1.10779167751626e-06
1.29625903775463e-05
-1.23835077265639e-06
-1.43108261004997e-06
1.27273117454893e-05
-6.37970053307445e-07
-1.67886375477946e-06
9.19935114383041e-06
-2.84185345503829e-06
-2.77812783015038e-07
1.02624916239853e-05
-2.5920578395163e-06
-5.75571514317858e-07
1.17420081234859e-05
-2.32961180255691e-06
-9.1261562071715e-07
1.26371842827931e-05
-1.88948729914738e-06
-1.23842062703142e-06
1.24624783887139e-05
-1.2914491749056e-06
-1.47034838897146e-06
1.18937485063105e-05
-6.44208775023064e-07
-1.62807883358935e-06
1.43342011444923e-05
-2.80982952203847e-07
-7.93421884468364e-07
1.34733853712987e-05
-7.41232343367868e-07
-6.90616730251949e-07
1.41538654588247e-05
-3.89313788822026e-07
-1.35770393780447e-06
1.28240907206538e-05
-1.30335045216301e-06
-5.97751462293736e-07
1.36318714244456e-05
-9.1437002988658e-07
-1.19523763886147e-06
1.43077193452033e-05
-4.89801193568956e-07
-1.74481766095483e-06
1.21155981298253e-05
-1.9068346017208e-06
-5.02557326350354e-07
1.31184601959773e-05
-1.51245079138242e-06
-1.0380205778567e-06
1.40426215435945e-05
-1.09822998123498e-06
-1.53723457785652e-06
1.42783306319328e-05
-5.83826828332081e-07
-1.96164409868171e-06
1.12003419373493e-05
-2.48621019907931e-06
-4.12431689276224e-07
1.23061677955171e-05
-2.12848760654912e-06
-8.62409202375039e-07
1.36849975115487e-05
-1.7632705609269e-06
-1.33445723806293e-06
1.40651915828157e-05
-1.25234566363303e-06
-1.72281486274164e-06
1.3766662659385e-05
-6.46978885008082e-07
-2.02066683125907e-06
1.01083199010267e-05
-2.99006892785961e-06
-3.29541652201242e-07
1.12426015382662e-05
-2.70301269940229e-06
-6.96490951528519e-07
1.28108840946574e-05
-2.41538166313915e-06
-1.10421397333786e-06
1.3734770769714e-05
-1.95046126536715e-06
-1.49326701694662e-06
1.34959531042011e-05
-1.33216550105535e-06
-1.77036157380795e-06
1.28378723714373e-05
-6.65856731412118e-07
-1.95713046487869e-06
8.95245890632357e-06
-3.39360959377202e-06
-2.57638536773011e-07
1.00872417324788e-05
-3.19454926328881e-06
-5.59942589023792e-07
1.16098721724e-05
-2.9971860283621e-06
-8.89438271173662e-07
1.28064734442772e-05
-2.60527282921931e-06
-1.23579504754299e-06
1.31139367120923e-05
-2.0146228701239e-06
-1.53357131412302e-06
1.25244442744802e-05
-1.33227385035536e-06
-1.71325548235418e-06
1.17304301282933e-05
-6.52665744779268e-07
-1.81127296955921e-06
1.54354309088868e-05
-1.46855139598876e-07
-9.54373732410237e-07
1.45993420027726e-05
-5.79416573035757e-07
-8.27522293397345e-07
1.52914032604226e-05
-2.96108122359055e-07
-1.63485080955288e-06
1.3979932928724e-05
-1.17785832147378e-06
-7.19215635919195e-07
1.4795514117371e-05
-8.09103814008748e-07
-1.4344688183821e-06
1.54802972408495e-05
-4.28223742192019e-07
-2.10205761814526e-06
1.32763856638759e-05
-1.85499497040693e-06
-6.09142398607372e-07
1.43026276217198e-05
-1.44646465922216e-06
-1.24982371859683e-06
1.5245135349708e-05
-1.03881392528888e-06
-1.84873839188032e-06
1.54485101251508e-05
-5.5257498966312e-07
-2.36242190245787e-06
1.23207463280832e-05
-2.52358620150879e-06
-5.03652075051005e-07
1.34685782704807e-05
-2.13211694935477e-06
-1.04530099713789e-06
1.49065741443319e-05
-1.7488542094818e-06
-1.60897259000148e-06
1.52557622657211e-05
-1.23732889086745e-06
-2.07430311201242e-06
1.48780955051119e-05
-6.42119886328614e-07
-2.43095683864171e-06
1.11441385163346e-05
-3.11538410971086e-06
-4.06643856645854e-07
1.23386010864674e-05
-2.78763290705832e-06
-8.4928499546238e-07
1.39936290285529e-05
-2.47040453610811e-06
-1.33801928944717e-06
1.49339604526325e-05
-1.98430873890463e-06
-1.80168345487983e-06
1.46120888587972e-05
-1.3545322955876e-06
-2.13139734177303e-06
1.38477526414782e-05
-6.79198910686647e-07
-2.35134818928342e-06
9.87755274256454e-06
-3.59331110910467e-06
-3.21850737288806e-07
1.10897029002893e-05
-3.3534412207044e-06
-6.81573334306456e-07
1.27068808079366e-05
-3.12777796923961e-06
-1.08110206053973e-06
1.39528088833367e-05
-2.70490650217212e-06
-1.49610277626691e-06
1.42239634763736e-05
-2.08580728941668e-06
-1.84965134404928e-06
1.35281609060976e-05
-1.37912567718434e-06
-2.06080931804006e-06
1.26231386140762e-05
-6.76584022712668e-07
-2.17325452343546e-06
8.64105802553945e-06
-3.94662306913031e-06
-2.52609772370567e-07
9.84084703497524e-06
-3.79993646908252e-06
-5.42946975555342e-07
1.13648141266339e-05
-3.67814326006906e-06
-8.68485840675298e-07
1.25947027973004e-05
-3.33542386587158e-06
-1.2088825099349e-06
1.32142814812605e-05
-2.76249908222687e-06
-1.53672161812974e-06
1.30934987577331e-05
-2.06545150787497e-06
-1.78796738071826e-06
1.23106262456203e-05
-1.34410865879532e-06
-1.90487431139827e-06
1.14146627075834e-05
-6.54135867251431e-07
-1.93705573476931e-06
1.65280515771085e-05
5.46269128725455e-08
-1.14724644330918e-06
1.57672297405661e-05
-3.23014264591252e-07
-9.9172770993782e-07
1.64548738694517e-05
-1.50504921728726e-07
-1.96733853654548e-06
1.52226206804013e-05
-9.55643857204953e-07
-8.66459750327913e-07
1.60236334542856e-05
-6.2977539164367e-07
-1.72197363184575e-06
1.67022125577793e-05
-3.25684743686085e-07
-2.53108080681758e-06
1.45594712634288e-05
-1.72098543583847e-06
-7.39957829641208e-07
1.55864645720519e-05
-1.30554941211533e-06
-1.50660631919309e-06
1.65275168303784e-05
-9.21248717236485e-07
-2.22382478491845e-06
1.6681315888974e-05
-4.91306474719219e-07
-2.84355648531657e-06
1.35837162091537e-05
-2.50183941994191e-06
-6.16124722384178e-07
1.47557374305424e-05
-2.07350384341131e-06
-1.26926174488545e-06
1.62361543671062e-05
-1.67642479874758e-06
-1.94179253642782e-06
1.65321295831463e-05
-1.18009307555174e-06
-2.49758726549801e-06
1.60555706033113e-05
-6.17167236622672e-07
-2.92272933368605e-06
1.23271555827468e-05
-3.20582453556681e-06
-5.00777948416345e-07
1.35702068419141e-05
-2.82947781074688e-06
-1.03789613681056e-06
1.53020531418267e-05
-2.4787969436382e-06
-1.62378163630387e-06
1.62399592080357e-05
-1.97714031246492e-06
-2.17515938404986e-06
1.58106303195253e-05
-1.34937856226367e-06
-2.56558556233611e-06
1.49198211878796e-05
-6.801072175854e-07
-2.82291766794076e-06
1.09410871231248e-05
-3.78032256379325e-06
-3.98595156114165e-07
1.22245235229619e-05
-3.49266645025972e-06
-8.36430205624895e-07
1.39340146976689e-05
-3.22882833449249e-06
-1.31799414608402e-06
1.52172598050811e-05
-2.77341724902683e-06
-1.81336073674118e-06
1.54307391713364e-05
-2.13146250942964e-06
-2.2315285391591e-06
1.46051479816301e-05
-1.40967847315924e-06
-2.4779048772747e-06
1.35704919288332e-05
-6.93292886227787e-07
-2.60540827780971e-06
9.5691066598232e-06
-4.20794095700321e-06
-3.13417958401549e-07
1.08557486498563e-05
-4.02189450162151e-06
-6.68297995586634e-07
1.24816179814767e-05
-3.86530350122173e-06
-1.06085068574385e-06
1.37635643393722e-05
-3.4851675425741e-06
-1.4697010727761e-06
1.43661790079948e-05
-2.87452479534481e-06
-1.8592813540675e-06
1.41636473747413e-05
-2.14469406246462e-06
-2.15423125276453e-06
1.32559563334597e-05
-1.39536033787669e-06
-2.28736298308038e-06
1.22407658701526e-05
-6.79880379619636e-07
-2.3194767415544e-06
8.29198827790689e-06
-2.44973514271919e-07
9.53635021167136e-06
-4.40922397855461e-06
-5.29910773419774e-07
1.10895444805725e-05
-4.36455689677598e-06
-8.51164129198719e-07
1.2297938534682e-05
-4.07405682963261e-06
-1.1847229822652e-06
1.29416384104663e-05
-3.51854774368572e-06
-1.50725858647436e-06
1.31273413570522e-05
-2.81875731766761e-06
-1.79467146598073e-06
1.28149828429478e-05
-2.07651973574158e-06
-1.98765361118648e-06
1.19683557737712e-05
-1.34530987085768e-06
-2.03663925854237e-06
1.10370305769619e-05
-6.53698796231367e-07
-2.00196662583628e-06
1.75564713233121e-05
3.49461807399086e-07
-1.37787991897188e-06
1.69464022601953e-05
6.42335012908672e-08
-1.18877786991681e-06
1.76058547674265e-05
6.70841655709709e-08
-2.36531022355681e-06
1.65409236025202e-05
-5.95966184376485e-07
-1.0453500613599e-06
1.72954136793656e-05
-3.46880809259601e-07
-2.06713113308596e-06
1.79463537198665e-05
-1.66539759519702e-07
-3.0449392113076e-06
1.59725828817753e-05
-1.46760672744049e-06
-9.01147969273058e-07
1.69658087826021e-05
-1.05736952725532e-06
-1.81820904108051e-06
1.7876497839746e-05
-7.21578216052413e-07
-2.67506065117867e-06
1.79583784795383e-05
-3.88127587460146e-07
-3.42001544956022e-06
1.50101852378182e-05
-2.39122566264728e-06
-7.5622804942888e-07
1.61781687854601e-05
-1.92341084356139e-06
-1.54452702508138e-06
1.7674115341594e-05
-1.52013037293124e-06
-2.34568508689828e-06
1.78864877899152e-05
-1.06257975651527e-06
-3.00690945301837e-06
1.7286792375313e-05
-5.63742581355022e-07
-3.51103531046893e-06
1.3684826726193e-05
-3.24116430693038e-06
-6.183454323151e-07
1.49578793629282e-05
-2.8055557012014e-06
-1.27174454665742e-06
1.67478912986302e-05
-2.41759987733214e-06
-1.97392403916897e-06
1.76554128089559e-05
-1.90965780555799e-06
-2.6276809799206e-06
1.70872766083174e-05
-1.30415480189342e-06
-3.08724598263412e-06
1.60460121435275e-05
-6.63004525599052e-07
-3.38591560437656e-06
1.2172111776376e-05
-3.94253921042271e-06
-4.94309216501659e-07
1.35183553589134e-05
-3.59431711710961e-06
-1.02976980953073e-06
1.53104342890102e-05
-3.28245466437349e-06
-1.61065718939517e-06
1.66108330502779e-05
-2.79384052217079e-06
-2.20065359546318e-06
1.67374750205716e-05
-2.13830488851555e-06
-2.69296841752022e-06
1.57530276976548e-05
-1.4156893990434e-06
-2.97788320809155e-06
1.45670476150826e-05
-6.99198964089697e-07
-3.12027392710374e-06
1.06467167941063e-05
-4.46846906217866e-06
-3.89462857588372e-07
1.20205105520871e-05
-4.23093381690407e-06
-8.25088766366239e-07
1.37458046113225e-05
-4.02890492709729e-06
-1.30053949999576e-06
1.5067192066182e-05
-3.6047947237189e-06
-1.7902432148586e-06
1.56301889059587e-05
-2.95747504819554e-06
-2.25135656880155e-06
1.53192207440544e-05
-2.20137200136744e-06
-2.59540803812143e-06
1.42621181253696e-05
-1.43259292482461e-06
-2.74476669801633e-06
1.31091933064191e-05
-6.99543753428363e-07
-2.77429148541527e-06
9.21230218460652e-06
-4.82396341686347e-06
-3.04290585555085e-07
1.05565969706352e-05
-4.70066439899086e-06
-6.54894052098465e-07
1.2221857906182e-05
-4.62063904651459e-06
-1.04527483385212e-06
1.34839295479209e-05
-4.28569136352051e-06
-1.44631682362296e-06
1.41100358773768e-05
-3.68244460624016e-06
-1.83017691210468e-06
1.42311058734647e-05
-2.93966747612764e-06
-2.1680706646425e-06
1.38176096956557e-05
-2.16163648512713e-06
-2.39058140675742e-06
1.28419447282184e-05
-1.40021305062204e-06
-2.44061898220342e-06
1.17909756385649e-05
-6.81199432503647e-07
-2.39222167990967e-06
9.18129395133922e-06
-5.14951343905794e-07
1.0772898353212e-05
-5.05363391010386e-06
-8.33771007097038e-07
1.20069192368983e-05
-4.81976504034774e-06
-1.16548978935501e-06
1.26202715769945e-05
-4.28149635340135e-06
-1.47933005125679e-06
1.2820220062881e-05
-3.57747162007128e-06
-1.76150107433766e-06
1.28074459011786e-05
-2.82653582057865e-06
-1.99524465402506e-06
1.24339612156049e-05
-2.07507987699307e-06
-2.12418011839266e-06
1.15731443394523e-05
-1.34379526017726e-06
-2.10458874560652e-06
1.06434557729786e-05
-6.52716199184377e-07
-2.00587680563916e-06
1.84407121949145e-05
7.69156299653853e-07
-1.65339520305673e-06
1.8083884973329e-05
6.35031803188509e-07
-1.42305104762985e-06
1.86850067216413e-05
3.85281704090511e-07
-2.84231188530839e-06
1.79172557174033e-05
-4.66173607564079e-08
-1.26547998762704e-06
1.85781706790948e-05
7.69577631024458e-08
-2.48140713785883e-06
1.91685484357632e-05
6.94593039038529e-08
-3.65696314772281e-06
1.75197346610762e-05
-1.04272506773889e-06
-1.10039194817985e-06
1.84268058846755e-05
-6.56924671912312e-07
-2.19630224742515e-06
1.92674427249037e-05
-4.07353013601782e-07
-3.2172618864678e-06
1.92502609900775e-05
-2.27697525976255e-07
-4.10912353564132e-06
1.66236762758097e-05
-2.14908787078557e-06
-9.32009075728006e-07
1.7744533984047e-05
-1.64075057340873e-06
-1.88413130167779e-06
1.92147931319398e-05
-1.24426479256731e-06
-2.83619948226124e-06
1.93024962033661e-05
-8.60291328006281e-07
-3.61890475647439e-06
1.85504026218767e-05
-4.70652987503372e-07
-4.21297212030553e-06
1.52520443774365e-05
-3.19138440231608e-06
-7.67058037478276e-07
1.6524671533731e-05
-2.68297855136499e-06
-1.56345165410916e-06
1.83418245222722e-05
-2.25438356881194e-06
-2.40420625349661e-06
1.91785938198178e-05
-1.75521860177344e-06
-3.1762265696171e-06
1.84316002087703e-05
-1.2018427774784e-06
-3.71313235694204e-06
1.72117212313896e-05
-6.20441547112217e-07
-4.05630224458207e-06
1.3608374655619e-05
-4.06166792547451e-06
-6.15758427603488e-07
1.50020143932787e-05
-3.63509490979791e-06
-1.27246457209112e-06
1.68577607852442e-05
-3.26317065216973e-06
-1.97349949886384e-06
1.81439639712632e-05
-2.74234027422018e-06
-2.67437167074807e-06
1.81442330913854e-05
-2.08803896815989e-06
-3.25055450398113e-06
1.69650513248717e-05
-1.38598502020726e-06
-3.57628906271815e-06
1.56027642260787e-05
-6.89503011945038e-07
-3.73212868362876e-06
1.19092020450003e-05
-4.71905814128948e-06
-4.85965536013339e-07
1.33672242434521e-05
-4.4129303146716e-06
-1.02240882992331e-06
1.51841439454058e-05
-4.15099926801177e-06
-1.59956392833969e-06
1.65236541896617e-05
-3.675793354518e-06
-2.18516547754386e-06
1.70148706704256e-05
-2.99512951301666e-06
-2.7285096991406e-06
1.6560751603532e-05
-2.22358995933047e-06
-3.12659857023489e-06
1.53245339490252e-05
-1.44867212628142e-06
-3.29082568493735e-06
1.40127971046467e-05
-7.10086645770922e-07
-3.31379038333541e-06
1.02902982624651e-05
-5.16697538464866e-06
-3.79488964854513e-07
1.17400307123866e-05
-4.99157063472764e-06
-8.12259128896343e-07
1.35187444708471e-05
-4.86277184945678e-06
-1.28810759587366e-06
1.48219945087889e-05
-4.47312957223627e-06
-1.77026890602316e-06
1.54060679294786e-05
-3.81828385641803e-06
-2.22546510621997e-06
1.5433698981617e-05
-3.03502306342634e-06
-2.62029758267571e-06
1.48911946346256e-05
-2.22749339101573e-06
-2.87409229018837e-06
1.37628530705541e-05
-1.44338989802268e-06
-2.92182873461349e-06
1.25749382347224e-05
-7.03739963582326e-07
-2.85451355838517e-06
8.80867450366504e-06
-5.43127811859621e-06
-2.93721213040496e-07
1.01957526808266e-05
-5.38106795107138e-06
-6.38344666748669e-07
1.19133109820332e-05
-5.38782097624399e-06
-1.0281239102077e-06
1.32096396949884e-05
-5.10494351276705e-06
-1.42874191247817e-06
1.3803043079549e-05
-4.50861316109929e-06
-1.80291847912326e-06
1.39352958302849e-05
-3.75010498369312e-06
-2.13481346826249e-06
1.38370297685903e-05
-2.95377626822319e-06
-2.40551327375471e-06
1.33577504738465e-05
-2.16516322381771e-06
-2.54941988157399e-06
1.23701069951277e-05
-1.40212428019662e-06
-2.51665642934001e-06
1.13250165167185e-05
-6.81880049542893e-07
-2.39190169623832e-06
1.03974004456518e-05
-8.11515587881281e-07
1.16838807390291e-05
-5.5697611322162e-06
-1.1434993554395e-06
1.23288030814067e-05
-5.05299758340467e-06
-1.45656869810434e-06
1.24907435383592e-05
-4.34238780868561e-06
-1.72860127221328e-06
1.24860021001601e-05
-3.58000652814049e-06
-1.95762653364017e-06
1.24052395999777e-05
-2.82036723427752e-06
-2.13106267406919e-06
1.20137181546641e-05
-2.07071727704851e-06
-2.19401520076587e-06
1.11612413588078e-05
-1.3411994363402e-06
-2.10856764360986e-06
1.02563849149108e-05
-6.51377695305106e-07
-1.9511051297496e-06
1.90666257843125e-05
1.35372702708395e-06
-1.97963819606276e-06
1.91033409187419e-05
1.45306490858047e-06
-1.70336246685598e-06
1.96063370038465e-05
8.35701198126575e-07
-3.41042448852973e-06
1.93043008763913e-05
7.74676161085042e-07
-1.52668786111725e-06
1.98120812058745e-05
7.04342181031765e-07
-2.97602034795602e-06
2.03050762378834e-05
4.14572237957739e-07
-4.39341048338315e-06
1.91926291862662e-05
-3.74040988714474e-07
-1.3454696722149e-06
1.99558396387936e-05
-6.54745153938806e-08
-2.65208014551862e-06
2.06642407721519e-05
6.01155454473963e-08
-3.86886038761383e-06
2.04995030735634e-05
2.60357438133847e-08
-4.93224018741357e-06
1.84489059947589e-05
-1.71367543473594e-06
-1.15427838562634e-06
1.94605001358705e-05
-1.16820238081524e-06
-2.30507934583427e-06
2.08432017369119e-05
-7.99833123696612e-07
-3.43222984535876e-06
2.0750454867029e-05
-5.40251679837202e-07
-4.35266582847108e-06
1.9812314011168e-05
-3.23258443726528e-07
-5.04777584717682e-06
1.70726453571931e-05
-3.01265965618568e-06
-9.57028209443913e-07
1.82962259703362e-05
-2.41465116738496e-06
-1.92966195856807e-06
2.00918386784216e-05
-1.94375032070552e-06
-2.93465898302414e-06
2.08007384498826e-05
-1.47733242346284e-06
-3.84130238995149e-06
1.98242370844627e-05
-1.01959734499779e-06
-4.4625970996617e-06
1.83932520393713e-05
-5.42580137610488e-07
-4.8519225489047e-06
1.52992165481168e-05
-4.11058220507526e-06
-7.71643144123195e-07
1.67133540645965e-05
-3.5817551431477e-06
-1.57962034033471e-06
1.86002038921418e-05
-3.13469784687302e-06
-2.42557968315647e-06
1.98252488661513e-05
-2.58561485638256e-06
-3.25509379907898e-06
1.96459975864768e-05
-1.95565572573252e-06
-3.92417752592098e-06
1.82280816806744e-05
-1.30558031063334e-06
-4.2910239625659e-06
1.66611735521581e-05
-6.57876661205625e-07
-4.45683429600842e-06
1.34031593919183e-05
-4.94575550290902e-06
-6.09868890521903e-07
1.49368150695799e-05
-4.54748302586165e-06
-1.27296018762158e-06
1.68291751998912e-05
-4.20611558213201e-06
-1.97455027275402e-06
1.81531516305089e-05
-3.67194839852941e-06
-2.67338789327389e-06
1.8527387520245e-05
-2.96494926697569e-06
-3.30997687795127e-06
1.78850890155842e-05
-2.19513134390037e-06
-3.76574530108001e-06
1.64340846516935e-05
-1.43404354886127e-06
-3.94129915844647e-06
1.49398984775804e-05
-7.07505336149819e-07
-3.95172405089769e-06
1.15658023906255e-05
-5.51876322089848e-06
-4.75798281310472e-07
1.31249426457175e-05
-5.27170022807479e-06
-1.01210692769324e-06
1.50144095750069e-05
-5.07551717769227e-06
-1.59355530031926e-06
1.63378392817057e-05
-4.61821177572393e-06
-2.1729897224647e-06
1.68447595258107e-05
-3.90848139583495e-06
-2.71050394118561e-06
1.67402419562177e-05
-3.09032495379539e-06
-3.16831628245452e-06
1.60334499252442e-05
-2.26383324445645e-06
-3.45369229742775e-06
1.47244841337112e-05
-1.46882624799119e-06
-3.49371680803307e-06
1.3380358153037e-05
-7.18810800533865e-07
-3.4003987346074e-06
9.87130624702573e-06
-5.86224687187283e-06
-3.67359512935448e-07
1.13827928956667e-05
-5.76331464530582e-06
-7.94784212125452e-07
1.32330244001958e-05
-5.72204863455286e-06
-1.27269515025358e-06
1.45817407437792e-05
-5.37640863753333e-06
-1.75692871341777e-06
1.51297477796384e-05
-4.71339851499555e-06
-2.20185802273889e-06
1.51629154866951e-05
-3.89826420348333e-06
-2.58984220244017e-06
1.49489292465119e-05
-3.059389105812e-06
-2.90030002945415e-06
1.43371250138534e-05
-2.23927931854804e-06
-3.05757700197262e-06
1.32009756481737e-05
-1.45094806415745e-06
-3.00548904190285e-06
1.2024993782917e-05
-7.07134493908365e-07
-2.84735576951814e-06
8.34562010944759e-06
-6.01898689966674e-06
-2.80459025679184e-07
9.76826255211293e-06
-6.05304015424233e-06
-6.16700491495611e-07
1.15335468011485e-05
-6.15823915785079e-06
-1.00407175727135e-06
1.28965627667533e-05
-5.93858511403894e-06
-1.40716345002498e-06
1.35279485259942e-05
-5.35462614352774e-06
-1.78187289176523e-06
1.36171910581671e-05
-4.57729493558063e-06
-2.10217468809514e-06
1.3522905023211e-05
-3.75832959082697e-06
-2.36716143704129e-06
1.33509620072337e-05
-2.95294090944721e-06
-2.56345648751253e-06
1.28549471726536e-05
-2.1653957002253e-06
-2.62737679899885e-06
1.18813842016344e-05
-1.40268489022597e-06
-2.51599405093143e-06
1.08683332598282e-05
-6.82016421526998e-07
-2.32183297727876e-06
1.12936788604459e-05
-1.11331367100784e-06
1.20080476377325e-05
-5.82993901355621e-06
-1.42922895718949e-06
1.2202171495517e-05
-5.11578393424717e-06
-1.70134481999752e-06
1.21545885631199e-05
-4.33791294749674e-06
-1.9196705282495e-06
1.20796581811578e-05
-3.56683366765704e-06
-2.08933097382987e-06
1.19738688437083e-05
-2.81093287871107e-06
-2.19955290618097e-06
1.15808761673277e-05
-2.06492519601091e-06
-2.19721653170825e-06
1.07532122809751e-05
-1.33773973821327e-06
-2.05100778095274e-06
9.88669901652878e-06
-6.49475763471876e-07
-1.84178308116501e-06
1.92867663965798e-05
2.14492672106996e-06
-2.36506482699322e-06
1.98932220876433e-05
2.60098858140114e-06
-2.03714022055211e-06
2.02508265178003e-05
1.45928989223922e-06
-4.08341512993815e-06
2.06365715677478e-05
1.9693760973381e-06
-1.84857969867624e-06
2.09144125132359e-05
1.59702589564816e-06
-3.56701619109416e-06
2.12609854370148e-05
8.9901644676115e-07
-5.26534829077687e-06
2.09858451979904e-05
6.41976216455074e-07
-1.66051444622606e-06
2.14913707251781e-05
8.59374590990514e-07
-3.2172494787491e-06
2.19972284485244e-05
7.50925536618184e-07
-4.64535965587999e-06
2.16501217638535e-05
3.59321446406091e-07
-5.90334936597617e-06
2.05078676791841e-05
-9.94125436040311e-07
-1.43887605507047e-06
2.13097918539695e-05
-4.28200227371668e-07
-2.83203435421867e-06
2.2531019297253e-05
-1.22854063612839e-07
-4.15692672868743e-06
2.21937298688144e-05
-5.75981537087496e-08
-5.22850033406732e-06
2.10196005595536e-05
-1.02718667744213e-07
-6.03680696530849e-06
1.9201927509415e-05
-2.64072356627928e-06
-1.20223291366968e-06
2.02988870864971e-05
-1.93259293149576e-06
-2.39254788191782e-06
2.20003974432145e-05
-1.42252859957436e-06
-3.59094159591668e-06
2.25022688294466e-05
-1.02651931038153e-06
-4.64749155526576e-06
2.12331143500677e-05
-7.27149881649052e-07
-5.35765071843383e-06
1.95544153501229e-05
-4.16644658330381e-07
-5.79229356531691e-06
1.73097671535888e-05
-4.04911149060775e-06
-9.74097688001521e-07
1.86996573220063e-05
-3.38606672490686e-06
-1.97191503515366e-06
2.05642057182589e-05
-2.84538478293333e-06
-2.99202850081274e-06
2.1659346533545e-05
-2.27741513387589e-06
-3.96867309087486e-06
2.12299152383898e-05
-1.70729004811147e-06
-4.73752681644967e-06
1.95199205729075e-05
-1.15462801473179e-06
-5.14238788980865e-06
1.77170384128613e-05
-5.96076618123522e-07
-5.31171010778291e-06
1.51910723890682e-05
-5.12765036395484e-06
-7.70843821842219e-07
1.67823870110608e-05
-4.60470074237663e-06
-1.59426842690878e-06
1.87207090696328e-05
-4.1577484709779e-06
-2.44810292179044e-06
1.99776706982758e-05
-3.55624143423e-06
-3.27947126140299e-06
2.01720045534498e-05
-2.83580425194462e-06
-4.01956138349758e-06
1.92834510029632e-05
-2.09410435188336e-06
-4.53401539841206e-06
1.7575239995007e-05
-1.3760720667418e-06
-4.71398362082194e-06
1.58726873099296e-05
-6.86601161673602e-07
-4.70302115169254e-06
1.30922553437148e-05
-5.87169119149232e-06
-6.00516406698376e-07
1.47616862939824e-05
-5.52568113364958e-06
-1.26841371627582e-06
1.67523729420494e-05
-5.23641910786961e-06
-1.98061927854617e-06
1.80624363144564e-05
-4.6949479267125e-06
-2.67614727222247e-06
1.84421138412743e-05
-3.92835155699633e-06
-3.30733882820441e-06
1.8153568717783e-05
-3.08564973520665e-06
-3.8327844798903e-06
1.723801367223e-05
-2.25684987945452e-06
-4.1475025519252e-06
1.57156890478761e-05
-1.46858121274058e-06
-4.17142790586057e-06
1.41943469785696e-05
-7.23155796765948e-07
-4.04255635908261e-06
1.11381002497169e-05
-6.32333693896548e-06
-4.62219567759524e-07
1.27856783304047e-05
-6.15545733110019e-06
-9.94925691036948e-07
1.47731491389768e-05
-6.04500595285275e-06
-1.58274234323816e-06
1.61566441237023e-05
-5.61836238751545e-06
-2.16830735238915e-06
1.66224344304948e-05
-4.87866529182904e-06
-2.69549174022297e-06
1.65137703603399e-05
-4.00625011674698e-06
-3.14543246928922e-06
1.61446079007791e-05
-3.13089477446296e-06
-3.49693225111316e-06
1.53671856887091e-05
-2.28880385570448e-06
-3.66377480167037e-06
1.40574619548664e-05
-1.48530616996964e-06
-3.58370733290188e-06
1.27337612991519e-05
-7.26445971728415e-07
-3.38271954601698e-06
9.37442368574672e-06
-6.53954036933765e-06
-3.51509461058032e-07
1.09404187233312e-05
-6.53258699872977e-06
-7.7024279429883e-07
1.2859700847673e-05
-6.595197151896e-06
-1.24778889835931e-06
1.42939274781053e-05
-6.30852587344772e-06
-1.73794205500452e-06
1.48875304320398e-05
-5.64424064106398e-06
-2.18566744411532e-06
1.48707477978329e-05
-4.79310042685964e-06
-2.560577597536e-06
1.46538998027278e-05
-3.9162240179456e-06
-2.86400074035056e-06
1.43617289840881e-05
-3.06779417080441e-06
-3.08255082484026e-06
1.37366616050544e-05
-2.24725381966239e-06
-3.14298519537277e-06
1.26228059621354e-05
-1.45671976965008e-06
-2.99732527383497e-06
1.14881836286862e-05
-7.09679664818773e-07
-2.75752596382702e-06
7.81037065305276e-06
-6.57537367213155e-06
-2.63687560087593e-07
9.2637200745768e-06
-6.70452438648448e-06
-5.88468458234054e-07
1.10683757326733e-05
-6.92038904881064e-06
-9.70411442455602e-07
1.25030248445148e-05
-6.77730662098172e-06
-1.37469441452922e-06
1.3217325294814e-05
-6.21625059717299e-06
-1.75481548497405e-06
1.33429709637095e-05
-5.42357739533204e-06
-2.07638856632513e-06
1.3199721462013e-05
-4.57680679837116e-06
-2.32882920898421e-06
1.30295305609263e-05
-3.74973096801253e-06
-2.52024222541592e-06
1.28329622798035e-05
-2.94835158812647e-06
-2.63959254632412e-06
1.23398673862451e-05
-2.16374677164449e-06
-2.62530546974579e-06
1.13993390824121e-05
-1.40198134452759e-06
-2.44215558679741e-06
1.0433617643198e-05
-6.81324935088916e-07
-2.18742608074609e-06
1.1613835344315e-05
-1.39102868906676e-06
1.18850414028648e-05
-5.89398187557293e-06
-1.66860204197511e-06
1.1866724231358e-05
-5.10248196744422e-06
-1.88800228190512e-06
1.17483725742721e-05
-4.31517408986749e-06
-2.04712265535275e-06
1.16484656146053e-05
-3.54979347113645e-06
-2.15471778924108e-06
1.15338000249233e-05
-2.79971546960633e-06
-2.20120087762655e-06
1.11525191641011e-05
-2.05790483821582e-06
-2.13631305136189e-06
1.03608429436431e-05
-1.33332382377434e-06
-1.93598274498988e-06
9.53530799487854e-06
-6.46364670129279e-07
-1.68355342458646e-06
1.88974912059945e-05
3.17521063317247e-06
-2.78593294336969e-06
2.02966539977674e-05
4.17293178934359e-06
-2.43143430921536e-06
2.04562232575041e-05
2.29630859970952e-06
-4.86676751227431e-06
2.18063083164744e-05
3.67408118517767e-06
-2.24282680188849e-06
2.17630899720488e-05
2.84244755495391e-06
-4.26897279002131e-06
2.190719844308e-05
1.56400271478501e-06
-6.2936289637128e-06
2.28405914255063e-05
2.16579473737979e-06
-2.05116282888511e-06