/*--------------------------------*- C++ -*----------------------------------*\
  =========                 |
  \\      /  F ield         | OpenFOAM: The Open Source CFD Toolbox
   \\    /   O peration     | Website:  https://openfoam.org
    \\  /    A nd           | Version:  12
     \\/     M anipulation  |
\*---------------------------------------------------------------------------*/
/*   Windows 32 and 64 bit porting by blueCAPE: http://www.bluecape.com.pt   *\
|  Based on Windows porting (2.0.x v4) by Symscape: http://www.symscape.com   |
\*---------------------------------------------------------------------------*/
FoamFile
{
    format      ascii;
    class       volVectorField;
    location    "0";
    object      U;
}
// * * * * * * * * * * * * * * * * * * * * * * * * * * * * * * * * * * * * * //

dimensions      [0 1 -1 0 0 0 0];

internalField   nonuniform List<vector> 
10142
(
(-5.65306422391618e-05 0.00527920896177141 0.00012272819614349)
(-6.84238805119194e-05 0.00573649654191851 0.00012604179900662)
(-5.37480636317925e-05 0.00527230633601051 0.000377125342593162)
(-0.000172442414496822 0.00526313209163958 0.00012524057033978)
(-8.28033330592836e-05 0.00623478409584344 0.000127249774526476)
(-6.53953158796049e-05 0.00573286053728844 0.000387468880842601)
(-0.000208435106136285 0.00571710500399915 0.000128565229722674)
(-5.15843032940391e-05 0.00525642721812023 0.000650233405194788)
(-0.00016730765083332 0.00525674995987672 0.000383738674480365)
(-0.000293081551336713 0.00522805104623041 0.000127959447472258)
(-0.000100194709315116 0.00677545007391214 0.00012526969470506)
(-7.9513054660568e-05 0.00623613536302855 0.000391473222748109)
(-0.000251919203821264 0.00621138763357539 0.000129721986927386)
(-6.30789977192127e-05 0.00572363363265688 0.00066957888418198)
(-0.000202625409227566 0.00571424527469676 0.000394409497757221)
(-0.000353993011833672 0.00567477320775103 0.0001313570137076)
(-5.10294542299396e-05 0.00522825475972034 0.000945245228566457)
(-0.000162642491100903 0.00524065735010843 0.000660332433574178)
(-0.00028830854379418 0.00522206713964149 0.000390749515025443)
(-0.000416903203234639 0.00516999741517902 0.000130005369015666)
(-0.000121226478149879 0.00735846432919317 0.00011860260861967)
(-9.66611795884407e-05 0.00678419155913647 0.000385841814796972)
(-0.00030445621388002 0.00674722104158323 0.000127617916494798)
(-7.69929637407393e-05 0.00623716122992196 0.000678858181899933)
(-0.000245372593980197 0.00621383454304311 0.000398640552205927)
(-0.000427533267074609 0.00616030633007335 0.000132561552441372)
(-6.29331786822887e-05 0.00570506056959427 0.000976425802431293)
(-0.000197630826786023 0.0057051749344673 0.000680660909471439)
(-0.000348630281948246 0.00567249463334692 0.000401872844667333)
(-0.000502952649713516 0.00560475007518725 0.00013363091357581)
(-5.40493784406239e-05 0.00518453291800648 0.00125516042947406)
(-0.000160616250839605 0.00521087904535218 0.000954421051922537)
(-0.000283947803899284 0.0052058655157982 0.000671068732529216)
(-0.000414010572102073 0.00516341628017855 0.000396499974624047)
(-0.000537301333163954 0.00508667262875054 0.000130883994287014)
(-0.000146647650445895 0.00798155948914922 0.000105185344804559)
(-0.0001175041457246 0.0073779102608646 0.000366009614154897)
(-0.000367913330817376 0.00732442167275566 0.000120739420315159)
(-9.39498514931542e-05 0.00680052243230659 0.000672571053788391)
(-0.000297157444468905 0.00675745382525925 0.000393154835767818)
(-0.000516288302999552 0.00668559250388701 0.000130499151906051)
(-7.69437223739087e-05 0.00623366538437517 0.000995740776270719)
(-0.000240059344213497 0.00621548164683226 0.000690660479543563)
(-0.000421597752941882 0.00616354713934857 0.000406592273476357)
(-0.000606683103408624 0.00607586448894754 0.000135143546680508)
(-6.37414539828411e-05 0.00567223398134367 0.00130453953779359)
(-0.000196182425819921 0.00568551202663751 0.000988951523295103)
(-0.000344073591972881 0.00566347708381008 0.000692341744815231)
(-0.000499953138436097 0.00560175716920854 0.00040833268997563)
(-0.000647293349375926 0.00550437754400418 0.000134859934335449)
(-5.44085663879753e-05 0.00511603163018761 0.00157279420681448)
(-0.000163785224137592 0.00516221455860682 0.00126356214932947)
(-0.000282339628725655 0.00517516492056331 0.000967832721490779)
(-0.00041124351646535 0.00514633565235059 0.000679390309900127)
(-0.000536247400843999 0.00507868641913087 0.000399536044931417)
(-0.000645845326772783 0.00497916903938736 0.000130934986863376)
(-0.000177332656849793 0.00863905934681485 8.22113665978917e-05)
(-0.000142844013895631 0.0080162404754225 0.000325682720451602)
(-0.000444506281124128 0.00794056209739207 0.000106989908268708)
(-0.000114682967995148 0.00741653096040969 0.000643126902330292)
(-0.000359921433701449 0.00734585325605204 0.000373387373716035)
(-0.000623377291170589 0.00725012059457922 0.000123648902265162)
(-9.39639464339122e-05 0.00681996210414417 0.000995014825659399)
(-0.000291677509535861 0.0067749806204554 0.000685010458993257)
(-0.000509890796023503 0.00669686144679221 0.00040168369862969)
(-0.000731674975497734 0.00658381789917503 0.000133519574999366)
(-7.8326232909489e-05 0.00621833090543898 0.00134105432566312)
(-0.000239099318776789 0.00621146556753287 0.00100974206923473)
(-0.000417076623875699 0.00616542393776168 0.000703450681941206)
(-0.00060376893100631 0.00607821542712443 0.000414028007442443)
(-0.000779603208527815 0.00595501912563633 0.000136906200761858)
(-6.4418682597109e-05 0.00561546609770886 0.0016488023748462)
(-0.000196797968357378 0.0056490978754317 0.00131622076012521)
(-0.000342945552705564 0.00564281698566363 0.00100320106922472)
(-0.000497517779445548 0.00559162317451961 0.000701843029346158)
(-0.000646627931267025 0.00549956843146766 0.000412320654709796)
(-0.000776853873027983 0.00537516041399721 0.000135299221715554)
(-5.1612213696427e-05 0.00501881035885651 0.00189985002966197)
(-0.000163715619003853 0.00509322728457263 0.00158366305367778)
(-0.000283002981815859 0.005126341721234 0.00127591051090804)
(-0.000410238590233784 0.00511440210809618 0.000977048068917468)
(-0.0005350768520249 0.00505990180791878 0.000683852207633656)
(-0.00064574719118907 0.00496979049169079 0.000400305574820176)
(-0.000735454044312025 0.00485165882765593 0.000130753439625581)
(-0.000214296747286773 0.00932028573688551 4.58986209817744e-05)
(-0.000173642379098735 0.00869510166029737 0.000256253933227017)
(-0.000536802159402825 0.00858980050143058 8.35486345459368e-05)
(-0.000140080199485117 0.00808674655168279 0.00058004112369537)
(-0.000435991633030591 0.00797783382353713 0.000333040420058719)
(-0.000752420656791071 0.00785110327452041 0.000109954326611308)
(-0.000114877044781001 0.00746973243377499 0.000963920533175646)
(-0.000354619389225149 0.00738641213017654 0.000656208470572583)
(-0.000616738943573427 0.00727284773934775 0.000382666017973729)
(-0.000882138769017769 0.00712756956879605 0.000127303251991748)
(-9.58101680545469e-05 0.00683307006280994 0.00135516853913905)
(-0.000291494931250348 0.0067943619293162 0.00101031483385826)
(-0.000505836703002675 0.00671478409276532 0.000699172367253615)
(-0.00072916737822697 0.00659392369197507 0.00041050742348425)
(-0.000938626053969687 0.00643844881071268 0.000136073622854702)
(-7.92793078071137e-05 0.00618109365204983 0.0017109560761541)
(-0.00024092605004245 0.00619446466055453 0.00135449609598538)
(-0.000416991317339629 0.00616029049839723 0.00102565673834119)
(-0.000602166041413315 0.00607860643829932 0.000714649268441213)
(-0.000779672702212775 0.00595498700188585 0.000419469531689678)
(-0.000934015564486066 0.00579984250199919 0.000137964530979561)
(-6.41543092827393e-05 0.00552801308212712 0.00200623295902935)
(-0.000197435728359055 0.00559148683469259 0.00165886132487777)
(-0.000343683684502973 0.0056054633094023 0.00132980127274912)
(-0.000497504464006804 0.00556921266006683 0.00101379642773667)
(-0.000646378730693077 0.00548709100162303 0.000707768625708447)
(-0.000777423386639949 0.00536845640239841 0.000414167389173625)
(-0.000883119535625426 0.00522232801567168 0.000135502206579054)
(-5.10172207891443e-05 0.00489174799630691 0.00223245908571358)
(-0.00015919726375768 0.00499934936057489 0.00190832902868895)
(-0.000281949411667199 0.00505667789492797 0.00159150662292351)
(-0.000409814332491968 0.0050645650563828 0.00128344232987222)
(-0.000534504346464278 0.00502622347114458 0.00098147499063413)
(-0.000645423104883756 0.00494910246595903 0.00068511898049553)
(-0.000735554174439978 0.00484135960174217 0.000400110527613073)
(-0.000801674607987482 0.00470976348073908 0.000130629253176408)
(-0.000258679053017636 0.0100074263289277 -8.8103437807812e-06)
(-0.000211053737984294 0.00940587524387362 0.000146095645020641)
(-0.000647751280910285 0.00926129562991968 4.66170278726611e-05)
(-0.000171240860093637 0.00881053544913822 0.000468834487653475)
(-0.000528140213248642 0.0086491423017523 0.000263515758374594)
(-0.000907661020995171 0.00848233914294313 8.66392406488738e-05)
(-0.000140697705795104 0.00818871413485034 0.000888211876290339)
(-0.000431491190324701 0.00805124076927975 0.00059381877782014)
(-0.000746003102821516 0.00788992356315293 0.000343377868474344)
(-0.00106302988944156 0.00770377438985922 0.00011456479393488)
(-0.000117397408422569 0.00752547357112921 0.00133478400162199)
(-0.000355865259881043 0.00744008933755772 0.000980724894277025)
(-0.000613902025839451 0.00731392753195049 0.000672190582669701)
(-0.000880589081895727 0.00714871126168161 0.000393517383807666)
(-0.00112950564782053 0.00695293100807359 0.000131059079533688)
(-9.7402539176998e-05 0.00682643238095262 0.00175106976096271)
(-0.000294919557115541 0.00680589748958997 0.00137040550272077)
(-0.000507628527667838 0.00673281750426143 0.00102842522543797)
(-0.000729199315930256 0.00660977890975629 0.000712825716258461)
(-0.000939962731662212 0.00644537851755752 0.000418155425372851)
(-0.00112230747511097 0.00625233515837222 0.000138090815980265)
(-7.91340482270067e-05 0.00611182382281726 0.00210187612300705)
(-0.00024253411547156 0.00615580784698272 0.00172212535731434)
(-0.000419371039648407 0.0061412209495809 0.00137001708786246)
(-0.00060403459036619 0.00607095136761989 0.00103850482353091)
(-0.000781080547933165 0.00595210506880458 0.000722861489289068)
(-0.000935685733885882 0.00579721140940227 0.000423043313011025)
(-0.00105969319939956 0.00561690567318887 0.000138793634909369)
(-6.30392552106991e-05 0.00540645860785894 0.00237284612633291)
(-0.000196465200192006 0.00550633458737045 0.00201321967955113)
(-0.000343667649190272 0.00554659717648457 0.00166878722253951)
(-0.000498293515088138 0.00553000057392778 0.00133885295444242)
(-0.000647342522608653 0.00546205198151837 0.00101997887277248)
(-0.000778402914065189 0.00535323400731052 0.000710673017039331)
(-0.00088397013634892 0.00521425690874559 0.000415087380760494)
(-0.000960825949679165 0.00505281008423349 0.000135755308864482)
(-4.95341875747897e-05 0.00473146057952691 0.00256375508652149)
(-0.000156920249912026 0.0048746822131141 0.0022356382817964)
(-0.000278133301868193 0.00496207309526831 0.00191205831117502)
(-0.000407743796583948 0.0049940212493207 0.00159525800909127)
(-0.000533390760048735 0.00497489775880006 0.001285990490111)
(-0.000644861218406079 0.00491349370187761 0.000982234778257943)
(-0.00073535359163854 0.00481904687941591 0.000684831410440053)
(-0.000801638927248221 0.00469891169285333 0.000399710783940157)
(-0.000842361905295786 0.00455920651926979 0.000130536761860415)
(-0.00031177087575283 0.0106723222480955 -8.88212826735649e-05)
(-0.000256476384719511 0.0101335773338761 -2.0211105370417e-05)
(-0.000780648477387302 0.00993709407240735 -8.81559965531109e-06)
(-0.000209557249649863 0.00958360925014261 0.000289648588506257)
(-0.000639652527828753 0.0093509345481073 0.000153246726394309)
(-0.00109385383764858 0.00913265419352624 5.00132283733351e-05)
(-0.00017270527637169 0.00898204279031755 0.000748012667071602)
(-0.000525486497876548 0.00876868806179336 0.000483432099515112)
(-0.000902260140478763 0.00854340640041166 0.000275434052718172)
(-0.00128005047882433 0.00830569980761947 9.26994069720078e-05)
(-0.000144321898977796 0.00830682652510749 0.00126293129342287)
(-0.000435274031969197 0.00815437415508841 0.000906909442699319)
(-0.000745623877644788 0.00796388653789003 0.000612353240143425)
(-0.00106330924552117 0.00774034142087627 0.000357250891759302)
(-0.00135821721555107 0.00749437076385289 0.000120112043587794)
(-0.000120019137324494 0.00756538645216697 0.00175671446810788)
(-0.000361822388289245 0.00749395355199126 0.00135230529587342)
(-0.000618915182518682 0.00736580785243717 0.00100182345494522)
(-0.000883527088143773 0.00718680289507356 0.000689455853951778)
(-0.00113293104470271 0.00696977661642406 0.000404508769980877)
(-0.001347501635704 0.00673011265663548 0.000134541927570008)
(-9.77903378239265e-05 0.00678544883705571 0.00217949628585522)
(-0.000298408718440611 0.00679706248188119 0.00176407323828017)
(-0.000512892062077303 0.00674138767469771 0.00138866395379983)
(-0.000734286930401646 0.00662414504886692 0.0010446509730103)
(-0.000944158470431778 0.0064566009908303 0.000724559571697407)
(-0.0011257282571321 0.00625567406324195 0.000424429462017827)
(-0.00127045652157746 0.00603375394455168 0.000139906364574509)
(-7.8053082399863e-05 0.0060019231398956 0.00250918621336667)
(-0.00024233740119466 0.00608623484845412 0.00210953879333798)
(-0.000421191338718884 0.00610040694001494 0.00173397721888245)
(-0.000607308717198986 0.00604873170268601 0.00138156662971175)
(-0.000784717360123128 0.00594049958003416 0.0010475507830017)
(-0.000938849261037753 0.00579036033797047 0.000728432453961816)
(-0.00106175378188644 0.00561226062362927 0.000425785700743254)
(-0.00115044943831972 0.00541476069063826 0.000139662440570457)
(-6.13451279710475e-05 0.00524477750363891 0.00274325002399639)
(-0.000193748155695374 0.00538579871509919 0.00237599026252698)
(-0.00034144520991591 0.00546027141397699 0.00201841101775996)
(-0.00049764332312021 0.0054694007663509 0.00167411897072451)
(-0.000648023235634509 0.00542027985899235 0.00134319899052549)
(-0.000779718580568843 0.00532517113401756 0.00102269592446087)
(-0.000885219716052749 0.00519655048136759 0.000712095939751896)
(-0.000961524040485206 0.00504380782636977 0.000415796686428888)
(-0.00100757764132295 0.00487358423736098 0.000136026952689652)
(-0.000152819468305593 0.00471558252177055 0.00256386262020992)
(-0.000273155378300383 0.0048377195133377 0.00223598580322082)
(-0.000403090610435028 0.00489890628633887 0.00191171603441322)
(-0.000530284429607933 0.00490324691324895 0.00159450469356672)
(-0.000643048641960227 0.00486046862148135 0.0012848915385144)
(-0.000734430693178407 0.00478160722077804 0.000981077771516056)
(-0.000801180659226167 0.00467530303387698 0.000683957545682654)
(-0.000842118952605306 0.00454792991199383 0.000399205975002527)
(-0.000856964058292471 0.00440528746212605 0.000130375979746168)
(-0.000374545220917917 0.0112729915405571 -0.000202357945053845)
(-0.000311067309568071 0.0108527176273782 -0.000264446535039706)
(-0.000939469946408362 0.0105890281720834 -8.99531882159096e-05)
(-0.000257183700080673 0.0103975928328779 1.68982393469991e-05)
(-0.000774464059848738 0.0100683466146046 -1.25331402265155e-05)
(-0.00131589286391994 0.00978353862307512 -4.668333941559e-06)
(-0.000212493594759946 0.00985334967417417 0.000515663472657978)
(-0.0006404920801768 0.00953396793291706 0.000305272926116983)
(-0.00109089534657892 0.00922392785328715 0.000167571963776789)
(-0.00153963728332997 0.00892202740759927 5.83617639118479e-05)
(-0.000178140169031505 0.00919011429702055 0.00111554958311022)
(-0.000533605415275756 0.00894230332496818 0.000769211796399569)
(-0.000906318082040868 0.00866341911285919 0.000505695648200163)
(-0.00128352181694565 0.00836340298704719 0.000293866942948447)
(-0.0016315691858983 0.00805525702412035 0.000100904633890765)
(-0.000148605890434049 0.00841610315378602 0.00170980200534692)
(-0.000445340705648503 0.00827007140765728 0.0012835328942707)
(-0.000755995916240266 0.00806441011996729 0.000932245578411941)
(-0.00107113872849496 0.00780986841845551 0.000635013422442427)
(-0.00136496421366501 0.00752506836078965 0.000373291744830081)
(-0.00161619352729057 0.00722826456867665 0.00012580332146342)
(-0.000121431379867379 0.00756850653287391 0.0022274303856089)
(-0.000368412005159543 0.00753042671082743 0.00177228271048592)
(-0.000628896536691636 0.0074153634425639 0.00137444369989755)
(-0.000893891768835732 0.00723325401525008 0.00102310254424395)
(-0.00114164058617337 0.00700123351452262 0.000706577391309746)
(-0.00135363916826054 0.00674196400563637 0.000414935724642027)
(-0.00152144965799572 0.00646955772463633 0.000137873100948497)
(-9.70801400146367e-05 0.00669668452486952 0.0026350376362344)
(-0.000299849639834381 0.00675441427281115 0.00218867613609393)
(-0.000517904425025855 0.00672900419604285 0.00177868824105973)
(-0.000741793143563317 0.00662780113736513 0.00140407774420839)
(-0.000952196539987352 0.00646504717821176 0.0010582125814842)
(-0.00113240481692911 0.00626114527152762 0.000734349350588213)
(-0.00127440937714191 0.00603414420007872 0.00043005057658122)
(-0.00137585483287045 0.00579326695987571 0.000141744474399038)
(-7.63023035366813e-05 0.00584352309693939 0.00292665067170949)
(-0.000239974731753571 0.00597648256696305 0.00251286750329489)
(-0.000420601021282475 0.00602926699131978 0.00211619505594257)
(-0.000609237470573623 0.00600485701795788 0.00174165879602469)
(-0.000788596192671183 0.00591407150706084 0.00138895173683954)
(-0.000943336097425916 0.00577409088401167 0.00105354833913118)
(-0.00106538787979673 0.00560166113784452 0.00073268718996763)
(-0.00115233249576429 0.00540862064988528 0.000428313685615074)
(-0.00120367218301253 0.00520191239273193 0.000140526447004597)
(-5.91484451070464e-05 0.00503854185178059 0.00311200849607587)
(-0.000189227844322629 0.00522500875762136 0.00274329052509142)
(-0.000336739045291126 0.00533986638934086 0.00237666605859281)
(-0.000494208725845041 0.00538183398671381 0.00201912991045221)
(-0.000646621338045461 0.00535748715515902 0.00167490817500632)
(-0.000779983146033426 0.00528045677517341 0.00134404827191214)
(-0.000886295951604581 0.0051654990939352 0.0010235805434287)
(-0.000962506030691071 0.00502399638807242 0.000712926660296614)
(-0.00100801266637201 0.0048638141098674 0.000416353120087123)
(-0.00102294752422529 0.0046910370394909 0.00013620177096278)
(-0.000265987010222633 0.00467961820533874 0.00256089260635837)
(-0.000395829033532664 0.00477477381302193 0.00223184325656792)
(-0.000524271260267209 0.00480756178810084 0.0019070831285665)
(-0.000638858605429729 0.00478752576576656 0.0015903743284289)
(-0.000731833255995229 0.00472685893596968 0.00128173445305364)
(-0.00079970478519765 0.00463621067015355 0.000978991281942595)
(-0.000841284285125483 0.00452324063511619 0.000682695787219556)
(-0.000856530151120354 0.00439361260727793 0.000398496100651143)
(-0.000846005783446151 0.00425281360470749 0.000130098813459984)
(-0.0004484344547442 0.0117490780344117 -0.000359245284839245)
(-0.000376710653983619 0.0115236890059519 -0.000612171717701585)
(-0.00112736698571994 0.0111751916352078 -0.000204584038890821)
(-0.000314311086530047 0.0112334297347396 -0.000388171309477244)
(-0.000936263602569434 0.0107756210743588 -0.000257301617158053)
(-0.00158177619754277 0.0104070245260939 -8.49093819589314e-05)
(-0.000261664654206184 0.010801738029442 0.00015438000883145)
(-0.000780906710807231 0.0103398228813713 3.93903016186932e-05)
(-0.00131838384312598 0.00991648312881972 6.09507553528069e-06)
(-0.00184892178885559 0.00953222544731197 3.63887284902257e-06)
(-0.000220932276816929 0.0101895125192408 0.000858447473670195)
(-0.000655852024657976 0.00980773137831763 0.00054030047354846)
(-0.00110239299561387 0.00940767887854662 0.000333174527768472)
(-0.00154837273373531 0.00900757286682057 0.000192972876328574)
(-0.0019571944422627 0.00862326754888647 7.04023329823704e-05)
(-0.000185093545070935 0.0094015395707978 0.00158417696603271)
(-0.000550286758432858 0.00914707021530094 0.00114043657535715)
(-0.000925419996743765 0.00883291293909456 0.000800747015298093)
(-0.00129930295799347 0.00847674086810228 0.00053649570261666)
(-0.00164346286731577 0.00810495912773636 0.000317499642934675)
(-0.00193577630754785 0.00773851988078386 0.000109884110774107)
(-0.000151740421064479 0.00848657560175725 0.00222835885331536)
(-0.000456973709323742 0.00837403684327011 0.00172899208352945)
(-0.000773567674535659 0.0081737109472999 0.00131131974795564)
(-0.00108995514541117 0.00790223361311607 0.000961153024054816)
(-0.00138079983490587 0.00758500416996349 0.000660346144710112)
(-0.00162647375445017 0.00725198908687319 0.000390025609144401)
(-0.0018194577855951 0.00691864552130554 0.000131427125628871)
(-0.000121481548498213 0.00751505951393105 0.00274062827183179)
(-0.000372806828957533 0.00753030059943012 0.00223887594588656)
(-0.000639198060518911 0.00744618294714917 0.00179101056352861)
(-0.000908272201831151 0.00727523635384968 0.00139578876986814)
(-0.00115670590735701 0.00703880671693091 0.00104368372926518)
(-0.00136581863445069 0.00676507274326243 0.000722917784575733)
(-0.00152829629956645 0.00647711494407988 0.000424999761810051)
(-0.00164301451355072 0.00618431237833694 0.000141198038647196)
(-9.54396100154185e-05 0.00654869967341217 0.00310972187729249)
(-0.00029861934581028 0.00666491327303987 0.00263970167745043)
(-0.000520137823180919 0.00668337031064528 0.00219758862673696)
(-0.000748144114409008 0.00661028825907832 0.00179009712295777)
(-0.000961401131065193 0.00646202089418427 0.00141639951663574)
(-0.00114202231710483 0.00626247973273244 0.00106950345146032)
(-0.00128182281061575 0.00603401545890694 0.000743121235524289)
(-0.00137958681930201 0.00579133187184314 0.000435449883419655)
(-0.00143574687161699 0.00554123102584273 0.000143535612168489)
(-7.38510983065074e-05 0.00563041836869042 0.00334690588024833)
(-0.000235354523517328 0.00581864134874711 0.00292679839800297)
(-0.000416732113083438 0.00591892930146516 0.00251424001132582)
(-0.000607939617986127 0.00593136392337925 0.00211861643255003)
(-0.000790320519059144 0.00586629845906186 0.00174517267572937)
(-0.000947219933049204 0.00574281003145135 0.00139321730567597)
(-0.00106981574023905 0.00558066324639199 0.00105790578111129)
(-0.00115567665340694 0.00539471619842696 0.000736352114061294)
(-0.00120520764595687 0.00519449129934658 0.000430609579098118)
(-0.00121917756960649 0.00498604173854076 0.00014124712118266)
(-5.63545532095389e-05 0.0047848395076203 0.00347290386593959)
(-0.000182813104049582 0.00501967448520333 0.00310976577967516)
(-0.000329062530499457 0.00517984411939866 0.00273998254264793)
(-0.000487284063617622 0.00526115625792587 0.00237266251877318)
(-0.000641814419103947 0.00526839613293229 0.00201536932797832)
(-0.000777641847317962 0.00521512319030003 0.00167233474013143)
(-0.000885847706650888 0.0051177404774512 0.00134288999511843)
(-0.000962987559779086 0.0049901511717283 0.00102351381122989)
(-0.00100851933126019 0.0048421732628188 0.000713283861690516)
(-0.00102311717231134 0.0046805499412415 0.000416612304732007)
(-0.00100781006499875 0.00451088306261762 0.000136217225691957)
(-0.000385388924525272 0.00461765701327546 0.00255305716255712)
(-0.000514749022744259 0.00468361290969151 0.00222311880639713)
(-0.000631341398459803 0.00469116194421574 0.00189909301183255)
(-0.000726539145478582 0.00465256393402564 0.00158410506579498)
(-0.000796285147221567 0.00457982223267243 0.00127738277449878)
(-0.000839209506776481 0.00448267607511658 0.000976226508378605)
(-0.000855321276761009 0.00436798876229452 0.000681014407821074)
(-0.000845420053086031 0.00424078394131733 0.000397527538294364)
(-0.00081078488897 0.0041061396047186 0.000129702118827161)
(-0.000533023322920939 0.0120167840726468 -0.00056925093261893)
(-0.000455083670490903 0.0120882256665585 -0.00109528492672374)
(-0.00134775596389057 0.011635723436369 -0.000362351894515481)
(-0.000384980712527591 0.0120577247890213 -0.000971313217846843)
(-0.00113016478419338 0.0114329988453124 -0.000604403628212769)
(-0.00189496775167907 0.0109618325275947 -0.000197529976325197)
(-0.00032491376093984 0.0118238149479647 -0.000389736240493428)
(-0.00095386536310972 0.0111662893057001 -0.000368195284773813)
(-0.00159057833060823 0.0105949174128337 -0.000232810499468734)
(-0.00221528078945208 0.0101096077318887 -6.8184946379571e-05)
(-0.000275681598843485 0.0113189391079821 0.000443029364177318)
(-0.000808461117637185 0.010748046867306 0.000189438241577535)
(-0.00134099327882511 0.0101865170916141 7.08799818749302e-05)
(-0.00186596802453293 0.00965797568494189 3.71548768692395e-05)
(-0.002343673957987 0.00917913922263134 2.47255198472306e-05)
(-0.000232141150737128 0.0105506613540232 0.00134186501953063)
(-0.000683069706489344 0.0101386819976973 0.000889476925874411)
(-0.00113562523709479 0.00967372806825127 0.000581151464707966)
(-0.00157677036106575 0.00918138626595979 0.000376332932604579)
(-0.00197680002669461 0.00869857781234914 0.000227912491630945)
(-0.00231430329876461 0.00824798525509884 8.4209819368944e-05)
(-0.000191062949570744 0.0095733013645546 0.00215684110574172)
(-0.000570064153203104 0.00935039050789773 0.00160859968372304)
(-0.000955055563576198 0.00902810703960598 0.00117663101804024)
(-0.00133145077488344 0.00863383117747868 0.000841252145842731)
(-0.00167034803295653 0.00820431541114038 0.000574306162762524)
(-0.00195227240205778 0.00777848207540773 0.000343711518883796)
(-0.00217191769047909 0.00737211524273064 0.000118922341722399)
(-0.000153153344194047 0.00848944696073575 0.0028113849087415)
(-0.000466335144537524 0.00843891286657899 0.00224314263682951)
(-0.000792465443749817 0.00826876868005949 0.00175392666745287)
(-0.00111528668922698 0.00799988470805944 0.0013417991504247)
(-0.00140687420921082 0.00766403681323663 0.00099257372234087)
(-0.00164711237317723 0.00729979550815188 0.000686727026768956)
(-0.00183065525213635 0.00693615017262415 0.000406831161243106)
(-0.00195850190603679 0.00658160909831979 0.000136989130163827)
(-0.000120200652200248 0.00738825621807575 0.00328591617724587)
(-0.00037380537738154 0.00747485202075409 0.00274684442617666)
(-0.000646314878976446 0.00744078560713651 0.00225135880937769)
(-0.000921932432582476 0.00729771715191969 0.00180835195602804)
(-0.00117448284027117 0.00707034425752995 0.0014159685089451)
(-0.00138351453172805 0.00679188464945326 0.00106331881339901)
(-0.00154155096321727 0.00649192421101154 0.00073871955209236)
(-0.00164956064497192 0.00618833478381701 0.000434815453853382)
(-0.00170943292595515 0.00588696563000563 0.000144401519491277)
(-9.2780820122024e-05 0.00633254290098787 0.00359362004686133)
(-0.00029435153425559 0.00651701380748173 0.00311019226790868)
(-0.000518167928756809 0.0065920754053003 0.002642423974748)
(-0.000750675760121324 0.00656032619189018 0.00220294834837802)
(-0.000968483841333148 0.0064379466600851 0.00179823980398413)
(-0.00115188251110931 0.00625169627637959 0.00142635026719243)
(-0.00129163498926726 0.00602802719720132 0.00107950525380569)
(-0.00138665636073063 0.0057861359509491 0.000751305596184315)
(-0.00143899904775849 0.00553725963631022 0.000440482237180738)
(-0.00145036883057497 0.0052868568807275 0.000145107329410469)
(-7.05625917040619e-05 0.00535847393851864 0.00376151470036422)
(-0.000228185350957384 0.00560636552289565 0.00334429890046627)
(-0.000408922414519959 0.00576141195902713 0.00292334440819544)
(-0.000602144492961519 0.00581980607798156 0.00251089345198142)
(-0.000787987883048546 0.00578974490268622 0.00211672923363255)
(-0.000948306309952496 0.00569053476006984 0.00174558580549189)
(-0.00107311146833547 0.00554431502066966 0.00139563875240867)
(-0.00115944421927046 0.00536921252981353 0.00106129850886067)
(-0.0012079204946912 0.00517764774096175 0.000739408068474251)
(-0.00122033179863582 0.00497743200105774 0.000432460059343456)
(-0.00119834942363584 0.00477391417132092 0.000141741377428636)
(-5.28813034389703e-05 0.00448261277198356 0.00381896221175836)
(-0.000174308877065384 0.00476693684262882 0.00346900052603842)
(-0.000318001274339816 0.00497580188235739 0.00310303853776174)
(-0.000476120452771887 0.00510182997097662 0.0027313050817145)
(-0.000632550483366921 0.00514720113624615 0.00236377584619707)
(-0.000771320052725552 0.00512424265289974 0.00200812568873147)
(-0.000882397516466749 0.00504972350326091 0.00166759099777682)
(-0.000961631543109721 0.00493943199664595 0.00134047580157692)
(-0.00100825015484958 0.00480577602898561 0.00102264119482205)
(-0.00102310000587625 0.00465729300009002 0.00071306556398232)
(-0.00100774425406225 0.00449975586364277 0.000416487462995396)
(-0.000963946195880826 0.00433822057030904 0.000136062406140833)
(-0.000501044617227895 0.00452762732316195 0.00254000875699551)
(-0.000619625052175936 0.00456741995524372 0.00221062108995586)
(-0.000717539049509034 0.0045555158149245 0.00188871481949718)
(-0.000789925860642048 0.0045042478901708 0.00157638318135009)
(-0.000835000950762323 0.00442480284682123 0.00127210697338009)
(-0.000852687771924759 0.00432614111093948 0.000972830187071076)
(-0.000843888850063881 0.00421436442680565 0.000678914384674817)
(-0.000810110644677161 0.0040938409320439 0.000396331840960092)
(-0.00075323003877572 0.0039692283987131 0.000129246557821477)
(-0.000631957200449768 0.0119655790225128 -0.000845613887576375)
(-0.00054769270736477 0.0124620328712088 -0.00174952402879725)
(-0.00160240067439431 0.0118879351149439 -0.000573236958976107)
(-0.000471492337804219 0.0128186484927582 -0.00179179650845069)
(-0.00136065958686292 0.0119829639583589 -0.00108544360504263)
(-0.00226093612771478 0.0113890175102605 -0.000351662930270507)
(-0.000403126612090741 0.0129016231026809 -0.00119150328221924)
(-0.00116473281657921 0.0119790001731054 -0.000947364015869865)
(-0.00191572867479153 0.0112194413237314 -0.000569781003045365)