/*--------------------------------*- C++ -*----------------------------------*\
  =========                 |
  \\      /  F ield         | OpenFOAM: The Open Source CFD Toolbox
   \\    /   O peration     | Website:  https://openfoam.org
    \\  /    A nd           | Version:  12
     \\/     M anipulation  |
\*---------------------------------------------------------------------------*/
/*   Windows 32 and 64 bit porting by blueCAPE: http://www.bluecape.com.pt   *\
|  Based on Windows porting (2.0.x v4) by Symscape: http://www.symscape.com   |
\*---------------------------------------------------------------------------*/
FoamFile
{
    format      ascii;
    class       volScalarField;
    location    "200";
    object      nut;
}
// * * * * * * * * * * * * * * * * * * * * * * * * * * * * * * * * * * * * * //

dimensions      [0 2 -1 0 0 0 0];

internalField   nonuniform List<scalar> 
10116
(
7.18553171872359e-05
7.25654899939227e-05
0.000589061886395875
7.32363786267669e-05
7.31854779156485e-05
0.000595246560378218
7.39676261426581e-05
0.00140953295400831
0.000597767272820617
7.48771026986284e-05
7.37192710971956e-05
0.000600626825750016
7.46001390951062e-05
0.0014244689998753
0.000604059053111491
7.56306982808706e-05
0.00232211989939886
0.00142092061387908
0.00060860642444691
7.58162680987233e-05
7.4176436750922e-05
0.000605266885294797
7.51438368060318e-05
0.00143748046521776
0.000609530628659809
7.62792420569996e-05
0.0023475404885544
0.00143607345869834
0.000615047989240801
7.6582311473971e-05
0.00322071211658282
0.00233059408304742
0.00143383428400362
0.000614920389937009
7.55380822792476e-05
7.45665569824305e-05
0.000609249322932492
7.56093053337842e-05
0.00144870308471828
0.000614245279080513
7.68363117302247e-05
0.00236948842678538
0.00144921897301127
0.000620639007152639
7.72406301547043e-05
0.00325720082472231
0.00235619901683375
0.00144923434152706
0.000621453134487865
7.63020631061572e-05
0.00405625484898815
0.0032232598869411
0.00233679345937527
0.00143962038828141
0.000613038420111649
7.4381663617958e-05
7.4898313358849e-05
0.000612657629890045
7.60064269299981e-05
0.00145833279483752
0.000618289815437931
7.73132469187952e-05
0.00238835052985913
0.00146054330426645
0.000625453935658952
7.78061542875423e-05
0.0032885023059652
0.00237825558854063
0.00146254654747917
0.000627121934205813
7.69589564503178e-05
0.00410361606087539
0.00325981584210364
0.00236257450931452
0.00145515060986883
0.000619554809964435
7.51309538638552e-05
0.004810696146788
0.00405234347144112
0.00321855056136602
0.00233338247813098
0.0014326946050806
0.000604394832934296
7.2905164866273e-05
7.51796723669979e-05
0.000615567616535656
7.63440879457171e-05
0.00146656826932275
0.000621751008546454
7.77202538902597e-05
0.00240450252034945
0.00147025707891938
0.000629583833300063
7.82905060003193e-05
0.00331531952011244
0.00239719728189883
0.0014740049474313
0.00063200534624776
7.75236158394569e-05
0.00414415256713226
0.00329115686857056
0.00238474540355352
0.00146855934442109
0.000625218408076496
7.57761336803097e-05
0.00486845218104829
0.00409967048965566
0.003255118828523
0.00235919980063305
0.00144815116970136
0.000610778346046138
7.36157976841817e-05
0.00548212620009686
0.00480196318562923
0.00403614771609553
0.00320102066412705
0.00231528157472671
0.00141395615204141
0.000592647561660949
7.15298338816627e-05
7.54174776437468e-05
0.000618047038817521
7.663013580261e-05
0.0014735919195618
0.000624706469830072
7.80664416752638e-05
0.00241829200332264
0.00147856402717307
0.000633118924436025
7.87040038214193e-05
0.00333823355072579
0.00241341407084854
0.00148383355880752
0.000636195544867275
7.80075607598432e-05
0.00417881550152243
0.00331799940621275
0.00240377852423361
0.0014801011319492
0.000630104176004202
7.63322338558595e-05
0.00491783190492627
0.00414016928922079
0.00328646352936672
0.00238139149794759
0.00146150886654439
0.000616332944285025
7.42331791860995e-05
0.0055496592280765
0.00485961106697087
0.00408332819790795
0.00323744064434511
0.00234090042617011
0.00142909489444062
0.00059840480070953
7.20514846783906e-05
0.0060759464105199
0.00547057115519653
0.00477644772944943
0.00400359352588349
0.00316704719893755
0.00228248330392493
0.00138748511798923
0.000580534728765839
6.98121333602835e-05
7.56179221692836e-05
0.000620155687414998
7.68724395342056e-05
0.00147956714371292
0.00062722521245487
7.8359682065115e-05
0.00243003105552929
0.00148564896840126
0.000636138981436859
7.90558798390431e-05
0.0033577574095922
0.0024272583338933
0.00149224096061001
0.000639784371075665
7.84209400623588e-05
0.00420837969406425
0.00334093251456045
0.00242007532227627
0.00149000554172444
0.000634300543128509
7.68094911535864e-05
0.00496000098515056
0.00417479352572476
0.00331330961645526
0.00240044612646569
0.00147301998479967
0.0006211510521495
7.47738269978843e-05
0.00560735537350793
0.00490889141307399
0.00412370557184793
0.0032686654656407
0.00236293539949427
0.0014421994127177
0.000603685844163153
7.2580513210642e-05
0.00615256829107163
0.00553794954355837
0.00483381770617495
0.00405042414242366
0.00320307849511337
0.00230762917432184
0.00140181856325892
0.00058442358821726
7.03103688571267e-05
0.00659970005603424
0.00606279146700867
0.00543854472552572
0.00473083826088742
0.0039522916617295
0.00311623665993664
0.00223757965280959
0.00135669207801065
0.00056405632068607
8.1948974305765e-05
7.57866048068504e-05
0.000621946052480603
7.70763478561398e-05
0.00148463887579202
0.00062936797490148
7.8608165284652e-05
0.00243999721594059
0.00149167683600738
0.000638714214555982
7.93543719961881e-05
0.00337434467767673
0.00243904420180152
0.00149941435017885
0.000642852734845066
7.87729107049292e-05
0.00423352345916579
0.00336047216128815
0.00243399157663972
0.00149848270469138
0.000637897456859292
7.72174581052541e-05
0.00499591447428978
0.0042043226159871
0.00333625003605264
0.00241676869914615
0.00148290847685215
0.00062530258260106
7.52411713778969e-05
0.00565657670441928
0.00495096930636125
0.00415823030548648
0.0032954185671769
0.00238187137619584
0.00145353549183545
0.000608378904812278
7.30917222534069e-05
0.00621799320485001
0.00559550603328514
0.00488286721466369
0.00409051829515309
0.00323398775186183
0.00232927951811773
0.00141437066379746
0.000589290132285542
7.0942617445006e-05
0.00668468718805865
0.00613922886355388
0.00550554649931119
0.00478767166143522
0.00399850771471303
0.00315160617104116
0.00226189588777057
0.0013691633347657
0.000569016980818153
8.36258754396095e-05
0.00706079511596807
0.00658542075778843
0.0060262222696622
0.00538260224327848
0.00466330677718588
0.00388172979769436
0.00304957203177564
0.00218241224571342
0.00131956535494124
0.00056505100215728
7.53503380280049e-05
7.59284127604111e-05
0.000623464993376218
7.72482040041151e-05
0.00148893522940294
0.000631187837303861
7.88172699190214e-05
0.00244843635434342
0.00149679368328596
0.000640906215602464
7.9606826909697e-05
0.00338839608896237
0.00244905040468635
0.00150551999414243
0.000645471017786253
7.90715360451198e-05
0.00425484380628133
0.00337707294700539
0.0024458426029607
0.00150572027447421
0.000640975440029549
7.75649396562183e-05
0.00502640942878073
0.00422943618136649
0.00335580109374604
0.00243071448893406
0.00149137912180319
0.000628862601379407
7.56395965009583e-05
0.00569844635413365
0.00498680314015459
0.00418768080258805
0.00331829008417092
0.00239810635255463
0.00146330268169301
0.000612461977255455
7.35429996940155e-05
0.00627376383666094
0.0056446013570113
0.00492475406796007
0.00412481483232967
0.00326048828170682
0.00234791918286851
0.00142537631155293
0.000593899709057658
7.13929172540127e-05
0.00675722480974948
0.00620448756897805
0.0055627886654696
0.00483628293422173
0.00403809697191354
0.00318196768254841
0.00228288162309834
0.00138081093556351
0.000575247642232077
8.33260158129919e-05
0.00715340238483724
0.00667019955577615
0.00610220759756483
0.00544890558858506
0.00471929101522113
0.00392704183839437
0.00308399524784722
0.00220550022017811
0.0013321745529459
0.000571696655450206
7.75453142543195e-05
0.00746590439673475
0.00704550189688846
0.0065453171627696
0.00596205774058761
0.00530085711706809
0.0045732834884064
0.00379175342084183
0.00296732255565575
0.00211632387420488
0.00128071129743338
0.000538261596040968
6.60259600598146e-05
7.60474423797601e-05
0.000624753645069048
7.73920907226814e-05
0.0014925697082451
0.000632732099028591
7.89935297860828e-05
0.0024555657204027
0.00150112860226761
0.000642768834355988
7.98194674831706e-05
0.0034002655083484
0.00245752367253719
0.00151070491110362
0.000647701022506274
7.93242764060938e-05
0.00427286619570495
0.00339113599471749
0.00245590753863818
0.00151188449925248
0.000643604099344247
7.78599635376425e-05
0.00505222209272375
0.00425073110159679
0.00337241658899249
0.00244259746247053
0.00149861688441372
0.000631912188474368
7.59798423956151e-05
0.00573395092340433
0.00501723022824269
0.00421273411890685
0.00333779231096651
0.00241198812108681
0.00147167744990243
0.000615933024132478
7.39213377333281e-05
0.00632115876503775
0.00568636173915404
0.00496043289736645
0.00415408387123667
0.00328315989273022
0.00236392770623943
0.00143494002609247
0.000597680826550184
7.17463025066151e-05
0.00681902079180881
0.00626010890346458
0.00561162282695466
0.00487781236199831
0.00407198141607581
0.00320802387180503
0.00230103315664727
0.00139141965954035
0.000579568171324977
8.43539779594041e-05
0.00723242274655149
0.00674255028785779
0.00616708781534786
0.00550557433328314
0.00476720073765906
0.00396587696544939
0.0031135612555108
0.00222554963739322
0.00134353597710305
0.000575709068396668
7.92765033451544e-05
0.00756537500361478
0.00713787817106984
0.00662957994377689
0.00603720307045584
0.00536608243467638
0.00462808474301256
0.00383587323256517
0.00300055504334196
0.00213857091520979
0.00129422557103037
0.00054616418482731
6.81916055624635e-05
0.00782099540815842
0.00744960840752515
0.00700231966627401
0.0064742558847617
0.00586797108827714
0.00519268599092292
0.0044600246775917
0.00368139906182013
0.00286820492561414
0.00203741524406541
0.00122348683731714
0.000501602533151367
5.57112435723494e-05
7.61473313950745e-05
0.000625845766278734
7.75131083807547e-05
0.0014956421546008
0.000634042333247274
7.91411053067066e-05
0.00246157679845192
0.00150479581643496
0.00064435030631519
7.99984508428886e-05
0.00341026473621546
0.0024646820332123
0.00151509917850251
0.00064959735565716
7.9537323825146e-05
0.00428805419736329
0.00340301535213809
0.00246443333382452
0.00151712244181744
0.000645844845158013
7.81098168627024e-05
0.00507400054159851
0.00426873238373991
0.00338649644165525
0.00245269538691258
0.00150478653234175
0.000634519874742825
7.62690131648658e-05
0.00576395958551618
0.00504298577819174
0.00423398401881212
0.00335437508676555
0.00242382538023465
0.00147884002255888
0.000618924877204555
7.425739664147e-05
0.00636130439664387
0.00572177354826319
0.00499073610136987
0.00417899479916935
0.00330250508138673
0.00237762924323692
0.00144310951483932
0.000600957650784754
7.20537557216299e-05
0.00687149696288894
0.00630737499291021
0.00565316987004602
0.00491320212321632
0.00410091653278356
0.0032303378539744
0.0023166812588179
0.00140047994021163
0.000581613017339829
6.97479561942837e-05
0.00729971133294211
0.00680417876318373
0.00622239406372767
0.00555393827335509
0.00480815296906362
0.00399913818148427
0.00313897349281091
0.00224307880032405
0.00135340526348232
0.000578931741668323
8.084340864786e-05
0.00765024040422244
0.00721669181945743
0.00670149780677757
0.00610139135612465
0.00542185803283827
0.00467500521100555
0.00387370028445809
0.00302910775160796
0.0021578094324299
0.00130501058353492
0.000552450886702877
7.00545731984084e-05
0.00792657079012655
0.00754882517985283
0.00709412073978301
0.00655754997226505
0.00594181933556218
0.00525643258227771
0.00451330821063227
0.00372406732869157
0.00290023539076947
0.00205955800977586
0.0012380522692307
0.000509773718032529
5.76378409935254e-05
0.00813145740232652
0.00780371748610008
0.00740359600248833
0.00692518776523593
0.0063693047138063
0.00574325749063731
0.00505715421396444
0.00432178664490563
0.00354851560042894
0.00274937862354994
0.00193980452484722
0.00115082873928448
0.000458448533101167
4.51720254771022e-05
7.6231043454086e-05
0.000626778295026703
7.76146997990451e-05
0.00149823998027237
0.00063515476160535
7.92653379202384e-05
0.00246663708236271
0.00150789568539503
0.000645692939573922
8.01491066697769e-05
0.0034186677503646
0.00247071762758951
0.0015188179254065
0.000651208802286845
7.97167108991768e-05
0.00430081403180038
0.00341302304093493
0.0024716383329178
0.0015215644631492
0.000647752147174978
7.83207872896259e-05
0.00509231252415406
0.00428390235566079
0.00339839356456933
0.00246125401112653
0.00151003373568595
0.00063674550668038
7.65143641351673e-05
0.00578923381304115
0.00506471578002337
0.00425195256458826
0.00336843479039764
0.00243389235919058
0.00148495400201228
0.000621486899353996
7.45338211950867e-05
0.00639519203506712
0.00575170352946727
0.00501639390149354
0.00420013455658623
0.00331896568033838
0.00238932303970307
0.0014501148272558
0.000604047294222611
7.25075399728474e-05
0.00691590661452224
0.00634741112578698
0.00568840956867512
0.00494327367486618
0.00412555869393939
0.00324939356046456
0.00233006991411712
0.00140824718486354
0.000584656124385772
6.99479408223112e-05
0.00735681878312882
0.00685651018505549
0.00626940214007176
0.00559510252904685
0.00484307057243887
0.00402756159400814
0.00316076893911644
0.00225815170651807
0.00136110051948432
0.000565052746934422
8.18545473153185e-05
0.00772248457231445
0.00728379546035961
0.00676276549221514
0.00615612852745735
0.00546948442972541
0.00471513489055661
0.00390612135762768
0.00305371037103851
0.00217454060851237
0.00131406875012397
0.000557999082540258
7.16509815231506e-05
0.00801664373356784
0.00763346396845338
0.00717245099300611
0.0066286678865963
0.00600493103537639
0.00531097070924579
0.00455894753344894
0.00376065286857988
0.00292772404949097
0.00207833433962526
0.00125022277265977
0.000516783992394953
5.93144322866896e-05
0.00824238886139196
0.00790901660922385
0.00750218115369846
0.00701590008577226
0.00645109321754602
0.00581532866291719
0.00511901842679755
0.00437322780808432
0.00358954745849671
0.00278038989620765
0.00196198895613359
0.00116558811605678
0.000466296911345572
4.67881284240178e-05
0.00840217366072456
0.00811324988990732
0.00775508782521337
0.00732099247185958
0.00681054602945923
0.00622963588948918
0.00558698220325305
0.00489212375844316
0.00415569861189574
0.00338971707977351
0.00260655358621394
0.00182094013190841
0.00106376849738304
0.00040960059749216
3.47633106442005e-05
7.63010121166106e-05
0.000627570838472066
7.76997941547207e-05
0.0015004298908859
0.000636101527532371
7.9369531356657e-05
0.00247089123095369
0.00151051507100031
0.000646833940304161
8.02755674060319e-05
0.00342571358276846
0.00247579855215478
0.00152196222102414
0.000652578295431639
7.98676579613474e-05
0.00431150289652319
0.00342143324190576
0.00247771501407431
0.00152532591760382
0.000649374509464158
7.84985222420417e-05
0.00510765791890095
0.00429664735023615
0.00340841916578788
0.00246849074653715
0.00151448739020286
0.000638642350797662
7.67218212950173e-05
0.005810444364375
0.00508298762691005
0.00426709937071428
0.00338032123141691
0.00244243154139836
0.00149016112449754
0.00062367768324797
7.47719850910944e-05
0.00642369225559104
0.00577691225086955
0.00503804761934311
0.00421801917590281
0.00333293168280425
0.00239927926071706
0.00145611346712139
0.000606425607553891
7.26517088675599e-05
0.00695335417927436
0.00638120647381135
0.00571820202256965
0.00496874762416201
0.00414648373987511
0.00326562065337106
0.00234151001300647
0.00141515889257204
0.00058915214926105
8.61395946823572e-05
0.00740511354891913
0.0069007970390243
0.00630922938960316
0.00563003308809048
0.0048727582405899
0.0040517849629159
0.00317939173694139
0.00227104644911271
0.00136838577057277
0.000568668417252112
8.18766794878097e-05
0.00778377203647146
0.00734074315968623
0.0068148009101621
0.00620267183430742
0.00551004273329486
0.00474937225859228
0.003933849055445
0.00307481255937936
0.00218872958061232
0.00131749461744199
0.000560987473502086
7.29460581388366e-05
0.00809330826226171
0.00770550574024535
0.0072391513114806
0.00668927631402629
0.00605877734549269
0.00535756599528429
0.00459800299732984
0.00379203315750967
0.00295138751624296
0.0020944321804321
0.00126062610749307
0.000522832140895811
6.07659525901254e-05
0.00833704127195614
0.0079988434291805
0.00758628818623507
0.00709332919226776
0.00652095954902627
0.00587695256137292
0.00517197021603136
0.0044173013756466
0.00362472167518942
0.00280692051582686
0.00198090022182289
0.00117825940627683
0.000473138744591577
4.82021507600753e-05
0.00851773416084576
0.00822388409257883
0.00785970232905532
0.00741837666567735
0.0068995559228098
0.00630935603874489
0.00565679392262231
0.00495170112269665
0.00420498996972967
0.00342898244427354
0.00263651081662047
0.00184262238605182
0.00107796135807163
0.000416842474145879
3.60441296617447e-05
0.00863754703208617
0.00838311182793447
0.00806223286178856
0.00766753672230826
0.00719766041221684
0.00665741352158794
0.0060543713482419
0.00539685055549153
0.00469423720672166
0.00395781961678379
0.00320048351390423
0.00243532063833441
0.00167830696621771
0.000961240067262132
0.000354314082580196
2.45785906194948e-05
7.63591694207734e-05
0.000628248659939889
7.77708639128588e-05
0.00150228037179818
0.000636908265211891
7.94567884134006e-05
0.00247446206005774
0.00151272673806434
0.000647805239328204
8.03815950196856e-05
0.00343160848642312
0.00248006998994797
0.00152461973715011
0.0006537431491592
7.99944304587077e-05
0.00432043177078269
0.00342848518490087
0.00248283178183111
0.00152850813370443
0.000650754705074952
7.86479371664673e-05
0.00512047481614666
0.00430732393673443
0.00341684678225725
0.00247459733407227
0.00151826160375882
0.000640257675750737
7.68967610719184e-05
0.00582817910246202
0.00509829992978769
0.00427982876058189
0.0033903430328141
0.00244965720167673
0.0014945856639704
0.000625547857603749
7.49737688341045e-05
0.00644756972001983
0.00579806811935627
0.00505626092545865
0.00423310302879053
0.00334474724663099
0.00240773423679838
0.00146123434245603
0.00060851452577762
7.28651040307183e-05
0.00698481003677224
0.00640962946532043
0.00574330226648187
0.00499025691839135
0.0041641982577098
0.00327940079644089
0.0023512707790031
0.00142088942459639
0.000589918775469357
7.06872320361853e-05
0.00744580242396961
0.00693814122008296
0.00634285731067327
0.00565957799145821
0.00489792213707396
0.00407236895715254
0.00319526334876697
0.00228216714189748
0.00137572470184385
0.00058776297603195
8.23864982433545e-05
0.00783557365609904
0.00738890246863463
0.00685884772597604
0.00624212236236586
0.00554447828634705
0.00477850004104785
0.00395749453419644
0.00309284446335792
0.00220102626103522
0.00132443631365889
0.000564170261030947
7.38956384381971e-05
0.00815832743999491
0.00776661844643109
0.00729576763743324
0.00674077216311776
0.00610458701366211
0.00539726921611882
0.00463134447273812
0.00381888191192753
0.00297163463379192
0.00210746835809736
0.00126850304980416
0.000527727174871593
6.20077580973703e-05
0.00841759993459529
0.00807528846962561
0.00765788580061078
0.00715928558703019
0.00658053075067333
0.0059295579995843
0.00521723444596571
0.00445503552945359
0.00365488910827805
0.00282967242646926
0.00199705517787403
0.00118910711233446
0.000479042487052777
4.94354129423661e-05
0.00861635676430384
0.00831827207104939
0.00794895173223865
0.00750148750325255
0.00697556762267054
0.00637748967842574
0.00571651524606821
0.00500271712721155
0.00424723048858025
0.00346262871613657
0.0026621563638731
0.00186123012570285
0.00109027368677263
0.000423194262105938
3.71688152104201e-05
0.00875704157490389
0.00849835625755311
0.00817213430986313
0.00777084716605304
0.00729315903738788
0.00674407783344964
0.0061314602031885
0.00546391619275061
0.00475111851636746
0.00400465480580657
0.00323776146183285
0.0024638328958701
0.00169882480937671
0.00097436019957019
0.000360777953829162
2.55141700546299e-05
0.0088415100099112
0.00861771632374092
0.00832995396423524
0.00797024028954006
0.00753642402102528
0.00703245879585394
0.00646497018297963
0.00584117799908685
0.00516922176261963
0.00445911388486379
0.00372316730773285
0.00297540941720925
0.00223066735978057
0.00150772184366207
0.000839606937544245
0.000290198181471158
1.49271953203243e-05
7.64072202588353e-05
0.000628830132055445
7.78298807342431e-05
0.00150384064668333
0.000637598865486817
7.9529612181144e-05
0.00247745268342377
0.00151459437047268
0.000648634365098929
8.04703651758948e-05
0.00343652788154263
0.00248365539068986
0.00152686520527542
0.000654735739479439
8.01006683609785e-05
0.00432786861382873
0.00343438533182357
0.00248713430187519
0.00153119914964573
0.000651929780613423
7.87734124271426e-05
0.00513114437284268
0.00431624265578149
0.00342391514456634
0.00247974167472828
0.00152145686471823
0.00064163318746947
7.70437853486993e-05
0.00584295240208121
0.00511108946364831
0.004290495369614
0.00339877160060584
0.00245575849951779
0.00149833893228466
0.000627144716637308
7.51449513076018e-05
0.00646749512728011
0.00581575757262901
0.0050715290070765
0.00424578602512512
0.00335471597596842
0.00241489542362129
0.00146559073215789
0.000610317859649879
7.30549998912967e-05
0.00701112532287391
0.00643344267050243
0.00576437353114583
0.00500835803411993
0.00417914838945629
0.0032910695807285
0.00235957496180295
0.0014258158898102
0.000591499481858127
7.07567626285633e-05
0.00747994620567297
0.00696951047626767
0.00637114760665348
0.00568448190743654
0.00491918275506395
0.00408980772745407
0.00320875848851062
0.0022916153954535
0.0013803145692283
0.000572526635553488
6.79461621356346e-05
0.00787918759818618
0.00742947741526481
0.00689599918573578
0.00627544744586083
0.00557362133712451
0.0048032054519736
0.00397760181429244
0.00310824725312886
0.00221185330051239
0.00133462952916612
0.000566706511692101
7.48115816384737e-05
0.00821326143464527
0.0078182719205912
0.00734365784196362
0.00678438066271365
0.00614343670332688
0.00543099903382952
0.00465972758616763
0.00384178696280529
0.00298895772763126
0.00211916664792535
0.00127534612718177
0.00053170182600189
6.30588632579588e-05
0.0084859110238259
0.00814011818741902
0.00771863308673431
0.00721529201664767
0.0066311711120706
0.00597433730571038
0.00525582587691941
0.00448726507576725
0.00368069251059309
0.00284902003179595
0.0020105216795622
0.00119810965069964
0.000484045008419261
5.05057054823201e-05
0.00870029972062233
0.00839859518191878
0.00802491390162473
0.00757226138848365
0.00704034784133942
0.00643561474125886
0.00576752446048798
0.00504634896593029
0.00428340575434238
0.00349146355305813
0.00268410696752266
0.00187714837464288
0.00110086554280708
0.000428693337128152
3.8153777289011e-05
0.00885905225451997
0.00859669796824597
0.00826590310643659
0.00785901249163809
0.00737469750557447
0.00681812300501455
0.00619737847090007
0.00552131716340214
0.00479984719602407
0.00404480140652557
0.00326971801321068
0.00248829314302358
0.00171652070141858
0.000985815712650643
0.000366490941823166
2.63384831008388e-05
0.00896428439728065
0.00873687866118055
0.00844442359603344
0.00807874547363796
0.007637681982803
0.007125353988457
0.00654864837444249
0.00591506946403948
0.00523304308312
0.00451287398876945
0.00376718625086476
0.00301030298500968
0.00225717926326238
0.00152648414538843
0.000851263436401368
0.000295710847233285
1.55219279288499e-05
0.0090175392391309
0.0088209973112485
0.00856266672134076
0.0082340155695682
0.00783220152214445
0.00736046111744434
0.00682461519272767
0.00623089718333861
0.00558627352303053
0.00489943815306549
0.00418141949612862
0.0034457518053821
0.00270808411366968
0.00198597733980882
0.00130223600016504
0.00069237643680808
0.000214561076374294
6.84171733182928e-06
7.64460599537166e-05
0.000629319120847818
7.78782564709583e-05
0.00150514878718975
0.000638194879248819
7.95900121597884e-05
0.00247994646823393
0.00151616882685847
0.000649346424719938
8.05444112209707e-05
0.0034406192652762
0.00248665841213578
0.00152876191010114
0.000655584511291397
8.01895834205026e-05
0.00433404028124942
0.00343930937734967
0.00249074666875644
0.00153347433801507
0.000652931973402761
7.88785222089037e-05
0.00513999329546199
0.00432367101772333
0.00342983039166264
0.00248406918910525
0.00152416068974158
0.00064280486399527
7.71669804380438e-05
0.00585521115959816
0.00512173607644274
0.00429940811741517
0.00340584397069289
0.00246090146047043
0.00150151904682841
0.000628506253402469
7.52895462961276e-05
0.00648405451176224
0.00583049350364614
0.00508428546690352
0.00425641902430141
0.00336310511492583
0.00242094725589888
0.00146929415165587
0.00061188971557412
7.32211568022559e-05
0.00703304841935117
0.0064533149275153
0.00578199778674616
0.00502353991421786
0.00419172693364829
0.00330092229649625
0.00236661638313923
0.00143002015227302
0.000593311525040895
7.10043813575934e-05
0.00750847627161707
0.00699575424861248
0.00639485686293187
0.00570539899889003
0.00493708577871895
0.00410453609343807
0.00322019977874582
0.00229967200109156
0.0013846096738551
0.000572529133559164
6.81364878107295e-05
0.00791575572476434
0.00746352595033495
0.00692721536070546
0.00630349652853848
0.00559820120994982
0.00482409268348428
0.00399465127504977
0.00312135024943492
0.00222068022318069
0.00133441345271012
0.000549531263618049
7.55210149691511e-05
0.00825948855875626
0.00786176132301726
0.00738401644533433
0.00682117896094397
0.00617627273339397
0.00545956249949206
0.00468381710661359
0.00386128204436806
0.0030038029633156
0.0021299056560329
0.00128107168787662
0.000534957193673624
6.39805221242301e-05
0.00854361087720814
0.00819489158039298
0.00776998938609468
0.00726268593092232
0.00667407786115752
0.00601233539946433
0.00528863091452322
0.00451471600850121
0.00370271218365129
0.00286558695918737
0.00202191596238666
0.00120558424555039
0.000488255035376654
5.14309380347327e-05
0.00877147718291947
0.00846670296606048
0.00808934579999292
0.00763233231042251
0.00709538297353146
0.00648505336371572
0.00581097011682674
0.00508356904180466
0.00431431270374584
0.00351610246377783
0.00270277984546397
0.00189061766872623
0.00110986980903766
0.00043341385080657
3.90121202457191e-05
0.00894589266626977
0.00868039087565332
0.00834570774092833
0.00793407679928429
0.00744416495292234
0.00688126077249783
0.00625364489458921
0.00557037176472765
0.00484154280129131
0.00407918905312085
0.00329709641277474
0.00250924611363922
0.00173171624935941
0.000995713498435186
0.000371444223372088
2.70621437463336e-05
0.00906913503231108
0.00883859421385594
0.00854210929079969
0.00817135097651059
0.0077241329157391
0.00720470756834179
0.0066201786949937
0.00597828768253917
0.00528769723077292
0.0045589531698018
0.00380494115748849
0.00304025043395251
0.0022799805915778
0.00154273400036138
0.000861517994110883
0.000300638560894463
1.60476445683862e-05
0.00914298697542708
0.00894342624622419
0.00868101908489032
0.00834700912222911
0.00793850585434283
0.00745888126317239
0.00691419446267902
0.00631094878622169
0.00565639006600688
0.00495949865018766
0.00423159551195445
0.00348649938715282
0.00274006563115623
0.00200988759036056
0.00131869264776572
0.000702184955763817
0.000219011513541714
7.1351569298534e-06
0.00916867595602005
0.0089964276020398
0.00876429530979128
0.00846325834567807
0.00808985670931127
0.00764670219269849
0.00713891734111932
0.00657184830590672
0.0059513601561946
0.00528486702074187
0.00458198753689404
0.00385491032157216
0.00311859996888099
0.00239078895203374
0.00169265060053896
0.00105282258759295
0.0005125900370657
0.000128356885288153
1.72134286943387e-06
0.000629696336101824
7.79180179294447e-05
0.00150622890026468
0.000638699838324596
7.96394575299131e-05
0.0024820050863123
0.00151748979103117
0.000649965289813662
8.06058208020959e-05
0.00344399885617825
0.00248916207178651
0.00153036162031183
0.000656315759013745
8.02636174326261e-05
0.00433913737812954
0.00344340402420173
0.00249377247750489
0.00153539716165731
0.000653790121224495
7.89664530712971e-05
0.00514729977180326
0.00432983622760332
0.00343476792116113
0.00248770381828219
0.001526448053967
0.000643804606563798
7.72702924247401e-05
0.00586533951039353
0.00513056633168843
0.00430683329696003
0.00341176495010255
0.00246523013033288
0.00150421123268357
0.000629663967036382
7.5409435599505e-05
0.00649775664912964
0.00584272148557858
0.00509490745028717
0.00426530780945015
0.00337014842232134
0.00242605213682912
0.00147243707416117
0.000613248620485721
7.33641723522955e-05
0.00705123089417528
0.00646983053469816
0.00579668396785263
0.00503623076177831
0.00420227876367293
0.00330921967982078
0.0023725748915415
0.00143364051819138
0.000594972003290284
7.11624625865411e-05
0.00753220930863445
0.00701761775996325
0.00641464856123382
0.00572290336297573
0.00495211084163711
0.00411693671538885
0.00322986931730548
0.00230651237424303
0.00138865256900903
0.000575742334946258
8.24056799778406e-05
0.00794628092356342
0.0074919769261145
0.00695333906053089
0.00632701549753474
0.00561885875472546
0.00484169310073013
0.00400906310362481
0.00313247366987838
0.00222826372752105
0.00133761357060108
0.000550768451021561
7.62390843162119e-05
0.00829822207626136
0.00789822536273219
0.00741789288375424
0.00685211313926558
0.00620392638478444
0.00548366883593704
0.00470419782078471
0.00387782560344437
0.00301637476772474
0.00213745156757304
0.00127996759147204
0.000535839593086787
6.47788227939521e-05
0.00859214671543221
0.008240983712769
0.00781323954510367
0.00730264397305703
0.00671030404188262
0.00604447104581222
0.00531642857778433
0.00453802950072091
0.00372146958440232
0.00287982786102947
0.00203161732439535
0.00121182632132774
0.000491850482398444
5.22322620575352e-05
0.0088315887748505
0.00852423045157145
0.00814379520394078
0.00768313740496176
0.00714197917209762
0.00652696605634962
0.0058478585679532
0.00511522650008459
0.00434064804691223