/*--------------------------------*- C++ -*----------------------------------*\
  =========                 |
  \\      /  F ield         | OpenFOAM: The Open Source CFD Toolbox
   \\    /   O peration     | Website:  https://openfoam.org
    \\  /    A nd           | Version:  12
     \\/     M anipulation  |
\*---------------------------------------------------------------------------*/
/*   Windows 32 and 64 bit porting by blueCAPE: http://www.bluecape.com.pt   *\
|  Based on Windows porting (2.0.x v4) by Symscape: http://www.symscape.com   |
\*---------------------------------------------------------------------------*/
FoamFile
{
    format      ascii;
    class       volScalarField;
    location    "200";
    object      omega;
}
// * * * * * * * * * * * * * * * * * * * * * * * * * * * * * * * * * * * * * //

dimensions      [0 0 -1 0 0 0 0];

internalField   nonuniform List<scalar> 
10116
(
2.94449499050841
2.97394922808879
1.01551149043888
2.89705966530878
2.99940578907229
1.02536266109832
2.92629115020736
0.623602881683092
1.00094032353583
2.84395065151848
3.02126604069818
1.03373427540663
2.95138217704968
0.629450041938439
1.01066532173433
2.87278528881123
0.476255191470719
0.618126043247561
0.981075873378695
2.78971755773256
3.0399779445245
1.04089520070863
2.97291530588358
0.634406126996485
1.01891307419942
2.89748994014062
0.480422244942916
0.623892219980061
0.990610235581748
2.81810321515637
0.404441386267748
0.47394754482427
0.609363253415055
0.961974832864823
2.74236857960855
3.05594264814422
1.04701247229195
2.99134657844218
0.638647691863618
1.02596907265844
2.91869057426046
0.484005724183133
0.628798425929517
0.998703207672297
2.84242373124383
0.40771291210405
0.478085302891509
0.615026686086445
0.971342003546397
2.77033378372057
0.364548542659464
0.40342328641647
0.469586064641364
0.599734748713314
0.946070418650222
2.69808900936964
3.06951891800836
1.05221687970143
3.00707300569514
0.642274260707548
1.0319984046731
2.9368416376659
0.487093976047194
0.633001506609009
1.00563042383038
2.86330351593155
0.410565116332914
0.481649630244458
0.619866657341014
0.979298161615353
2.7943147612949
0.367273181274027
0.40669077390629
0.473683660592087
0.605311744179044
0.955316202605741
2.7255721212572
0.340709794557408
0.36407097448939
0.401000435617363
0.464042997895539
0.590552096295739
0.931625281758815
2.64962315355662
3.08102732036488
1.05662379044004
3.02044821473032
0.645361894863053
1.03712828378814
2.95233389742786
0.489745191647347
0.636596133081677
1.01155284313445
2.881189340116
0.413042091578902
0.484722847360363
0.624018028292339
0.986111299064125
2.81492098804671
0.369670065547541
0.409537305923224
0.477221922578929
0.610089660441264
0.963168815764775
2.74918146913451
0.343057169700335
0.366799941380678
0.404258218474298
0.468102736468872
0.596074017280455
0.940783981849409
2.67635409902075
0.32587152339287
0.340429725487205
0.362538744163131
0.397473417031895
0.457990815320344
0.581500870562679
0.915230562991464
2.59754560786015
3.09075574823575
1.06033735397375
3.03179018155273
0.64797731704006
1.0414718597179
2.96551567338232
0.492008750917872
0.639656760175982
1.01659328200437
2.89646489736042
0.415179660781402
0.487361533396981
0.627570112532505
0.991939238576897
2.83258660128699
0.371766043905916
0.41200910793518
0.480274719567492
0.614191325354322
0.969893619952941
2.76950460968533
0.345138235979614
0.369196920173191
0.407097233109585
0.471614523807268
0.600806479505959
0.948579224465324
2.69925291254378
0.327936504789917
0.34278441255028
0.365270020594207
0.400719469257455
0.46202505031161
0.587008248457369
0.924839398343872
2.62287514169278
0.316472723733438
0.325651252120783
0.339289580544569
0.360051090695955
0.393195076808806
0.451549270303619
0.571496755450672
0.894242926951564
2.60265067106082
3.09895649109379
1.06345205424032
3.04137621505926
0.650181163097963
1.04513148434703
2.97669915421657
0.493930158825992
0.642249286341352
1.02086171647613
2.90947142064515
0.417011886430113
0.48961448758216
0.630595320984518
0.996901292435741
2.84768676626054
0.373584771893663
0.414142198882018
0.482896672137357
0.617702403941975
0.975648138177633
2.78695026335347
0.346970197499238
0.371292211296301
0.409562715577602
0.474646317784641
0.604868960019988
0.95523530222507
2.71915135651078
0.32978141396572
0.344868038595348
0.367668189406986
0.403550381475689
0.465516570905635
0.591727897660292
0.932688405732277
2.64156894514897
0.318314744058782
0.327724710519083
0.341651898888572
0.362783435167463
0.396432725081144
0.455576256861588
0.577128414886728
0.90584681805043
2.62741525750423
0.310552036261603
0.316272328927475
0.324681764644799
0.337341547252842
0.356828931253538
0.388385768120764
0.4444792023175
0.559486157237196
0.87447152934774
2.19480822437472
3.10585754890602
1.0660532211598
3.04946091762987
0.652028857272685
1.04820031534847
2.98615388954702
0.495551889936469
0.644433761200941
1.02445824541074
2.9205099204462
0.418572093017295
0.491526909501946
0.633158330733897
1.00110441705634
2.86055308370029
0.375150717317323
0.415970580135864
0.485135856305718
0.620693657969117
0.98055013258857
2.8018770944423
0.348568781179372
0.373110148982004
0.411690625029384
0.4772510915009
0.608346643369114
0.960923572774041
2.73629366768158
0.331416444717117
0.346701333373782
0.369764086349992
0.406009453585268
0.46853107399099
0.59576831566573
0.93927271871164
2.6604507744904
0.319973626984816
0.329573251828339
0.343741015654187
0.365183366824769
0.399257518099989
0.459060996673171
0.581910600110814
0.913769331575727
2.58295395380297
0.312211860947059
0.31812341524341
0.326765606220426
0.339711943618586
0.359563736998954
0.391621898752105
0.448535893253532
0.565617221346996
0.883914473314103
2.19479983611408
0.306949187165156
0.310366335955454
0.315391059690541
0.323030359402656
0.334768472693185
0.353107678833238
0.383113477548701
0.436537546279695
0.546149506167256
0.823774625925049
2.19480304129596
3.11165665541522
1.06821664530412
3.05626242870235
0.653570725953589
1.05076252366476
2.99413025700964
0.496913371718511
0.646265146089965
1.02747423314914
2.92984970671245
0.419892484316635
0.493141056922632
0.635318304549186
1.00464691140467
2.8714800241415
0.376489238026905
0.417527506490521
0.487036999689292
0.623228648592367
0.984703894627117
2.81460301120875
0.349951753314003
0.374675336481518
0.413514882117125
0.479476244490485
0.611310240406894
0.965773919791446
2.75098541459156
0.332851385717507
0.348300805527222
0.371582549627049
0.408132254309709
0.471121094832788
0.599220242140275
0.94485863964974
2.67706050316038
0.321453934001468
0.331210524735587
0.345578457998435
0.367280886557763
0.401711520224433
0.462066152079266
0.585952726918887
0.920107273530953
2.59697975838342
0.313719002436462
0.319786496148759
0.328621949705151
0.341808526202912
0.361966640397945
0.394445544210115
0.452040125682638
0.570577775498704
0.88916579642036
2.19480464736688
0.308457017468605
0.312035680677422
0.317254297879513
0.325126739518935
0.337149011686446
0.355848379438807
0.386357787112551
0.440673162461716
0.551965672337634
0.830623497886472
2.19479501555152
0.304931527051005
0.30678043512754
0.309547773165171
0.31392788787662
0.320882406995361
0.331803040435506
0.349061170038214
0.377409950978938
0.427797868037686
0.529567118750197
0.802741739082996
2.19512812818563
3.11652647303257
1.0700090654872
3.0619810527397
0.654851802815359
1.05289313504327
3.00084233790677
0.498050789379402
0.647793340621012
1.02999232842747
2.93773170527699
0.421003608701435
0.494496179203745
0.637129471114191
1.00761832652444
2.88073073152621
0.377625789794913
0.4188451204242
0.488641986690583
0.625365651635876
0.988206063656663
2.82542001581793
0.351138762090573
0.376013166066152
0.415068607673678
0.48136604933551
0.613822573979298
0.969885126738356
2.76349963585691
0.334098902469331
0.349684424012526
0.373148361404471
0.409952566934141
0.473334037505348
0.602162431675175
0.949673509149916
2.69139534543237
0.322760679816765
0.332647118276376
0.347181395517037
0.369100922003296
0.403830094512326
0.464645538162164
0.58937737073768
0.925828702554778
2.6134861536676
0.315073335700806
0.321269533623517
0.330265303703768
0.343652322579663
0.364066878738444
0.396897640955573
0.455048075537896
0.574613019563854
0.895411127079544
2.1948070628902
0.309837623508795
0.313547432606083
0.318926668429011
0.326994236720858
0.339255000708793
0.358256708108081
0.389188301456839
0.444227204906629
0.556895740323802
0.838679419856624
2.19480217615547
0.306311194457799
0.308298218939971
0.311230677812049
0.315806980544712
0.322994900932097
0.33419715594851
0.351811706851686
0.380668280021206
0.431910837056365
0.534748354061746
0.808042236193054
2.19512037004046
0.304009436989741
0.304781251086071
0.306016886648231
0.308225118416339
0.312084669685625
0.318468205461631
0.328649750938492
0.344829969228764
0.371405337785515
0.418537249450102
0.515689883274569
0.785183913737818
2.19485279987643
3.12061948281512
1.07149082903069
3.06678217003593
0.655911964746324
1.05465806995099
3.00648759990309
0.49899688834549
0.649063051970237
1.03208595614187
2.94437036630339
0.421933934020537
0.495628291695204
0.638641040348118
1.01009951416643
2.8885435753883
0.378585102859656
0.419953913762192
0.489989740358498
0.627158087858091
0.991144604833803
2.83458754689752
0.352150358589946
0.37714910169409
0.416383807073096
0.482961976334503
0.61594100930254
0.973351893511705
2.77415651351309
0.335174242206515
0.350871917339268
0.374486948652482
0.411503370338663
0.475213949649559
0.604657283541186
0.953738344633442
2.70334326229801
0.323902416725728
0.333895924166482
0.348568084224359
0.370668364486364
0.405647053151168
0.466849271309624
0.592312802747618
0.930691415745117
2.62598685680611
0.316275902160627
0.322578342799003
0.33170697394322
0.345260782469176
0.365889358776189
0.3990138008779
0.457620471367584
0.578094504298417
0.903145238523561
2.60922136302538
0.311086975055637
0.314904850961198
0.320417034020455
0.328647021940505
0.341106975650221
0.360361397265529
0.391643161785171
0.44724093660753
0.561035301820245
0.846064239101279
2.19480496038054
0.307584983271246
0.309683815967866
0.312752892147441
0.317493251172625
0.324876781893685
0.336315088810937
0.354228748246857
0.383511393105703
0.435472925957773
0.539623375970126
0.813104170855438
2.195129760349
0.305280673176382
0.306171295357549
0.307549482705345
0.30992663636603
0.313984857145964
0.320601528956299
0.331061310871731
0.347591804682089
0.374653589729972
0.422446238148482
0.520158345288289
0.78989107537888
2.19484918546941
0.303841230858048
0.303877374104182
0.304068510199981
0.304810775140029
0.306619051560839
0.310093477715592
0.315998399895216
0.325493524792812
0.340603350627019
0.365404604118881
0.409734590638917
0.502980831524137
0.766725884789047
2.19192522476786
3.12405525953517
1.07270618540388
3.07081461862565
0.656786039523943
1.05611505240315
3.01122750955889
0.499780946291129
0.650113884325875
1.03381988882658
2.94995212541335
0.422709537589922
0.49656999265007
0.639897111832897
1.01216242118455
2.89512798117656
0.379390691503094
0.420882294266334
0.491115963437532
0.628654405093023
0.993598817390955
2.84233646121709
0.353007166113384
0.378107899891708
0.417490836448452
0.484302567844634
0.617718221155306
0.976261570881028
2.78320894042106
0.336094254421854
0.351883902359628
0.375623753115497
0.412816507000492
0.476801883811288
0.606760404946447
0.957162971029888
2.7136766043556
0.324890888776292
0.334972304745132
0.349758362428544
0.372008666809931
0.407195328412162
0.46872158509284
0.594798952269554
0.934432636654476
2.63459591383952
0.317331868081643
0.323721723842184
0.332960188210497
0.346652394609045
0.367459082884316
0.400828596187869
0.459821498565731
0.581075635479879
0.907997610056664
2.58490230846473
0.312202793672997
0.316109787446921
0.321731960050282
0.330096785415436
0.342722514553406
0.362187460507334
0.393759212330889
0.449826877136607
0.564872660583445
0.875607078994187
2.19480342665164
0.308745638539526
0.310936577899552
0.314118618214045
0.31899533813378
0.326541930141392
0.338177217178399
0.356340177856061
0.385970278057338
0.438505237629248
0.543845236360671
0.817341868890059
2.19512632801815
0.306463823114533
0.307450439424339
0.308946583305314
0.311465038655626
0.315689654378562
0.322501410938696
0.333194197020217
0.350019339063601
0.377493906273034
0.425900592506759
0.524153829464591
0.793913909544296
2.19485258049552
0.305020912715392
0.305159381319514
0.305474505145537
0.306364401835091
0.308345985713246
0.312021105407578
0.318157857020096
0.327925694248965
0.343370273319106
0.368589566455693
0.413370690768504
0.507043157114147
0.771215553193374
2.19192741227953
0.304181532906989
0.303725994548478
0.303210992796685
0.302963334865011
0.303399622095119
0.304966640717528
0.308165983532181
0.313676587833243
0.322562044162115
0.336690829165413
0.35991408128586
0.401769930604768
0.490677728385284
0.746320925219022
2.18618823126722
3.12693639907559
1.07370291052467
3.07420050014396
0.657505998521037
1.05731261806843
3.01520887619436
0.500428854933197
0.650980653894873
1.03525037030686
2.95464407892745
0.423353954433312
0.497350423595516
0.640936794291291
1.01387054385681
2.90066929873367
0.38006433811986
0.421656281282121
0.492052974802374
0.629898067781525
0.995639463678463
2.84887147944694
0.353729092969831
0.378913042285279
0.418417963845575
0.485423178437213
0.619202130244442
0.978692131104806
2.79087338682105
0.336876310312083
0.352741004900647
0.376583494336773
0.413922170647607
0.478136051852122
0.608524268543279
0.960039083463662
2.7225466743023
0.325739913101052
0.335893149938611
0.350772890183715
0.373147248765835
0.408506626652829
0.470302793996549
0.596889363417161
0.937945339852425
2.64410804065385
0.318250070379039
0.324711531513362
0.33404046311888
0.347847121744218
0.368801570668562
0.402375110060867
0.461691195304055
0.583505859579614
0.909466931415852
2.19479840078954
0.313187407508552
0.317167658778431
0.322880615519354
0.331357065412363
0.344120313645064
0.363760202286538
0.395574312576666
0.45204276234863
0.567914564015086
0.879154467954527
2.1947977462854
0.309788121578868
0.312055043922253
0.315330490493599
0.320320268138568
0.328002295077384
0.339801324757612
0.358171309511588
0.388090830422567
0.441143611506122
0.549126118866132
0.823139067456628
2.19512489722755
0.307549025691032
0.308614815599044
0.310208522146869
0.312844391653314
0.317207567646181
0.324181836306207
0.335068768935462
0.352138568994397
0.379953489108963
0.428888862416918
0.527619637210186
0.797315944097837
2.19485504661975
0.306127141101754
0.306348224565087
0.306766104576016
0.307779704547286
0.309906516368348
0.313749404096282
0.320079818240476
0.330076184913873
0.34580373370126
0.371386041078176
0.416562755000597
0.510555169390478
0.774943388481382
2.19192692893591
0.305284364459752
0.30491679413278
0.304509964987865
0.304392497859788
0.304982465613399
0.306726940556357
0.310128089150066
0.315867745512671
0.325016316088557
0.339449730794387
0.363007741219241
0.405210635813449
0.494552451423881
0.750679912022031
2.18619074014018
0.304851282881568
0.304081295495184
0.303101034368711
0.302194087682392
0.301717065461821
0.30202679403889
0.303480989230572
0.30651518005885
0.311755182740797
0.320189772595986
0.33356779852828
0.355542113306866
0.395098530871171
0.479003375254291
0.724682941363455
2.18721474599503
3.12934107216646
1.07451089247636
3.07703986874929
0.658096166321827
1.05829248571447
3.01855272395738
0.500963255499804
0.651693774053743
1.03642559273039
2.95858659451762
0.423888134906791
0.49799535239254
0.641794401998209
1.01527920770847
2.90532747345952
0.380625904317723
0.422299354997446
0.492829673243486
0.63092762597927
0.9973289601575
2.85437357397557
0.354334864077329
0.37958630790587
0.419191078534987
0.486355813832206
0.620435739793141
0.980713177289472
2.79734232064781
0.337537585481809
0.353463152086517
0.377389596826181
0.414848469530959
0.479251578508414
0.609997035873714
0.962443380018633
2.73008173961213
0.326464295959511
0.336675880464775
0.351632297109352
0.374108786505862
0.409611020507801
0.471631018610176
0.598640399075212
0.940839476339332
2.65273684170894
0.319041835241196
0.325561644909522
0.334964756498839
0.348865683592952
0.369942256764146
0.403684859878673
0.463267808808824
0.585621610546558
0.914946884114845
2.57270002971921
0.314047222255687
0.318087419323587
0.3238750324223
0.332443565359729
0.345320495373611
0.365105304135569
0.397120967234582
0.453907600041519
0.570062978294492
0.859628255158266
2.1948029621994
0.310712390612848
0.313041799416832
0.316394317784407
0.321477579121621
0.329271717282389
0.341206396147006
0.359748282574929
0.389911125203943
0.443379878529742
0.552201645666539
0.826845114087219
2.19511928954686
0.308528986286853
0.309660209995159
0.311334649709691
0.314067856181792
0.318545998043907
0.325655115773159
0.336703148201918
0.353976371859712
0.382081680647976
0.431609475403459
0.531005401442404
0.800488263437452
2.1948516314625
0.307148023375737
0.307437437150895
0.307940454740675
0.309056950602865
0.311304701725671
0.315287195890395
0.321778700225473
0.331965280383779
0.347928956060443
0.37382052675363
0.41934731667663
0.513599208151416
0.778109692687205
2.19193170187303
0.306325525963759
0.306029015841807
0.305712120894376
0.305704094958322
0.306423080133555
0.308315913165085
0.311885352095999
0.317816178851033
0.327185586209966
0.341877944568441
0.36572298985506
0.40820763753712
0.497854591781987
0.754265938394156
2.18619276783091
0.305890153727245
0.305195533054514
0.304309671496295
0.303518091780363
0.303178777234224
0.303648255004354
0.305283359678184
0.308519528518419
0.313983963631268
0.322667082225384
0.336313237278893
0.358565279935976
0.398436389792354
0.482799381848536
0.728908863237798
2.18721596708876
0.305718997856819
0.304764165906519
0.303492777233761
0.302161151922567
0.301089025681235
0.300579221183474
0.300907811510289
0.30238142002302
0.30541033623218
0.310594787483666
0.318879794833378
0.331934159920076
0.353181598488471
0.390843752027616
0.469701203444888
0.706009133340236
2.21611792753311
3.13132909338042
1.07515578368598
3.07940952025668
0.65857837870455
1.05908562186401
3.02135572802378
0.501403523142375
0.652278566768646
1.03738507099978
2.96189549769841
0.424330467005532
0.498527272493299
0.642499655733866
1.01643543677922
2.90924290214432
0.381093206809921
0.422832412522161
0.493471590432522
0.6317768702375
0.998721805404199
2.85900284072972
0.354841731154761
0.380147547801341
0.419833543337443
0.487129085528237
0.621457135457227
0.982386227042402
2.80278993259845
0.338094486414534
0.354069090167909
0.378063792824749
0.415621139393248
0.480180246941314
0.611221412237847
0.964440314647347
2.73646025915435
0.327079016009779
0.33733769567088
0.352356506854028
0.37491664682401
0.410536519210386
0.472741591555302
0.600102735288945
0.943250010278274
2.65998974635934
0.31971985324001
0.326286916172276
0.33575053011726
0.349728733392017
0.370905813157979
0.404787915352006
0.464590683315456
0.587384202046498
0.918370310676523
2.5810479304805
0.314791482632521
0.318880463633008
0.324729182118866
0.333373353903611
0.346343887013108
0.366248248920318
0.398430006336376
0.45548850962183
0.572523240395547
0.887115204357997
2.57879026987474
0.311522815154188
0.313903372881948
0.317319251516814
0.322479537366723
0.330366139104056
0.342412788923758
0.361096857087786
0.391459285917738
0.445221426509388
0.553075497425052
0.83036711786711
2.19512437741721
0.309401709559571
0.310586844641785
0.312327965224409
0.315141659429516
0.319714872706875
0.326935475980767
0.33811677847858
0.355559262661097
0.383907709088445
0.433855605740335
0.53389364573648
0.803269678817471
2.19484785676178
0.308074474430953
0.30842055529761
0.308994177213164
0.310196071334326
0.312544175641681
0.316642398246297
0.323267359787758
0.333611731041493
0.349773424865832
0.375943916353055
0.421829273615342
0.516326993916676
0.780865625171978
2.19193007580079
0.307291632576184
0.307054167164611
0.306812030676376
0.306895257303862
0.307721819507986
0.309738098832829
0.313447329013423
0.319536980325206
0.329090502412167
0.344001473830369
0.36809504770943
0.410820097244571
0.500699555941451
0.757314468341221
2.1861943565254
0.306876564433397
0.306242942669373
0.305435955281857
0.304741829371094
0.304518497456039
0.305121709714892
0.306907592722166
0.310311862054448
0.315963540425809
0.324855453972289
0.338728594817608
0.361212373159521
0.401326105834117
0.486006970678222
0.732332482916286
2.18721838595093
0.306705148189509
0.30581466820882
0.304625571586017
0.303396404055764
0.302448458234796
0.302084150418311
0.302578094913058
0.304235528898986
0.307465857170043
0.312868501989584
0.321385486218093
0.334679139803222
0.356177219697183
0.394153199614434
0.473487529679563
0.710106077270314
2.21610690834468
0.306688283799907
0.305643243135382
0.304207419667932
0.302619808430642
0.301177495312996
0.300150621203192
0.299768119714061
0.300267188862817
0.301949586139171
0.305233944771303
0.310731749891893
0.319400679213251
0.332897868213176
0.354480878362402
0.391729720781144
0.467936149940904
0.701552743037466
2.28700646185534
3.13296395393909
1.07567230854685
3.08137114878918
0.658970824318843
1.05971304457531
3.02369249058284
0.501766156808125
0.652756366767326
1.03815787344805
2.96466751801692
0.424696790452763
0.498965451985559
0.643077692749118
1.01737714222814
2.9125322412707
0.381482012637261
0.423273785027278
0.49400098743868
0.632474997110924
0.999864289231762
2.86289742599633
0.355265337102055
0.380614569297314
0.420366147445268
0.487768255789336
0.622299648763544
0.983765731437209
2.80737486872671
0.338562304168718
0.354576089858197
0.378625888883017
0.416263397548449
0.480950415766412
0.612235218459348
0.966092231427561
2.74183109538513
0.32759862170716
0.337895028068872
0.352964265119152
0.375592501238357
0.411308746134443
0.473666236463048
0.601316994025235
0.945214769207398
2.66630386544802
0.320297277557198
0.326902355810555
0.336415007986844
0.350456200254688
0.371715588679901
0.405712384096298
0.465696544782973
0.588856117231759
0.920656431003463
2.58482090442763
0.315431093447435
0.319559525134057
0.32545797608263
0.334163963580034
0.347211213159527
0.36721378307445
0.399531854782715
0.456812750691784
0.574453264809318
0.892505405352438
2.58962551117496
0.312226891518181
0.314649080729789
0.318116796620526
0.323340265460225
0.331302805968327
0.34344150323793
0.362242466822238
0.392769702075726
0.44685313508437
0.557320555563453
0.860645150716171
2.19512666724052
0.310169874872965
0.311399217211743
0.313195212065311
0.316075227572026
0.320726768028922
0.328039189305729
0.339330306640351
0.356912267519334
0.385456095249692
0.435617409437571
0.536368222907793
0.805928489978044
2.19484861131747
0.308902925333994
0.309295852996267
0.30992792720834
0.311200527764214
0.313631633377627
0.317825440724171
0.324560556417345
0.335035438265321
0.351362377732497
0.377767120621708
0.423994336696333
0.518746592301605
0.783263463660085
2.19192653717667
0.308172242313596
0.307983997835809
0.307804084488772
0.307963231032315
0.308879170754895
0.310997784981164
0.314822698642606
0.321043782848994
0.330750418217394
0.34584767129585
0.370165895145149
0.413111661451236
0.50317399168467
0.759931374997488
2.18619686990347
0.307796144094108
0.307213542119324
0.306472443423501
0.305859889534816
0.305733513454277
0.306448121564807
0.308359190528011
0.311902841412953
0.317710042869803
0.326776610440951
0.340842361716771
0.363523322201826
0.403833467314402
0.488757167082593
0.735251422588812
2.18722072079405
0.30764574832906
0.306807534081683
0.305687675773834
0.304545636932275
0.303702774264269
0.303460586495267
0.304092429380081
0.305902631911656
0.30930033092318
0.314884915532267
0.32359633840335
0.337090228646556
0.358792019603977
0.397003661564123
0.476654982103184
0.713332096645892
2.21610846298858
0.307631351922431
0.306641187948571
0.305277041707296
0.303780516037716
0.302450609482716
0.30155723716813
0.30132778437804
0.301997615706606
0.303866677876987
0.307351695432922
0.313061510157105
0.321949639508925
0.335671467002804
0.357501532778715
0.395084045662849
0.471799049141491
0.705304545428654
2.28699470794799
0.307689078857059
0.306622309890899
0.305114060232936
0.303392373562782
0.301740574944631
0.300409134376129
0.299599795838979
0.299512745541926
0.300396252562047
0.302585371635543
0.306551140188885
0.312988654325911
0.32299071874089
0.338420953510839
0.362838452941962
0.404367304623266
0.487770876539028
0.740033610605482
2.38167954678526
1.07611827292762
3.08297346242067
0.659290731693707
1.06020951446223
3.0256246545091
0.502065369905511
0.653144658105021
1.03876188630643
2.96697761667927
0.425000859724663
0.499326359683201
0.643549346819053
1.01813169834637
2.91528684225602
0.381805978773582
0.423639323227784
0.494437003603605
0.633046747940004
1.00079333299869
2.86616944975016
0.355619563299356
0.381003099746789
0.420807131025151
0.488295350360428
0.622992081727158
0.984897417717881
2.81123474942761
0.33895499758797
0.354999779298518
0.379093648027832
0.416795899674702
0.481587094638641
0.613071722933278
0.96745727309776
2.74635572002409
0.328036833661295
0.338363187522782
0.353472838664686
0.376156095013332
0.411950784512876
0.47443316388905
0.602321420388154
0.94681004113804
2.67157489206961
0.320787135160026
0.327422542712354
0.336974642805397
0.351066826681703
0.37239321733609
0.406483878479693
0.466616790721123
0.590062305113986
0.922405191230166
2.59057070144998
0.315977701347894
0.320137805967919
0.326076467705773
0.334832665540087
0.347942446688799
0.368025333688741
0.400455173788118
0.457919733671587
0.575930036176217
0.892672518669938
2.19479981465496
0.312834026025359
0.315289879757699
0.318799759384448
0.324074780517288
0.33209938043887
0.344313406242054
0.363210058465288
0.393871791503691
0.448211411686337
0.559589617743696
0.864149325195232
2.19513151782003
0.310839518894237
0.312104900275962
0.313945832561514
0.316880251030919
0.321596042817935
0.328983764263565
0.340364943274036
0.358061258614976
0.386774108896186
0.437417234240648
0.54083458589395
0.810840702945957
2.19485277722098
0.309634676955929
0.310066142687974
0.310746433547712
0.312077373705662
0.314576875354172
0.318849325263311
0.325675001625001
0.336257226297724
0.352719907024897
0.379308145201116
0.425837691863599
0.520862957179785
0.785353038976483
2.19192291506548
0.30896256278728
0.308815212239751
0.308687005357921
0.308909169869432
0.309899131932033
0.312102280789598
0.316022574787085
0.32235201688302
0.332185448272342
0.347439450077683
0.371958098161929
0.415109593683908
0.505321898451461
0.762172108705061
2.18619178273486
0.30863749641409
0.308097725636607
0.307411751606974
0.306867319318395
0.306821693074116
0.307628748924455
0.30964339334152
0.313302200646395
0.319238099252683
0.328450561672759
0.342681276658801
0.365534405713623
0.406008766664142
0.491122594686502
0.737756876377986
2.18722284463987
0.308525911068344
0.307731793331746
0.306670161277558
0.30560144433993
0.304846765035021
0.304706522895626
0.305452918421536
0.307389649934184
0.310925943437717
0.316661704113021
0.325535900541781
0.339198254101728
0.361068571453907
0.399466734832738
0.479361661512634
0.716078140564193
2.21609857667638
0.308533772138906
0.307588403036805
0.306285115222628
0.304866716790722
0.30363252674995
0.30285164227024
0.30275004178039
0.303561714096441
0.305585492847409
0.309237083508266
0.315123518904517
0.324194505824965
0.338102135762841
0.36013006887239
0.397957916833865
0.474982182393837
0.708185896537553
2.28699512467784
0.308597080829548
0.307577277105284
0.306131536248253
0.304490926150822
0.302941139787227
0.301732781739946
0.301066240209854
0.301139904253185
0.302200039602384
0.304579292495001
0.308745990704571
0.315392489879274
0.325609975644236
0.341267848127584
0.36595417155365
0.40787037460702
0.491704840398358
0.743184275130173
2.38167999921591
0.308671200446337
0.307631474796131
0.306116962923663
0.304349024562106
0.302602884587702
0.301117439811919
0.300079120578323
0.299669276976709
0.300112226961417
0.301708748894418
0.304876981728322
0.31022610773722
0.318691619596688
0.331809988774514
0.352339513858752
0.385869296462409
0.445710059811791
0.572510197056991
0.992136360547965
3.68516613460284
0.6595541701741
1.06065774370185
3.02720150498688
0.502313204294052
0.653460367225588
1.0392370662936
2.96888411325748
0.425254412436536
0.499623993713916
0.6439313693846
1.01871561851641
2.91757925413165
0.382076973285432
0.42394270112584
0.494795963571576
0.633512476330544
1.00153495388825
2.86890809580999
0.355916556003645
0.381326812115261
0.421172295568464
0.488729347560468
0.623558788591191
0.985816534151761
2.81448043983881
0.339285050724062
0.355354040496317
0.379482755334003
0.417236778243784
0.482112109464989
0.613759282911206
0.968579026675307
2.75017492660885
0.328406284334792
0.338756138896991
0.353897839794588
0.376625132888848
0.412483157474656
0.475067288864211
0.603151439977658
0.948160060415599
2.67588681884523
0.321201853682456
0.327861220096696
0.337444758788347
0.351577869839906
0.372958389370407
0.40712539780831
0.467379752640559
0.591043382773148
0.924078720435517
2.59672715809732
0.316443036129178
0.320628358402844
0.326599270234095
0.335395946074934
0.348556350331941
0.368704554735825
0.401225624544607
0.458836657169387
0.577071829781889
0.894176563231972
2.19479696219786
0.313354585603784
0.315837461755665
0.319381401653486
0.324698214422223
0.332773228172117
0.345048579991306
0.364023312414758
0.394795149391469
0.449323489220751
0.560779622627972
0.842091635743591
2.19512546559696
0.311418790377512
0.312713356463456
0.314590870987958
0.317569671011292
0.322337894642782
0.329787071855132
0.341241782054923
0.359031326458943
0.387881974126154
0.438821285162672
0.542747295777431
0.812711624341416
2.19485595507918
0.310274562770501
0.310737541485515
0.311457408829206
0.312836267393735
0.315391881431061
0.319728754032848
0.326628556385384
0.337298604788514
0.353873191877224
0.380641280801591
0.427616274547632
0.523083601689758
0.787358787799011