/*--------------------------------*- C++ -*----------------------------------*\
  =========                 |
  \\      /  F ield         | OpenFOAM: The Open Source CFD Toolbox
   \\    /   O peration     | Website:  https://openfoam.org
    \\  /    A nd           | Version:  12
     \\/     M anipulation  |
\*---------------------------------------------------------------------------*/
/*   Windows 32 and 64 bit porting by blueCAPE: http://www.bluecape.com.pt   *\
|  Based on Windows porting (2.0.x v4) by Symscape: http://www.symscape.com   |
\*---------------------------------------------------------------------------*/
FoamFile
{
    format      ascii;
    class       surfaceScalarField;
    location    "200";
    object      phi;
}
// * * * * * * * * * * * * * * * * * * * * * * * * * * * * * * * * * * * * * //

dimensions      [0 3 -1 0 0 0 0];

internalField   nonuniform List<scalar> 
28915
(
-2.03734435597147e-06
1.03485370472947e-07
9.0454609237359e-08
-2.22077609978358e-06
1.03233405050955e-07
8.01847207465368e-08
-6.9681622818785e-07
1.5978706373338e-07
8.43309767168427e-09
-2.63769071022575e-06
1.24823167636863e-07
1.92056205329435e-07
-2.40034634133948e-06
1.03412413784724e-07
7.61485321968611e-08
-7.61570953210237e-07
1.60195327812272e-07
7.78191870072752e-09
-2.86496348637824e-06
1.25814179309679e-07
1.81609051124654e-07
-5.89100455758707e-07
2.11640829509385e-07
1.41071030151294e-09
-8.54867996738863e-07
1.95047149984892e-07
1.50230106778563e-08
-3.00163534963486e-06
1.4474795665995e-07
2.98117310876052e-07
-2.57808372281361e-06
1.03650743570196e-07
7.40745670180352e-08
-8.26278378028948e-07
1.60391395272031e-07
7.7184036355171e-09
-3.090238682706e-06
1.25992567191512e-07
1.75392355232684e-07
-6.42974474045603e-07
2.12200795867212e-07
1.86653206193136e-09
-9.32350521787909e-07
1.96261177333037e-07
1.48030819801173e-08
-3.25568900134993e-06
1.46645052484486e-07
2.88981145345536e-07
-5.64588720582986e-07
2.63046797893088e-07
-7.22464401308432e-10
-7.03739411832335e-07
2.57957957882935e-07
1.5369885826872e-09
-9.83083248265396e-07
2.29096981700332e-07
1.76835056685467e-08
-3.42163660992313e-06
1.66308361214237e-07
4.15285418302786e-07
-2.75465463291256e-06
1.03749033395887e-07
7.28128993491743e-08
-8.90845997769964e-07
1.6031660855549e-07
7.89174658391948e-09
-3.31384239430189e-06
1.2625701264902e-07
1.71381976274921e-07
-6.97133909907475e-07
2.12365979842871e-07
2.18250432087004e-09
-1.01048885536179e-06
1.96838923522524e-07
1.49953063069199e-08
-3.50914542874087e-06
1.46664768655052e-07
2.82147522040847e-07
-6.15955449875655e-07
2.6348175289375e-07
8.45347862225891e-11
-7.67389024754978e-07
2.59088061489095e-07
2.68422216742876e-09
-1.07089029622726e-06
2.30831013271752e-07
1.8405957588943e-08
-3.70788956843122e-06
1.68781641927177e-07
4.06407869157688e-07
-5.4915942651598e-07
3.13263568847967e-07
-4.9740439844389e-10
-6.60836278157695e-07
3.18482892903232e-07
-1.94997241821477e-09
-8.18557353151451e-07
3.05979056217589e-07
-2.42715252210747e-09
-1.11693736503532e-06
2.62666881174391e-07
1.94276486825638e-08
-3.76784034612544e-06
1.84132101429508e-07
5.42481401177265e-07
-2.93009973621825e-06
1.03582317858486e-07
7.18507735532691e-08
-9.55126082127698e-07
1.59897677381271e-07
8.12157602091027e-09
-3.53598848130226e-06
1.26457988308481e-07
1.68462357591319e-07
-7.5134230095126e-07
2.12047650426028e-07
2.47585219814568e-09
-1.0888344030283e-06
1.97052632310825e-07
1.54284565329969e-08
-3.76158869816235e-06
1.46751707632303e-07
2.77041674455064e-07
-6.67681576361725e-07
2.63413755071739e-07
6.77127852924224e-10
-8.31601699625912e-07
2.59634016563394e-07
3.59512968135423e-09
-1.15997748474484e-06
2.31444739374369e-07
1.92858048852122e-08
-3.99368728843874e-06
1.68683177288021e-07
3.99233190957009e-07
-5.99582525044748e-07
3.13609356911933e-07
2.94523645611024e-10
-7.20783724616651e-07
3.19582806734078e-07
-4.6584557009838e-10
-8.91967319811239e-07
3.07412385068338e-07
-4.91761691700428e-10
-1.21559228639429e-06
2.64866515550761e-07
2.09613633420893e-08
-4.08055749580838e-06
1.86724451354849e-07
5.32359731353164e-07
-5.31161656847891e-07
3.62615778568758e-07
-1.08955846862593e-10
-6.30513287523456e-07
3.77022057929052e-07
-1.68094750307678e-09
-7.67562788788959e-07
3.77831876903193e-07
-5.12667279255306e-09
-9.24818344672917e-07
3.50323639841365e-07
-8.18919804160348e-09
-1.21472701532174e-06
2.86377119829811e-07
2.32650099264402e-08
-3.99429860367183e-06
1.97554642783699e-07
6.76694195477747e-07
-3.10420031604396e-06
1.03105034610085e-07
7.09835002972802e-08
-1.01892913675376e-06
1.59076670779275e-07
8.29853135865143e-09
-3.75655153770487e-06
1.2635295167702e-07
1.66029211188251e-07
-8.05379935758935e-07
2.11202082998637e-07
2.73125372923659e-09
-1.16697029716788e-06
1.96836858471844e-07
1.58632902603554e-08
-4.01283639366586e-06
1.4687237346495e-07
2.72813015243735e-07
-7.19511372401974e-07
2.62726704099677e-07
1.149561323635e-09
-8.96035924868348e-07
2.595642697571e-07
4.39378093230471e-09
-1.24964831811648e-06
2.3159453253509e-07
2.02423012211798e-08
-4.27876780746291e-06
1.68597406825075e-07
3.93487983438938e-07
-6.5038196646921e-07
3.13320343321994e-07
8.92025813167503e-10
-7.811751288554e-07
3.20035200403508e-07
6.64012258769134e-10
-9.66194577593372e-07
3.08089030530778e-07
1.17421720201306e-09
-1.31578201844158e-06
2.65532136143894e-07
2.26096290675751e-08
-4.39253000990694e-06
1.86340140800052e-07
5.24819582756776e-07
-5.81093397901243e-07
3.62881267607403e-07
6.59112609504048e-10
-6.88553063647165e-07
3.78119160352734e-07
-2.0423996772606e-10
-8.36842014613695e-07
3.79120480076402e-07
-2.89819518780678e-09
-1.00703906773759e-06
3.52100021026591e-07
-5.51003564489208e-09
-1.32096350738398e-06
2.88712521909353e-07
2.51916562779045e-08
-4.32309538533916e-06
1.99762486699286e-07
6.61366515236199e-07
-5.11041817144297e-07
4.11276930294751e-07
5.56117741991863e-10
-6.03372674988653e-07
4.33072826623576e-07
2.67355203558161e-10
-7.26795490641319e-07
4.45042443313649e-07
-2.93443801386124e-09
-8.61711063719985e-07
4.30730378399876e-07
-8.84875342943602e-09
-9.93375914122917e-07
3.78488516528058e-07
-1.30286519026533e-08
-1.27520839980446e-06
3.0122263457653e-07
3.05772898606126e-08
-4.12936510676442e-06
2.10275607053739e-07
8.17563532518548e-07
-3.27666135894387e-06
1.02305408220167e-07
7.01485003878711e-08
-1.08205486883398e-06
1.57828626494889e-07
8.39435063467452e-09
-3.97524188474768e-06
1.25863354606313e-07
1.63783021314017e-07
-8.59021883394471e-07
2.09805666704281e-07
2.91164726573751e-09
-1.24460386451972e-06
1.96102410344332e-07
1.61712643519699e-08
-4.26247574142372e-06
1.46679331113197e-07
2.68956185498333e-07
-7.71212030681451e-07
2.61379362260623e-07
1.52207714041772e-09
-9.60329603678466e-07
2.58816848200244e-07
5.04088152578181e-09
-1.33922079194966e-06
2.31266785146654e-07
2.10268927174415e-08
-4.56269261065203e-06
1.68599192832402e-07
3.88099653404708e-07
-7.01300981411951e-07
3.12277681142112e-07
1.3671441174553e-09
-8.41738415502097e-07
3.19699223601739e-07
1.57505564200957e-09
-1.04082942193447e-06
3.08020383422307e-07
2.59816466375756e-09
-1.41681996859822e-06
2.65610875800773e-07
2.42499562841393e-08
-4.70419940200307e-06
1.85955679150791e-07
5.19168849426495e-07
-6.3139782745523e-07
3.6236231583672e-07
1.26164177261229e-09
-7.46993333669933e-07
3.78424650978966e-07
9.39797730941924e-10
-9.0667510499426e-07
3.7965168436451e-07
-1.06852630669982e-09
-1.09016850404334e-06
3.52904440963624e-07
-3.07403312098078e-09
-1.42881290726463e-06
2.89220646945672e-07
2.75609938205955e-08
-4.65111827962009e-06
1.98724165935103e-07
6.54075017050382e-07
-5.60889852213828e-07
4.11435426529315e-07
1.29317720541044e-09
-6.60466820727369e-07
4.34190589987496e-07
1.67985293842362e-09
-7.9343352207973e-07
4.46284257565548e-07
-7.32915899563912e-10
-9.38922501083155e-07
4.32286314469124e-07
-5.87654207778092e-09
-1.08078131553991e-06
3.80355812788545e-07
-9.75424989212089e-09
-1.3854720590951e-06
3.03319784301733e-07
3.18825476198495e-08
-4.46180543757734e-06
2.11708046553344e-07
7.82059470768882e-07
-4.91463126731156e-07
4.59506958555171e-07
1.54152526689222e-09
-5.78784951065537e-07
4.87194269754189e-07
2.84365425710893e-09
-6.92647105950986e-07
5.08572456904087e-07
1.32498536010606e-09
-8.10682485502015e-07
5.04519911812094e-07
-3.58575656017607e-09
-9.19040786147358e-07
4.62403999274254e-07
-1.17278317628816e-08
-1.03080204784842e-06
3.93236321599088e-07
-1.53734986444957e-08
-1.31465335559007e-06
3.12415560663056e-07
4.30396366863219e-08
-4.18623562942778e-06
2.26172607625195e-07
9.6627914728102e-07
-3.44718395189569e-06
1.0119699191557e-07
6.93133895737022e-08
-1.14431265899709e-06
1.56145704649406e-07
8.40953862119809e-09
-4.19170044901897e-06
1.24963604201325e-07
1.61600782630707e-07
-9.12061422120818e-07
2.07855542838643e-07
3.01114307325076e-09
-1.321490362743e-06
1.94813468736906e-07
1.63188775642286e-08
-4.51001163431819e-06
1.46045561826121e-07
2.65243405144688e-07
-8.22554326480608e-07
2.59356458818691e-07
1.79046860692633e-09
-1.02418757055287e-06
2.57367846188342e-07
5.50050706912127e-09
-1.42827172217278e-06
2.30343770163395e-07
2.15465796454664e-08
-4.84482435478475e-06
1.68265273866449e-07
3.82791525662861e-07
-7.5210075740089e-07
3.10438885603885e-07
1.73936547249794e-09
-9.02173714397386e-07
3.18488400524725e-07
2.28320104376107e-09
-1.11536351652292e-06
3.07129542060718e-07
3.70845847948068e-09
-1.51784553693792e-06
2.6515015319867e-07
2.54894578434607e-08
-5.01463716972538e-06
1.85726752181126e-07
5.1277093187236e-07
-6.81800220757666e-07
3.60948655473704e-07
1.73060204762289e-09
-8.05562850136205e-07
3.77780902261756e-07
1.85253526316231e-09
-9.76764337651837e-07
3.79259118686886e-07
4.21921222986062e-10
-1.17382333400964e-06
3.52817016414238e-07
-9.58399596147406e-10
-1.53774388044524e-06
2.89066177140883e-07
3.00561255616395e-08
-4.98053259358899e-06
1.97769392087658e-07
6.50773296958558e-07
-6.11054606481081e-07
4.10663369588377e-07
1.86301899124485e-09
-7.17915994149269e-07
4.34328957789083e-07
2.8045545720933e-09
-8.60536634972592e-07
4.46630849915748e-07
1.0613801297212e-09
-1.0167034873651e-06
4.32935647365294e-07
-3.3227082422497e-09
-1.169110242695e-06
3.8108422898084e-07
-6.6149234270188e-09
-1.49739540478822e-06
3.0338035047309e-07
3.48094385133021e-08
-4.79685181549939e-06
2.08973510721086e-07
7.80112806388382e-07
-5.41737617200682e-07
4.59607185850713e-07
2.10216875308011e-09
-6.35783271714525e-07
4.88312364909336e-07
4.16807136925152e-09
-7.57910794820234e-07
5.0980967706001e-07
3.416036142413e-09
-8.84466627226547e-07
5.05988447048666e-07
-6.53692678551796e-10
-1.00050790864459e-06
4.64015555936175e-07
-8.07264906584415e-09
-1.12033534478132e-06
3.9496300977171e-07
-1.18698354782135e-08
-1.42611023422526e-06
3.14150874414263e-07
4.08758647342084e-08
-4.52177074983276e-06
2.29357688231524e-07
8.88212926259069e-07
-4.74021618260906e-07
5.07589781211211e-07
2.93533473418282e-09
-5.5660060266658e-07
5.40428858089915e-07
5.52983046331609e-09
-6.64985532598136e-07
5.69876842543107e-07
6.08363332148748e-09
-7.70712314105402e-07
5.73824338076011e-07
3.37904717650243e-09
-8.61246165177369e-07
5.39141759829988e-07
-3.45515470269434e-09
-9.48635689349843e-07
4.77157652284929e-07
-1.30363520314922e-08
-1.05441073260537e-06
4.02161644005148e-07
-1.44196295179508e-08
-1.34641216684007e-06
3.22756625086569e-07
6.39188833670583e-08
-4.00885312338429e-06
2.27025523619517e-07
1.08979824070813e-06
-3.61548583124606e-06
9.98221232639039e-08
6.84717918721976e-08
-1.20552699510986e-06
1.54046716787292e-07
8.35650663988588e-09
-4.40554412757611e-06
1.23679530598691e-07
1.59453208317167e-07
-9.64313277515467e-07
2.053584373489e-07
3.03781373598052e-09
-1.39740878002524e-06
1.92964842391226e-07
1.63168617546087e-08
-4.75497577893634e-06
1.44938057220898e-07
2.61598198438111e-07
-8.73327797351131e-07
2.5666484187302e-07
1.96319561184362e-09
-1.08736358416161e-06
2.55224562288244e-07
5.77218212400825e-09
-1.51648733411893e-06
2.28770019881297e-07
2.17946162129868e-08
-5.12452202515474e-06
1.67424546157067e-07
3.77491007039563e-07
-8.02545494824409e-07
3.07796195245401e-07
2.00415071186059e-09
-9.62204790635128e-07
3.16407884569224e-07
2.77892987861229e-09
-1.18941368950721e-06
3.05394264227062e-07
4.49636204901751e-09
-1.61831881549783e-06
2.63999231375426e-07
2.62712592476453e-08
-5.32299316637369e-06
1.85168556038385e-07
5.05947617085798e-07
-7.32039107011856e-07
3.58592820463465e-07
2.08415479352503e-09
-8.63976033755211e-07
3.76090467426419e-07
2.54836572258512e-09
-1.04673004544669e-06
3.77808581147592e-07
1.56644860425249e-09
-1.25740125622063e-06
3.51760281552327e-07
6.70692456044168e-10
-1.64670980238472e-06
2.8835539159895e-07
3.18112770410818e-08
-5.30812318066647e-06
1.9713132802259e-07
6.4319490364477e-07
-6.6125306926721e-07
4.08843735307315e-07
2.30276462043803e-09
-7.75429470454138e-07
4.33336975976508e-07
3.68609979751682e-09
-9.27807872537342e-07
4.45878407137262e-07
2.50198940364946e-09
-1.09477630687696e-06
4.32511205201379e-07
-1.20286176074636e-09
-1.25804224769631e-06
3.80823635154509e-07
-3.78911766348284e-09
-1.61083527229622e-06
3.02738714794419e-07
3.8513835463067e-08
-5.13986594325167e-06
2.06521125997183e-07
7.87229642611944e-07
-5.92259990949335e-07
4.5852608381221e-07
2.65901891186666e-09
-6.93049545849054e-07
4.88230848774999e-07
5.22578350630066e-09
-8.23567904883039e-07
5.09964774123392e-07
5.12571074568409e-09
-9.58711127506362e-07
5.06425513998708e-07
1.81299497651693e-09
-1.08251526502556e-06
4.64605479033113e-07
-4.84091184666106e-09
-1.2107825562963e-06
3.95430038851416e-07
-8.22493968089982e-09
-1.53959034417131e-06
3.13472082197573e-07
4.37714374273467e-08
-4.8761547204755e-06
2.24520420260495e-07
9.09947068550031e-07
-5.25417311428432e-07
5.07521361106999e-07
3.48103177979436e-09
-6.1429849979037e-07
5.41410744179136e-07
6.70027418949494e-09
-7.30128918171078e-07
5.71084477218131e-07
8.03475767356908e-09
-8.42728255217481e-07
5.75254639497805e-07
6.16345332022211e-09
-9.38701645153148e-07
5.40637103593324e-07
1.77794353198026e-10
-1.03156225479066e-06
4.78659074114695e-07
-8.84603389743286e-09
-1.14447383168781e-06
4.03743363512075e-07
-1.14047058302935e-08
-1.45695729151952e-06
3.25337008465961e-07
5.54244998052166e-08
-4.43200003082571e-06
2.46679057058181e-07
1.06465907078608e-06
-4.59117329826107e-07
5.56448784454199e-07
4.06142654681503e-09
-5.36925682773538e-07
5.94057967668533e-07
8.10296612378147e-09
-6.41432646925592e-07
6.3040140219357e-07
1.05776619409121e-08
-7.4083983546364e-07
6.40869621948311e-07
1.03213827649465e-08
-8.18555684642722e-07
6.1129888572794e-07
6.05129260842874e-09
-8.87383630066605e-07
5.54227528572494e-07
-2.45849282871755e-09
-9.67399334850675e-07
4.84665835516048e-07
-1.2499004227686e-08
-1.07558294864992e-06
4.09408150958558e-07
-9.72623186711928e-09
-1.36646427041429e-06
3.27073218911816e-07
8.22266562098467e-08
-4.11928970303101e-06
2.25644880096127e-07
1.22884822965285e-06
-3.7812895367716e-06
9.81974632681976e-08
6.75958793634042e-08
-1.26553945877553e-06
1.51578120294346e-07
8.24864340592474e-09
-4.61646185835721e-06
1.22049664873394e-07
1.57309355917734e-07
-1.01561000700148e-06
2.02340891253192e-07
3.00157303059414e-09
-1.4721607006009e-06
1.90584473224524e-07
1.61922430741975e-08
-4.99696806918236e-06
1.43391278860736e-07
2.58030761031795e-07
-9.23343114592125e-07
2.53321547255183e-07
2.05091900112706e-09
-1.14964134684774e-06
2.52398708973701e-07
5.87785011222783e-09
-1.60360473445709e-06
2.26542761473916e-07
2.18174454650371e-08
-5.40123491734707e-06
1.66067984976659e-07
3.72217932219274e-07
-8.5242309419506e-07
3.04357514697236e-07
2.18410616253416e-09
-1.02158923958981e-06
3.13498925656351e-07
3.07059522801988e-09
-1.2626769458297e-06
3.02814386753287e-07
4.98641120287231e-09
-1.71785674070375e-06
2.62099403469238e-07
2.66462650049313e-08
-5.62856445040701e-06
1.84061076123455e-07
4.98965771169447e-07
-7.81895395808683e-07
3.55296584215826e-07
2.35536955872801e-09
-9.2195779317999e-07
3.73391625523494e-07
2.99989483614824e-09
-1.11623495655375e-06
3.75295496048183e-07
2.37970135330441e-09
-1.3404437483913e-06
3.49715565423194e-07
1.81927256708735e-09
-1.75505487588101e-06
2.86925649982332e-07
3.28472213266312e-08
-5.63299505191634e-06
1.96258574312852e-07
6.34536207788455e-07
-7.11229263544851e-07
4.05939091329472e-07
2.6291697546867e-09
-8.32701695928302e-07
4.31114665988982e-07
4.33022704935194e-09
-9.94914050423059e-07
4.43864618179158e-07
3.5965298786914e-09
-1.17271598817866e-06
4.30843108964576e-07
4.198160990539e-10
-1.34689665755455e-06
3.7951071955106e-07
-1.63545799817044e-09
-1.72426456626672e-06
3.01629567027699e-07
4.07277247696414e-08
-5.47776094550915e-06
2.052375985985e-07
7.758230464773e-07
-6.42719936020984e-07
4.56216875196988e-07
3.08614220121975e-09
-7.50293791915119e-07
4.86824653289489e-07
6.05777029668077e-09
-8.89312050394057e-07
5.0882159546784e-07
6.48535807260952e-09
-1.03312439420121e-06
5.05604150471629e-07
3.81910311071991e-09
-1.1648171662818e-06
4.64024681873311e-07
-2.10581885773992e-09
-1.30195941775173e-06
3.94841568104945e-07
-4.71943044462745e-09
-1.65602201657672e-06
3.11904268078659e-07
4.95481987685976e-08
-5.24323487096874e-06
2.15965126309096e-07
9.38311058799509e-07
-5.76889501372994e-07
5.06093910270042e-07
3.90378734027767e-09
-6.72112876152417e-07
5.41026540527699e-07
7.67608354021749e-09
-7.9556171729809e-07
5.70987783216394e-07
9.63370063382555e-09
-9.15126755441539e-07
5.75459001420692e-07
8.48813161203632e-09
-1.01657869482407e-06
5.41002936166032e-07
3.28918865277987e-09
-1.11498052462709e-06
4.79058794358213e-07
-5.05478004212506e-09
-1.23544238891397e-06
4.03887383288265e-07
-7.67818381702892e-09
-1.5706096296805e-06
3.24160468162574e-07
5.77677382603581e-08
-4.90329976349597e-06
2.48242283667515e-07
1.13296935312915e-06
-5.12226480177263e-07
5.56062819859868e-07
4.56717955324256e-09
-5.95998446942329e-07
5.94804931712984e-07
9.15825783576496e-09
-7.07470003089105e-07
6.31468812660694e-07
1.23516724472053e-08
-8.12709094455701e-07
6.42238064977424e-07
1.29182323665406e-08
-8.94001377233189e-07
6.12729194649782e-07
9.51435030756565e-09
-9.65958336916914e-07
5.55604182165014e-07
1.80443422385e-09
-1.05058338038309e-06
4.86051065526915e-07
-7.97394945217188e-09
-1.16544980034825e-06
4.11283494795667e-07
-7.48885776122216e-09
-1.48039883182438e-06
3.34218197405222e-07
8.18026804429473e-08
-4.55574201276437e-06
2.4814831068966e-07
1.25293751170713e-06
-4.4649927780624e-07
6.06896134853518e-07
4.9602443686552e-09
-5.19687129254359e-07
6.48947326243005e-07
1.02703871359667e-08
-6.20574762206201e-07
6.91474265634831e-07
1.45126770421927e-08
-7.16351337016485e-07
7.07349125161725e-07
1.65637255745926e-08
-7.88318602460899e-07
6.81295488692603e-07
1.50489165908457e-08
-8.43890296524416e-07
6.26961218655336e-07
9.18626991472017e-09
-9.0438530599344e-07
5.60899661394306e-07
-4.26323653750842e-10
-9.85007065671485e-07
4.90303428097185e-07
-1.01113487813284e-08
-1.09728947754172e-06
4.14725668487671e-07
-5.09552064637366e-09
-1.40303608671641e-06
3.30679298789037e-07
9.83704530614629e-08
-4.24107775935227e-06
2.25817277156163e-07
1.32989313450029e-06
-3.94430963111901e-06
9.63383103171359e-08
6.6675638279409e-08
-1.32421530711761e-06
1.48772056657364e-07
8.09444733348944e-09
-4.82412877861142e-06
1.20120912714231e-07
1.55118045371666e-07
-1.06580105408193e-06
1.98851335026961e-07
2.91640467200054e-09
-1.54556604596734e-06
1.87725344314774e-07
1.59705441455811e-08
-5.23564722156021e-06
1.41458698972119e-07
2.54503953977334e-07
-9.7243207225405e-07
2.49363406994075e-07
2.06568539310917e-09
-1.21083063632726e-06
2.48926652023692e-07
5.84498277180128e-09
-1.6894022526734e-06
2.23701626837532e-07
2.16690816521592e-08
-5.67456247097557e-06
1.64229696508976e-07
3.67086377526026e-07
-9.01543963808432e-07
3.00158476038448e-07
2.28318691937791e-09
-1.08010768099399e-06
3.09773121955152e-07
3.19253185657277e-09
-1.33490032394526e-06
2.99419889445385e-07
5.21968558506719e-09
-1.81616030721612e-06
2.59457380714358e-07
2.6715635504785e-08
-5.93069730540651e-06
1.82423247388801e-07
4.9189952378668e-07
-8.31154650389664e-07
3.51087708172864e-07
2.52860032582516e-09
-9.7930587709565e-07
3.6966149093855e-07
3.36782133490325e-09
-1.18498180705901e-06
3.71732643613872e-07
2.8968483575076e-09
-1.42260041105402e-06
3.46692103972895e-07
2.54628069272293e-09
-1.86235840892496e-06
2.84683517153832e-07
3.33179974873877e-08
-5.95477516134887e-06
1.94845524244405e-07
6.25874170761862e-07
-7.60750503692942e-07
4.01963606021201e-07
2.85361571823403e-09
-8.89544133121381e-07
4.27652290930245e-07
4.93516696216895e-09
-1.06155643721797e-06
4.40566779629387e-07
4.36885507380265e-09
-1.25013476241338e-06
4.27937031007008e-07
1.57387298775587e-09
-1.43515419087193e-06
3.77133395220681e-07
-1.36239993122125e-10
-1.83691398766153e-06
2.99845291560631e-07
4.1897065056154e-08
-5.81133669895434e-06
2.03919634489782e-07
7.64163553279545e-07
-6.92855173949722e-07
4.52671438332689e-07
3.40238920857689e-09
-8.07235286168606e-07
4.84013484488415e-07
6.67024075894902e-09
-9.548465804108e-07
5.06222376655989e-07
7.50498202561706e-09
-1.10734198037885e-06
5.03315753681467e-07
5.33901527340606e-09
-1.24696240276373e-06
4.62088222622106e-07
-1.5273238605113e-11
-1.39303084556493e-06
3.93192267421142e-07
-2.13077071290924e-09
-1.77201466622127e-06
3.1025693782857e-07
5.1684874196097e-08
-5.58735181691735e-06
2.14032223067843e-07
9.05869045459308e-07
-6.28157136272725e-07
5.0325386163966e-07
4.2301025933451e-09
-7.29772138985985e-07
5.3912259128714e-07
8.44589522119422e-09
-8.60964062798198e-07
5.6938009118108e-07
1.08998880654658e-08
-9.87594072124522e-07
5.74197821697055e-07
1.03564906760439e-08
-1.09460000547834e-06
5.40014380881961e-07
5.84771025263594e-09
-1.19869912925103e-06
4.7822687694765e-07
-1.7766729960407e-09
-1.32752678755558e-06
4.02835906657059e-07
-3.5726679638027e-09
-1.6912148065098e-06
3.20583044734154e-07
6.55183694015015e-08
-5.31863647006224e-06
2.26101033460531e-07
1.1275094167899e-06
-5.6522553586447e-07
5.54109270575527e-07
4.9831702120471e-09
-6.55032771631855e-07
5.93942934074683e-07
1.00201299851681e-08
-7.73637532366368e-07
6.31010505454685e-07
1.38190805331043e-08
-8.84848665987915e-07
6.42149015700175e-07
1.50810749932697e-08
-9.69792619752639e-07
6.1283854974005e-07
1.24410935293306e-08
-1.04489950561445e-06
5.55794199805257e-07
5.49180511023086e-09
-1.13419348179367e-06
4.86244530893064e-07
-3.80577695849501e-09
-1.25616876710154e-06
4.1131022636621e-07
-4.11308901243808e-09
-1.59780185612868e-06
3.35638396128437e-07
8.77545194890423e-08
-4.967881648504e-06
2.54473781847404e-07
1.29060165311959e-06
-5.01856220895056e-07
6.06009465608946e-07
5.40981050717322e-09
-5.80822257112296e-07
6.49301202748825e-07
1.12047564837386e-08
-6.88316341235291e-07
6.92267736084836e-07
1.60994132948623e-08
-7.89259424150784e-07
7.08561507560885e-07
1.8934705204225e-08
-8.63597318058919e-07
6.82642880242066e-07
1.82811822005846e-08
-9.20313351140906e-07
6.2825529356712e-07
1.32836308828547e-08
-9.83054040710852e-07
5.6213730828835e-07
4.38416202970856e-09
-1.06816074684559e-06
4.91719103610936e-07
-5.25983066836053e-09
-1.18734499738592e-06
4.17695058113013e-07
-9.16695909863032e-10
-1.51981552176282e-06
3.39333538574765e-07
1.07384321525175e-07
-4.56071565457723e-06
2.35041015586653e-07
1.33751073957155e-06
-4.35910304299917e-07
6.59647144934376e-07
5.63269681973381e-09
-5.04685479262989e-07
7.05941760119502e-07
1.20094142108126e-08
-6.0195128946833e-07
7.54141653016561e-07
1.77815051569632e-08
-6.9461635600056e-07
7.74574064807179e-07
2.18987316588416e-08
-7.63984775265634e-07
7.50827322886535e-07
2.29844300754019e-08
-8.1403260500588e-07
6.97638084791739e-07
2.00638763109879e-08
-8.60603443014771e-07
6.33049442558323e-07
1.29734557697981e-08
-9.20605120566297e-07
5.65431178985926e-07
2.77368120579185e-09
-1.00407482003452e-06
4.95227918710994e-07
-6.84505091059994e-09
-1.12123331773118e-06
4.19823103143396e-07
-6.43628772491205e-10
-1.43872874760866e-06
3.3544984050759e-07
1.07915359976086e-07
-4.47259928276737e-06
2.36462404086588e-07
1.4243921444181e-06
-4.10428946967522e-06
9.4282378118986e-08
6.56885169026284e-08
-1.38143916251581e-06
1.4566037672275e-07
7.89500213751869e-09
-5.02821049056071e-06
1.17921489806231e-07
1.52816309064335e-07
-1.11476138104052e-06
1.94941674662839e-07
2.78967950769645e-09
-1.61746380114899e-06
1.84442182395141e-07
1.56610667432977e-08
-5.47065981437722e-06
1.39184134772888e-07
2.50921109641495e-07
-1.02045021973198e-06
2.44846814421208e-07
2.02191398947446e-09
-1.27076288453335e-06
2.4486767873981e-07
5.70257232026417e-09
-1.7736835347567e-06
2.20308912306772e-07
2.13899634927606e-08
-5.9441589012704e-06
1.61963260126529e-07
3.621151582778e-07
-9.49740656336209e-07
2.95253613744086e-07
2.30571167312892e-09
-1.13756991676461e-06
3.05273190540759e-07
3.17915697886019e-09
-1.40586884268351e-06
2.95267874121014e-07
5.24373578932003e-09
-1.91298836918497e-06
2.56126323019683e-07
2.65914374067775e-08
-6.2290410209065e-06
1.80291441429058e-07
4.85109720484079e-07
-8.79625722942308e-07
3.460163026045e-07
2.61268270789511e-09
-1.03579713498247e-06
3.64961964425067e-07
3.5835658683505e-09
-1.25271950651833e-06
3.67190919925477e-07
3.15786484986363e-09
-1.50358767292186e-06
3.42733444211383e-07
2.92834059334947e-09
-1.96829365202164e-06
2.81653048576721e-07
3.34059783371505e-08
-6.27258359385722e-06
1.92903215919789e-07
6.16777000687792e-07
-8.0960617306757e-07
3.96958150660358e-07
2.98468787110886e-09
-9.45695763437719e-07
4.23027468253649e-07
5.3124948147266e-09
-1.12741881827603e-06
4.36085837364071e-07
4.87495432164931e-09
-1.32670033453814e-06
4.23837586842862e-07
2.31451841004268e-09
-1.52244069974447e-06
3.73702813637549e-07
8.09987969357354e-10
-1.9484083125582e-06
2.97259674256541e-07
4.23876465274325e-08
-6.14205502370422e-06
2.02055684017265e-07
7.5450976462684e-07
-7.42431795275422e-07
4.47921893608809e-07
3.61785946863389e-09
-8.63624492304629e-07
4.79827909780193e-07
7.06570090702349e-09
-1.01980500914243e-06
5.02213239544097e-07
8.2455154371944e-09
-1.18101714783586e-06
4.99570616234469e-07
6.40787628201019e-09
-1.32853418462971e-06
4.58812275212365e-07
1.46341934922422e-09
-1.48341654052926e-06
3.90464388458743e-07
-3.74452428800595e-10
-1.88682211232334e-06
3.08032950645068e-07
5.25789270342845e-08
-5.92403494497297e-06
2.11741928363811e-07
8.89078757243842e-07
-6.78959754314178e-07
4.99009595947821e-07
4.46396402639654e-09
-7.86999620448019e-07
5.35634228247354e-07
9.00794952788354e-09
-9.26017811861808e-07
5.66112161856329e-07
1.18323202860925e-08
-1.05978526438483e-06
5.71257894496046e-07
1.17519442960923e-08
-1.1723919098629e-06
5.37434399566736e-07
7.78186261969083e-09
-1.28222726727171e-06
4.75990833371885e-07
7.10442546734515e-10
-1.41940638098085e-06
4.00804297368454e-07
-8.03527910668696e-10
-1.80918271726294e-06
3.18411766734751e-07
6.52568603872306e-08
-5.66712597467541e-06
2.24964439594317e-07
1.0293704675863e-06
-6.17839629733885e-07
5.50556742216707e-07
5.31073853484218e-09
-7.13738851393401e-07
5.91361707407356e-07
1.06956750364231e-08
-8.39615692382061e-07
6.28824675732338e-07
1.49780785613379e-08
-9.56928149749111e-07
6.40369797092906e-07
1.68055371419297e-08
-1.0456205269473e-06
6.11385888258884e-07
1.48098235900332e-08
-1.12395417701281e-06
5.54578788382151e-07
8.54712120225435e-09
-1.21816409652778e-06
4.85128616102024e-07
-1.02369241752056e-10
-1.34907451013407e-06
4.09646467114067e-07
2.64788709855572e-10
-1.7255500255384e-06
3.28867681009825e-07
9.04826694269085e-08
-5.27453545708077e-06
2.25164743689229e-07
1.20895856837176e-06
-5.56876461892227e-07
6.03337262567124e-07
5.79182850936577e-09
-6.41690667650663e-07
6.47812164841881e-07
1.19810676747978e-08
-7.55984884917668e-07
6.91283330357507e-07
1.74144695442559e-08
-8.62271085408589e-07
7.08066155401228e-07
2.09115450388022e-08
-9.39112399923005e-07
6.82435159808364e-07
2.09974073296366e-08
-9.97031946406498e-07
6.28183892237398e-07
1.67671754548275e-08
-1.06201966006647e-06
5.6214151373842e-07
8.55704196340858e-09
-1.15162585296307e-06
4.91802146771396e-07
-8.37238460152315e-10
-1.27764890120223e-06
4.18385910225328e-07
3.43764686359572e-09
-1.63310199385356e-06
3.4215545780714e-07
1.13337905374905e-07
-4.84879162241226e-06
2.39018015148733e-07
1.33962155518619e-06
-4.93953077198034e-07
6.58032610354312e-07
6.01922755735951e-09
-5.68468952126725e-07
7.05685889955952e-07
1.28073832222435e-08
-6.72118894267308e-07
7.54475180706102e-07
1.91635513271537e-08
-7.6945105353243e-07
7.75484841417695e-07
2.40092562679248e-08
-8.40350457584116e-07
7.52008344809863e-07
2.59330891703879e-08
-8.90230639294119e-07
6.98835323895047e-07
2.3896525998593e-08
-9.37013791013988e-07
6.34179123321856e-07
1.76495056920162e-08
-9.99187492689335e-07
5.66577237402044e-07
8.10537873803607e-09
-1.0873365372749e-06
4.96838247912147e-07
-1.14572911646081e-09
-1.21209167296197e-06
4.23165730590603e-07
6.10327565834924e-09
-1.55238288418278e-06
3.40120311894508e-07
1.15942303000477e-07
-4.7940825179035e-06
2.40253687356235e-07
1.41871576885755e-06
-4.27376952619557e-07
7.15303452343192e-07
6.09362539150564e-09
-4.91829814456224e-07
7.65776292801683e-07
1.33350809102864e-08
-5.85420047969337e-07
8.19316841474411e-07
2.04022317768047e-08
-6.74942212422005e-07
8.43628277029166e-07
2.63123863632886e-08
-7.42231512332488e-07
8.21164204418604e-07
2.97169358809154e-08
-7.90239120486977e-07
7.67861538368392e-07
2.96149662926904e-08
-8.31033056719886e-07
7.03231087975322e-07
2.55258183043433e-08
-8.76429869749877e-07
6.36627867611618e-07
1.7635078611262e-08
-9.3822655619817e-07
5.69490482611786e-07
7.05938731361334e-09
-1.02479179444703e-06
5.0008178603226e-07
-2.59594219263139e-09
-1.14608059301336e-06
4.25773920090499e-07
3.34122652741571e-09
-1.48843908333787e-06
3.4524792831481e-07
1.20372163782814e-07
-4.78552294002046e-06
2.55381908741626e-07
1.5233410997289e-06
-4.26097230919692e-06
9.20550550351125e-08
6.4624429338501e-08