/*--------------------------------*- C++ -*----------------------------------*\
  =========                 |
  \\      /  F ield         | OpenFOAM: The Open Source CFD Toolbox
   \\    /   O peration     | Website:  https://openfoam.org
    \\  /    A nd           | Version:  12
     \\/     M anipulation  |
\*---------------------------------------------------------------------------*/
/*   Windows 32 and 64 bit porting by blueCAPE: http://www.bluecape.com.pt   *\
|  Based on Windows porting (2.0.x v4) by Symscape: http://www.symscape.com   |
\*---------------------------------------------------------------------------*/
FoamFile
{
    format      ascii;
    class       volVectorField;
    location    "200";
    object      U;
}
// * * * * * * * * * * * * * * * * * * * * * * * * * * * * * * * * * * * * * //

dimensions      [0 1 -1 0 0 0 0];

internalField   nonuniform List<vector> 
10116
(
(-3.039285017936e-06 0.000293496402232271 2.77777503683204e-05)
(-3.37096960476909e-06 0.000326485148043615 2.68744744376869e-05)
(-3.47665085653643e-06 0.000250137314628675 5.45442029121542e-05)
(-9.54552742440074e-06 0.00029082839404618 2.66477152020208e-05)
(-3.34330933995704e-06 0.00035954138865844 2.6221528204275e-05)
(-3.34310521038681e-06 0.0002756830308988 5.37572523319838e-05)
(-1.0119869951357e-05 0.000321227366124662 2.55605750043888e-05)
(-2.46684434414656e-06 0.000271411014263106 8.62361694780113e-05)
(-1.1887510485591e-05 0.000226010723415955 5.3889021570736e-05)
(-1.80109983180671e-05 0.000282624600194085 2.67295635919912e-05)
(-3.2399981612098e-06 0.000392337877892459 2.5671206775479e-05)
(-3.18673343278268e-06 0.000301824661086787 5.3031044342759e-05)
(-9.9606015725726e-06 0.000352991563741673 2.46277902638999e-05)
(-2.29829571002125e-06 0.000297507999581086 8.52052790476168e-05)
(-1.14350413697101e-05 0.000248596140505131 5.28827619613032e-05)
(-1.77758968247735e-05 0.000311077300557336 2.56069024062555e-05)
(-1.87728835957995e-06 0.000277566301614209 0.000118573783081308)
(-7.84609747307703e-06 0.000260210602298365 8.61138295805736e-05)
(-2.16762529041139e-05 0.00021536689201206 5.38999472244489e-05)
(-2.67329539661354e-05 0.000286476732443867 2.71536292289445e-05)
(-3.12736282509998e-06 0.000424899442428808 2.5145158606232e-05)
(-3.04576825837924e-06 0.000328106584382263 5.2349550462683e-05)
(-9.61210031641432e-06 0.000385106333493815 2.38794644641238e-05)
(-2.15240894776903e-06 0.000324094487778091 8.42277739540832e-05)
(-1.09214039818976e-05 0.000272384319702202 5.19124351436672e-05)
(-1.7167917604949e-05 0.000341517865031435 2.4546299159324e-05)
(-1.71966954730746e-06 0.000303644400929285 0.000117355630579579)
(-7.29976603257042e-06 0.000284810273410125 8.47477126646727e-05)
(-2.07445453124551e-05 0.000236400971462005 5.28187220509621e-05)
(-2.57203014137241e-05 0.000314758610614808 2.59641871822955e-05)
(-1.3685363304205e-06 0.000277795882888174 0.000149760664605961)
(-5.48742501068908e-06 0.000271801805837612 0.000118668288307254)
(-1.44300957558858e-05 0.000254506846712371 8.63842343620256e-05)
(-3.22994859257041e-05 0.000212568378266723 5.45698979368743e-05)
(-3.61448324251595e-05 0.00029089965038136 2.77296104178535e-05)
(-3.02831290449708e-06 0.000457175243513856 2.46047283127154e-05)
(-2.92912256200097e-06 0.000354328537277279 5.1657802116823e-05)
(-9.25092128573413e-06 0.000417070409980046 2.32069028589403e-05)
(-2.03262764058449e-06 0.000350862209907418 8.32336773332541e-05)
(-1.04406949514169e-05 0.000296681216440229 5.10600070562062e-05)
(-1.64418732203091e-05 0.000372707321653442 2.37038514012804e-05)
(-1.58834650729269e-06 0.000330163084780748 0.000116150556907336)
(-6.80975761110318e-06 0.00031023056468357 8.35041031833441e-05)
(-1.9813326501995e-05 0.000258983436781641 5.17070816939312e-05)
(-2.45362129931219e-05 0.000345074978695222 2.48257108841288e-05)
(-1.20972633081404e-06 0.000303802328883613 0.000148444112245987)
(-4.94170912520154e-06 0.000297013203005683 0.000117056455958808)
(-1.34716359786813e-05 0.000278162016774771 8.48341483725076e-05)
(-3.08506201420031e-05 0.000232996231080194 5.34463429381274e-05)
(-3.45120170108957e-05 0.000319322314150081 2.64365787918066e-05)
(-8.79231125849831e-07 0.000275244567025295 0.000179632000738712)
(-3.81805072100356e-06 0.000274517997628188 0.000149668070730213)
(-1.0016816000006e-05 0.000268850138012958 0.000119038289072151)
(-2.17098668723159e-05 0.000253209115915289 8.72210623794549e-05)
(-4.36696331094876e-05 0.000211855939488889 5.5094881241746e-05)
(-4.61254618861958e-05 0.000294154277487961 2.8126837365148e-05)
(-2.94799356414027e-06 0.000489062423982813 2.40411433145584e-05)
(-2.83669064262197e-06 0.000380351142718687 5.09126163131322e-05)
(-8.93759378991744e-06 0.000448723204554642 2.25472641104951e-05)
(-1.93750527544931e-06 0.000377626425816873 8.21709548676671e-05)
(-1.00367512189816e-05 0.000320997032862173 5.02479731408358e-05)
(-1.5774874549739e-05 0.000403930392792305 2.2970598128169e-05)
(-1.47977383467508e-06 0.000356883865731593 0.000114872330333583)
(-6.39233272308356e-06 0.000336024790733024 8.23172046834146e-05)
(-1.89588019347195e-05 0.00028231610891476 5.07422088153738e-05)
(-2.33078670762263e-05 0.000376318625215286 2.39346963604534e-05)
(-1.07601998573487e-06 0.000330233965217761 0.000147080007970935)
(-4.47808792620748e-06 0.000322843895733216 0.000115545725884659)
(-1.26070932642399e-05 0.000302851199811935 8.34259312620789e-05)
(-2.94507942918183e-05 0.000255060983917821 5.22603963071025e-05)
(-3.26731888920222e-05 0.000349655463978173 2.52356860223692e-05)
(-7.11430627799398e-07 0.000301336480932176 0.000178231070217979)
(-3.2780660924182e-06 0.000299918612741506 0.000147896535315403)
(-9.0534929785981e-06 0.00029345273964023 0.000117187689768992)
(-2.03092460599581e-05 0.000276397545939564 8.5583306646625e-05)
(-4.17425879845323e-05 0.000231920722357284 5.39757361222687e-05)
(-4.43726471902507e-05 0.000322709872578172 2.67952426357451e-05)
(-4.67295395339158e-07 0.000271243753752466 0.000208342988623329)
(-2.50338054526782e-06 0.000273476016488234 0.000179153176199432)
(-6.87715543115057e-06 0.000273160028235938 0.00014986136173504)
(-1.51368232998586e-05 0.000268864676129598 0.000119830092705962)
(-2.95369720798971e-05 0.000253781301103402 8.77650398229214e-05)
(-5.54893728064752e-05 0.00021235236453939 5.53800668142735e-05)
(-5.55764382310354e-05 0.000297114489425596 2.82473001601356e-05)
(-2.88100853573321e-06 0.000520439607258416 2.3458672447651e-05)
(-2.7633851342835e-06 0.00040604535729538 5.00938504618522e-05)
(-8.68729359796365e-06 0.000479955681794381 2.18997145851354e-05)
(-1.86520186262702e-06 0.000404237075727631 8.10028106052132e-05)
(-9.71396061497686e-06 0.00034513092592485 4.94072373540651e-05)
(-1.5230408634513e-05 0.000434938644565331 2.22725085411467e-05)
(-1.39264212527433e-06 0.00038363559321713 0.000113463248084373)
(-6.05629551497379e-06 0.000361858118034732 8.11025902717488e-05)
(-1.82486415165215e-05 0.000305725815360635 4.98452255584671e-05)
(-2.22542517662181e-05 0.000407658083765604 2.31625364645936e-05)
(-9.69089152481875e-07 0.000356879891733263 0.000145561533184727)
(-4.09464767155998e-06 0.000348984042998663 0.000114034486985219)
(-1.18634977442308e-05 0.000328052051487749 8.21085132354777e-05)
(-2.81666087512319e-05 0.000278009525617914 5.12322693866942e-05)
(-3.07795005569495e-05 0.00038104517160884 2.43238457463591e-05)
(-5.76098450248616e-07 0.000327857357551446 0.000176704495987463)
(-2.82112879323127e-06 0.000325862101348601 0.000146188343633426)
(-8.22096967008241e-06 0.000318802135356358 0.000115485496688834)
(-1.90374125358978e-05 0.00030069946904622 8.40795636329901e-05)
(-3.98553846395478e-05 0.000253619577748061 5.27323034645081e-05)
(-4.17751747831145e-05 0.000352826179937289 2.55029557935918e-05)
(-2.99899993343722e-07 0.000297679742896273 0.000206868662623803)
(-1.95721486171637e-06 0.000299085887896915 0.000177301477349644)
(-5.9210522095337e-06 0.000298111200399402 0.000147827479528457)
(-1.37421818876018e-05 0.000293133161303997 0.000117866856020844)
(-2.77001671463604e-05 0.000276673810045165 8.60910965733229e-05)
(-5.32221419827747e-05 0.000232146848547672 5.4283202379257e-05)
(-5.54427199922588e-05 0.000325307943137087 2.70499366229587e-05)
(-1.45743732327722e-07 0.000266501306295035 0.000236275395235941)
(-1.44689876815225e-06 0.000270571914358878 0.00020739707713638)
(-4.5053236341613e-06 0.000273230525807343 0.000178957278054284)
(-1.0472460072229e-05 0.000274096479621797 0.000150436967455666)
(-2.06484875245593e-05 0.000270441846402182 0.000120181531491142)
(-3.75583127158877e-05 0.000255598110852766 8.78647360428044e-05)
(-6.72279800179522e-05 0.000214034197498506 5.54488400179194e-05)
(-6.13038230757943e-05 0.000300568358554392 2.81751360742503e-05)
(-2.82753288773896e-06 0.000551200661412691 2.28531843284983e-05)
(-2.70577614171872e-06 0.000431300881767709 4.91923874169224e-05)
(-8.48477637158315e-06 0.000510649829461543 2.12589657922184e-05)
(-1.81084924935405e-06 0.00043055928845793 7.970592927172e-05)
(-9.45766779494341e-06 0.000368945816697302 4.85120050752518e-05)
(-1.48096225760112e-05 0.000465534350382303 2.15972236342766e-05)
(-1.32653016276764e-06 0.000410271083506193 0.0001118815520917)
(-5.79708015880615e-06 0.000387546616656787 7.98095248698509e-05)
(-1.76825930986487e-05 0.000328965104143265 4.8932741418105e-05)
(-2.14318641212505e-05 0.000438780436099889 2.24310487201981e-05)
(-8.86605991672293e-07 0.000383582955925687 0.000143835074936217)
(-3.78874146456008e-06 0.000375182808930526 0.000112430636980472)
(-1.1264169623887e-05 0.00035331959457979 8.07833504024835e-05)
(-2.71005460865214e-05 0.000301067890323025 5.02860391846593e-05)
(-2.92597066566747e-05 0.000412615619892099 2.3544195105984e-05)
(-4.66048876737691e-07 0.000354607292957528 0.000174945242673827)
(-2.44162885051416e-06 0.000352091365872928 0.000144412096077136)
(-7.5249509570697e-06 0.000344538889543376 0.000113822799170998)
(-1.79314770786936e-05 0.00032559276307946 8.26789763159156e-05)
(-3.80892942746273e-05 0.000276293199346656 5.16470150493407e-05)
(-3.88809307746234e-05 0.000384311789171102 2.45634576134722e-05)
(-1.6172440228933e-07 0.000324530246921915 0.00020517565135913)
(-1.48760140930325e-06 0.000325206295994874 0.000175434681024345)
(-5.10582841036981e-06 0.000323689217484697 0.000145907086878334)
(-1.25227549043726e-05 0.000318201167353432 0.000116059405632271)
(-2.60122631281146e-05 0.000300698020480536 8.45275482871939e-05)
(-5.08485729907653e-05 0.000253506263869937 5.29738139861259e-05)
(-5.21229071386372e-05 0.000354110404962035 2.5638109163357e-05)
(2.15918279578725e-08 0.000293537465113441 0.000234731404417245)
(-9.01406549951738e-07 0.000296562619074229 0.000205483410915959)
(-3.55472917320911e-06 0.000298462116906154 0.000176816209341396)
(-9.0893803141788e-06 0.000298783833302368 0.000148281209591442)
(-1.88153473919193e-05 0.000294483177334449 0.000118176991027054)
(-3.53373884532228e-05 0.000278270347202957 8.6196412075828e-05)
(-6.50073475692725e-05 0.00023346038645771 5.43917392051539e-05)
(-6.68384171777194e-05 0.000324897033888704 2.81158767755379e-05)
(8.92865657353384e-08 0.000261414880625748 0.000263876038089927)
(-5.92872711778208e-07 0.000266679636238716 0.000234875417303287)
(-2.64757077548947e-06 0.000271184651945229 0.000206797092616649)
(-6.91020951897932e-06 0.000274874195822139 0.000179210432063926)
(-1.4320362853317e-05 0.000276356173421851 0.000150509948712215)
(-2.62427863631368e-05 0.000273094425096755 0.000119968661944201)
(-4.54367420517372e-05 0.000258292964519644 8.75289568111813e-05)
(-7.7958322204746e-05 0.000217202909728915 5.53027578773666e-05)
(-7.35253426378521e-05 0.000285903744080903 2.77283911632363e-05)
(-2.78591142991644e-06 0.000581271476716392 2.22306634123909e-05)
(-2.66228681335555e-06 0.000456025005675204 4.82031783102855e-05)
(-8.31451725530495e-06 0.000540702151914874 2.06093506603193e-05)
(-1.76972775780494e-06 0.000456483222898271 7.82641565057998e-05)
(-9.25674175876199e-06 0.000392337834971797 4.75528863212533e-05)
(-1.44907441307326e-05 0.000495575539777899 2.09269660607245e-05)
(-1.277718145087e-06 0.000436656080942217 0.000110103612696632)
(-5.59959483088196e-06 0.000412949600175533 7.84081883236837e-05)
(-1.72412227955891e-05 0.000351887029625402 4.7976254853642e-05)
(-2.08227031054778e-05 0.000469463007235828 2.17107635823251e-05)
(-8.2280039207221e-07 0.000410192343827631 0.000141861507401734)
(-3.55516146392498e-06 0.000401273338295952 0.000110684364499846)
(-1.07966159290699e-05 0.000378441868335294 7.93923730324525e-05)
(-2.62515009549043e-05 0.000323958578067245 4.93212572374867e-05)
(-2.8121924601166e-05 0.00044396531122282 2.280017372114e-05)
(-3.81832645634348e-07 0.0003814021834874 0.000172897868848921)
(-2.1372227701233e-06 0.000378390959679001 0.000142471341541502)
(-6.97075480115673e-06 0.000370348913926969 0.00011208736032413)
(-1.70343606395108e-05 0.000350564236030675 8.12754284557543e-05)
(-3.66279813115586e-05 0.000299108696490019 5.06583018710112e-05)
(-3.68387078131711e-05 0.000416170611796645 2.37616656120369e-05)
(-5.17814572438328e-08 0.000351582958120828 0.000203177393810292)
(-1.10777460391353e-06 0.000351593160429684 0.000173428745476808)
(-4.43101455748524e-06 0.000349602561332947 0.000143964677335917)
(-1.14918610143038e-05 0.000343701244941688 0.000114306415144102)
(-2.45224663280262e-05 0.000325356036291037 8.30656997159348e-05)
(-4.8527578726431e-05 0.000275939993283463 5.1810244983324e-05)
(-4.72499052860978e-05 0.000385629584707134 2.44842374891641e-05)
(1.57564215919266e-07 0.000320950031549565 0.000232882036122561)
(-4.43160239336055e-07 0.000323025145576598 0.000203479234524655)
(-2.74482824127504e-06 0.000324261516087964 0.000174731158550523)
(-7.90027027384097e-06 0.000324131860750856 0.000146254465863372)
(-1.72000105054713e-05 0.000319335905698102 0.000116315497527414)
(-3.32509932172307e-05 0.000302060589628365 8.46035927692426e-05)
(-6.22183675290075e-05 0.000254267349460778 5.29908600235085e-05)
(-6.31321178750764e-05 0.000353776472129387 2.71361985026926e-05)
(2.57148248251721e-07 0.000289304279663084 0.000262248005954144)
(-5.80679541807506e-08 0.0002932653209266 0.000232896427835868)
(-1.70311428592624e-06 0.000296815571378041 0.000204584063771244)
(-5.53755374861348e-06 0.000299867826985597 0.000176938391256116)
(-1.24949645252093e-05 0.000300845002243228 0.000148313437506671)
(-2.39984351655255e-05 0.000296960823134661 0.000117983087660018)
(-4.29550422878194e-05 0.0002807469569806 8.59247016299516e-05)
(-7.6461350276076e-05 0.000235784389758314 5.45630594609497e-05)
(-7.87001180461136e-05 0.00030684066172535 3.11892921864712e-05)
(2.67217765967142e-07 0.000256249531620236 0.000291638541547805)
(7.82488687686819e-08 0.000262286103593908 0.00026210291817128)
(-1.16499271038994e-06 0.000267979679207425 0.000233930302105764)
(-4.09728618337399e-06 0.000273393432777214 0.000206728565915548)
(-9.47080182408899e-06 0.000277651516837991 0.000178971069514731)
(-1.81869713002397e-05 0.000279519422428697 0.00014996018591524)
(-3.16622127131756e-05 0.000276429884682822 0.000119189372405191)
(-5.28354670722885e-05 0.000261651670047259 8.66999140229929e-05)
(-8.83895728378016e-05 0.000220231423651237 5.39716687359704e-05)
(-8.32074218827338e-05 0.000291437928925094 2.54330645962268e-05)
(-2.7458086954148e-06 0.000610579648898087 2.16012693408005e-05)
(-2.62952354986711e-06 0.0004801261322927 4.71355142271494e-05)
(-8.17286764116095e-06 0.00057004001894803 1.99543434787815e-05)
(-1.73977890863999e-06 0.000481916507444525 7.66758480011231e-05)
(-9.10138899739593e-06 0.00041521779006118 4.65207147408521e-05)
(-1.42259491277416e-05 0.000524963482570509 2.02451277943456e-05)
(-1.24301131861147e-06 0.000462675205729487 0.000108116658973799)
(-5.45163738610044e-06 0.000437959702458597 7.68807603303376e-05)
(-1.69018690751701e-05 0.000374386882313759 4.69627205086947e-05)
(-2.03551780874583e-05 0.000499547457592202 2.09951959887443e-05)
(-7.7677385856903e-07 0.00043656647779229 0.000139622888687221)
(-3.38276212925274e-06 0.000427118381582692 0.00010877539020915)
(-1.04399963545642e-05 0.000403275417056704 7.79018678429204e-05)
(-2.55977698936116e-05 0.000346523529122695 4.83114268677162e-05)
(-2.73145716468891e-05 0.000474816749583195 2.20272974557356e-05)
(-3.18905565901188e-07 0.000408097625121641 0.000170536840980322)
(-1.91175437472128e-06 0.000404599089679014 0.000140329464150685)
(-6.54600669707967e-06 0.000396050642118546 0.000110225735043665)
(-1.63304409076881e-05 0.000375384416052961 7.98069423768753e-05)
(-3.5480105680611e-05 0.000321755007391696 4.96678726056926e-05)
(-3.53944573393088e-05 0.000447739061592262 2.30219539970061e-05)
(3.17064209542668e-08 0.000378665622892601 0.000200816349027455)
(-8.11466356534727e-07 0.000378042536981009 0.000171183814261042)
(-3.89665516534783e-06 0.000375595887659422 0.000141878807229769)
(-1.06668919881951e-05 0.000369278591616799 0.000112482492208671)
(-2.33081272409073e-05 0.000350094801333415 8.16011413983998e-05)
(-4.66567546438804e-05 0.00029857872255998 5.07745752359332e-05)
(-4.48013072338175e-05 0.000418098240635284 2.35578223003237e-05)
(2.6686650441619e-07 0.000348532316042564 0.000230634709179643)
(-7.11768748383264e-08 0.000349729279118486 0.000201250993553285)
(-2.07792867077859e-06 0.000350365357267912 0.000172554329144714)
(-6.90904562847017e-06 0.000349841769554554 0.000144222311702723)
(-1.58221131835921e-05 0.000344638376987084 0.000114507408466863)
(-3.13715004292252e-05 0.000326512305366972 8.30961990692489e-05)
(-5.91966609326191e-05 0.000276451812973834 5.16877536573437e-05)
(-5.48048994992826e-05 0.000385099090128803 2.46951842962197e-05)
(3.96907496818145e-07 0.000317511977528553 0.000260208003331843)
(3.88471980587728e-07 0.000320276711439791 0.000230739634135268)
(-9.01226694804287e-07 0.000322965592421548 0.000202357452331072)
(-4.36628312658199e-06 0.000325452159536053 0.000174743233088458)
(-1.09174926965544e-05 0.000325999537133836 0.000146238292431304)
(-2.20032092732196e-05 0.000321629817379924 0.000116114518178787)
(-4.05246836809937e-05 0.000304270081217502 8.43223617296403e-05)
(-7.35924387843444e-05 0.000255507698803447 5.29884087398874e-05)
(-7.01902860375002e-05 0.000350008128244329 2.92917749861171e-05)
(4.33726403858536e-07 0.000285225272436681 0.000289879416813986)
(6.08726201818914e-07 0.000289690824460484 0.000260034313824401)
(-2.30093217656759e-07 0.000294194838981518 0.000231649925604786)
(-2.72975044792618e-06 0.000298781635211147 0.000204379529037701)
(-7.65412602589655e-06 0.000302445653012447 0.000176658855106526)
(-1.59377272243702e-05 0.000303840869217581 0.000147790827897062)
(-2.90658615582834e-05 0.000300136448557242 0.000117279965222482)
(-5.02654761510389e-05 0.000283804604219548 8.52934231894994e-05)
(-8.69540806262216e-05 0.00023782487288157 5.44207610417501e-05)
(-7.74621650093458e-05 0.000316356490828918 2.85915452624864e-05)
(3.98777251318945e-07 0.000251244303022382 0.000320028779386194)
(6.06437027434788e-07 0.000257719606378885 0.000289546739042773)
(2.34062456211284e-08 0.00026415478585078 0.000260854351289381)
(-1.85637237265525e-06 0.000270652760043477 0.000233573066512275)
(-5.64400033973695e-06 0.000276585938061251 0.000206188836917803)
(-1.20148897054847e-05 0.000281181792727874 0.000178086368321188)
(-2.18721633257824e-05 0.000283231735285274 0.000148758838063691)
(-3.67169247643523e-05 0.000280172033421933 0.000117771501874789)
(-5.97814145406401e-05 0.000265248163986146 8.497659302898e-05)
(-9.88715175968228e-05 0.000222830521600138 5.14419086372996e-05)
(-9.36431688282965e-05 0.000293329871225263 2.29588384237342e-05)
(-2.7064630658768e-06 0.000639045930734925 2.09564749887619e-05)
(-2.60698063217385e-06 0.000503531518610188 4.59930826631587e-05)
(-8.05012317603694e-06 0.000598587632716798 1.92950448984657e-05)
(-1.71679706323118e-06 0.000506765668623031 7.49526065064841e-05)
(-8.97867750389e-06 0.00043750152137076 4.54198216493808e-05)
(-1.39844684853744e-05 0.000553637050042654 1.95603444295662e-05)
(-1.21993727739862e-06 0.000488229529771858 0.000105923742834394)
(-5.34589278497309e-06 0.000462486448450048 7.52250916548925e-05)
(-1.66368075022414e-05 0.000396375719255929 4.58829820752327e-05)
(-1.99533079711445e-05 0.000528944351662266 2.02838535723853e-05)
(-7.46681477634705e-07 0.000462590275558414 0.000137114472641869)
(-3.26039015014507e-06 0.000452602828488837 0.000106683622551434)
(-1.01784904740971e-05 0.000427716820726488 7.62963727473657e-05)
(-2.50928826877834e-05 0.000368650185908475 4.72409511614113e-05)
(-2.67134170004216e-05 0.000504981187362038 2.12553390498488e-05)
(-2.76803582351887e-07 0.000434557779373707 0.000167845654193827)
(-1.7522899133889e-06 0.000430581788202907 0.000137955647164357)
(-6.23224114233887e-06 0.000421504229962688 0.000108205844520083)
(-1.57970465389452e-05 0.000399910952216899 7.82399317810512e-05)
(-3.46064117193269e-05 0.000344048729984732 4.86169775469124e-05)
(-3.44407210923619e-05 0.000478689791133511 2.22035498601534e-05)
(9.16941770932497e-08 0.00040562604047823 0.000198067681458897)
(-5.94277823142861e-07 0.000404402235746149 0.000168659347884003)
(-3.49363792393883e-06 0.000401501987543363 0.000139599710068248)
(-1.00309410213245e-05 0.000394741901179303 0.000110532533154462)
(-2.23584120775354e-05 0.000374674675805423 8.00712635006548e-05)
(-4.52178320278707e-05 0.000321034797681602 4.97583129593488e-05)
(-4.31530889503e-05 0.000449917029616495 2.28027448908496e-05)
(3.50227320950141e-07 0.000376104560314465 0.000227941020128358)
(2.17085420066122e-07 0.000376479857451887 0.000198700886604583)
(-1.55424480440951e-06 0.000376546541302878 0.00017015832859802)
(-6.12290237712222e-06 0.00037563215626801 0.000142047118803683)
(-1.47148002744416e-05 0.000370013234439147 0.00011262199980468)
(-2.98461904964255e-05 0.000351054422742818 8.15867307971265e-05)
(-5.6945832948566e-05 0.000299029732622428 5.06110676617371e-05)
(-5.26323982870036e-05 0.000419340680521139 2.34363795362973e-05)
(5.09039841836465e-07 0.00034583224408184 0.000257673849233011)
(7.5233742928786e-07 0.00034748865497369 0.000228270006265016)
(-2.42904289180084e-07 0.000349386757967108 0.000199959648613416)
(-3.39740781335213e-06 0.000351358240823515 0.000172474330923931)
(-9.59444614668004e-06 0.00035152225298312 0.000144156997359198)
(-2.02864873606985e-05 0.000346749801238883 0.000114283516597787)
(-3.82547638255339e-05 0.00032851889243513 8.27598256772227e-05)
(-6.9727781164207e-05 0.000277351598027345 5.12581241348738e-05)
(-5.9554257543784e-05 0.000385827825971684 2.33929115968469e-05)
(5.72777991345179e-07 0.000314441034704211 0.000287597173882342)
(1.05617462693875e-06 0.000317459531431513 0.000257691155178093)
(5.63900943186537e-07 0.000320874331018415 0.000229272499534682)
(-1.56689709995898e-06 0.000324706730298837 0.000202038912618774)
(-6.0981719169727e-06 0.000327832193616196 0.000174418304020225)
(-1.39848175961372e-05 0.000328817782483122 0.000145721764459519)
(-2.67309375254704e-05 0.000324621331808759 0.000115443821840175)
(-4.76252177089937e-05 0.000306927080626733 8.36967573451933e-05)
(-8.39948089915233e-05 0.000257087821355017 5.28064527938001e-05)
(-6.64421579237557e-05 0.000358892331294624 2.67564545809143e-05)
(5.63239782998121e-07 0.000281520728488043 0.000318066868460251)
(1.13270661741532e-06 0.000286165021720755 0.000287344174220017)
(9.52325974416161e-07 0.000291159025127932 0.000258486880723836)
(-4.91582846982721e-07 0.00029659878729437 0.000231156565546782)
(-3.83117212118939e-06 0.000301752714996304 0.00020380088532372)
(-9.76819901772467e-06 0.000305792761573211 0.000175807231495952)
(-1.92413632395174e-05 0.000307396638700564 0.000146674341190167)
(-3.38452542028448e-05 0.000303704702403044 0.000116010503270935)
(-5.70516920136593e-05 0.000287102053656674 8.4044242782531e-05)
(-9.54914596102868e-05 0.000241065362023994 5.27160900271726e-05)
(-8.2920716756809e-05 0.000319412590606597 2.28491701689409e-05)
(4.90963216258155e-07 0.000246663959169902 0.000349447840554331)
(1.00498053753725e-06 0.000253262339927861 0.000317617818523848)
(9.50024673028635e-07 0.00026008713683063 0.000288005056957158)
(-8.38223885202384e-08 0.000267229488394575 0.000260227635078682)
(-2.60763381178891e-06 0.000274195217989845 0.000232748065982219)
(-7.15902660152319e-06 0.000280408142399999 0.000204982101023174)
(-1.43897590307316e-05 0.000285153415918673 0.000176489526658083)
(-2.52369840099844e-05 0.000287246887136906 0.000146826371851503)
(-4.1323355070324e-05 0.000284091302833048 0.000115515329426565)
(-6.6319809516237e-05 0.000268520380587634 8.2366306033711e-05)
(-0.00010884708798049 0.000222885159285507 4.89058948248958e-05)
(-0.000101254955248136 0.000293515477448667 2.14141131756876e-05)
(-2.67005075004939e-06 0.000666606911295931 2.03049816429493e-05)
(-2.59140962505358e-06 0.000526183752752011 4.47788989866497e-05)
(-7.94018415237126e-06 0.000626278612794553 1.863818961355e-05)
(-1.70188979146459e-06 0.000530948809857023 7.31080805299735e-05)
(-8.88313858972361e-06 0.000459114913899959 4.42581380450427e-05)
(-1.37670728124745e-05 0.000581525953750862 1.88781864268087e-05)
(-1.20548125466925e-06 0.000513228824877477 0.00010354255797845)
(-5.27080000744519e-06 0.000486440647533697 7.34505596724957e-05)
(-1.64233476121935e-05 0.000417772443110309 4.47408011797569e-05)
(-1.95838235647642e-05 0.000557613341168177 1.95712170503451e-05)
(-7.29807469085153e-07 0.000488161019599465 0.000134344941583059)
(-3.17971150898451e-06 0.000477627775201615 0.000104409606052578)
(-9.99453299346718e-06 0.000451676404600768 7.45747379649473e-05)
(-2.46864794399815e-05 0.000390252852356233 4.61064882421888e-05)
(-2.61646309529059e-05 0.00053439327572925 2.05081688999013e-05)
(-2.52067739940971e-07 0.000460662762900799 0.000164826464467139)
(-1.6457520714017e-06 0.000456221669546513 0.000135340362221105)
(-6.01191782929037e-06 0.000446596840955548 0.00010601540806575)
(-1.54086281118045e-05 0.000424039726581624 7.6561045315317e-05)
(-3.39250842651166e-05 0.000365864146463336 4.74936940115603e-05)
(-3.37675820151219e-05 0.000508787488940857 2.13718358652741e-05)
(1.30779218054572e-07 0.000432326773008718 0.000194923603421414)
(-4.43247554613796e-07 0.000430536874055386 0.000165834475076918)
(-3.20583681329948e-06 0.000427180578791373 0.000137104439318018)
(-9.56093017007345e-06 0.000419951601464272 0.000108426364585862)
(-2.16455401467759e-05 0.000398948478635419 7.84423936203221e-05)
(-4.41458637483328e-05 0.000343086491701059 4.86829692952838e-05)
(-4.2177798767102e-05 0.000480915578144222 2.19048648588376e-05)
(4.10291364253218e-07 0.000403511971588002 0.00022478283321355)
(4.29128176720173e-07 0.000403120887332818 0.000195792814846669)
(-1.16514661919678e-06 0.000402640190058647 0.000167499184149337)
(-5.52458162948364e-06 0.000401329923426404 0.000139679311959665)
(-1.38597960816945e-05 0.000395264465646082 0.000110604490936883)
(-2.86644678278112e-05 0.000375426391177698 8.00120509247873e-05)
(-5.52663175817686e-05 0.000321354134062788 4.95547663900218e-05)
(-5.1452549277378e-05 0.000451437248930185 2.24512159434139e-05)
(5.94707287237241e-07 0.000374083274881473 0.000254605788807882)
(1.03420018106342e-06 0.000374710527182202 0.0002253947287805)
(2.71810936429778e-07 0.000375865128946008 0.000197262777466541)
(-2.63404816882319e-06 0.000377340519706316 0.000169987345316219)
(-8.54201493105133e-06 0.000377118314895915 0.000141923804666194)
(-1.89065569530807e-05 0.000371933374034816 0.000112362970261029)
(-3.64502684148439e-05 0.00035289953703904 8.12183242950388e-05)
(-6.72145975254657e-05 0.000300121396072189 5.01908957440316e-05)
(-6.06140656533633e-05 0.000417397653444939 2.26421017004512e-05)
(6.84393484777207e-07 0.000343692085001197 0.000284717981084586)
(1.42033202241436e-06 0.000345372032742651 0.000254941696191778)
(1.21410949578102e-06 0.000347779924331509 0.000226638960041861)
(-6.08785461570473e-07 0.000350915912892661 0.000199548553030977)
(-4.80477463227776e-06 0.000353542269525117 0.000172104122982098)
(-1.23397807997505e-05 0.000354155493832281 0.000143631854533823)
(-2.46998368856132e-05 0.000349559110093315 0.000113611762882832)
(-4.49965935939828e-05 0.000330944306868417 8.2007037224494e-05)
(-7.98077114436908e-05 0.000278570476155881 4.99965758871567e-05)
(-6.6966841199801e-05 0.000388133279349903 1.91031098889288e-05)
(7.01090510127603e-07 0.000311936541561289 0.000315463013626102)
(1.577996467482e-06 0.000314892722597295 0.00028476134230154)
(1.73951228418314e-06 0.000318560350189778 0.000255930335642909)
(6.67897436587293e-07 0.000323024986654049 0.000228667612426218)
(-2.28480209510205e-06 0.000327457824158774 0.00020141749848775)
(-7.83763948042929e-06 0.00033098587356386 0.000173581413048753)
(-1.69471376215206e-05 0.000332196796572908 0.000144658296375455)
(-3.12393413812968e-05 0.000327973169991779 0.000114241404702348)
(-5.42895985633858e-05 0.000309791668331921 8.25585558653262e-05)
(-9.225203967591e-05 0.000259764035205978 5.15147932743065e-05)
(-7.85579531363942e-05 0.000341900390019574 2.23536912885972e-05)
(6.52850722084631e-07 0.000278429890526831 0.000347188358604642)
(1.52664984941274e-06 0.000282951822825211 0.00031521412023351)
(1.87401916810937e-06 0.000288086091150581 0.000285507221168168)
(1.27793598506528e-06 0.000293924126952009 0.000257727330505378)
(-7.95419710516711e-07 0.000299882961486113 0.000230295914343547)
(-4.91233072618863e-06 0.000305360917980858 0.000202632850401498)
(-1.17491916100571e-05 0.000309586910693528 0.000174302642975503)
(-2.22803852663081e-05 0.00031125277813126 0.000144877185508052)
(-3.82103293178975e-05 0.000307453975145398 0.000113994217219154)
(-6.30874120416385e-05 0.000290391484077646 8.18053298641127e-05)
(-0.000104145920968631 0.000241772606286854 4.89805431149215e-05)
(-9.44313398119538e-05 0.00032038207700344 2.11676001775912e-05)
(5.47858714086879e-07 0.000242823707127613 0.000380232538370095)