/*--------------------------------*- C++ -*----------------------------------*\
  =========                 |
  \\      /  F ield         | OpenFOAM: The Open Source CFD Toolbox
   \\    /   O peration     | Website:  https://openfoam.org
    \\  /    A nd           | Version:  12
     \\/     M anipulation  |
\*---------------------------------------------------------------------------*/
/*   Windows 32 and 64 bit porting by blueCAPE: http://www.bluecape.com.pt   *\
|  Based on Windows porting (2.0.x v4) by Symscape: http://www.symscape.com   |
\*---------------------------------------------------------------------------*/
FoamFile
{
    format      ascii;
    class       volScalarField;
    location    "400";
    object      k;
}
// * * * * * * * * * * * * * * * * * * * * * * * * * * * * * * * * * * * * * //

dimensions      [0 2 -2 0 0 0 0];

internalField   nonuniform List<scalar> 
10166
(
1.49802263313564e-08
1.51798155170124e-08
1.46702234651166e-07
1.64584836446424e-07
1.5344800208245e-08
1.49206340671771e-07
1.66887447775916e-07
5.68103810534688e-07
2.65466297116112e-06
5.96081601221889e-07
1.54259353858039e-08
1.51778283817758e-07
1.682149250304e-07
5.7955659833286e-07
2.69941824344885e-06
6.01863515536152e-07
1.42532991404842e-06
9.80942135625189e-06
9.48076820892219e-06
1.41180533571181e-06
1.54041611323318e-08
1.53241492210486e-07
1.68498480431524e-07
5.88797367709381e-07
2.72860377341471e-06
6.03559223302582e-07
1.45078484653345e-06
9.94846923417626e-06
9.57279450913668e-06
1.41961054335017e-06
2.65529878519846e-06
2.07058476965331e-05
2.88622330271311e-05
1.96982054482431e-05
2.53949854474814e-06
1.52908884377694e-08
1.53608020986054e-07
1.67714065254527e-07
5.92435877684171e-07
2.73862032254496e-06
6.01144319498323e-07
1.46605535107922e-06
1.00185174214396e-05
9.60054473956146e-06
1.41767117843921e-06
2.69410597144197e-06
2.09132909599762e-05
2.90406695476556e-05
1.97770790070635e-05
2.55041812601729e-06
4.11970681087729e-06
3.32597408565828e-05
5.14533151647377e-05
5.01160200264287e-05
3.10694905810196e-05
3.87459954083137e-06
1.50885892741089e-08
1.53185262167072e-07
1.65991413560366e-07
5.91667638994142e-07
2.73171513678529e-06
5.95175742731708e-07
1.46801899765905e-06
1.00214980166875e-05
9.57120024132987e-06
1.40605087570705e-06
2.71054767833633e-06
2.09855754408899e-05
2.90523620883778e-05
1.97479952372212e-05
2.54324492030707e-06
4.16634085015927e-06
3.34934208506939e-05
5.16677018658981e-05
5.02496222633732e-05
3.11416121899893e-05
3.89287022338157e-06
5.73984337228345e-06
4.61028626338269e-05
7.3819622475041e-05
8.02892379727256e-05
7.08954727031732e-05
4.22504085734939e-05
5.32918412371871e-06
1.47894006712389e-08
1.52029757551848e-07
1.63374499881017e-07
5.87427532367516e-07
2.71111229925939e-06
5.86176595268012e-07
1.45916170113572e-06
9.96820276312933e-06
9.49414767651043e-06
1.38642718277969e-06
2.70455389551667e-06
2.09344131474618e-05
2.89234748364915e-05
1.96223977529507e-05
2.51895915181482e-06
4.17812094591422e-06
3.3534285173835e-05
5.16334355632763e-05
5.01607525963783e-05
3.1058179086941e-05
3.88195082802647e-06
5.78859294974962e-06
4.63325285170075e-05
7.4045978593602e-05
8.0466478592574e-05
7.10196117084736e-05
4.23428760240061e-05
5.35888576630747e-06
7.45837606782344e-06
5.86342196680611e-05
9.5051456180739e-05
0.000108800623344227
0.000107282692485172
9.0474685856928e-05
5.25213303524844e-05
6.82835482439878e-06
1.43804351932582e-08
1.50033729611301e-07
1.59814678814779e-07
5.79865667807909e-07
2.67760211529302e-06
5.74327705475285e-07
1.44070474805341e-06
9.86601763984657e-06
9.37561494466521e-06
1.35983220536672e-06
2.67933991376728e-06
2.07751927035502e-05
2.86706098401836e-05
1.94126930636436e-05
2.47992942156302e-06
4.1576739587779e-06
3.33981946409589e-05
5.13786571857764e-05
4.98708008641835e-05
3.08348706483709e-05
3.84420800068857e-06
5.79049647758989e-06
4.63221500091206e-05
7.39578307608386e-05
8.03288811939116e-05
7.08641669631574e-05
4.22264818423371e-05
5.34718692348596e-06
7.50657573456252e-06
5.88445984439783e-05
9.52746363985288e-05
0.000108998258244171
0.000107450030297871
9.06171037394544e-05
5.26645887569951e-05
6.86961894017929e-06
9.21632146057659e-06
7.06162883467203e-05
0.000115056260971581
0.000135652859984592
0.000140867592914416
0.000132840373633573
0.000108813612967885
6.20398458097847e-05
8.24927835872185e-06
1.38455098939698e-08
1.47024713744522e-07
1.55219774260977e-07
5.68704672224373e-07
2.63031284745873e-06
5.59578194228996e-07
1.41292883334027e-06
9.71710954908756e-06
9.21784936786377e-06
1.32666952302662e-06
2.63628469204457e-06
2.05171945547575e-05
2.83041590069357e-05
1.91257852026327e-05
2.42783350521884e-06
4.10902264040049e-06
3.31014471758872e-05
5.09206736690256e-05
4.93937357025066e-05
3.04857770911401e-05
3.78305078533538e-06
5.75037412130773e-06
4.6087597921658e-05
7.35800747505363e-05
7.98970918614097e-05
7.04449881040761e-05
4.19220561840286e-05
5.29631430980105e-06
7.49633422836704e-06
5.8773917618766e-05
9.51255860776707e-05
0.000108801580819709
0.000107237291295692
9.0418538302985e-05
5.2545072477788e-05
6.8553908164738e-06
9.26339931485135e-06
7.08070410731619e-05
0.000115270355276478
0.000135857014638359
0.000141055402613619
0.000133012468966581
0.000108981169246808
6.22298393048361e-05
8.29246742089952e-06
1.0970438662759e-05
8.19384370140309e-05
0.000133855768553055
0.00016094106530372
0.00017229310950799
0.00017115124532181
0.000157097340352092
0.000126136790284276
7.0618415808279e-05
9.45370242743186e-06
1.31684956040306e-08
1.49480467261437e-07
1.4277378872619e-07
5.53460210424329e-07
2.56758906405299e-06
5.41789453417921e-07
1.3755764041814e-06
9.52030323311939e-06
9.02044695831484e-06
1.28702826253301e-06
2.57565445722712e-06
2.01639893988882e-05
2.78293309377451e-05
1.87649336187333e-05
2.36351996979678e-06
4.0337408533448e-06
3.26536083549705e-05
5.02708217656025e-05
4.87391958061572e-05
3.00189565162524e-05
3.70038817271238e-06
5.67333753028517e-06
4.56452051277961e-05
7.29277643685752e-05
7.91838231734756e-05
6.97744348312605e-05
4.14466688544524e-05
5.21083837181296e-06
7.43455886509469e-06
5.84393987166102e-05
9.46255024860178e-05
0.000108228500833343
0.000106656245395979
8.98914071552559e-05
5.21834958599204e-05
6.78584009368552e-06
9.24054060283277e-06
7.06797915205834e-05
0.000115058539184108
0.000135593926480717
0.000140770761470553
0.000132733090709819
0.000108740748066651
6.20981484796869e-05
8.26783260353187e-06
1.1016611120046e-05
8.21148375358794e-05
0.000134061623277512
0.000161147170273015
0.000172489434143704
0.000171336662601433
0.000157274266123357
0.000126324716690488
7.08249676077845e-05
9.4778333301456e-06
1.27020025971647e-05
9.25583739680179e-05
0.000151506981487241
0.000184753267050579
0.000201837522307607
0.000206586648927754
0.000199926929855493
0.00018027414169217
0.000142680982460419
7.81566356307059e-05
1.00964950545233e-05
1.23403008718589e-08
1.42508346557468e-07
1.37034771974921e-07
5.20792028590241e-07
2.48739196802002e-06
5.33576239940691e-07
1.32807965389878e-06
9.27290151581815e-06
8.78183848273836e-06
1.24092001169967e-06
2.49723008162419e-06
1.97155317254001e-05
2.72479051801705e-05
1.83315977191103e-05
2.28748103010589e-06
3.93197872165636e-06
3.20589087605822e-05
4.94354347531882e-05
4.79132917797234e-05
2.94389640803247e-05
3.5972135190499e-06
5.56063855628546e-06
4.50041734996429e-05
7.20105336152424e-05
7.81990606722991e-05
6.8861549666541e-05
4.08084853832209e-05
5.09265632401207e-06
7.32685973212735e-06
5.78560187509841e-05
9.37877659656049e-05
0.000107289595665935
0.000105716728368805
8.9048229485422e-05
5.1603273467836e-05
6.66658982731855e-06
9.15729907686851e-06
7.02528901052266e-05
0.000114440126190352
0.00013487919781242
0.000140023962861556
0.000132008652264221
0.000108102698239973
6.16622901593588e-05
8.1686531540565e-06
1.09823450828042e-05
8.19382278230406e-05
0.000133791175585769
0.000160817925129518
0.000172127899420926
0.000170968450610115
0.000156924229233948
0.000126031259198837
7.06459463548598e-05
9.42912672134578e-06
1.27487090367672e-05
9.27239944007827e-05
0.00015170891364828
0.00018496164547975
0.000202038984971606
0.000206777491962658
0.000200106576234443
0.000180447804693204
0.000142869869937479
7.82975899120334e-05
1.00494483608125e-05
1.44041310002239e-05
0.000102514684684861
0.000168081489500623
0.000207184179785561
0.000229697625016956
0.000239738199821342
0.000239012699220443
0.000227423045292535
0.000202685060174394
0.000158929123591672
8.55227479112956e-05
1.03084678510976e-05
1.13663280021176e-08
1.34269845791352e-07
1.29635436999945e-07
4.96451606800862e-07
2.38776505195541e-06
5.08578705728309e-07
1.18844003159582e-06
8.49948149426026e-06
8.97139088207018e-06
1.2699453860855e-06
2.40077092683523e-06
1.91698010433156e-05
2.65599057742827e-05
1.78258257309442e-05
2.19985003441832e-06
3.80380692992016e-06
3.13183532376614e-05
4.84180270288289e-05
4.69204832507538e-05
2.87498129302827e-05
3.47492243921741e-06
5.41263378541562e-06
4.41681326801208e-05
7.08350882789637e-05
7.69491729178852e-05
6.771341467319e-05
4.00125518727033e-05
4.94253302667792e-06
7.17466654026321e-06
5.70313923359199e-05
9.26211429263476e-05
0.000105992589037981
0.00010442724819048
8.78978982150479e-05
5.08117683807886e-05
6.50003933450631e-06
9.01961577232586e-06
6.95402103133459e-05
0.000113427218455802
0.000133722616526876
0.000138823328906628
0.000130847647900231
0.000107079896492762
6.09481416722028e-05
7.99954087215382e-06
1.08787084415218e-05
8.14297302837387e-05
0.000133063421570598
0.000159967901791881
0.000171218446238063
0.000170051896891897
0.000156050522174667
0.00012526519823247
7.00953890268164e-05
9.29193421450012e-06
1.27043080635891e-05
9.25058516155218e-05
0.000151385929301464
0.000184570485235086
0.000201603161571218
0.00020632045969491
0.000199650279040972
0.000180015984611483
0.000142498548143103
7.80119409095691e-05
9.96288386377613e-06
1.44523883522135e-05
0.000102678998828096
0.00016828465427889
0.00020739655355885
0.000229904490911899
0.000239932798473334
0.00023919262200505
0.000227588034303408
0.000202841543051543
0.000159074258509333
8.54489158222421e-05
1.01637583490928e-05
1.60725336697398e-05
0.000111875353819207
0.000183644615226864
0.000228312608706374
0.000256003863227167
0.00027096195145818
0.000275310339430844
0.000269842905465609
0.000253896966713027
0.000224830475695219
0.000176423119625956
0.000100570534463171
1.02747848744509e-08
1.24815353396024e-07
1.2056891061153e-07
4.68806814370198e-07
2.26765487222117e-06
4.78296306182851e-07
1.12975799115384e-06
8.17112572392561e-06
8.61252010111785e-06
1.20099811271056e-06
2.10132358185236e-06
1.72467485686634e-05
2.57643408050589e-05
1.85241673676178e-05
2.28625818648135e-06
3.64955683445529e-06
3.04314827794511e-05
4.72206308972832e-05
4.57644820362724e-05
2.79514688245405e-05
3.33319296753027e-06
5.22991176357726e-06
4.31390378235716e-05
6.94057154798408e-05
7.54398320393905e-05
6.6336619061453e-05
3.9068113629657e-05
4.76364009825437e-06
6.97867253483884e-06
5.59689511713602e-05
9.11317108946371e-05
0.000104345074324814
0.000102795306068501
8.64479472544315e-05
4.98127966859236e-05
6.28702046064114e-06
8.82908775735429e-06
6.85488341382471e-05
0.000112027652750636
0.000132132053756631
0.000137176592561518
0.000129258254144609
0.000105680737294615
5.99618144864673e-05
7.76552282235808e-06
1.0712148662872e-05
8.060292561434e-05
0.000131889741217225
0.000158606592797671
0.0001697688507041
0.000168593791399508
0.000154660538830087
0.000124038705830363
6.91903161347606e-05
9.06098742355148e-06
1.25814125211947e-05
9.19285783419891e-05
0.000150557498860204
0.000183594068652259
0.000200540060950135
0.000205221334945374
0.000198560038236646
0.000178979531140295
0.000141575359893701
7.73073120252634e-05
9.76752309535514e-06
1.43987160007874e-05
0.000102428852732363
0.000167917268949394
0.000206949062720305
0.000229399987216885
0.000239392362139121
0.000238636291345987
0.000227034655534899
0.00020231221089863
0.000158584358887615
8.49354353784656e-05
1.00210384952693e-05
1.61228928820684e-05
0.000112042496553991
0.000183852357171381
0.000228531564422844
0.000256217615778503
0.000271161555393112
0.000275491527910679
0.00027000332866838
0.000254036081675772
0.000224947494331231
0.000176453714928602
0.000100106056529801
1.77037428167627e-05
0.000120687419502928
0.000198267079372756
0.000248211003285898
0.000280850970662059
0.00030047009898144
0.000309389728922165
0.000308901702775967
0.00029926782689167
0.000279599501656185
0.000247517897158428
0.000199735802823988
9.10115627495359e-09
1.14317826135681e-07
1.10050250337699e-07
4.38072215581961e-07
2.12716409740924e-06
4.4294897930102e-07
1.06527770711643e-06
7.79649528122123e-06
8.19489852143137e-06
1.12161322354073e-06
1.99338931672562e-06
1.65962409411971e-05
2.48604111743386e-05
1.7776673957361e-05
2.15418695397148e-06
3.17389210985604e-06
2.70456240280909e-05
4.44488350020399e-05
4.58447297651815e-05
2.93976960388684e-05
3.46995326351338e-06
5.01352621239749e-06
4.19182015758446e-05
6.7725702881616e-05
7.36764531434553e-05
6.47369013990824e-05
3.79688320089724e-05
4.55107645068371e-06
6.73999102243496e-06
5.46712511696524e-05
8.93240562866075e-05
0.000102353446957768
0.000100828431848048
8.47072783906767e-05
4.86264776296498e-05
6.03548182657357e-06
8.58664597746289e-06
6.72825431214784e-05
0.000110246959083172
0.000130114836337673
0.000135091356675784
0.000127248488152981
0.000103912466570516
5.87069896530979e-05
7.46872640491099e-06
1.04845626792145e-05
7.94645037618564e-05
0.000130277733691919
0.000156741684194167
0.00016778658890356
0.000166601655241979
0.000152761841146099
0.000122359041378409
6.7937312159443e-05
8.74949199281264e-06
1.23871552731183e-05
9.10040441684404e-05
0.000149235513610169
0.000182042018514206
0.00019885748167768
0.000203486428955436
0.000196841260202566
0.000177344227857307
0.000140107730265875
7.61522623926415e-05
9.46699879709734e-06
1.42576784453075e-05
0.000101790910928216
0.00016699957813644
0.000205856232341548
0.000228194378709112
0.000238123320095224
0.000237346373659106
0.000225762080350669
0.000201095577679847
0.000157468043143429
8.4034606359123e-05
9.73519382270823e-06
1.60612834290298e-05
0.000111765751207994
0.000183446380941649
0.000228034079093327
0.000255650878262857
0.00027054521991248
0.000274844014617587
0.000269341255236217
0.000253374736630597
0.000224297940140288
0.000175773632936377
9.90527960526934e-05
1.7756967896654e-05
0.000120859588163666
0.000198481753407358
0.000248438510496992
0.000281073565687478
0.0003006769800081
0.000309574947831581
0.000309061690310382
0.000299399995624289
0.00027970147428228
0.000247578339849664
0.000199649068092296
0.000154126100671018
1.92928211014843e-05
0.000128986736917628
0.000212009715575755
0.00026694790663625
0.000304317081684961
0.000328396121094306
0.0003415833128742
0.000345427827797103
0.000340691867408728
0.000327358869230649
0.000304658953946034
0.000271390802372193
7.88649882376479e-09
1.02982576641326e-07
9.83724459738802e-08
4.04520046675305e-07
1.96764500113319e-06
4.03315287380077e-07
9.95673430019723e-07
7.37630802641046e-06
7.71893156922604e-06
1.03286389564952e-06
1.87692089975997e-06
1.58779207660325e-05
2.38488886000912e-05
1.69276864566561e-05
2.00585828652774e-06
3.00319708491928e-06
2.604499525361e-05
4.29788178629758e-05
4.42922114175351e-05
2.82173384284034e-05
3.26622592821751e-06
4.30982215405416e-06
3.67174114876589e-05
6.29221868995742e-05
7.16648450480028e-05
6.579827140584e-05
4.05071467539002e-05
4.76462796757034e-06
6.46041655394617e-06
5.31416329326591e-05
8.72023237008503e-05
0.000100023954118417
9.85345336605524e-05
8.26807177758971e-05
4.72156651335823e-05
5.72109733527782e-06
8.2935611237175e-06
6.57441681074102e-05
0.000108089900949683
0.000127677441127473
0.000132575550541365
0.000124827261274279
0.000101785993226821
5.72256756510408e-05
7.13076899088033e-06
1.01971716160752e-05
7.80182236262518e-05
0.000128232988876968
0.000154380136992867
0.000165279040615559
0.000164083538341898
0.000150362205397272
0.000120232212202141
6.63444818115022e-05
8.36153578808857e-06
1.21236850653073e-05
8.97383331879398e-05
0.000147427784063396
0.000179922134786806
0.00019656296561591
0.000201123004673123
0.000194500834005236
0.000175116221826028
0.000138101071153441
7.45627930564295e-05
9.08183996889169e-06
1.40371890064448e-05
0.000100777332027433
0.00016554282903811
0.000204128006839701
0.000226295740017375
0.000236132084737981
0.000235327771511003
0.000223773954151073
0.000199194455711265
0.000155715294484286
8.25742215885815e-05
9.36421605299179e-06
1.59032913623301e-05
0.000111073461070279
0.000182448095302415
0.000226835111199281
0.000254314251865208
0.000269119894672152
0.00027337128409445
0.000267856505663692
0.000251909158886574
0.000222878220269798
0.000174406715247435
9.78300870137842e-05
1.76885129271355e-05
0.000120560568959862
0.000198042241302726
0.000247896631672796
0.000280451063670757
0.000299992489339773
0.000308845750240715
0.000308303184204299
0.000298625414743124
0.000278920446402707
0.000246781406247511
0.000198712736892737
0.000152922960811772
1.93494879770137e-05
0.000129165453408765
0.000212232856529275
0.000267185533300658
0.000304550294269942
0.000328612673910033
0.000341775812380821
0.000345591685302102
0.000340823897515524
0.000327456907588025
0.000304725108912899
0.000271426736529002
0.000230373893804135
0.00019692310716539
2.08315952601744e-05
0.000136799249610045
0.000224922853977294
0.000284584424669241
0.000326469650962281
0.000354833477435596
0.000372086641214777
0.000379899325273173
0.000379295299714466
0.000370689926518056
0.000353995173706949
0.000328748655778791
6.67798070722984e-09
9.1091644862741e-08
8.59052382811733e-08
3.68509929637941e-07
1.79091457119772e-06
3.6037331714256e-07
9.20996307904015e-07
6.90939502344992e-06
7.18728427407581e-06
9.36580014232907e-07
1.75334452864876e-06
1.50943930676663e-05
2.27302723964131e-05
1.59796496409197e-05
1.84361417817216e-06
2.82127553510742e-06
2.49588218243014e-05
4.13601006058077e-05
4.25662387704361e-05
2.68932678287242e-05
3.04073459045226e-06
4.06208078955209e-06
3.53564073170764e-05
6.09059265675753e-05
6.94117337748818e-05
6.36273743461482e-05
3.89083196939171e-05
4.4854018789164e-06
5.35758177076704e-06
4.55788498278258e-05
8.03808836884572e-05
9.59232871238285e-05
9.73634664451446e-05
8.47709639936949e-05
5.1382708650337e-05
6.14122191553049e-06
7.95138420498816e-06
6.39384803747206e-05
0.000105561564081877
0.000124826232618415
0.000129637961604333
0.000122004209486057
9.92988568193859e-05
5.53929204101264e-05
6.66949026886723e-06
9.85153934322709e-06
7.62669650769669e-05
0.000125760137965939
0.000151528542530383
0.000162254258972194
0.000161048501007631
0.000147471060225019
0.000117670450580864
6.45054410643151e-05
7.94475751447412e-06
1.17928566657661e-05
8.81355538659534e-05
0.000145139776848884
0.000177241448185494
0.00019366431225829
0.000198139170600072
0.000191546679143673
0.000172301792955163
0.000135559575787211
7.25582000312176e-05
8.60773421378334e-06
1.37396438657831e-05
9.93943893058839e-05
0.000163554751088502
0.000201772468344078
0.000223711874458216
0.000233426003250132
0.000232587205360586
0.000221075919140749
0.0001966123464467
0.000153328222989103
8.05864951633602e-05
8.92535358514309e-06
1.56578176340271e-05
0.000109978656692261
0.000180869412069272
0.000224944856319944
0.000252216127215616
0.000266892263421205
0.000271078380627312
0.000265552433723672
0.000249640905744887
0.00022068571109127
0.000172305480931417
9.59375242405731e-05
1.75148152956337e-05
0.000119819632420665
0.0001969709337722
0.000246600974847782
0.000278994423124185
0.000298423982602254
0.0003072062584584
0.000306626949403366
0.000296941048464743
0.000277250270221945
0.00024513171393525
0.000197035828731743
0.000151123707350627
1.92749995088985e-05
0.000128847598656699
0.000211764112459782
0.000266604306124131
0.000303877970913953
0.000327867277300347
0.000340973904468994
0.000344747996113307
0.000339950988997898
0.000326564441497005
0.000303814404539085
0.000270463360299344
0.000229278078235481
0.000195843876336494
2.08928582476735e-05
0.000136985447675524
0.000225155444448297
0.000284833266505487
0.000326714906027811
0.00035506177315235
0.000372289422903578
0.000380071099373154
0.00037943253027829
0.000370791069941566
0.000354067084755177
0.000328818845552018
0.000295019033706487
0.00025730483900001
0.000223195746195364
2.23077274303247e-05
0.000144140967605534
0.000237046470889928
0.00030117261043841
0.000347366399527539
0.000379852227652252
0.00040102050100494
0.000412586869648407
0.00041570552251253
0.000411013412246456
0.00039873344776336
0.000378779898054096
5.52167028696852e-09
7.90148613275106e-08
7.31676840617551e-08
3.30794557573363e-07
1.60039446669137e-06
3.15423818327527e-07
8.42098647444015e-07
6.39587388723024e-06
6.60407489007817e-06
8.35039606058907e-07
1.62115795739337e-06
1.42365244266366e-05
2.15031225948685e-05
1.493827528709e-05
1.67087410043978e-06
2.63020993043757e-06
2.37933078479498e-05
3.95965046266518e-05
4.06698370579379e-05
2.54316934162597e-05
2.79720562482323e-06
3.80112478674741e-06
3.38959886689865e-05
5.86993809773214e-05
6.69244816705965e-05
6.12190033862089e-05
3.71269756943958e-05
4.17945891031399e-06
5.01712272979126e-06
4.38503993117626e-05
7.78369188388363e-05
9.30064918905073e-05
9.43800551684278e-05
8.20351397879904e-05
4.93985689420863e-05
5.78586665179014e-06
6.12238488108898e-06
5.32082605116716e-05
9.64716104105914e-05
0.000118793847702306
0.000126288908249595
0.000121568577724656
0.000102667632607875
6.18678912131053e-05
7.56321292220398e-06
9.45002042371521e-06
7.421396334299e-05
0.000122862511582077
0.000148193236186123
0.000158721307314912
0.000157507395847614
0.000144098238286571
0.000114646679342624
6.2074606751614e-05
7.30015655829263e-06
1.13969389853665e-05
8.61972598565956e-05
0.000142376770010156
0.000174006863360079
0.000190169655583027
0.000194544040605555
0.000187988345524449
0.000168909341447028
0.000132497011280909
7.03481955312669e-05
8.13977620710834e-06
1.33671603917529e-05
9.76469203661863e-05
0.000161042035736658
0.000198796791725393
0.000220450697587859
0.000230013291070618
0.000229132762887981
0.000217674909163461
0.000193351918601926
0.000150309361492671
7.81041964178716e-05
8.38478280887574e-06
1.53275654879293e-05
0.000108487889606188
0.000178718427791954
0.000222371678055143
0.000249364586736058
0.000263869903764668
0.000267972206259635
0.000262434886260233
0.000246573592775708
0.000217719102451903
0.000169463483665852
9.33759815354749e-05
1.72457940147388e-05
0.00011865047849769
0.000195280288605941
0.000244562134691781
0.00027671232435152
0.000295978435083974
0.00030466185247765
0.000304036717351547
0.000294348819257745
0.000274690538206505
0.000242620085281677
0.000194532336213672
0.000148569870534811
1.90870082743964e-05
0.000128063048064943
0.000210626551341202
0.000265220441331
0.000302311448156443
0.00032616760315216
0.000339182166811919
0.000342898281594194
0.00033807129419016
0.000324676527473977
0.000301929419736297
0.000268565666194641
0.000227348204170713
0.000193967433662542
2.08134293951131e-05
0.000136651359334165
0.000224661074003979
0.000284217117581788
0.000325998082891104
0.000354261944726168
0.000371422780139786
0.000379152075755123
0.000378473577706421
0.000369802325054029
0.000353053694236237
0.0003277683420671
0.000293878888062724
0.000256140168945782
0.000222043677511863
2.23776457074074e-05
0.000144335365286099
0.000237288877889997
0.000301433246585139
0.000347624682307769
0.000380093861913142
0.000401236005390621
0.000412769982279724
0.000415852369122469
0.000411122897731831
0.00039881493188394
0.000378869451841107
0.000351042231640923
0.000316329599861636
0.000279244966280598
0.00024179564877152
2.37140213413979e-05
0.000151019140320355
0.000248410635738845
0.000316755334489751
0.000367055888156879
0.000403506632189235
0.00042846283507597
0.00044364467222384
0.000450263390652742
0.000449070606125569
0.000440450403996136
0.000424513938140183
4.44678293142504e-09
6.71096699430863e-08
6.07140293564847e-08
2.92320632617539e-07
1.40145957480686e-06
2.70093185405205e-07
7.60853811043331e-07
5.84195055831399e-06
5.97747708532868e-06
7.31233745390176e-07
1.48371170842709e-06
1.33043568489273e-05
2.01682114549264e-05
1.38114047492608e-05
1.4914555779578e-06
2.42442293028528e-06
2.25204089869378e-05
3.76830890874802e-05
3.8606984674046e-05
2.38424756157339e-05
2.54045255429094e-06
3.52981124850244e-06
3.23403106166479e-05
5.63126787436535e-05
6.42081578622307e-05
5.85798579098746e-05
3.51732197339513e-05
3.85195757853625e-06
4.65650616812117e-06
4.20080256908253e-05
7.50636898138897e-05
8.97948871340662e-05
9.10843448928137e-05
7.90014699557716e-05
4.71972702381521e-05
5.39918036633336e-06
5.68039031274055e-06
5.10463857540009e-05
9.3369268892549e-05
0.00011521633053627
0.000122540065307703
0.000117912922939032
9.94141294966528e-05
5.95383426764325e-05
7.13289654004738e-06
6.52463275181882e-06
5.90679077024958e-05
0.000111195087645466
0.000140264652960404
0.000153474502399683
0.000154690511303373
0.000144381982618442
0.000119547034856603
7.18646800054486e-05
8.99655467460752e-06
1.09386917871279e-05
8.39248272245311e-05
0.000139143784301732
0.000170225576514288
0.00018608804252979
0.000190348531751219
0.000183837948711352
0.000164944894918426
0.000128822923023162
6.71028668910766e-05
7.27990701167254e-06
1.29226100310464e-05
9.55380640196862e-05
0.000158011455939695
0.000195208287008467
0.000216520573945584
0.000225903222770937
0.000224974200316239
0.000213579908214415
0.000189416253773472
0.000146676926541065
7.55589605944933e-05
7.85211502559318e-06
1.49149652197296e-05
0.000106606228319852
0.000176001614467771
0.000219123208946569
0.000245767722238737
0.000260061219350901
0.000264061129029674
0.000258511466143513
0.000242711653698923
0.000213975449540129
0.000165879686687596
9.01867992906415e-05
1.68844411156146e-05
0.000117060115042435
0.000192978677852996
0.00024178874457141
0.000273613104066452
0.000292663698213183
0.000301219773186264
0.000300538850035389
0.000290853422086856
0.000271241901458037
0.000239236992043847
0.000191163320522409
0.00014515176165029
1.87959948863564e-05
0.000126826070591427
0.000208833073628957
0.000263044867613668
0.000299859662329611
0.000323520873582739
0.000336406320582358
0.000340046819724101
0.000335187647483513
0.000321794667731534
0.000299070066026896
0.000265722243935565
0.000224515524045551
0.000191231312191388
2.06123370491349e-05
0.000135827531884604
0.000223463366825369
0.000282752662834412
0.000324330834605671
0.000352441906240661
0.000369491600799818
0.000377144309913687
0.000376417566578119
0.000367720460568699
0.000350960289138059
0.000325663682677293
0.000291759065268729
0.000254040587822617
0.000219997190716736
2.22950732155212e-05
0.000143987319694491
0.000236771882197842
0.000300785984365559
0.000346868043803522
0.000379245289956752
0.000400311535825028
0.000411784008722414
0.000414817511948235
0.000410049885490681
0.000397710676860126
0.000377727244419158
0.00034981694828005
0.000315076255144683
0.000277973736070401
0.000240531643466646
2.37855939396145e-05
0.000151222408325279
0.000248662511675481
0.000317027750965387
0.000367327694370533
0.000403762697311081
0.00042869288379022
0.000443841791736719
0.000450423376240065
0.000449192628219903
0.000440545514058046
0.000424622994019592
0.000401374897518462
0.000370852222027045
0.000334939748735054
0.000296249037168456
0.000254851133082084
2.50563644005996e-05
0.000157438449082298
0.000259035940112087
0.000331366700116691
0.000385578370382874
0.000425839631969581
0.000454465947896146
0.000473161062536753
0.000483151952321385
0.000485244525007963
0.000479913266652133
0.00046738330231332
3.48023515141322e-09
5.56307288783736e-08
4.89565935149679e-08
2.53794084197177e-07
1.20012356944204e-06
2.25753955195637e-07
6.78851001255816e-07
5.25655091456002e-06
5.31885239522134e-06
6.27931195924642e-07
1.34572739915092e-06
1.23104275590541e-05
1.87317433100142e-05
1.26111203130496e-05
1.30956060032547e-06
2.21832493891125e-06
2.11546569876006e-05
3.56223357773968e-05
3.63827035654021e-05
2.21373564721586e-05
2.27538060804767e-06
3.23624362049505e-06
3.06277935654594e-05
5.37354106352506e-05
6.1268282103571e-05
5.5718010741489e-05
3.30600107359521e-05
3.5078623858219e-06
4.28319320242141e-06
4.00504851915242e-05
7.20724112148367e-05
8.6296802016486e-05
8.74845989090159e-05
7.56800092686632e-05
4.47921504934191e-05
4.9862958364411e-06
5.17729054420014e-06
4.87237196046503e-05
9.00061094580948e-05
0.000111289240703577
0.000118404369537853
0.000113867855217925
9.5809292711338e-05
5.69591286545426e-05
6.66652815555888e-06
5.97188966404628e-06
5.64037316397473e-05
0.000107460821227374
0.000136005145917176
0.000148966495843725
0.000150173671714749
0.000140104211237056
0.000115821280047845
6.92260885329377e-05
8.49503942930439e-06
6.29089170843172e-06
6.29015352826571e-05
0.000124593021790559
0.000160438054391851
0.000179113188026549
0.000185565862173436
0.000181429797377487
0.000165905738791687
0.000135447306397512
8.13267910992245e-05
1.04216753352517e-05
1.24093586947279e-05
9.30719286240579e-05
0.000154468284359648
0.000191014372863592
0.000211930718171891
0.00022110662374461
0.000220124065024644
0.000208803462976775
0.000184799028389195
0.000142205971365922
7.12859176110479e-05
6.81798529770976e-06
1.44233856994937e-05
0.00010433820482664
0.000172724081267684
0.000215207091887553
0.000241434079910552
0.000255475649052649
0.000259355205410926
0.000253792062554059
0.000238061705037498
0.00020944976186205
0.000161581175346661
8.70736976374833e-05
1.64333750823233e-05
0.000115054016056965
0.000190072851431192
0.000238288501760998
0.000269705069807542
0.000288488381686985
0.000296888714784328
0.000296141647283403
0.00028646136052661
0.000266905055260938
0.000234970386635136
0.000186903643109621
0.000140804960501259
1.84050974494844e-05
0.000125144022882146
0.000206392273501717
0.000260086411123516
0.000296531140855438
0.000319935178258686
0.000332653961505153
0.00033620058245003