/*--------------------------------*- C++ -*----------------------------------*\
  =========                 |
  \\      /  F ield         | OpenFOAM: The Open Source CFD Toolbox
   \\    /   O peration     | Website:  https://openfoam.org
    \\  /    A nd           | Version:  12
     \\/     M anipulation  |
\*---------------------------------------------------------------------------*/
/*   Windows 32 and 64 bit porting by blueCAPE: http://www.bluecape.com.pt   *\
|  Based on Windows porting (2.0.x v4) by Symscape: http://www.symscape.com   |
\*---------------------------------------------------------------------------*/
FoamFile
{
    format      ascii;
    class       volScalarField;
    location    "400";
    object      omega;
}
// * * * * * * * * * * * * * * * * * * * * * * * * * * * * * * * * * * * * * //

dimensions      [0 0 -1 0 0 0 0];

internalField   nonuniform List<scalar> 
10166
(
3.73734663854203
3.73734487653419
3.98682949425404
3.04792891992872
3.73734683985718
3.98682922048463
3.04791082376153
4.20371023785781
0.955072171173116
3.02836587028651
3.73733350554384
3.9868310714185
3.04789451541668
4.20371440953088
0.95171436506196
3.02834897772128
4.33730282406928
0.778471250837957
0.762693861227788
2.99244062338665
3.73731582805764
3.98681553151848
3.04791604242378
4.20373449479993
0.95184563339283
3.02833405453493
4.33731369687676
0.775084627825366
0.761663375913997
2.99244098282366
4.40627449819359
0.775741582135225
0.447299407772166
0.743683658142473
2.97494712016125
3.73728289906442
3.98678993735601
3.04791966218962
4.20369924479019
0.951630387704207
3.02835995272
4.33733144049942
0.774108777807033
0.763043232203971
2.99244628363054
4.40628319129144
0.772962390089437
0.445054842929685
0.745757013840405
2.97495194081776
4.43508113476163
0.799308817207907
0.389066428701325
0.380368104583545
0.744327070763678
2.97384340207409
3.73722973675161
3.98675821574082
3.04792864474771
4.20365931556736
0.951063834406227
3.02837681923328
4.33729921483224
0.773377607708025
0.764023148461635
2.99246712372956
4.40627808919517
0.771825254955505
0.444977556553502
0.747523144490054
2.97496779298961
4.43508034783237
0.797349983551345
0.386586189210472
0.381215635813285
0.747128403701446
2.97385749258504
4.43972761467074
0.827170593028209
0.384302653001211
0.298469666924274
0.366931363941161
0.757609396847379
2.97198827619854
3.73714603665576
3.98672889006615
3.04794660801047
4.20366553265275
0.950347868436114
3.02840461655663
4.33726426478276
0.772475226500181
0.764296634327753
2.9925068648141
4.4062724193371
0.770836634392579
0.444893892942815
0.748785645735548
2.97501011985772
4.43507820588433
0.796361827249701
0.38588399064712
0.381774684728511
0.748673604515459
2.97389376417328
4.43972507770049
0.825935750622158
0.382376003406303
0.298311777790604
0.368403126812637
0.760118496886837
2.97201671733868
4.43311312448366
0.853192185507549
0.392790331866231
0.279033247903375
0.273073427706281
0.372981049958941
0.780409139541061
2.96211923553839
3.73702837175999
3.98662541825878
3.04797919623742
4.20368342545717
0.949548536826182
3.02845535891562
4.33728853117834
0.771294831044779
0.764025227384472
2.99257627570269
4.40626316854833
0.769645826489541
0.444435975965787
0.74925876976017
2.97509421576225
4.43507132474127
0.795277045595487
0.38520031742498
0.382003950017845
0.74972384812012
2.973976907398
4.4397224556938
0.825130011068561
0.381617246372535
0.298158247064682
0.368956569089155
0.761299505728118
2.97208677819551
4.4331099421991
0.852492088992445
0.391531531806444
0.278676388682428
0.273491818561479
0.374199761047448
0.782257137276097
2.96216591996503
4.42457580373805
0.876295817434486
0.404849044144002
0.276892676995564
0.243581947781727
0.269691212860029
0.386843500350011
0.804834750619043
2.95324762954746
3.73686974768893
3.98648889005166
3.04802171258283
4.20358970897507
0.94864618443085
3.0285334679832
4.33730945120029
0.769802953984327
0.763264276655167
2.99269303300306
4.40627327865508
0.768157089504691
0.44353977634112
0.749022295116818
2.97524429128111
4.43507256411048
0.793871380248923
0.384238854127531
0.381805029866774
0.750053960756175
2.97414289477697
4.43971682832276
0.824041307086172
0.380769478908189
0.297758063555482
0.369090204376893
0.762018574160284
2.97224164973474
4.43310677909879
0.851840347818156
0.390881558447682
0.278323426285262
0.273471892746944
0.374496310434296
0.782964893074976
2.96228674341069
4.42457218311683
0.875951534833788
0.404109625417239
0.276615087238768
0.243652589040436
0.270059185714372
0.387664945182468
0.805981306878307
2.95331982843092
4.41827541203547
0.896950190768663
0.41777952242693
0.280794056372031
0.233849180222101
0.232188282321993
0.274656935217026
0.403267927761084
0.837807925496567
2.98372922899652
3.73665858203077
3.04806989170938
3.98636078489982
4.20349822402139
0.94763840441173
3.02863823034674
4.33726331282912
0.767988322349981
0.761991751149829
2.99286846145398
4.40627945416626
0.766345347195452
0.442175511459542
0.748121600874993
2.97549175495296
4.43507955005009
0.792101417984868
0.382919888614775
0.381152300569469
0.749627850199821
2.97444235521348
4.43971858975062
0.822530766708387
0.379627570695346
0.297039450238911
0.368793624615723
0.762077704607688
2.97255020489231
4.43310158826218
0.850779401190421
0.390032855320973
0.277734001735963
0.273125046486286
0.374369265548525
0.783306834060787
2.96255394475781
4.42456849052
0.875395499047189
0.403581925895495
0.276245081574465
0.243443416817057
0.269973920648179
0.38766244859189
0.806190855413409
2.95350885406564
4.41827119964832
0.896824181273898
0.41738982245972
0.280634545105807
0.233845119436861
0.232277475186821
0.274864867940277
0.40372384036073
0.838641472975868
2.98382688612343
4.41469217024529
0.915757197059071
0.430621398414968
0.287163571241522
0.231944279500642
0.216439690897297
0.230410590165838
0.282712354874159
0.421708752795671
0.891780737582247
3.21034682913428
3.73636235343333
3.04812625398518
3.986185320352
3.02876591225821
0.946427780130155
4.20343716457309
4.33723155881398
0.76587004520791
0.760206977300121
2.9931040402326
4.4062697201193
0.764218914307865
0.440316993997721
0.746541877800478
2.97586053908107
4.43508704871196
0.789970400549571
0.381213899423317
0.380027928077633
0.748452758836015
2.97493374223225
4.43972577360782
0.820584702601079
0.378139805051027
0.295969648752537
0.368045757379511
0.761428512548098
2.97310693313206
4.43310300547819
0.849226623986104
0.388854291533323
0.276851002769419
0.272445097554232
0.373812163555871
0.78300838002636
2.9630862971394
4.42455931245526
0.874347427994753
0.402768184666386
0.275619302762814
0.24295331655637
0.269557310757974
0.387264169980266
0.806147346782036
2.95392513060668
4.41826325714508
0.896331113849192
0.416951218259655
0.280295149196867
0.233588486097523
0.232071641934477
0.274658289066856
0.403470018180282
0.838805286730009
2.98408387084178
4.41468721951374
0.915767488892996
0.430448043147732
0.287095985045247
0.231941313500926
0.216460311829973
0.230439540966426
0.282764531090187
0.421918102847714
0.89324925953243
3.21045880066497
4.41298508368783
0.933020734837778
0.442954894909031
0.294519473763619
0.233675505091446
0.209978325423604
0.209748488607487
0.23256305872625
0.291670892749764
0.443183002380878
1.00963853543946
4.87759965474274
3.73596959923867
3.04819066488856
3.98586946022099
3.02890867126104
0.944872153871194
4.20334849746619
2.9933869959525
0.757848184253206
0.763467478682761
4.33720759393207
4.406257048253
0.761812651447805
0.437947108982443
0.744303034987535
2.97635143984174
4.43508082076865
0.78750099343871
0.379110526477274
0.378405873564756
0.746486040337909
2.97566046411067
4.4397363012057
0.818222835716638
0.376291261498512
0.294530901237764
0.366829648246635
0.76005292416651
2.97401576997516
4.43311056279028
0.847186341423448
0.387316011176118
0.275651069778601
0.271416588889428
0.372804144862736
0.7820405654748
2.96404438941682
4.42456836302916
0.87275985109234
0.401589781905888
0.274699191894023
0.242169749300943
0.268805790552606
0.38644293579568
0.805564295942109
2.95476452829866
4.41826191207949
0.895294922657895
0.416160551070377
0.279674120467664
0.233064114165317
0.231586170285608
0.274133413069773
0.402866126849417
0.8388132388156
2.98467274861935
4.41467503956831
0.915318585511191
0.430066088989821
0.286790139012401
0.23168370310884
0.216225210310159
0.230190501295046
0.282443363787805
0.421547537658976
0.894269052355837
3.21076460464053
4.41297541678713
0.933103272528153
0.442904720691475
0.294513162004205
0.23368934874201
0.209989089928801
0.209743777915864
0.232526096433821
0.291602748911485
0.443414589029063
1.01439552971742
4.87775609177905
4.4122787345199
0.94883816705466
0.454586596584544
0.302163503785937
0.237225589840526
0.208155734725888
0.199635056311541
0.207797009593439
0.235921168814006
0.299784789175828
0.468804558277881
1.1940119745085
3.73542787649022
3.04825990314831
3.9855456509152
3.02906048208857
0.942859585786144
4.20315491605601
2.99369013360271
0.754730185450806
0.760804859288911
4.33717479276652
2.97692671079507
0.74143152869839
0.435043159403115
0.75917304074726
4.40625601921441
4.43507649884831
0.784729369190139
0.376609566579114
0.37626595708889
0.74384717039638
2.97661531463781
4.43972738839098
0.815467797912906
0.374082064694445
0.292710050057234
0.36511716509934
0.75775719032564
2.97534825632207
4.4331206098495
0.844679031860617
0.385413640062848
0.274122315788863
0.270026607881497
0.371326584247179
0.78038381428027
2.96560087065975
4.42457291811416
0.870639838341794
0.400032159450244
0.273469925311933
0.241081089156325
0.267706190103936
0.385177269212013
0.804457127659411
2.95628353339328
4.41826797085682
0.893687097342173
0.414972403317271
0.278748262491419
0.232261882155765
0.230812123178983
0.273279020512968
0.401874280917177
0.838542187307821
2.98588089371035
4.41468236250721
0.914284097136675
0.429289455237787
0.286181019358125
0.231159161925558
0.215732207099356
0.229672015970347
0.281824607775937
0.420877927868668
0.894715740167216
3.21152704018689
4.41296284616072
0.932676785536786
0.442559323687526
0.294233019362638
0.233443581053176
0.209754968702016
0.209497242222485
0.232228520271335
0.291206924150325
0.443170572236178
1.01844559102021
4.878170801768
4.41226459478338
0.94896738931439
0.454601261688568
0.302197577465379
0.237257051404925
0.208172492266761
0.199631853308441
0.207761883050241
0.235831791220728
0.299679780911775
0.470160677057415
1.20582329816526
4.4120188532089
0.9633036764509
0.46542934977931
0.309738376206641
0.241688015576471
0.208861662057767
0.19501815746183
0.194736685797394
0.207688503811013
0.238486486648855
0.303612368520287
0.468694523940664
3.73469727188945
3.04834542787007
3.98511434753578
3.02922978171877
0.94033632799409
4.20297355686943
2.99398894231777
0.750620831512864
0.757904775338495
4.33711646227885
2.97751038124107
0.737686953878759
0.431559369379617
0.756353453404565
4.40625462546618
2.97770477048577
0.740655500287649
0.373581544077645
0.373714836364512
0.781701930215189
4.43507145712729
4.43972348980385
0.812348502186942
0.371519459259365
0.290496516283386
0.362906448168819
0.754858733702618
2.97707619369816
4.43311220887664
0.841723596034523
0.383150686362491
0.272258982532255
0.268261319164511
0.369332386716964
0.777516100921567
2.96786790263076
4.42458326744023
0.868003224806426
0.398095872759059
0.271924767422367
0.239678586725607
0.266246427101933
0.383447477189858
0.802807600868201
2.95875307541032
4.41827284437568
0.8915157845733
0.413379895460369
0.277509457205588
0.231174119820379
0.229739774448679
0.272080759921174
0.400475605150552
0.838066716302504
2.98812116520537
4.41468540608391
0.912647106763632
0.428092030915956
0.285254935572735
0.230361362499712
0.21497420455263
0.22887266810005
0.280891991459151
0.419894786640351
0.895449903629635
3.21320528501289
4.41297108555438
0.931640355113438
0.441788437561436
0.293633709157022
0.232928246329091
0.209272453559153
0.209004959130722
0.231674493072831
0.290539492813058
0.442570022613593
1.02071923586143
4.87934855643354
4.41225165710933
0.948554951836795
0.454274706071621
0.301935608917217
0.237024535998269
0.207948603531377
0.199399311605766
0.207497418384905
0.235500524537892
0.299284646311599
0.470678973662632
1.21766456611804
4.41200461843188
0.963467131238455
0.465485762007972
0.309798596414673
0.241734949726345
0.208888376519646
0.19502414781497
0.194717369363485
0.207630363205798
0.23837844187317
0.303783814360531
0.472070403021483
0.471754204296858
4.41193006990807
0.97651428840664
0.475480794330465
0.317056684088656
0.246568874752324
0.211000934586307
0.193528121169385
0.187921475255382
0.192317517042142
0.207591480266168
0.23789516432907
0.293115041901944
3.733766519248
3.04848279784358
3.98461399244282
3.02945369890253
0.937418114451534
4.20280704486236
2.99429093298815
0.745365094897119
0.754810185463029
4.33704826478476
2.97802310628868
0.7327599472465
0.427442832276068
0.753402971350575
4.40623995271829
2.97874375237542
0.736486529361806
0.370272196891466
0.370429009264549
0.778468258072485
4.43507732673533
2.97899908785081
0.751686683721029
0.360181842181669
0.287877823104367
0.368614114342692
0.808897894854764
4.43971393964926
4.43310796803096
0.838345231402339
0.380534990203515
0.270057818045913
0.266109547320245
0.366868450390421
0.774315051178305
2.97078083523798
4.42457434890165
0.86486997727104
0.395786386652377
0.270061826967397
0.237954587846353
0.264410780274253
0.381166801257634
0.799508011886955
2.96235510275352
4.41828350964943
0.888793734555321
0.411384903250311
0.275954925046356
0.229795822337507
0.228360891820424
0.270526669206728
0.398645611131316
0.837334587309589
2.99179596680304
4.4146902987131
0.910416265482649
0.42647113231253
0.284007584324182
0.229285686221367
0.213944728666582
0.227782412565829
0.279630244724647
0.418583043834914
0.896499478106899
3.2162789209887
4.41297473761125
0.929981657475634
0.440574715569684
0.292706642571483
0.232139418264818
0.208537200991532
0.208259103290302
0.230851167103634
0.28958648343658
0.441773523815525
1.02460064664024
4.88259044462856
4.41226033386616
0.94751533215408
0.453503961807917
0.301341888623205
0.23651901400022
0.207480768143195
0.19893378714961
0.206999057026773
0.234928287285475
0.298624977981209
0.470561818837705
1.2222198502087
4.41199144493048
0.963062272062995
0.465169453016134
0.309547811010033
0.241513697403952
0.20867627477572
0.194807410510198
0.194481268989307
0.207354918514875
0.238044922012253
0.303562260496723
0.474031836489878
0.476331689820335
4.41192014915384
0.976704146593699
0.475568008803225
0.317135413062238
0.246628274648517
0.211037784321291
0.19354443371379
0.187917065741129
0.192287403325155
0.207527998030987
0.23786070533171
0.293815215863348
0.329160761772782
0.29878153965297
4.41190066389366
0.988573397215663
0.484770947051071
0.324026117207792
0.251584123676994
0.213952726341682
0.19390177685451
0.184733242969681
0.183847613146918
0.190679031009804
0.205998112032183
0.231001052089136
3.73273201631518
3.04875140413872
3.98413712255424
3.02981077239884
0.934256691947338
4.20266965737053
2.99466089671193
0.739337190144526
0.751573212951698
4.33706088470618
2.97844809764655
0.726420906767864
0.422665351101415
0.750365803093403
4.40624917036253
2.9795208170107
0.730958094958661
0.366251410284319
0.366751675632755
0.775073032958923
4.43508097595793
2.98071852478028
0.74729413725602
0.356816853229572
0.284833193012433
0.365376563814748
0.805154040950076
4.43972357041891
2.9739648232348
0.771601041942044
0.363949430497821
0.263553438231795
0.267515360219775
0.377574644409971
0.834562075447901
4.43309856382663
4.42456979022045
0.861280530532712
0.393110673953619
0.267881568782151
0.235901656839908
0.262196223964623
0.378503551181746
0.796811520099716
2.96698399357859
4.41827373517233
0.88553178124418
0.408995020510556
0.274085148694421
0.228122700355995
0.226667039800103
0.26859870956551
0.39622069619769
0.83394035117376
2.99724441734583
4.41470100272142
0.907602241856084
0.424428387114312
0.28243790437386
0.227929160748089
0.212638528253291
0.226393366636582
0.278027249118201
0.416898058111341
0.897771995297405
3.22193660063339
4.41297953420582
0.927708325760824
0.438917470285035
0.291449562571426
0.231074458724411
0.207545302576509
0.207253336195697
0.229748640748966
0.288332466765356
0.440770380007422
1.03014756204422
4.88752223142897
4.41226416274612
0.945835431036805
0.452276689087512
0.300410126872646
0.235737714588261
0.206766401008319
0.198230855040935
0.206258971023172
0.234103411979886
0.297715817694867
0.470465139990488
1.23003853626583
4.41200024935264
0.962016378751056
0.464395668801652
0.308956031876288
0.241015618102739
0.208222098023771
0.194365351627337
0.19402504251531
0.206857811738483
0.23748313021236
0.303026037759103
0.474661667486166
0.477864540601404
4.41190743643911
0.976302401150288
0.475257341290789
0.3168912965834
0.246415315430819
0.210836141771264
0.193342074260162
0.187703660884166
0.192051465438994
0.20725789775166
0.237583222946182
0.293911957493538
0.330706454319183
0.299958468220043
4.41189533937756
0.988783337660939
0.484881915070291
0.324118650921141
0.251653235731317
0.213998410732502
0.193927560200864
0.184741170136259
0.183837277896671
0.190649098770113
0.205963950533938
0.231132956746452
0.255315290197141
0.257459073501913
0.246145332219991
4.41188648266875
0.999586989672172
0.493341103540344
0.330603608183984
0.256565603470019
0.217343861890265
0.195406159118809
0.18375565594644
0.179402172973473
0.181155937634085
0.188702409014437
0.201707588937159
3.73151936383886
3.04933258369582
3.98391698334467
3.03044318159007
0.930933477389714
4.20274536909253
2.99522896100666
0.732752842856853
0.748308766307864
4.33717130965915
2.97889191053866
0.719400648053473
0.417326659137841
0.747271015932584
4.4063068027397
2.97994629214653
0.723756971104533
0.361467882872043
0.362684057672093
0.771547227335302
4.43509857771369
2.98174576740827
0.741309717501639
0.352712792056031
0.281343411605725
0.36181288821018
0.801148294690257
4.43972917349245
2.97665183852349
0.766837048870835
0.360339918773303
0.260556887013234
0.264626149897172
0.374276840278261
0.830398222659777
4.43310750882022
2.97203806795449
0.796326033426273
0.3755293910569
0.259584055646898
0.233509915715917
0.265383159667908
0.390070712785598
0.85722636432431
4.42456000326934
4.41826882368661
0.881743075589087
0.406231477633517
0.271903681561478
0.22615058614761
0.224650612391801
0.266316723821346
0.393654011456205
0.833362790774925
3.004348243788
4.41469052012171
0.904218258528329
0.42196844404227
0.280547115208556
0.2262896240387
0.211050467051711
0.224697694643448
0.276061886662489
0.41449600936702
0.893819089721456
3.22967136193527
4.41299017204963
0.924823903482615
0.436820052287954
0.289861930503079
0.229731668424229
0.206293577859769
0.205982716932915
0.228360514739565
0.286763537045055
0.439473165269481
1.03734954131125
4.90074110358715
4.41226876292143
0.943522189362723
0.450592484880039
0.29913907080715
0.234679087386466
0.205803288270926
0.197286951472039
0.205271630385562
0.233017566776598
0.296545909912838
0.470453278858814
1.24122063812389
4.41200393301636
0.960316618874157
0.463154137374946
0.308018232334988
0.240238405647552
0.207524146791054
0.193695633858912
0.193344767991007
0.206132740016168
0.236688936455769
0.302281815157692
0.475470324448895
0.478838159058609
4.41191696013283
0.975248054074039
0.474478207294136
0.31629869340145
0.245921793876493
0.210392702726482
0.19291902555454
0.187279339172129
0.191607193192768
0.206777873952656
0.237075947192302
0.293589131925474
0.330933456559687
0.300256621130256
4.41188386099748
0.988382913387143
0.484573963871095
0.323878260869222
0.251445870597969
0.213804942114227
0.193737010736649
0.184545507798053
0.183629276213301
0.190422737320431
0.205724012671908
0.23095841888025
0.255553401486383
0.257871501667048
0.246340719218654
4.41188136707677
0.999810837003304
0.493470391028712
0.330706548692726
0.256642090721829
0.217396641755359
0.19543983883578
0.183773434067342
0.179405809297324
0.181147392381548
0.188690481786665
0.201748831421916
0.216652288770631
0.224867886451945
0.223867366797902
0.226349131430629
4.41189710900607
1.00964547614797
0.501235341794418
0.336772142615581
0.261411752899736
0.220941089358147
0.197591041820204
0.184158615145169
0.177425719364826
0.175902806081288
0.178873625482602
0.185719450339355
3.731193950697
3.05053388188442
3.98428820712146
3.03160179091188
0.927483237120023
4.20336797426333
2.99619149866702
0.725440938053592
0.74510242829414
4.33759681915687
2.97958906928088
0.711908218997132
0.411508090973196
0.744153914190854
4.40650363091269
2.98021113028143
0.716393763992398
0.356076467015849
0.358239371910003
0.767896285301577
4.4351647402578
2.98180980689912
0.733433592056244
0.347805409244465
0.277397241193946
0.357920659372839
0.796892969485289
4.43974638071427
2.97777400429709
0.760299617587139
0.355960942910016
0.257095674646391
0.261383373620971
0.370642949115438
0.825869697443646
4.43311314988855
2.97617241212844
0.791426393494762
0.371700765628944
0.256513171301417
0.230765882390558
0.262563424615904
0.386668683550382
0.852712649424513
4.42456927415691
3.01230600722809
0.838528975968338
0.391090803928991
0.263661526664183
0.222298048330754
0.223874198377405
0.269410046138432
0.403084296410205
0.87742613610449
4.41825856580717
4.41468529655091
0.900278977618242
0.419095398750923
0.278338461420952
0.224365347548556
0.20917508535036
0.222691631980136
0.273807540692408
0.412481917538207
0.89815558722106
3.24161343769632
4.41297930934378
0.921332614204201
0.434288449834253
0.287944514311188
0.228110010824629
0.204779100887476
0.204442599625785
0.226682016759099
0.284849658039158
0.437116652139751
1.03525413580079
4.91328176513121
4.41227947994238
0.940578671805778
0.44845127015773
0.297528805223047
0.233342143858427
0.204589676486385
0.19609933218684
0.204033704099137
0.231667581683507
0.295097569552679
0.470380389631752
1.25630120820045
4.41200806861372
0.957967996462535
0.461444335355145
0.306733330859626
0.23918104186545
0.206581196940661
0.192796496868856
0.192437910293846
0.205176455790451
0.23565883215368
0.301345044557052
0.476671082266865
0.479426125401355
4.41192496211379
0.973527714439279
0.473221747203028
0.315353183637261
0.245145579096648
0.209706154533928
0.192274055187417
0.186642470096708
0.190952256822682
0.206085818564852
0.23635711001211
0.293080879211968
0.330802814674623
0.300090045877443
4.411894828087
0.987318967932531
0.483788049866273
0.323282794989387
0.250954291040734
0.213368986822584
0.193328359428136
0.184145104642228
0.183222619299221
0.189999153396704
0.20528229890621
0.230542675073956
0.255310316490756
0.257770577360839
0.246075124116967
4.41187066223193
0.999410124033886
0.493163195674818
0.330467859704035
0.256438156068263
0.217209028749433
0.19525831425058
0.183591256350218
0.179217903730487
0.180950493246416
0.188486366363197
0.201557432313213
0.216557318308809
0.224905721328198
0.223931004595958
0.22632362029103
4.41189164147544
1.00987905357104
0.501378576144009
0.336882876727055
0.261493730396055
0.220999292964515
0.19763090683291
0.184183993420721
0.177439398339288
0.175908147560118
0.178878597666302
0.185756230098993
0.194840730001455
0.202367521401449
0.205550529911967
0.207826250017935
0.217394971422496
4.41190561409876
1.01878996485114
0.508494399846416
0.342529043889531
0.266060880291157
0.224594777579221
0.200168857289527
0.185428250311483
0.177009378441595
0.173262893436644
0.173303314834336
0.1764631516166
3.7298065620599
3.05303316238381
3.98580158802538
3.03371780665983
0.923871457291133
4.20505722147108
2.99783452020969
0.717254790562646
0.742002988572476
4.33872468280604
2.98084628553079
0.703444500328734
0.405207953770693
0.741027551039952
4.40704537269833
2.98079975367405
0.708872144190191
0.35011715484297
0.353425198701892
0.764118301251797
4.43536648254679
2.98127252806418
0.726539568485559
0.342381393044704
0.273008803623759
0.353687298607513
0.792379270647728
4.43980606462401
2.97658427904664
0.751951344807201
0.350791657639687
0.253161728613343
0.257778232744169
0.366660634518158
0.8209631424612
4.43312832237986
2.97712693352157
0.785227141010305
0.367086964254353
0.252959596285457
0.227658596885905
0.259416050846414
0.382899268958734
0.847745680843675
4.4245747424321
3.01909306848083
0.833020577193502
0.38721274798166
0.260513204607631
0.219588020247143
0.221286690179801
0.26659904361807
0.399546730584145
0.872588089972716
4.4182684496154
3.25359833078647
0.914790227695489
0.411111732443818
0.271237811518209
0.220357993391766
0.207004616422221
0.222153307209735
0.27580935946864
0.415804204172695
0.895769579485811
4.41467467777754
4.41297394249885
0.917239744693304
0.431324636659877
0.28569743488955
0.226208655357463
0.202998717098223
0.202628167053191
0.224720447798563
0.282784796913748
0.436355748506865
1.05294265050851
4.94475958325401
4.4122687395912
0.937003421525027
0.445852464778553
0.295580066391349
0.231726274389463
0.203124058658355
0.194665508988618
0.20254308278229
0.23005582486728
0.293317807976074
0.468826969938183
1.25400655213984
4.41201888755579
0.954971821213127
0.459264997074747
0.305100585530206
0.23784295423409
0.205392385383846
0.191666721322384
0.191303210782705
0.203989261287999
0.234396074749695
0.30019573649344
0.4781384612992
0.479874934917579
4.41191979058141
0.971144906039178
0.471487042802879
0.314053588011238
0.244085787400135
0.208775795694922
0.191406467622793
0.185792341946654
0.190086353379844
0.205183142471763
0.235435865678893
0.292448458959546
0.330494144239413
0.299012537105194
4.41190741383031
0.985578100519143
0.482516150524907
0.32232816709523
0.250176375668392
0.212689357988078
0.192700905023635
0.183539519980023
0.182617174932017
0.189379287072078
0.204645942540388
0.2299339572657
0.25482605903588
0.257362568676632
0.245414573799676
4.41188249753167
0.998336671531415
0.492369643678147
0.329868150229775
0.255946430860952
0.216777638088389
0.194859884760242
0.183208310175455
0.178838220104973
0.180565916234489
0.188094741020636
0.201171144042833
0.216224558635232
0.22465818946585
0.223685143813318
0.225908329937973
4.41188081903914
1.00947855719176
0.501070842748474
0.336644532417657
0.261291626293485
0.220815570140008
0.197455887078311
0.184011718073729
0.177265939266368
0.175731509830233
0.178700030960751
0.185582033010634
0.194685080749782
0.202279956618587
0.20552244709957
0.207811932692832
0.217345840207783
4.41189588093348
1.01903785223504
0.508648059277193
0.342645623885482
0.266146952638796
0.224657043503097
0.200213385968479
0.185459298000529
0.177030245915154
0.173277512310899
0.173319372040217
0.176506472807582
0.181842428600428
0.187426092615769
0.191407580556458
0.194268961920471
0.199845022509397
0.212992445590044
1.02703526093907
0.515148568986958
0.347879103838124
0.27047604030807
0.228207454589671
0.202950930633032
0.187233873654678
0.177592005127489
0.172281156567175
0.17033448213073
0.171081114242148
3.73222320489146
3.05702380190891
3.98802051525758
3.03739652445437
0.920465928325109
4.20832057970983
3.00059481333845
0.70843175978587
0.739061716042285
4.34115841868069
2.98300005580319
0.693584085157951
0.3984200941392
0.737884877440629
4.40834416575644
2.98228932108568
0.699963386354109
0.34349452663424
0.348219216152479
0.760193301236022
4.43591088554615
2.98122128376853
0.719398252060248
0.336380084081749
0.268169035444692
0.349090195628411
0.787594203734085
4.43999219447007
2.97372011087351
0.747880871702665
0.345328303986216
0.248778857917138
0.253800245669341
0.362307167513474
0.815676887849938
4.43318060999153
2.97269098582843
0.777938109397218
0.361773204283985
0.248918056884182
0.224179170380048
0.255930310595466
0.37874228912527
0.842310444398867
4.42458798589638
3.02013578781071
0.829505602265077
0.382644634173681
0.256873324981895
0.21650746593828
0.218380019823582
0.263464071094638
0.395613425129465
0.867246767937722
4.41827377245796
3.26799754122462
0.906670101550429
0.407260260599422
0.268096386525292
0.217661620237717
0.20452919857625
0.219648931482196
0.272955583645638
0.41209201612514
0.890686561158317
4.4146852410754
4.96589618098066
1.09279305488033
0.437450250021143
0.280527746367011
0.222452839381421
0.200529716833407
0.200948103010205
0.224025297644821
0.283117927014086
0.427920860273413
0.912553338356352
4.41296324740387
4.41226359148473
0.932794582899725
0.44279771105809
0.293292233063441
0.22983059954234
0.201404800900407
0.192982552133875
0.200798196144443
0.228215700500874
0.291668839270387
0.471221228156903
1.28843415996995
4.41200883858908
0.951323396931196
0.456613031415786
0.30311906417805
0.236223729773875
0.203957056755185
0.190305325296266
0.189940051623795
0.20257482231521
0.232915926510997
0.298761900875198
0.477833173977127
0.479584048049866
4.41193427130898
0.96810027694154
0.469272031632197
0.312398615656692
0.242741807821163
0.207601282393369
0.190316018722166
0.184729062138668
0.189011256373413
0.20407676870346
0.234326677862723
0.291692336320298
0.330073370765924
0.297809285481786
4.41188836110891
0.983162346238808
0.480756887361054
0.321013001405824
0.249111196760329
0.211765571185389
0.191854532184903
0.18272906775907
0.181814186286746
0.188566759533279
0.203824608465546
0.229160183875132
0.25418126487498
0.256667237118346
0.244403736464962
4.41189915727732
0.996576543525927
0.491082284559333
0.328903463370055
0.255164697694986
0.216101257416469
0.194244058669747
0.182624718022513
0.178267681929263
0.179996255742874
0.187522548336721
0.200609426547745
0.215710899914182
0.224204243694487
0.223183348032395
0.225173750013977
4.411892337025
1.00839694021379
0.500269446972516
0.336039786827112
0.260798273696629
0.220386421639565
0.197064230178988
0.183641069811878
0.176905389936527
0.17537415250982
0.178343459459807
0.185230607667748
0.194356470437015
0.202001517924052
0.205280971507001
0.207542035713187
0.216963195204856
4.41188509807234
1.01864361095161
0.508339553407762
0.342406936076037
0.265945677479248
0.224475762078741
0.20004284629006
0.185294053440229
0.176867014010414
0.173114899397244