/*--------------------------------*- C++ -*----------------------------------*\
  =========                 |
  \\      /  F ield         | OpenFOAM: The Open Source CFD Toolbox
   \\    /   O peration     | Website:  https://openfoam.org
    \\  /    A nd           | Version:  12
     \\/     M anipulation  |
\*---------------------------------------------------------------------------*/
/*   Windows 32 and 64 bit porting by blueCAPE: http://www.bluecape.com.pt   *\
|  Based on Windows porting (2.0.x v4) by Symscape: http://www.symscape.com   |
\*---------------------------------------------------------------------------*/
FoamFile
{
    format      ascii;
    class       volScalarField;
    location    "400";
    object      p;
}
// * * * * * * * * * * * * * * * * * * * * * * * * * * * * * * * * * * * * * //

dimensions      [0 2 -2 0 0 0 0];

internalField   nonuniform List<scalar> 
10166
(
83333.3331810973
83333.3331762036
83333.3331792269
83333.3331823852
83333.3331709756
83333.3331742782
83333.3331775284
83333.3331754829
83333.3331804009
83333.3331851673
83333.3331654073
83333.3331690135
83333.3331723415
83333.3331704462
83333.3331754895
83333.3331804182
83333.3331699385
83333.3331764218
83333.3331832327
83333.3331898984
83333.3331594616
83333.3331634135
83333.3331668199
83333.3331651074
83333.3331702671
83333.3331753427
83333.3331647851
83333.3331714206
83333.3331784429
83333.3331853336
83333.333162632
83333.3331708019
83333.3331791849
83333.333188129
83333.3331968033
83333.3331531151
83333.3331574374
83333.3331609197
83333.333159436
83333.3331647105
83333.3331699282
83333.333159335
83333.3331661198
83333.3331733332
83333.3331804407
83333.3331573317
83333.3331656888
83333.3331743006
83333.3331835227
83333.3331925008
83333.3331536527
83333.3331633881
83333.3331733313
83333.3331843856
83333.3331953836
83333.3332058469
83333.3331463473
83333.3331510656
83333.333154615
83333.3331533981
83333.3331587764
83333.3331641292
83333.3331535584
83333.333160485
83333.3331678783
83333.3331752001
83333.333151736
83333.3331602747
83333.3331690973
83333.3331785844
83333.3331878684
83333.3331481833
83333.3331581283
83333.3331683216
83333.3331796785
83333.3331910414
83333.3332018908
83333.3331432532
83333.3331542736
83333.3331653716
83333.3331784837
83333.3331924497
83333.3332048581
83333.3332168438
83333.3331391422
83333.3331442799
83333.3331478845
83333.3331469774
83333.3331524438
83333.3331579187
83333.3331474285
83333.3331544828
83333.3331620412
83333.3331695678
83333.3331458245
83333.3331545268
83333.3331635474
83333.3331732978
83333.3331828859
83333.3331424244
83333.3331525623
83333.333162985
83333.3331746368
83333.3331863625
83333.3331976101
83333.333137604
83333.3331488413
83333.333160196
83333.3331736427
83333.3331880107
83333.3332008673
83333.3332133155
83333.3331317019
83333.3331437663
83333.3331557607
83333.3331700736
83333.3331867873
83333.3332026203
83333.3332162763
83333.3332294258
83333.3331314919
83333.3331370655
83333.3331407112
83333.3331401584
83333.3331456939
83333.3331512729
83333.3331409315
83333.3331480964
83333.3331557996
83333.3331635137
83333.3331395756
83333.3331484231
83333.333157626
83333.3331676243
83333.333177507
83333.3331363621
83333.3331466715
83333.3331573054
83333.3331692421
83333.3331813327
83333.3331929832
83333.3331316747
83333.3331431031
83333.3331546894
83333.3331684547
83333.333183228
83333.3331965441
83333.3332094753
83333.3331258683
83333.3331381507
83333.333150398
83333.3331650553
83333.3331822054
83333.3331985353
83333.3332127194
83333.3332264046
83333.3331192058
83333.3331321283
83333.3331448999
83333.3331598311
83333.3331780324
83333.3331973013
83333.3332144858
83333.3332291167
83333.3332430844
83333.3331233981
83333.3331294152
83333.3331330855
83333.3331329291
83333.3331385109
83333.3331441697
83333.333134055
83333.3331413102
83333.3331491305
83333.3331570079
83333.3331329788
83333.3331419504
83333.333151315
83333.3331615364
83333.3331716938
83333.3331299807
83333.3331404418
83333.3331512678
83333.3331634683
83333.3331759109
83333.3331879561
83333.3331254559
83333.3331370543
83333.3331488516
83333.3331629155
83333.3331780868
83333.3331918698
83333.333205296
83333.333119765
83333.3331322356
83333.3331447064
83333.3331596823
83333.3331772664
83333.3331941061
83333.3332088452
83333.3332230954
83333.3331131871
83333.3331263247
83333.333139344
83333.3331546108
83333.333173258
83333.3331930608
83333.3332108287
83333.3332260634
83333.3332406432
83333.3331059293
83333.3331195499
83333.33313301
83333.3331483288
83333.3331670579
83333.3331883654
83333.3332093459
83333.3332275372
83333.3332431273
83333.3332574315
83333.3331148745
83333.3331250062
83333.3331213316
83333.3331252841
83333.3331308856
83333.3331365943
83333.333126791
83333.333134111
83333.3331420134
83333.3331500201
83333.333126026
83333.333135096
83333.3331445949
83333.3331550053
83333.3331654073
83333.333123274
83333.3331338629
83333.3331448566
83333.3331572927
83333.333170062
83333.3331824827
83333.3331189377
83333.3331306867
83333.333142675
83333.3331570107
83333.3331725572
83333.3331867981
83333.3332007157
83333.3331133877
83333.3331260255
83333.3331386985
83333.3331539681
83333.3331719693
83333.3331893173
83333.3332046261
83333.3332194589
83333.33310691
83333.3331202315
83333.3331334665
83333.3331490362
83333.3331681168
83333.3331884627
83333.3332068407
83333.3332227194
83333.3332379485
83333.3330997258
83333.3331135575
83333.3331272597
83333.333142899
83333.3331620587
83333.3331839108
83333.3332055132
83333.3332243727
83333.3332406386
83333.3332556378
83333.3330919936
83333.3331061912
83333.3331202421
83333.3331358581
83333.3331546559
83333.3331767185
83333.333200197
83333.3332223317
83333.3332413339
83333.3332580537
83333.3332723282
83333.3331059513
83333.3331164834
83333.3331128299
83333.3331285401
83333.3331228182
83333.3331172275
83333.3331191377
83333.3331264918
83333.3331344339
83333.3331425273
83333.3331187131
83333.3331278505
83333.3331374485
83333.3331480028
83333.3331586048
83333.3331162384
83333.3331269254
83333.3331380557
83333.3331506906
83333.3331637484
83333.3331765135
83333.3331121183
83333.3331239931
83333.3331361468
83333.3331507202
83333.3331666086
83333.3331812863
83333.333195682
83333.3331067317
83333.3331195168
83333.3331323725
83333.3331479077
83333.3331662951
83333.3331841319
83333.3332000079
83333.3332154279
83333.3331003753
83333.3331138602
83333.3331272885
83333.3331431343
83333.3331626239
83333.3331835026
83333.3332024983
83333.333219045
83333.3332349364
83333.3330932758
83333.3331072887
83333.3331211978
83333.3331371212
83333.3331566904
83333.3331790883
83333.3332013355
83333.3332209052
83333.3332378976
83333.3332536286
83333.3330856047
83333.3331000114
83333.3331142982
83333.3331302192
83333.3331494205
83333.3331720083
83333.3331961194
83333.3332189617
83333.3332387172
83333.3332561727
83333.3332712769
83333.3330774897
83333.3330921839
83333.3331067316
83333.3331225926
83333.3331412804
83333.3331633468
83333.333187896
83333.3332128041
83333.3332357516
83333.3332555826
83333.3332739137
83333.3332888136
83333.3330966803
83333.3331075426
83333.3331039411
83333.3331200072
83333.3331143198
83333.3331087758
83333.3331345133
83333.3331263855
83333.3331184543
83333.3331111021
83333.3331110424
83333.3331202109
83333.3331298641
83333.3331405064
83333.3331512533
83333.333108874
83333.3331196241
83333.3331308518
83333.3331436375
83333.3331569299
83333.333169986
83333.3331049986
83333.3331169682
83333.3331292549
83333.3331440226
83333.3331602067
83333.3331752857
83333.3331901367
83333.3330997996
83333.3331127072
83333.3331257195
83333.3331414846
83333.3331602174
83333.3331785106
83333.3331949404
83333.3332109499
83333.3330935828
83333.3331072118
83333.3331208131
83333.3331369068
83333.3331567714
83333.3331781543
83333.3331977554
83333.3332149782
83333.3332315489
83333.3330865855
83333.333100759
83333.3331148522
83333.3331310311
83333.333150981
83333.3331739059
83333.3331967983
83333.3332170972
83333.3332348462
83333.3332512982
83333.3330789828
83333.3330935688
83333.3331080549
83333.3331242417
83333.3331438196
83333.3331669247
83333.3331916839
83333.3332152722
83333.3332358371
83333.3332540815
83333.3332700242
83333.333070915
83333.3330858171
83333.3331005961
83333.3331167473
83333.3331358082
83333.3331583645
83333.3331835257
83333.3332091484
83333.3332328831
83333.3332535352
83333.3332726505
83333.3332885138
83333.3330624957
83333.3330776228
83333.3330925961
83333.333108665
83333.3331271872
83333.3331489072
83333.3331735622
83333.3331997799
83333.333225583
83333.3332490853
83333.33327007
83333.3332923251
83333.3330871414
83333.3330982297
83333.3330947164
83333.3331110112
83333.3331054167
83333.3330999618
83333.3331259597
83333.3331178703
83333.3331100116
83333.3331027035
83333.3331433207
83333.3331324977
83333.3331218372
83333.3331121822
83333.3331030252
83333.3331011875
83333.3331119601
83333.3331232381
83333.333136114
83333.3331495726
83333.3331628579
83333.3330975829
83333.3331096114
83333.3331219913
83333.333136898
83333.3331533149
83333.3331687382
83333.3331839891
83333.3330925962
83333.3331055955
83333.3331187323
83333.3331346822
83333.3331537058
83333.3331724078
83333.3331893641
83333.3332059624
83333.333086539
83333.333100288
83333.3331140364
83333.3331303427
83333.3331505385
83333.3331723831
83333.3331925643
83333.3332104647
83333.3332277433
83333.3330796579
83333.3330939737
83333.3331082308
83333.3331246371
83333.3331449324
83333.3331683498
83333.3331918661
83333.3332128922
83333.3332314194
83333.3332486334
83333.3330721377
83333.333086883
83333.3331015454
83333.3331179683
83333.3331378913
83333.3331614889
83333.3331868874
83333.3332112335
83333.3332326378
83333.3332516988
83333.3332684149
83333.3330641209
83333.3330792015
83333.3330941744
83333.333110575
83333.3331299786
83333.3331530096
83333.3331787873
83333.3332051531
83333.3332297301
83333.3332512654
83333.3332712229
83333.333288033
83333.3330557333
83333.3330710685
83333.3330862706
83333.3331026163
83333.333121484
83333.3331436522
83333.3331688768
83333.3331957834
83333.3332223747
83333.3332467282
83333.3332685835
83333.3332918047
83333.3330470735
83333.3330625823
83333.333077929
83333.3330941803
83333.3331125327
83333.33313378
83333.3331580233
83333.3331844856
83333.3332116955
83333.3332379416
83333.3332616065
83333.3332837372
83333.3330774405
83333.3330886255
83333.3330852352
83333.3331015884
83333.3330961563
83333.333090837
83333.3331168645
83333.3331089069
83333.3331011926
83333.3330939762
83333.3331347543
83333.3331239616
83333.3331133732
83333.3331037814
83333.3330946838
83333.33315508
83333.3331416399
83333.3331281044
83333.3331152148
83333.3331039429
83333.3330931941
83333.333089882
83333.3331019281
83333.3331143539
83333.3331293313
83333.3331459014
83333.3331616001
83333.3331771993
83333.3330851303
83333.3330981857
83333.3331114081
83333.333127486
83333.3331467284
83333.3331657698
83333.3331831946
83333.3332003267
83333.3330792526
83333.3330930921
83333.3331069557
83333.3331234312
83333.3331438999
83333.3331661476
83333.3331868684
83333.3332054376
83333.3332234624
83333.3330725034
83333.3330869386
83333.3331013343
83333.3331179337
83333.3331385297
83333.3331623916
83333.3331864951
83333.3332082371
83333.3332275666
83333.3332456037
83333.3330650753
83333.3330799625
83333.3330947822
83333.3331114131
83333.333131646
83333.333155698
83333.3331817063
83333.3332067988
83333.3332290541
83333.3332489753
83333.3332665432
83333.33305712
83333.3330723596
83333.3330875045
83333.3331041237
83333.3331238379
83333.3331473139
83333.3331736897
83333.3332008014
83333.3332262456
83333.3332487025
83333.333269519
83333.3332871349
83333.3330487645
83333.3330642789
83333.3330796721
83333.3330962523
83333.3331154333
83333.3331380299
83333.3331638193
83333.3331914302
83333.333218852
83333.3332441204
83333.3332669112
83333.33329114
83333.3330401205
83333.3330558392
83333.3330714136
83333.3330879315
83333.3331066049
83333.33312826
83333.3331530223
83333.3331801243
83333.3332080879
83333.3332351775
83333.3332597317
83333.3332826818
83333.3333033427
83333.3330312742
83333.3330471225
83333.333062803
83333.3330792211
83333.3330974215
83333.3331181799
83333.3331417877
83333.3331678723
83333.3331954233
83333.3332230372
83333.3332491599
83333.3332724287
83333.3330677012
83333.3330788388
83333.3330756018
83333.3330918238
83333.3330866178
83333.3330814773
83333.3331072469
83333.3330995352
83333.3330920456
83333.3330849725
83333.3331255212
83333.3331149001
83333.3331044938
83333.3330950405
83333.3330860548
83333.3331465409
83333.3331330837
83333.3331195988
83333.3331067932
83333.3330955934
83333.3330849191
83333.3331697081
83333.333153812
83333.3331379323
83333.3331213126
83333.3331063486
83333.333093932
83333.3330819146
83333.3330774163
83333.3330904878
83333.3331037499
83333.3331198866
83333.333139257
83333.3331585521
83333.3331763902
83333.3331940344
83333.3330717362
83333.333085632
83333.3330995733
83333.3331161636
83333.3331368304
83333.3331594
83333.3331805916
83333.3331997738
83333.3332184788
83333.3330651338
83333.3330796607
83333.3330941645
83333.3331109154
83333.3331317544
83333.333155996
83333.3331806328
83333.3332030665
83333.3332232197
83333.3332421727
83333.3330578087
83333.3330728164
83333.3330877698
83333.333104576
83333.3331250748
83333.3331495303
83333.3331761029
83333.3332019174
83333.3332250334
83333.3332458687
83333.3332643899
83333.3330499206
83333.3330653027
83333.333080602
83333.3330974133
83333.3331174033
83333.3331412835
83333.3331682214
83333.3331960596
83333.3332223713
83333.3332457828
83333.333267534
83333.3332861025
83333.3330416041
83333.3330572789
83333.3330728421
83333.3330896279
83333.3331090882
83333.3331320809
83333.3331584103
83333.3331867167
83333.333214983
83333.3332412033
83333.3332649682
83333.3332901489
83333.3330329725
83333.3330488732
83333.3330646373
83333.3330813793
83333.3331003406
83333.3331223807
83333.3331476505
83333.3331753959
83333.3332041386
83333.3332321236
83333.3332576269
83333.3332814879
83333.3333029154
83333.3330241266
83333.3330401879
83333.3330560971
83333.333072774
83333.3330912753
83333.3331124051
83333.3331364814
83333.3331631476
83333.333191396
83333.3332198099
83333.3332468054
83333.3332709383
83333.3332920035
83333.3333082404
83333.3330151406
83333.333031294
83333.3330472743
83333.3330638514
83333.3330819263
83333.3331022296
83333.3331251417
83333.333150547
83333.333177793
83333.3332057903
83333.3332331978
83333.3332585419
83333.3330580604
83333.333068996
83333.3330659379
83333.3330818329
83333.333076907
83333.3330719813
83333.333097205
83333.3330898361
83333.3330826463
83333.3330757663
83333.3331156108
83333.3331053389
83333.3330952415
83333.3330860095
83333.3330771911
83333.3331371591
83333.3331238793
83333.3331106042
83333.333098
83333.3330869461
83333.3330764003
83333.3331612936
83333.333145267
83333.3331293692
83333.3331128407
83333.3330979923
83333.3330856471
83333.3330737083
83333.3331870464
83333.3331688701
83333.333150696
83333.3331312638
83333.333111881
83333.3330957682
83333.333082519
83333.333069475
83333.3330640072
83333.333077921
83333.3330918968
83333.3331085365
83333.333129308
83333.3331520964
83333.3331736836
83333.3331934639
83333.333212883
83333.3330575643
83333.3330721513
83333.3330867277
83333.3331035793
83333.3331245883
83333.3331491231
83333.3331742119
83333.333197273
83333.3332181888
83333.3332379557
83333.3330503529
83333.3330654555
83333.3330805138
83333.3330974563
83333.3331181653
83333.3331429576
83333.3331700308
83333.3331965276
83333.3332205063
83333.3332423151
83333.3332619696
83333.3330425385
83333.3330580433
83333.3330734747
83333.3330904484
83333.3331106711
83333.3331349041
83333.3331623531
83333.3331908818
83333.3332180535
83333.333242459
83333.3332652351
83333.333284898
83333.3330342628
83333.333050083
83333.3330657999
83333.3330827671
83333.3331024721
83333.3331258197
83333.3331526488
83333.3331816216
83333.3332107234
83333.333237913
83333.3332627092
83333.3332889824
83333.333025647
83333.3330417124
83333.3330576455
83333.3330745831
83333.3330937994
83333.3331161906
83333.3331419385
83333.3331703091
83333.3331998319
83333.3332287377
83333.3332552305
83333.33328003
83333.3333022908
83333.3330167938
83333.3330330418
83333.3330491415
83333.3330660349
83333.3330848038
83333.3331062806
83333.3331308092
83333.3331580518
83333.3331870081
83333.3332162541
83333.3332441713
83333.3332692281
83333.3332910352
83333.3333077277
83333.3330077916
83333.3330241639
83333.3330403755
83333.3330572066
83333.3330755665
83333.3330962101
83333.3331195442
83333.3331454727
83333.3331733521
83333.3332020877
83333.3332303204
83333.3332565247
83333.3332792179
83333.3332973447
83333.33331119
83333.3329987379
83333.3330151409
83333.3330313897
83333.3330481186
83333.333066099
83333.3330860007
83333.333108239
83333.3331328555
83333.3331594594
83333.3331872413
83333.333215079
83333.3332416636
83333.3330486636
83333.3330592375
83333.3330563772
83333.3330717463
83333.3330671489
83333.3330624655
83333.3330868609
83333.3330799186
83333.3330730939
83333.3330664511
83333.3331051546
83333.3330953645
83333.3330856928
83333.3330767621
83333.3330681631
83333.3331268708
83333.3331140258
83333.3331011502
83333.3330888812
83333.3330780524
83333.3330676901
83333.3331518093
83333.3331358989
83333.333120195
83333.3331039302
83333.3330893154
83333.3330771104
83333.3330653018
83333.3331789203
83333.3331604198
83333.333142113
83333.3331227222
83333.333103476
83333.3330874846
83333.333074306
83333.3330613361
83333.3332067063
83333.3331864167
83333.3331660583
83333.333144184
83333.3331213128
83333.3331005531
83333.3330839411
83333.3330699791
83333.3330560886
83333.3330498144
83333.3330644259
83333.3330790354
83333.3330959275
83333.3331170164
83333.333141735
83333.3331671748
83333.3331908248
83333.3332125616
83333.3332332918
83333.333042725
83333.3330578941
83333.3330730244
83333.3330900564
83333.3331109065
83333.3331359489
83333.3331634334
83333.3331905373
83333.3332153114
83333.3332380002
83333.3332586648
83333.3330349909
83333.3330505953
83333.3330661322
83333.3330832321
83333.3331036354
83333.3331281553
83333.3331560463
83333.333185211
83333.3332132249
83333.3332386586
83333.3332625673
83333.333283585
83333.333026759
83333.3330427063
83333.3330585567
83333.3330756773
83333.3330955874
83333.3331192389
83333.3331465131
83333.3331761061
83333.333206022
83333.3332341958
83333.3332600929
83333.3332875926
83333.3330181568
83333.3330343733
83333.3330504612
83333.333067572
83333.3330870099
83333.3331097112
83333.3331358945
83333.3331648541
83333.3331951371
83333.3332249675
83333.3332524814
83333.3332783037
83333.3333015051
83333.3330092966
83333.3330257153
83333.3330419855
83333.3330590677
83333.3330780719
83333.3330998617
83333.3331248108
83333.333152605
83333.3331822581
83333.3332123465
83333.3332412177
83333.3332672278
83333.3332898409
83333.3333070593
83333.3330002666
83333.3330168325
83333.3330332378
83333.3330502803
83333.3330688921
83333.333089851
83333.3331135882
83333.3331400285
83333.3331685403
83333.3331980286
83333.3332271152
83333.3332542256
83333.3332777269
83333.3332964312
83333.3333106848
83333.332991167
83333.3330078094
83333.3330242946
83333.3330412753
83333.3330595286
83333.333079745
83333.3331023647
83333.3331274503
83333.3331546237
83333.3331830767
83333.3332116779
83333.3332390847
83333.3332637555
83333.3332841613
83333.3333001973
83333.3333124608
83333.3329821547
83333.3329987206
83333.3330151878
83333.3330320602
83333.3330499757
83333.3330695357
83333.3330911591
83333.3331149813
83333.3331407971
83333.3331680313
83333.3331957795
83333.3332229051
83333.3330396575
83333.3330497121
83333.3330470633
83333.3330617121
83333.3330574817
83333.3330530609
83333.3330763476
83333.3330699141
83333.3330635067
83333.3330571373
83333.3330942704
83333.3330850901
83333.3330759488
83333.3330673921
83333.3330590586
83333.3331158695
83333.3331036226
83333.3330913166
83333.3330795101
83333.3330689827
83333.3330588559
83333.3331411005
83333.3331256609
83333.3331104156
83333.3330946156
83333.333080366
83333.3330683729
83333.3330567471
83333.3331694707
83333.3331509246
83333.3331327469
83333.3331136246
83333.3330946923
83333.333078933
83333.3330658871
83333.3330530392
83333.3331990888
83333.3331782107
83333.3331575408
83333.3331355959
83333.3331128311
83333.3330922269
83333.333075731
83333.3330618357
83333.3330480121
83333.3332283034
83333.3332062592
83333.3331836122
83333.333159439
83333.3331337887
83333.3331090284
83333.333087969
83333.3330711056
83333.333056508
83333.3330419103
83333.3330349471
83333.3330501506
83333.3330653155
83333.3330823829
83333.3331032908
83333.3331284743
83333.3331562558
83333.3331838834
83333.3332094699
83333.3332332309
83333.3332552526
83333.3330272976
83333.3330429753
83333.3330585877
83333.3330757705
83333.3330962916
83333.3331210147
83333.3331492549
83333.3331789701
83333.3332077582
83333.3332341306
83333.3332590248
83333.3332812519
83333.3330191119
83333.333035165
83333.3330511248
83333.3330683653
83333.3330884331
83333.333112325
83333.3331399728
83333.3331701208
83333.3332008144
83333.3332299819
83333.3332570469
83333.3332859372
83333.3330105231
83333.3330268736
83333.3330430982
83333.333060357
83333.3330799791
83333.3331029416
83333.3331295047
83333.3331590009
83333.3331900084
83333.3332207588
83333.3332493325
83333.3332762781
83333.3333005547
83333.3330016498
83333.333018227
83333.3330346545
83333.333051905
83333.3330711136
83333.3330931767
83333.3331185025
83333.3331468073
83333.3331771278
83333.3332080493
83333.3332378906
83333.3332648955
83333.3332884033
83333.3333062347
83333.33299259
83333.3330093334
83333.3330259132
83333.3330431406
83333.3330619732
83333.3330832141
83333.3331073214
83333.3331342444
83333.3331633689
83333.3331936058
83333.3332235631
83333.333251604
83333.3332759556
83333.3332953116
83333.3333100444
83333.332983437
83333.3330002853
83333.333016969
83333.3330341598
83333.3330526536
83333.3330731599
83333.3330961407
83333.3331216796
83333.3331494138
83333.3331785389
83333.3332079134
83333.3332361703
83333.3332616813
83333.3332827812
83333.3332993239
83333.3333119696
83333.3329743529
83333.3329911695
83333.3330078918
83333.3330250166
83333.3330431962
83333.3330630503
83333.3330850208
83333.333109264
83333.33313559
83333.3331634295
83333.3331918761
83333.3332197717
83333.333245767
83333.3332683792
83333.3332869008
83333.333301566
83333.3333130468
83333.3329653745
83333.3329821205
83333.3329987198
83333.3330157076
83333.3330335833
83333.3330528602
83333.3330739415
83333.333097016
83333.333122007
83333.3331485271
83333.3331758745
83333.3332030916
83333.3330311885
83333.3330405721
83333.3330381402
83333.3330518909
83333.3330480523
83333.3330439058
83333.3330658297
83333.3330599714
83333.3330540178
83333.333047948
83333.3330830884
83333.3330746551
83333.333066133
83333.3330580103
83333.3330499801
83333.3331042325
83333.3330927764
83333.3330812069
83333.3330699814
83333.3330598246
83333.3330499806
83333.3331294701
83333.3331146795
83333.3331001151
83333.3330849714
83333.3330712133
83333.3330595013
83333.3330481079
83333.3331583864
83333.3331402535
83333.3331225609
83333.3331039839
83333.3330855689
83333.3330701617
83333.3330573116
83333.3330446347
83333.333189977
83333.3331687207
83333.3331480243
83333.3331262878
83333.3331038652
83333.3330835828
83333.3330673027
83333.3330535306
83333.3330398164
83333.3332213975
83333.3331984789
83333.3331753037
83333.3331508743
83333.3331252376
83333.3331006215
83333.3330797217
83333.3330629663
83333.3330484293
83333.3330338847
83333.3332518219
83333.333227957
83333.3332028661
83333.3331764544
83333.3331484267
83333.3331205035
83333.3330953161
83333.3330744492
83333.3330574088
83333.33304225
83333.3330270466
83333.3330194821
83333.3330352046
83333.3330508582
83333.3330680746
83333.3330886385
83333.3331134619
83333.3331419319
83333.3331720892
83333.3332015978
83333.3332290197
83333.3332552958
83333.3332791766
83333.3330113432
83333.333027478
83333.3330435192
83333.3330608413
83333.33308101
83333.333105064
83333.3331329924
83333.3331636039
83333.3331949999
83333.3332250916
83333.3332531939
83333.3332833325
83333.3330027666
83333.3330192316
83333.3330355708
83333.3330529475
83333.3330727105
83333.3330958751
83333.3331227473
83333.3331527089
83333.3331843865
83333.3332160416
83333.3332457141
83333.3332738904
83333.3332994846
83333.3329938762
83333.3330105968
83333.3330271653
83333.3330445613
83333.3330639401
83333.3330862301
83333.333111878
83333.3331406377
83333.3331715794
83333.3332033111
83333.3332341353
83333.333262193
83333.3332866993
83333.3333052695
83333.3329847779
83333.3330016878
83333.3330184301
83333.3330358237
83333.333054848
83333.333076333
83333.3331007673
83333.3331281297
83333.3331578304
83333.3331887949
83333.3332196237
83333.3332486192
83333.3332738697
83333.3332939465
83333.3333092484
83333.3329755705
83333.3329926053
83333.3330094694
83333.3330268445
83333.3330455487
83333.3330663126
83333.3330896215
83333.3331155826
83333.3331438517
83333.3331736343
83333.3332037834
83333.3332329012
83333.3332592785
83333.3332811254
83333.3332982579
83333.3333113552
83333.3329664081
83333.3329834406
83333.3330003714
83333.3330177079
83333.3330361205
83333.3330562449
83333.333078542
83333.3331031882
83333.3331300101
83333.3331584463
83333.3331875862
83333.3332162623
83333.3332430763
83333.3332664399
83333.3332855743
83333.3333007114
83333.3333125564
83333.3329573701
83333.3329743307
83333.3329912062
83333.3330084604
83333.3330265944
83333.3330461494
83333.3330675496
83333.333091004
83333.333116452
83333.333143516
83333.3331714983
83333.3331994288
83333.3332261524
83333.3332503891
83333.3332711946
83333.3332883282
83333.3333022208
83333.3333132747
83333.3329653415
83333.332982088
83333.3329991094
83333.3330169451
83333.3330359906
83333.3330566046
83333.3330790014
83333.3331031909
83333.3331289304
83333.3331556965
83333.3331827066
83333.3330233968
83333.3330319717
83333.3330297518
83333.3330424507
83333.3330390112
83333.3330351414
83333.3330554947
83333.3330502493
83333.3330447698
83333.3330390143
83333.3330718113
83333.333064227
83333.3330563884
83333.3330487429
83333.3330410424
83333.3330920785
83333.3330816405
83333.3330709556
83333.3330604107
83333.3330506823
83333.3330411578
83333.3331168151
83333.3331030202
83333.333089394
83333.3330750944
83333.3330619459
83333.3330505779
83333.3330394614
83333.3331461458
83333.3331285896
83333.3331116467
83333.3330938736
83333.333076175
83333.3330612355
83333.3330486435
83333.3330361831
83333.3331787853
83333.3331576609
83333.3331373865
83333.3331162353
83333.3330944364
83333.333074664
83333.3330587043
83333.3330451121
83333.3330315494
83333.3332131992
83333.3331892453
83333.3331657562
83333.3331413851
83333.3331160515
83333.3330918065
83333.3330712155
83333.3330546552
83333.3330402284
83333.3330257757
83333.3332458751
83333.3332207363
83333.3331949012
83333.3331680224
83333.3331398528
83333.3331120084
83333.3330869881
83333.3330662774
83333.3330493343
83333.3330342243
83333.3330190564
83333.3332770116
83333.3332513053
83333.3332232267
83333.3331946137
83333.3331644672
83333.3331340218
83333.3331054781
83333.3330806807
83333.3330601619
83333.3330429677
83333.3330273095
83333.333011572
83333.3330034773
83333.3330196683
83333.3330357603
83333.3330531197
83333.3330733222
83333.3330974438
83333.333125536
83333.3331564917
83333.3331884973
83333.3332194927
83333.3332488649
83333.3332809613
83333.3329949103
83333.333011468
83333.3330278964
83333.3330453567
83333.3330652094
83333.3330885046
83333.333115597
83333.3331459289
83333.3331781915
83333.3332106874
83333.3332413792
83333.333270686
83333.3332979064
83333.3329859983
83333.3330028447
83333.3330195347
83333.3330370492
83333.3330565585
83333.3330790209
83333.3331049234
83333.3331340649
83333.3331655622
83333.3331980648
83333.3332298782
83333.333259051
83333.3332846922
83333.3333041267
83333.3329768542
83333.3329939176
83333.3330108076
83333.3330283468
83333.3330475317
83333.3330692178
83333.3330939265
83333.3331216718
83333.3331518963
83333.333183551
83333.3332152415
83333.333245218
83333.3332714306
83333.3332923112
83333.3333082781
83333.3329675824
83333.332984793
83333.3330018268
83333.3330193686
83333.3330382563
83333.3330592422
83333.3330828376
83333.3331091769
83333.3331379403
83333.33316835
83333.3331992611
83333.3332292479
83333.3332565155
83333.3332791543
83333.3332969526
83333.3333105852
83333.3329583432
83333.3329755696
83333.3329926884
83333.3330102115
83333.3330288282
83333.3330491921
83333.3330717836
83333.3330968007
83333.3331240891
83333.3331530996
83333.3331829225
83333.3332123747
83333.3332400184
83333.3332641745
83333.3332839848
83333.333299674
83333.3333119563
83333.3329492222
83333.3329663843
83333.3329834794
83333.3330009523
83333.3330193156
83333.3330391266
83333.333060826
83333.3330846412
83333.3331105287
83333.3331381214
83333.3331667228
83333.3331953629
83333.3332228585
83333.3332478497
83333.3332693252
83333.3332870253
83333.3333013749
83333.3333127893
83333.3329573468
83333.3329743319
83333.3329916427
83333.3330097444
83333.3330290566
83333.3330499668
83333.3330727089
83333.3330973094
83333.3331235376
83333.3331508788
83333.3331785457
83333.3332055589
83333.3332308485
83333.3332534546
83333.3332728413
83333.3332890755
83333.3333025308
83333.3333134041
83333.3329653076
83333.3329823681
83333.3330001073
83333.333018943
83333.3330391571
83333.3330609531
83333.3330843954
83333.3331093486
83333.3331354375
83333.3331620426
83333.3330164466
83333.3330240647
83333.3330220423
83333.3330335577
83333.3330305107
83333.3330269058
83333.3330455359
83333.3330409133
83333.3330359104
83333.3330304688
83333.3330606776
83333.3330539922
83333.3330468713
83333.3330397248
83333.3330323663
83333.3330796882
83333.3330704251
83333.3330607263
83333.3330509318
83333.3330416722
83333.3330324931
83333.3331032738
83333.3330908591
83333.3330784092
83333.3330651124
83333.3330526706
83333.3330417006
83333.333030895
83333.3331321341
83333.3331158488
83333.3331000767
83333.3330833933
83333.3330666007
83333.3330522375
83333.3330399597
83333.3330277556