/*--------------------------------*- C++ -*----------------------------------*\
  =========                 |
  \\      /  F ield         | OpenFOAM: The Open Source CFD Toolbox
   \\    /   O peration     | Website:  https://openfoam.org
    \\  /    A nd           | Version:  12
     \\/     M anipulation  |
\*---------------------------------------------------------------------------*/
/*   Windows 32 and 64 bit porting by blueCAPE: http://www.bluecape.com.pt   *\
|  Based on Windows porting (2.0.x v4) by Symscape: http://www.symscape.com   |
\*---------------------------------------------------------------------------*/
FoamFile
{
    format      ascii;
    class       surfaceScalarField;
    location    "400";
    object      phi;
}
// * * * * * * * * * * * * * * * * * * * * * * * * * * * * * * * * * * * * * //

dimensions      [0 3 -1 0 0 0 0];

internalField   nonuniform List<scalar> 
29038
(
2.30694419543983e-06
8.48382313455037e-07
-9.17872009814817e-07
2.37604946183865e-06
8.41343508146606e-07
-9.10455195715273e-07
1.78770396794079e-06
1.4286178732401e-06
-6.06277884916419e-07
1.66123746286741e-06
7.70979946717591e-07
-1.70750984680238e-06
2.44869321566221e-06
8.4201994257741e-07
-9.14674682418948e-07
1.82371990975645e-06
1.41040494809592e-06
-6.0510928876603e-07
1.69234887619982e-06
7.62909937246692e-07
-1.70450042663503e-06
1.83712848249716e-06
2.05995454637891e-06
-6.56623756466263e-07
1.53418846810499e-06
1.70990448547782e-06
-1.54216764720574e-06
1.59074797665307e-06
1.04478448726604e-06
-2.7702515936457e-06
2.53326340773572e-06
8.37538456655988e-07
-9.22141474804572e-07
1.8711358214497e-06
1.41513040353332e-06
-6.20583649839391e-07
1.73558518406028e-06
7.70860711580057e-07
-1.72882525243731e-06
1.87626896321221e-06
2.03812727702806e-06
-6.66900446994205e-07
1.55273224949988e-06
1.70152698046166e-06
-1.5623259037209e-06
1.62806765097863e-06
1.0410244064923e-06
-2.78285709549151e-06
2.06929726292416e-06
2.84887110085429e-06
-8.2781973519398e-07
2.17300204668298e-06
2.67859485626668e-06
-1.66753958096538e-06
1.79505891544878e-06
2.05993436225528e-06
-2.59289261938558e-06
1.7317888811688e-06
1.30714295121026e-06
-4.11148291366799e-06
2.63128188872642e-06
8.3255398816768e-07
-9.30587421588176e-07
1.93219077288834e-06
1.41241992406244e-06
-6.359996522238e-07
1.79448487642684e-06
7.71821446190499e-07
-1.75292657501024e-06
1.93066956248988e-06
2.04991577398771e-06
-6.89232326850277e-07
1.58680878346739e-06
1.72398216834177e-06
-1.60787182130693e-06
1.67959665255645e-06
1.05677318041561e-06
-2.83715918831577e-06
2.12145158758096e-06
2.83042927574964e-06
-8.44489224238477e-07
2.22902787869532e-06
2.68246392360615e-06
-1.7039246207998e-06
1.84390968855784e-06
2.07037604949016e-06
-2.64055936001448e-06
1.78751469042741e-06
1.30713689451327e-06
-4.14573535932944e-06
2.32138411722147e-06
3.69149736348502e-06
-8.99948262666176e-07
2.37028258298859e-06
3.33769952339902e-06
-1.55142605850202e-06
1.66904671011079e-06
2.30799929356314e-06
-1.96062072161516e-06
1.80040469287543e-06
2.09232036313519e-06
-3.43388028803518e-06
1.8739749522522e-06
1.43532138543361e-06
-5.60058835955552e-06
2.74370630327859e-06
8.27807085842058e-07
-9.40255798906983e-07
2.0076875733946e-06
1.40742450403661e-06
-6.50427856572738e-07
1.87039190019612e-06
7.70107260187226e-07
-1.7766668454428e-06
1.99730026751311e-06
2.05205299257407e-06
-7.06322725010311e-07
1.63419391677352e-06
1.73549458783482e-06
-1.64713477860343e-06
1.74714905891598e-06
1.06820225441333e-06
-2.88871529819654e-06
2.18879071344542e-06
2.84792924509837e-06
-8.65397989592919e-07
2.29906054928415e-06
2.717131617264e-06
-1.75249337807345e-06
1.9028988103388e-06
2.10689578784354e-06
-2.71702135161732e-06
1.85694794311593e-06
1.32654372067393e-06
-4.233156438326e-06
2.39005868811507e-06
3.68063809371583e-06
-9.1890548120875e-07
2.4424594133211e-06
3.35286786826511e-06
-1.58714478598266e-06
1.71586429051403e-06
2.32708842118596e-06
-2.00747958232544e-06
1.85975900755682e-06
2.10621882386238e-06
-3.49899685852602e-06
1.94780513775068e-06
1.4385643293972e-06
-5.65812424642218e-06
2.53873992859027e-06
4.48404128456654e-06
-8.63720984350928e-07
2.26583147423411e-06
3.66563610127006e-06
-1.2941125505809e-06
1.29619350371877e-06
2.2628048349005e-06
-1.52968559908846e-06
1.10674225058489e-06
2.08593092995739e-06
-1.9728769280727e-06
1.67914882440581e-06
2.02378063872636e-06
-4.07765836974889e-06
1.90159912404627e-06
1.50826977483748e-06
-7.17725248376975e-06
2.87115554760636e-06
8.23696540723683e-07
-9.51164939478077e-07
2.09927695443107e-06
1.40260263757288e-06
-6.66443495677363e-07
1.96542986496357e-06
7.683981615249e-07
-1.80373930280655e-06
2.07633363637492e-06
2.04996625116362e-06
-7.21622793071832e-07
1.69687955481928e-06
1.73899425331479e-06
-1.68208451888789e-06
1.83328293207859e-06
1.0750627034823e-06
-2.937896228041e-06
2.26665941316538e-06
2.85503417620982e-06
-8.80906588631951e-07
2.38109715594526e-06
2.74377696867472e-06
-1.79672890159405e-06
1.97438823794024e-06
2.13977940327631e-06
-2.790257436818e-06
1.94159536533303e-06
1.34430769314869e-06
-4.31769819222369e-06
2.4706398949486e-06
3.70284210627514e-06
-9.3555023313172e-07
2.52809070017323e-06
3.39283292518411e-06
-1.62680663546344e-06
1.77458924894078e-06
2.36768106573383e-06
-2.07203643582956e-06
1.92890174981927e-06
2.14279210110843e-06
-3.60244451811288e-06
2.03408767730724e-06
1.45768863926269e-06
-5.77714732377706e-06
2.61968969388162e-06
4.48076342434494e-06
-8.81093393175521e-07
2.33702024172902e-06
3.68569076228339e-06
-1.32296610855578e-06
1.3196960316485e-06
2.27951126952961e-06
-1.56309550969036e-06
1.12331164644695e-06
2.09863850222259e-06
-2.01648167377248e-06
1.73826986160137e-06
2.0343009633689e-06
-4.1538575080544e-06
1.98551585618454e-06
1.51324276517257e-06
-7.25527739515895e-06
2.71329202241449e-06
5.18758824947778e-06
-7.83092755582441e-07
2.11202650055427e-06
3.81488991110664e-06
-1.07476752676686e-06
1.11151102018491e-06
2.25010330048347e-06
-1.29391003375213e-06
8.55399531982536e-07
2.07542693564211e-06
-1.5171138137972e-06
8.91944901369404e-07
2.12793943989979e-06
-2.08110332798457e-06
1.45039612346977e-06
2.00500971305437e-06
-4.62223389457063e-06
1.78009561449504e-06
1.6323161160575e-06
-8.8849577018923e-06
3.01364724161732e-06
8.20423885487134e-07
-9.62936806639681e-07
2.2085230860653e-06
1.39882662347082e-06
-6.84422728582882e-07
2.08206842846585e-06
7.67403650541697e-07
-1.83525539301831e-06
2.16921865466109e-06
2.04690468350768e-06
-7.37226269308738e-07
1.77774779404555e-06
1.73871881151046e-06
-1.7176967436819e-06
1.94146688145268e-06
1.07947303074424e-06
-2.99143140430289e-06
2.35485146059548e-06
2.85610817990173e-06
-8.94380757679581e-07
2.47520817126655e-06
2.76160752473239e-06
-1.83843821749218e-06
2.06206634238059e-06
2.16542030758394e-06
-2.86017704494489e-06
2.04625927089513e-06
1.35597748826524e-06
-4.39856585857345e-06
2.56052439468139e-06
3.71342843634215e-06
-9.48330587022574e-07
2.62767246519699e-06
3.43046529889596e-06
-1.66726801789122e-06
1.84983012326631e-06
2.41181180791796e-06
-2.14404899153449e-06
2.01328373788519e-06
2.18209376778533e-06
-3.71245292952769e-06
2.13479918937798e-06
1.476891368995e-06
-5.89533213784126e-06
2.70956613277774e-06
4.50612721521794e-06
-8.93196258831119e-07
2.41990193032439e-06
3.72648736611992e-06
-1.35215208153671e-06
1.35377617625739e-06
2.31400825355965e-06
-1.60724013594948e-06
1.15076254632844e-06
2.12931866342344e-06
-2.08603478917409e-06
1.80835623474488e-06
2.06354919472962e-06
-4.27840952716054e-06
2.08039490349063e-06
1.53215328682575e-06
-7.40419133233326e-06
2.80150441826766e-06
5.19003988075931e-06
-7.97515486501445e-07
2.1774579557699e-06
3.83554141255733e-06
-1.09642221720727e-06
1.12422642892657e-06
2.26195194556155e-06
-1.31813644981232e-06
8.51675915742347e-07
2.08306855402303e-06
-1.54380827523792e-06
8.95845545305271e-07
2.13389007378186e-06
-2.11997566457657e-06
1.5036912645472e-06
2.01113253167089e-06
-4.70505336042053e-06
1.86612431589568e-06
1.63780999922688e-06
-8.97913178076543e-06
2.8544517548822e-06
5.79486158316595e-06
-6.89514667935558e-07
1.98550154634861e-06
3.88593868765761e-06
-9.10702179546586e-07
1.03000933705438e-06
2.28598031310266e-06
-1.11923806766227e-06
7.9146836883563e-07
2.10980685446791e-06
-1.32121374413705e-06
7.23034288718741e-07
2.20053504848548e-06
-1.57874464895493e-06
7.60351536108767e-07
2.2214994138652e-06
-2.29556336340147e-06
1.21183200825717e-06
2.10217194631992e-06
-5.13239329460665e-06
1.58918310045174e-06
1.75565369720722e-06
-1.07149557341315e-05
3.17057950206817e-06
8.17906377295737e-07
-9.74846166655578e-07
2.33638493946435e-06
1.39600909159691e-06
-7.03486580554167e-07
2.22217104201592e-06
7.66996410741962e-07
-1.87007477075601e-06
2.27731233573171e-06
2.04367362170182e-06
-7.52995924803244e-07
1.87919243077511e-06
1.73568118221462e-06
-1.75419292131483e-06
2.07501000585426e-06
1.08187441032007e-06
-3.05069292013924e-06
2.45428816702603e-06
2.85368829717086e-06
-9.06271266695457e-07
2.5821708924746e-06
2.77281241237955e-06
-1.87834878686716e-06
2.16773770216462e-06
2.18510774526692e-06
-2.92904592910494e-06
2.17567942351352e-06
1.36292999074772e-06
-4.48381072413481e-06
2.65945155306537e-06
3.71643643686359e-06
-9.59297908989114e-07
2.74034086808573e-06
3.46197029474831e-06
-1.70747308000616e-06
1.9417912778205e-06
2.45222033027292e-06
-2.21723177774949e-06
2.1153193238577e-06
2.21617979833351e-06
-3.82244993764133e-06
2.25617464427631e-06
1.49048032178364e-06
-6.0104515545355e-06
2.80677727476199e-06
4.51837714868742e-06
-9.02198376100682e-07
2.51660641285667e-06
3.76848773581317e-06
-1.38312371974261e-06
1.40260611816428e-06
2.35453347329002e-06
-1.65884441613502e-06
1.19262797140584e-06
2.1656912984999e-06
-2.16952055576275e-06
1.89448830678763e-06
2.0966792904749e-06
-4.41838415066854e-06
2.19053884076829e-06
1.55148373135845e-06
-7.55700393447687e-06
2.89600868681424e-06
5.21715384754245e-06
-8.05557870116547e-07
2.25259404357916e-06
3.87448010626197e-06
-1.11637086675591e-06
1.1455027957449e-06
2.28882724978805e-06
-1.34826990222102e-06
8.55808431491018e-07
2.10443644217421e-06
-1.58650119098872e-06
9.09399597873865e-07
2.1541548167215e-06
-2.19020426140844e-06
1.56809365939805e-06
2.03218345151051e-06
-4.84288260294773e-06
1.96251245065252e-06
1.65668665892243e-06
-9.1573133949665e-06
2.94524575625233e-06
5.80035036554447e-06
-7.01113486806462e-07
2.04505881243592e-06
3.9049166087515e-06
-9.26470749972294e-07
1.03909527539084e-06
2.29293168448334e-06
-1.13649953484593e-06
7.83979531679078e-07
2.11249173645817e-06
-1.34007216536138e-06
7.12060735775787e-07
2.20221116030261e-06
-1.60115580094794e-06
7.5956555470477e-07
2.22273450524899e-06
-2.33079989282429e-06
1.25657718499864e-06
2.10452252328556e-06
-5.21654176345202e-06
1.66782711138718e-06
1.75746895010781e-06
-1.08152581739307e-05
2.98078474855557e-06
6.30948817596259e-06
-5.96819465164338e-07
1.89118175427137e-06
3.92610757447679e-06
-7.81089651800325e-07
9.97951889974795e-07
2.3434036342399e-06
-9.75788517179993e-07
7.7950835299246e-07
2.166310702707e-06
-1.16847639404722e-06
6.96056651417839e-07
2.25844207044815e-06
-1.36635813616712e-06
6.48694852376906e-07
2.35041043983709e-06
-1.69463992511523e-06
6.54059067178924e-07
2.36553450114889e-06
-2.55486833101156e-06
9.83325915658287e-07
2.2910793535496e-06
-5.69983375255391e-06
1.35604784600408e-06
1.98470759688134e-06
-1.27653127596698e-05
3.33988716973335e-06
-9.85015362879868e-07
8.15697838616165e-07
2.48278602823688e-06
1.39397870830776e-06
-7.22499947310099e-07
2.38608880183025e-06
7.67168120605906e-07
-1.90596787559391e-06
2.40110349912046e-06
2.03984563587466e-06
-7.67647425505948e-07
2.00241964981957e-06
1.72962206962581e-06
-1.7893824752174e-06
2.23632073267066e-06
1.08207545891412e-06
-3.11346857678394e-06
2.56565739632226e-06
2.84814921249104e-06
-9.15875281491449e-07
2.70220071238917e-06
2.77745463945334e-06
-1.91486336786617e-06
2.29240584649119e-06
2.19852364978247e-06
-2.99554297318452e-06
2.33419110136632e-06
1.36556787932325e-06
-4.57478757581565e-06
2.76746404134385e-06
3.71374980211119e-06
-9.68109229703663e-07
2.86557288882631e-06
3.48686600365927e-06
-1.74561862816073e-06
2.05004836322165e-06
2.48755550508168e-06
-2.28909401748159e-06
2.23641981722816e-06
2.24426004098911e-06
-3.93149675865932e-06
2.40446281878889e-06
1.49804523603707e-06
-6.13015782471264e-06
2.91106939798933e-06
4.52192153144897e-06
-9.09812149945157e-07
2.62670714405382e-06
3.80684160068837e-06
-1.41432310481222e-06
1.46597271512211e-06
2.39325350932053e-06
-1.71189947606292e-06
1.24929020128125e-06
2.19917903941627e-06
-2.25690602578067e-06
1.99947587901832e-06
2.12616562507531e-06
-4.56314222380846e-06
2.32213171300464e-06
1.56599360491857e-06
-7.70806971299197e-06
2.99526760916827e-06
5.22967040669157e-06
-8.1057165491158e-07
2.33988412168451e-06
3.91601322664497e-06
-1.13705152141743e-06
1.17851991408922e-06
2.32147204228069e-06
-1.38309449278354e-06
8.70608572696003e-07
2.13125391913346e-06
-1.63921553234081e-06
9.34959670455608e-07
2.17919992993295e-06
-2.27761638232784e-06
1.64847669356705e-06
2.05668722334644e-06
-5.00401621122431e-06
2.07538169540695e-06
1.6767770905349e-06
-9.34668044434401e-06
3.04058727769055e-06
5.82768179173122e-06
-7.05894514587467e-07
2.11254583005816e-06
3.94062951689437e-06
-9.39211452534448e-07
1.05521780809613e-06
2.3129665510331e-06
-1.15664499598375e-06
7.82486989829177e-07
2.12610809992143e-06
-1.36845309442486e-06
7.07479885946158e-07
2.21428638381801e-06
-1.64205825432876e-06
7.66620172265355e-07
2.23485019057603e-06
-2.399943430015e-06
1.31128066198797e-06
2.1192950929722e-06
-5.36024426833362e-06
1.75780570914265e-06
1.77166246917452e-06
-1.10190031292089e-05
3.0713702801366e-06
6.31578731423533e-06
-6.06037283573854e-07
1.94503832780309e-06
3.94227514814554e-06
-7.92365879068954e-07
1.00624609036232e-06
2.34571726573187e-06
-9.87553048215242e-07
7.72681504025787e-07
2.16448049160313e-06
-1.18165971848118e-06
6.84086082777898e-07
2.25626430170502e-06
-1.38215739287353e-06
6.3687490729857e-07
2.34781486875674e-06
-1.71442454053963e-06
6.51233593929799e-07
2.36301898549345e-06
-2.58648225538731e-06
1.01945256016759e-06
2.29056445467444e-06
-5.78578292462226e-06
1.42553708267263e-06
1.9849856793995e-06
-1.28697529429116e-05
3.09911775594803e-06
6.74197057220553e-06
-5.13083252911009e-07
1.82707685010666e-06
3.95744342251689e-06
-6.75154581412133e-07
9.91244647549972e-07
2.40862551098178e-06
-8.54156342438303e-07
7.90650661470437e-07
2.23172319720002e-06
-1.03576243637025e-06
7.02360592122003e-07
2.31042427893096e-06
-1.20918556535024e-06
6.3966497390193e-07
2.42154580263645e-06
-1.42414577413926e-06
5.87007641058779e-07
2.51347900108121e-06
-1.83048736870274e-06
5.58748915116607e-07
2.56580714074886e-06
-2.8246890342207e-06
7.71438143824515e-07
2.55230923796632e-06
-6.29074363085051e-06
1.10401146440085e-06
2.37681223405019e-06
-1.5191874338266e-05
3.5170445918045e-06
-9.90123255188786e-07
8.12950423300464e-07
2.57190173137781e-06
-1.93757604823623e-06
7.66729159262542e-07
2.64582643804035e-06
-7.39283475487762e-07
1.39191761673821e-06
2.53985698595541e-06
2.03471367562142e-06
-7.79526936751605e-07
2.1470239292807e-06
1.71994036592411e-06
-1.81991234421842e-06
2.42659707494154e-06
1.0799773508951e-06
-3.17623719389508e-06
2.68854471576048e-06
2.83876027158327e-06
-9.21835228930459e-07
2.83470992620475e-06
2.77442821257526e-06
-1.94500182175023e-06
2.4363349478116e-06
2.20458286582631e-06
-3.05583102952438e-06
2.52498756062894e-06
1.36353783299874e-06
-4.66781700030205e-06
2.88398223859079e-06
3.70517581899615e-06
-9.73577856762644e-07
3.00251344831972e-06
3.50413440585466e-06
-1.77953838897369e-06
2.17408012568156e-06
2.51659014113846e-06
-2.35699587537767e-06
2.37765294064569e-06
2.26538097696502e-06
-4.03659693380361e-06
2.58594117234918e-06
1.49956163119555e-06
-6.25584060260736e-06
3.02218661678626e-06
4.51806481018778e-06
-9.15445467687174e-07
2.74934998763775e-06
3.8398636733302e-06
-1.44377711348055e-06
1.54346521881994e-06
2.42787931479283e-06
-1.76346275590777e-06
1.32135561941551e-06
2.22771398485842e-06
-2.3446262876437e-06
2.12540018571489e-06
2.15057873529474e-06
-4.70997328653474e-06
2.48301051684064e-06
1.57502317175225e-06
-7.86608986655823e-06
3.09937755774124e-06
5.23264136646791e-06
-8.14845497000379e-07
2.43925304339933e-06
3.95542494675313e-06
-1.15778920989421e-06
1.2231882083808e-06
2.35240808540187e-06
-1.41815515093316e-06
8.96178818053711e-07
2.15572107244631e-06
-1.69401438800257e-06
9.73446299900685e-07
2.20156414122512e-06
-2.37080481101404e-06
1.74835620883349e-06
2.07824779678943e-06
-5.17532878645501e-06
2.21124346857278e-06
1.69208374949912e-06
-9.53606505054336e-06
3.13864481428424e-06
5.83973055505628e-06
-7.08147188544356e-07
2.19032847235798e-06
3.9796051591861e-06
-9.51977225578708e-07
1.08074821305406e-06
2.33792721780318e-06
-1.17904116709238e-06
7.89313752388004e-07
2.14410728073821e-06
-1.40277643570541e-06
7.11213998982854e-07
2.23029747277603e-06
-1.69405332371804e-06
7.83635871684778e-07
2.25058910354644e-06
-2.48855255655813e-06
1.38104346546275e-06
2.13718328841404e-06
-5.53423506593929e-06
1.86398188293095e-06
1.787906643014e-06
-1.12408283527844e-05
3.16438905248375e-06
6.34290399446908e-06
-6.08259315130547e-07
2.00572380597036e-06
3.9740558797474e-06
-8.00033646740317e-07
1.0204771969984e-06
2.35974933378691e-06
-1.00023221233139e-06
7.70833577407566e-07
2.17177133988864e-06
-1.20045871227734e-06
6.76820369601635e-07
2.26179639594076e-06
-1.40870225329455e-06
6.3022296131056e-07
2.35291571751864e-06
-1.75348477760652e-06
6.54711116915804e-07
2.36948044771229e-06
-2.65362747061593e-06
1.06485454798714e-06
2.30193937720713e-06
-5.93596640015541e-06
1.50926267763444e-06
1.9992635911737e-06
-1.31020395652857e-05
3.18714790674715e-06
6.74833917733228e-06
-5.20596329091193e-07
1.87606178369996e-06
3.97053101666515e-06
-6.83306007023238e-07
9.99706724024748e-07
2.40661854823583e-06
-8.61727920499312e-07
7.85859144386652e-07
2.22587947045436e-06
-1.04415396631034e-06
6.92447793316588e-07
2.3043402259465e-06
-1.21982165652064e-06
6.27948716374787e-07
2.41535828960561e-06
-1.43799266562117e-06
5.76282788301004e-07
2.50718271550395e-06
-1.84787511833239e-06
5.5501525191524e-07
2.56045587751185e-06
-2.8526495901711e-06
8.00161101558859e-07
2.55074341364702e-06
-6.3802979055532e-06
1.16424604848874e-06
2.38173035175122e-06
-1.53117410247363e-05
3.2128134574265e-06
7.1048900304889e-06
-4.40932819097656e-07
1.78888040251634e-06
3.98638768639112e-06
-5.85446909785237e-07
9.97741690760092e-07
2.47364187038913e-06
-7.48769913505181e-07
8.13128962158857e-07
2.29927383174174e-06
-9.18486667875805e-07
7.24259314735018e-07
2.36124422817806e-06
-1.07755277089805e-06
6.54137367983906e-07
2.46645593913982e-06
-1.24252395080181e-06
5.94062425093458e-07
2.5849670050031e-06
-1.48390880841679e-06
5.32463256934494e-07
2.70771699292006e-06
-1.96232678539438e-06
4.75308154015437e-07
2.83190665634693e-06
-3.09939773492561e-06
5.94958194634077e-07
2.96503082829593e-06
-6.89377941317112e-06
8.51359163531843e-07
3.27831937508776e-06
-1.8499651141493e-05
3.69438472450956e-06
-9.86308218392809e-07
8.08963846786044e-07
2.77440228917724e-06
-1.95670967010969e-06
7.64063330214288e-07
2.82098804027607e-06
-7.50586084201653e-07
1.38835256239517e-06
2.64470529693932e-06
-3.23038709674065e-06
1.07468298385381e-06
2.30982211749098e-06
-1.84028368832311e-06
1.70489767755066e-06
2.6911459532861e-06
-7.86261604997694e-07
2.02687813782071e-06
2.82133624195166e-06
2.82427784138219e-06
-9.22373928591545e-07
2.97799725463111e-06
2.76211350293312e-06
-1.96504895335027e-06
2.59915319137985e-06
2.20198173196097e-06
-3.10473667769822e-06
2.75167296631452e-06
1.35683811806337e-06
-4.75976042277722e-06
3.00749321534431e-06
3.68944318936895e-06
-9.74212202306292e-07
3.14942692755799e-06
3.51199987838209e-06
-1.80636662817762e-06
2.31304214963896e-06
2.5376352185804e-06
-2.41705988040721e-06
2.53953355395527e-06
2.27795009761343e-06
-4.13213538832348e-06
2.80471135955942e-06
1.49452015271522e-06
-6.38112176624648e-06
3.13874174387123e-06
4.50620645920452e-06
-9.17605007895436e-07
2.8832485530132e-06
3.86606964059101e-06
-1.46942360723396e-06
1.63472923349984e-06
2.4570438665307e-06
-1.81127528728823e-06
1.4092821988189e-06
2.25018360154199e-06
-2.42973063776616e-06
2.27435014600442e-06
2.16867944971743e-06
-4.85468086644168e-06
2.68190164817312e-06
1.57820106270514e-06
-8.03294656842409e-06
3.20776270628475e-06
5.22696434212186e-06
-8.17298706997549e-07
2.54984860237037e-06
3.99074659097316e-06
-1.17694435547562e-06
1.27912676504814e-06
2.37927076451093e-06
-1.45111177518407e-06
9.327564360739e-07
2.17520474511946e-06
-1.74753813548404e-06
1.02624417008999e-06
2.21918300472768e-06
-2.46603668054459e-06
1.87134663359163e-06
2.09557559094841e-06
-5.35354526007001e-06
2.37946293895081e-06
1.70234861803142e-06
-9.736703979672e-06
3.23920159268886e-06
5.84198583288296e-06
-7.09917536600123e-07
2.27821367166912e-06
4.01727592838845e-06
-9.64595623994245e-07
1.11555619149531e-06
2.36081136764003e-06
-1.20100708878699e-06
8.04700558196049e-07
2.15963794191171e-06
-1.43746413679818e-06
7.23832193713099e-07
2.24363948949791e-06
-1.74871319279725e-06
8.12030185144218e-07
2.26379076545329e-06
-2.58475831572876e-06
1.46991412162678e-06
2.15250577239769e-06
-5.72468186865335e-06
1.99385324378199e-06
1.79988835785601e-06
-1.1465862633304e-05
3.25780978930001e-06
6.35477241355925e-06
-6.08478147293486e-07
2.07518709573102e-06
4.00921289606379e-06
-8.07241576169006e-07
1.04245943261194e-06
2.37789818434248e-06
-1.01393117129379e-06
7.75772698135557e-07
2.18245626457534e-06
-1.22232997829861e-06
6.75936377371758e-07
2.27000690322005e-06
-1.44160454703886e-06
6.30293827900294e-07
2.36075298266807e-06
-1.80430439157033e-06
6.6662945193887e-07
2.37907280331416e-06
-2.74237812980206e-06
1.1240869902893e-06
2.3171044161525e-06
-6.12272301347372e-06
1.60371244779881e-06
2.01659984389938e-06
-1.33519268203679e-05
3.27618191412352e-06
6.77509699143305e-06
-5.21256571551397e-07
1.9306789617931e-06
3.99843623971408e-06
-6.87275583698134e-07
1.01326072399997e-06
2.41540679014331e-06
-8.69250085644822e-07
7.85290043061306e-07
2.22800074824197e-06
-1.05588738294065e-06
6.86312450198521e-07
2.30442053750834e-06
-1.23694541356829e-06
6.20080528327296e-07
2.41480924821476e-06
-1.46273655685508e-06
5.69785515411935e-07
2.50724823985495e-06
-1.88477034701607e-06
5.5670461503932e-07
2.56380167525293e-06
-2.91720017165596e-06
8.38190042644284e-07
2.56301117547433e-06
-6.53779775315111e-06
1.24786536306183e-06
2.40226608139406e-06
-1.55879601986234e-05
3.29711653698952e-06
7.1113268341606e-06
-4.47308306448104e-07
1.83379450647055e-06
3.99631106176413e-06
-5.91308094158274e-07
1.00676017296794e-06
2.46764929341371e-06
-7.53353817928664e-07
8.10760044080431e-07
2.28958577397967e-06
-9.23060411203342e-07
7.1684866964643e-07
2.35118313325093e-06
-1.08358058808625e-06
6.44501842146433e-07
2.45637652600376e-06
-1.25120382334428e-06
5.84113975327522e-07
2.57491326779637e-06
-1.49578155990136e-06
5.23658411941663e-07
2.6982981368783e-06
-1.97692783978007e-06
4.71662676704304e-07
2.82484463155044e-06
-3.12311796888987e-06
6.19309246718676e-07
2.96421273406677e-06
-6.98715326475105e-06
9.02087642456498e-07
3.28938866443714e-06
-1.86518883839094e-05
3.32236032623317e-06
7.40865919800194e-06
-3.78127807244883e-07
1.76700589946042e-06
4.01170362664181e-06
-5.06507636871086e-07
1.01024887262354e-06
2.53430442416998e-06
-6.5558955102405e-07
8.40418180595997e-07
2.36484506316893e-06
-8.13238173351096e-07
7.54105634389941e-07
2.41090120330985e-06
-9.61720841693077e-07
6.80708338972602e-07
2.50072763908965e-06
-1.1027212197433e-06
6.16659516194096e-07
2.6190576853331e-06
-1.26681952403446e-06
5.56072498422557e-07
2.76456153335304e-06
-1.53180629361418e-06
4.85517300883249e-07
2.94223774013138e-06
-2.06553438945913e-06
4.10219521270919e-07
3.1906411587121e-06
-3.32165919011257e-06
4.8585448987131e-07
3.76532585874863e-06
-7.38758925977774e-06
5.32002838180486e-07
6.33218606436827e-06
3.86182982704213e-06
-9.70232406457354e-07
8.02778842557559e-07
2.984977865491e-06
-1.95477809317959e-06
7.57871589334363e-07
3.00097977227271e-06
-7.52844697148851e-07
1.38178884225294e-06
2.88390078730599e-06
-3.26010961057191e-06
1.06419775974806e-06
2.48489376169873e-06
-1.84362773156729e-06
1.68201018232494e-06
2.84999581415839e-06
-7.84973118693043e-07
2.01445221625652e-06
3.01550026667262e-06
-4.83969487899645e-06
1.34547784368883e-06
2.77859019237155e-06
-3.1337031667843e-06
2.18865013937609e-06
3.12823537807443e-06
-1.9699170724411e-06
2.73827363154995e-06
2.96060115914089e-06
-9.15319526259817e-07
2.80290949490023e-06
3.13530327174483e-06
3.66484814548787e-06
-9.68401997018829e-07
3.30345732130378e-06
3.50829062480123e-06
-1.82262062475024e-06
2.46561554376458e-06
2.54866481890716e-06
-2.46432034769735e-06
2.72313971048193e-06
2.28044289973946e-06
-4.21194566606803e-06
3.07022335270901e-06
1.48412293890006e-06
-6.50939207333864e-06
3.25843498350368e-06
4.48470723018374e-06
-9.14956965109481e-07
3.02647048046735e-06
3.8834918546292e-06
-1.48896509236208e-06
1.73914932378972e-06
2.47913178241553e-06
-1.85229746346366e-06
1.51318021727258e-06
2.26493389372058e-06
-2.50794858954423e-06
2.44767691592585e-06
2.17871832435974e-06
-4.98968144857049e-06
2.92249275545795e-06
1.57313592516037e-06
-8.19485806317766e-06
3.31879431846851e-06
5.21178973357448e-06
-8.16624779506122e-07
2.67029255385666e-06
4.02040869904555e-06
-1.19239159706306e-06
1.34592053101142e-06
2.40088931855841e-06
-1.48006555364688e-06
9.8062964625033e-07
2.18852546682802e-06
-1.79749440229953e-06
1.09473443967093e-06
2.23073706905951e-06
-2.56027851852569e-06
2.02141072874794e-06
2.10758050184142e-06
-5.53416209883371e-06
2.591298205312e-06
1.70718384309413e-06
-9.95200244088214e-06
3.34145175208904e-06
5.83494349976386e-06
-7.10230074496852e-07
2.37535252477662e-06
4.05174706089407e-06
-9.75451227360309e-07
1.15915516811403e-06
2.37947571841369e-06
-1.22074628622506e-06
8.28600499666252e-07
2.17017166299079e-06
-1.46998082397373e-06
7.46162028963949e-07
2.25201928626659e-06
-1.80271294494881e-06
8.53840766161416e-07
2.27255775385912e-06
-2.68484575559842e-06
1.58303736104225e-06
2.16416469205144e-06
-5.92853976521509e-06
2.16008989043381e-06
1.80808091024529e-06
-1.17110782034065e-05
3.35155170866981e-06
6.35676404228432e-06
-6.08539566250593e-07
2.15299803683905e-06
4.04345023398652e-06
-8.13932146332758e-07
1.07184138244563e-06
2.39364890807139e-06
-1.02681743993641e-06
7.87630472832727e-07
2.19028077785653e-06
-1.24350121420995e-06
6.81956598081599e-07
2.27523801440935e-06
-1.47508244251253e-06
6.37991603060042e-07
2.36589287311326e-06
-1.85852519240434e-06
6.88785123932705e-07
2.38647428276899e-06
-2.8409104723739e-06
1.20215194464699e-06
2.33082035037976e-06
-6.33374119061786e-06
1.7231492919049e-06
2.03180774891439e-06
-1.36171766284996e-05
3.36396487875066e-06
6.78684263760781e-06
-5.19873790410044e-07
1.99234285934807e-06
4.02938296797759e-06
-6.9032522377891e-07
1.03317959243561e-06
2.42769475469029e-06
-8.7695495877992e-07
7.90331519904347e-07
2.23260566805672e-06
-1.06911814395648e-06
6.85285910298482e-07
2.30619981450524e-06
-1.25749226462836e-06
6.17355006754047e-07
2.41587846092276e-06
-1.49401109314219e-06
5.68966668774825e-07
2.50949892754536e-06
-1.93392580594908e-06
5.65742725806147e-07
2.57067743703088e-06
-3.00501432814831e-06
8.87520857537889e-07
2.58021919844439e-06
-6.73572699315221e-06
1.32790499996225e-06
2.42511966159823e-06
-1.58571646478632e-05
3.38088886058701e-06
7.13793657016274e-06
-4.46620601673487e-07
1.88326754975665e-06
4.02050610272254e-06
-5.92822867503077e-07
1.02017959857157e-06
2.47190401100373e-06
-7.57193788274897e-07
8.12021203752804e-07
2.28717510462249e-06
-9.29681109821299e-07
7.12772785044375e-07
2.3463849675386e-06
-1.09377138713494e-06
6.38121565191911e-07
2.45072939166832e-06
-1.26648736654071e-06
5.77484532293102e-07
2.56953008405896e-06
-1.51839726248257e-06
5.18544076981438e-07
2.69492975764495e-06
-2.01080074875626e-06
4.73221304855218e-07
2.82749236571951e-06
-3.18326111543071e-06
6.55264242507469e-07
2.98031603630871e-06
-7.15185950055632e-06
9.94421550760792e-07
3.33180865474134e-06
-1.9012157200255e-05
3.4019898075044e-06
7.41528738168191e-06
-3.83594354766101e-07
1.80822522699113e-06
4.01843707509628e-06
-5.1066908351888e-07
1.01982468952007e-06
2.52471002969347e-06
-6.57945583510059e-07
8.4004820205286e-07
2.35147606091095e-06
-8.14868859632458e-07
7.49197183761237e-07
2.39717985505245e-06
-9.64143518126962e-07
6.73520615273053e-07
2.48704882581288e-06
-1.10706097667498e-06
6.08811118475934e-07
2.6053387939207e-06
-1.27378272375957e-06
5.48762262262461e-07
2.75115256919165e-06
-1.54133452595454e-06
4.79461291457911e-07
2.93029697851964e-06
-2.07633646175502e-06
4.08718905486093e-07
3.18277831967306e-06
-3.34019296921721e-06
5.1221319205289e-07
3.76720473741141e-06
-7.49135561034231e-06
5.50008702532776e-07
6.40259615837822e-06
3.42638422224286e-06
7.66110102627044e-06
-3.2276618739709e-07
1.75467102345761e-06
4.0323738925183e-06
-4.3625689846869e-07
1.02527703596687e-06
2.58966947878101e-06
-5.72126744772148e-07
8.68739344196373e-07
2.42608304593961e-06
-7.17749012944764e-07
7.86332329539046e-07
2.45816611229474e-06
-8.56592259325665e-07
7.12775678374734e-07
2.53002115233609e-06
-9.84492939437872e-07
6.46971379568387e-07
2.63637506771742e-06
-1.1126217179234e-06
5.86960031454582e-07
2.77983540497163e-06
-1.27517613896933e-06
5.2444941842554e-07
2.9651773682281e-06
-1.54945704692338e-06
4.49073232407326e-07
3.21937194210271e-06
-2.09134190464864e-06
3.70747696628915e-07
3.66755561201679e-06
-3.22361550625944e-06
4.94762945799128e-07
4.95284007854905e-06
4.00931858165189e-06
-9.41784739148409e-07
7.94289841853322e-07
3.19234399491614e-06
-1.92496229697681e-06
7.47354102719825e-07
3.17644792759285e-06
-7.43613505199592e-07
1.37090517181852e-06
3.13250196209865e-06
-3.24968133424766e-06