/*--------------------------------*- C++ -*----------------------------------*\
  =========                 |
  \\      /  F ield         | OpenFOAM: The Open Source CFD Toolbox
   \\    /   O peration     | Website:  https://openfoam.org
    \\  /    A nd           | Version:  12
     \\/     M anipulation  |
\*---------------------------------------------------------------------------*/
/*   Windows 32 and 64 bit porting by blueCAPE: http://www.bluecape.com.pt   *\
|  Based on Windows porting (2.0.x v4) by Symscape: http://www.symscape.com   |
\*---------------------------------------------------------------------------*/
FoamFile
{
    format      ascii;
    class       volVectorField;
    location    "400";
    object      U;
}
// * * * * * * * * * * * * * * * * * * * * * * * * * * * * * * * * * * * * * //

dimensions      [0 1 -1 0 0 0 0];

internalField   nonuniform List<vector> 
10166
(
(-0.000137880027104216 -0.000157172706619554 -0.000596064132121057)
(-0.000141376241253836 -0.000158040343450972 -0.000643066102736685)
(-0.000205404072164583 -0.000449341362702981 -0.000783040166168336)
(-0.000387197359105347 -0.000209455062280482 -0.000901035559652479)
(-0.000142144942195721 -0.000157552424592674 -0.000693616209004851)
(-0.000207348729992372 -0.000452803696357519 -0.000845710111624656)
(-0.000390709737008787 -0.000209216830806346 -0.000967498571145987)
(-0.000182618523631652 -0.000698976339966123 -0.00069203495211334)
(-0.000472397557334955 -0.000480483972553621 -0.000971450486825669)
(-0.000580493948387673 -0.000155960874337508 -0.000886557591973927)
(-0.000141118445305177 -0.000157981629966102 -0.000738973828649989)
(-0.00020577560651569 -0.000450085422910881 -0.000907841697983022)
(-0.000387389146581641 -0.000206148103782545 -0.00103467502169752)
(-0.000181617436816998 -0.000706305346457748 -0.000753085778256861)
(-0.000472784730982479 -0.000483568533155487 -0.00104901404324119)
(-0.000581457506025644 -0.000155560620388364 -0.000952417224704957)
(-9.65494452250028e-05 -0.00079188462067619 -0.000576209850377927)
(-0.000307853869150087 -0.000536843503381004 -0.000628882468732845)
(-0.000570590360706041 -0.00022581385751089 -0.000755738066003641)
(-0.000656827251426849 -5.55662851157969e-05 -0.000795736105266629)
(-0.000139334373054006 -0.000157590370554074 -0.000777134936122233)
(-0.000203828152838441 -0.000449448715809134 -0.00096232914295308)
(-0.000383252172159469 -0.00020581404295776 -0.00109540649208595)
(-0.000177982066226833 -0.000700129388856431 -0.000811173928770042)
(-0.000465503823382508 -0.000476700931044779 -0.00112707029854944)
(-0.000571268807930886 -0.000150362678049437 -0.00102005056969552)
(-9.33814907066864e-05 -0.000801282775022252 -0.000630551093680896)
(-0.000305406889981809 -0.000543509512383494 -0.000694485855842942)
(-0.00056635089878117 -0.000229791956647076 -0.000822936614444458)
(-0.000656750170764118 -5.61775904350065e-05 -0.000856995140029245)
(-1.4872603368983e-05 -0.000763989371993385 -0.000472827302231072)
(-0.000130133048073422 -0.000439845934068675 -0.000387481307004986)
(-0.000313986816373474 -0.00015251890948668 -0.000395048597293299)
(-0.00054113378617529 1.06303269084111e-05 -0.000533138358001337)
(-0.000655896000884924 3.10817568935074e-05 -0.000696289624891262)
(-0.000136623136018344 -0.000156381751691589 -0.000809506231622909)
(-0.000201338803813839 -0.00044754672191058 -0.00100885501399122)
(-0.000377862976081943 -0.000204999886038732 -0.0011478823347555)
(-0.000176038451358191 -0.000697134766093133 -0.000860702684967952)
(-0.000457230435412569 -0.000472978538998058 -0.00119703823414767)
(-0.000561031941877225 -0.000147942357722947 -0.00108235219976842)
(-8.91662092676687e-05 -0.000795172371929865 -0.000681164820197313)
(-0.000297870401510633 -0.000535552573554348 -0.000758604829504434)
(-0.000552452143505066 -0.000223714050705629 -0.000893380749938416)
(-0.000641576243364021 -5.20085655412244e-05 -0.000921285982549318)
(-1.09905233976828e-05 -0.000773825873005219 -0.000517968408951897)
(-0.000127337258889644 -0.000447237216886073 -0.000440474702405119)
(-0.000312894931232864 -0.000158515719519359 -0.000449722855377556)
(-0.000540786096037314 5.78421515667798e-06 -0.000592071551342917)
(-0.000656333376859041 2.95355448528921e-05 -0.000752715519761968)
(3.10162542232183e-05 -0.000670244243508553 -0.000382669246795769)
(-1.97734029921263e-05 -0.000300308432012632 -0.000250747905731302)
(-0.00012045063604235 -7.14254944354125e-05 -0.000216056973975701)
(-0.000263034433406826 0.000106850068856406 -0.000241038332744617)
(-0.000450397725489485 0.00017019872212276 -0.000382770390261989)
(-0.000604883630495494 9.15026032436339e-05 -0.000610547901549135)
(-0.000133094336968515 -0.000154203519284895 -0.000835919965831558)
(-0.000197667586845396 -0.000443867500666293 -0.00104935871254722)
(-0.000369881121545771 -0.000202868446400791 -0.00119393568505663)
(-0.000174141331606526 -0.000693865307517839 -0.000903558545124905)
(-0.000448993222131442 -0.000469636538975268 -0.00125852749762194)
(-0.000549443370250612 -0.000145626858837533 -0.00113721560587508)
(-8.73571925794909e-05 -0.000791855116254202 -0.000723891168706096)
(-0.000291962298597573 -0.000530102896349659 -0.000814588905034961)
(-0.000540652166984037 -0.000218661762156607 -0.000958685412661126)
(-0.000626178816270136 -4.85138831720374e-05 -0.000982518716992301)
(-8.05263810060768e-06 -0.00076844396040394 -0.00055994274843523)
(-0.000121478634682189 -0.000441124897730408 -0.000489710369237725)
(-0.000304497232692996 -0.000154219936659755 -0.000502999767814272)
(-0.00052716238580085 8.82781069894134e-06 -0.000653137478170283)
(-0.000639613997639145 3.09134763209755e-05 -0.000813133460290397)
(3.39113506716698e-05 -0.000679111225317634 -0.00041990175321362)
(-1.70754586473553e-05 -0.000307096716907349 -0.000293353035778243)
(-0.000120649018358123 -7.86373229254007e-05 -0.000260375225053274)
(-0.000266372295156428 0.000100408660741916 -0.000288174404230782)
(-0.000454348353402738 0.000164735034776517 -0.000435120707465795)
(-0.000607794161197599 8.88654587123762e-05 -0.000662655715914578)
(4.94409118433573e-05 -0.000545945717007886 -0.00030542453706234)
(4.09938829564031e-05 -0.000178200773560775 -0.00016643368313665)
(2.50174759627981e-06 2.65147818424074e-05 -0.00011256406150882)
(-6.13735042743309e-05 0.000196021977369866 -8.84079229905225e-05)
(-0.000180432397440168 0.00028475401596087 -0.00014241084337076)
(-0.000340831934876625 0.000284761499682503 -0.000296815540843511)
(-0.000466172690082845 0.000145784636507394 -0.000541646889479566)
(-0.00012852601215048 -0.000150790207968138 -0.0008557225771773)
(-0.000192614407397761 -0.000438089433591033 -0.00108336841086119)
(-0.000358469332129416 -0.000199406832717457 -0.00123355847717436)
(-0.000171226540154841 -0.000688660160027868 -0.000941538178726359)
(-0.000438752701243823 -0.000465481460726597 -0.00131421409232564)
(-0.000534029744734588 -0.00014259401684794 -0.00118627354399482)
(-8.5845219238095e-05 -0.000788760892935502 -0.000761070358146625)
(-0.000286098041866305 -0.000526801556591666 -0.00086492368032511)
(-0.000528400921412435 -0.000215063994506389 -0.00101780517311884)
(-0.000609606612393011 -4.61393265369646e-05 -0.00103781853432481)
(-6.38779894370504e-06 -0.000765763980957008 -0.000595047815416691)
(-0.000116351710703035 -0.000436040732146594 -0.000531649236698192)
(-0.000294936614300228 -0.000148947643966858 -0.0005505342023687)
(-0.000512334353597795 1.2353578362135e-05 -0.000711543739062238)
(-0.000622044218450668 3.31362652086914e-05 -0.000873045458343685)
(3.54943202371942e-05 -0.000674645540987543 -0.000453868581604934)
(-1.27425843864724e-05 -0.000302576744686116 -0.00033159273425806)
(-0.000116243091733074 -7.70403115500382e-05 -0.000301564384445759)
(-0.00026034737560432 0.00010082025264703 -0.000333260130367403)
(-0.000442507241049096 0.000164513231990699 -0.000488488561884145)
(-0.000591254215094302 8.86473644353742e-05 -0.000720818858733059)
(5.12844580562172e-05 -0.000554161944784526 -0.000335728970679033)
(4.30160665918394e-05 -0.000185041096396667 -0.000201200239232526)
(2.26002267722176e-06 1.91826090841021e-05 -0.000148449269287203)
(-6.44000232250459e-05 0.000188694938333023 -0.000124943312344296)
(-0.000186615859363444 0.000278286261356337 -0.000182907696970468)
(-0.000348637289045464 0.000278336126390513 -0.000343496722126955)
(-0.000474652998510157 0.00014155133422261 -0.000590447302226511)
(5.14807055159874e-05 -0.000410130681236428 -0.000241236366811198)
(7.2382664897814e-05 -7.8616301121613e-05 -0.000108028505609624)
(7.06199757446737e-05 0.000115740258324544 -4.54575868595108e-05)
(5.78188547154494e-05 0.000284876995554936 -3.92559290301329e-06)
(8.84863617930178e-06 0.000378972787116949 -1.44991643230411e-05)
(-9.27413345481308e-05 0.000414288994077917 -8.86217321014376e-05)
(-0.000212712885241069 0.000379177719089947 -0.000248140259574944)
(-0.000270305130426676 0.000211244172432278 -0.000482619039700895)
(-0.000122620035220812 -0.000146340073669423 -0.000867774955279933)
(-0.00018620165729663 -0.000430032697300854 -0.00110981227697969)
(-0.000343700289344031 -0.000194853508732037 -0.00126535362723439)
(-0.000167206601725847 -0.000680982876830485 -0.000973986240731985)
(-0.000426008239895194 -0.000460111893699829 -0.00136357516807212)
(-0.000513879129967659 -0.000138860809423812 -0.00122921329689106)
(-8.4227789196408e-05 -0.000784376649734101 -0.000794294535508448)
(-0.000279252050988183 -0.000523961923330329 -0.000911683177316311)
(-0.000513789272930288 -0.000211978902452245 -0.00107264441082514)
(-0.000588757692772058 -4.42003264554084e-05 -0.00108844515970812)
(-5.312116080752e-06 -0.000763951565017117 -0.000625153768747132)
(-0.000111635660370197 -0.000433187247388465 -0.000569181363615969)
(-0.000285183588503795 -0.000145335914822008 -0.000594040806059062)
(-0.000496797204512754 1.43306857633321e-05 -0.000766144972695)
(-0.00060289135563695 3.43020951422568e-05 -0.000929162973112382)
(3.65140990591968e-05 -0.000673560975215248 -0.000481968068618524)
(-8.77321041645975e-06 -0.000298387131668466 -0.000363777589357457)
(-0.000110038449839007 -7.35244558505358e-05 -0.000337499014835066)
(-0.000250551490119823 0.000103056136766146 -0.000374613488831129)
(-0.000426994834438979 0.000164988985932903 -0.000541118848202491)
(-0.000572957009257342 8.87506932040764e-05 -0.000779891720650423)
(5.2247281795773e-05 -0.000550988223102062 -0.00036298541976226)
(4.57057252301852e-05 -0.000182541001060858 -0.000231597833574282)
(4.7908861899866e-06 1.89518498139583e-05 -0.000180800430467884)
(-6.17068662725665e-05 0.000187030721306225 -0.000158677421078661)
(-0.000182463271616334 0.000276117745411388 -0.000221401766462132)
(-0.00033966235860803 0.000275447085488213 -0.000391395802442116)
(-0.000460891329070859 0.000139152188729186 -0.000647102292913147)
(5.27804290004634e-05 -0.00041842964077382 -0.000266270864222993)
(7.36078287242761e-05 -8.6335672360204e-05 -0.000136830403632666)
(7.01859552661943e-05 0.000107873764210862 -7.48590522756139e-05)
(5.57513172129221e-05 0.000277307451849685 -3.2760649188465e-05)
(4.38524792052e-06 0.000371767873517375 -4.49251168091433e-05)
(-0.000101322460439493 0.000407287109016451 -0.000123803557521319)
(-0.000224701325972621 0.000371255270158366 -0.000289952338393375)
(-0.00028707344663765 0.000204412245238672 -0.00052854671144738)
(4.8418340874272e-05 -0.000279135474677419 -0.000186744907455904)
(8.59308112998973e-05 6.18436986566279e-06 -6.44929069551984e-05)
(0.000104894436215829 0.000193293428399079 3.01282561334793e-06)
(0.00011974658815093 0.000360130377231279 4.90446625744451e-05)
(0.00011144874181401 0.000458869666666515 5.41147738031217e-05)
(7.71149532524275e-05 0.000509821907169083 2.37690477166349e-05)
(5.87520831637025e-06 0.000523761565268331 -5.78031138772838e-05)
(-6.72368442887623e-05 0.000465949137070713 -0.000217539025792327)
(-3.41953992647067e-05 0.000290242607259242 -0.000436942149752907)
(-0.000115386757369684 -0.000141093013121796 -0.000871042998651124)
(-0.000178312784504443 -0.000419663921963521 -0.00112752533095368)
(-0.000325827524729686 -0.000189250526437441 -0.00128790600132304)
(-0.000162374298689649 -0.000670778492860781 -0.000999922627518777)
(-0.000411012402482448 -0.000453332529548211 -0.00140550062524718)
(-0.000488947227463734 -0.000134566037515759 -0.0012648650707737)
(-8.26033802048675e-05 -0.000778135222603569 -0.000822977855686142)
(-0.000271306660710693 -0.000520998527957967 -0.000954513967449953)
(-0.000496307122905274 -0.000209089248283997 -0.0011230211211856)
(-0.000562487428559515 -4.24628104418779e-05 -0.0011340097899925)
(-4.6675165669483e-06 -0.000761651220742568 -0.000651625526227847)
(-0.000107081693021381 -0.00043165468127475 -0.000603741324114678)
(-0.000274906579040125 -0.000143035107133142 -0.000634701730882035)
(-0.000479224768935123 1.50890963678838e-05 -0.000818151924826097)
(-0.000579160005275544 3.39134028703992e-05 -0.000982290477436943)
(3.6852907596904e-05 -0.000673838644198541 -0.00050570475357083)
(-5.36005725885674e-06 -0.000296345976285327 -0.000392048440305483)
(-0.000103850385068832 -7.13520791060523e-05 -0.000370237567935394)
(-0.00024008688540449 0.000104090543194209 -0.000413543483158476)
(-0.000410331803787927 0.000164183172550178 -0.000591967165508413)
(-0.000552629933172679 8.76967304037893e-05 -0.00083730652376557)
(5.23622198812211e-05 -0.000552014336641015 -0.000385280831375138)
(4.80690299057941e-05 -0.000180097136582142 -0.000256912639882862)
(8.61767220521002e-06 2.05499270821134e-05 -0.000208658498293404)
(-5.59965608365134e-05 0.000187313475705766 -0.000188880046997708)
(-0.000173436745077367 0.000275315221888337 -0.000257701298163618)
(-0.000325259152398291 0.000273128299375534 -0.000439858711214784)
(-0.000443934678746143 0.000136836294679756 -0.00070589794605619)
(5.32962208850008e-05 -0.000417293287027615 -0.000288082942433042)
(7.48999387944789e-05 -8.60899726183101e-05 -0.000161421688373459)
(7.13491866042555e-05 0.000105878179703147 -0.000100720762152749)
(5.7132532768803e-05 0.000274321290093233 -5.86718565317285e-05)
(6.08666445713971e-06 0.000368134961440933 -7.29820077347581e-05)
(-9.92930002661864e-05 0.000403088975104376 -0.000157569481160974)
(-0.000219467723670306 0.00036588834862147 -0.000333924613910031)
(-0.000278583598967642 0.000199822407194184 -0.000584686493397833)
(4.94842981389919e-05 -0.000289001501666535 -0.000207663598526161)
(8.65055901155326e-05 -2.87903311886937e-06 -8.8730406740884e-05)
(0.000104052755231268 0.000184433940902143 -2.13843786475952e-05)
(0.000117954394406985 0.000352028025572389 2.5682755600401e-05)
(0.000108447809391795 0.000451179295135844 3.04965561947324e-05)
(7.15194829146903e-05 0.000502055741374779 -2.06683106465141e-06)
(-5.30234522786287e-06 0.000515572676225727 -8.87227289255365e-05)
(-8.40477058075634e-05 0.000455815148316641 -0.000255272644919313)
(-6.03361171107146e-05 0.000280357081872691 -0.000478967561026067)
(4.52703331517613e-05 -0.000158721994943727 -0.000140680658915494)
(8.95760198918871e-05 8.01335391933847e-05 -3.03906022738302e-05)
(0.000119524395476754 0.000261682614519077 4.05445390619602e-05)
(0.000148690014001372 0.000423234085140236 8.74115879290376e-05)
(0.000162359735411754 0.000522611094918179 9.72430250016753e-05)
(0.000161067490764741 0.000583440084795066 8.34573055984723e-05)
(0.000147446214241931 0.000618716043114596 4.46576920579999e-05)
(0.000110585321290924 0.000627626649000594 -3.83522624848343e-05)
(8.98321416748183e-05 0.000553100067283668 -0.000196957478134626)
(0.000251050828997918 0.000416479529906721 -0.000406864899704496)
(-0.000107183934929383 -0.00013522110241666 -0.000864924972960831)
(-0.00030544952194918 -0.000183268630337878 -0.00130005709615893)
(-0.000168951729622748 -0.000407329574298257 -0.00113542452259044)
(-0.00015692266814342 -0.000658115864157813 -0.00101821568126457)
(-0.00039420414100881 -0.00044512648435989 -0.00143881308614955)
(-0.00045929687927656 -0.000129794599200318 -0.00129175248139439)
(-8.11736457379772e-05 -0.000769944212584562 -0.000846288654663491)
(-0.000262587935886569 -0.000517837553295172 -0.00099274585943409)
(-0.000476133194940062 -0.000206333255074899 -0.00116828523311419)
(-0.000530747089223071 -4.0877781398291e-05 -0.00117355173176884)
(-4.60413157154196e-06 -0.00075839243118849 -0.00067429522113566)
(-0.000102729911209812 -0.000431010117395011 -0.000635185269302394)
(-0.000263991054067348 -0.000141863613048865 -0.000672428060832178)
(-0.000459073803162424 1.47649734372415e-05 -0.000867453659785725)
(-0.00054955411092864 3.22843316474937e-05 -0.00103175523705792)
(3.66693523960543e-05 -0.000674402734507204 -0.000526194733512018)
(-2.55604323949393e-06 -0.000296187238752533 -0.000417419430910617)
(-9.79619960552166e-05 -7.07526324093717e-05 -0.000400496352733365)
(-0.000229223239270716 0.000103677635653008 -0.000450610597622629)
(-0.000391816041852446 0.000161953079081232 -0.000641663727381657)
(-0.000527017865772644 8.50299079237465e-05 -0.000893846537303427)
(5.21343205692472e-05 -0.000555038498222985 -0.000403739485702834)
(4.98581981342159e-05 -0.000179689352790182 -0.000278720702906138)
(1.2100334862547e-05 2.07814515054009e-05 -0.000233735860422531)
(-5.00374966418204e-05 0.000186475118445322 -0.000217000085685282)
(-0.00016343473285879 0.000273462709632538 -0.000292770838629598)
(-0.000309206166469181 0.000269526816372212 -0.000488191276805604)
(-0.000424993037447306 0.00013293728747973 -0.000764723463847349)
(5.31263508156919e-05 -0.00042120684727488 -0.000305430026297928)
(7.58377845556699e-05 -8.58996355212726e-05 -0.000181566705487344)
(7.31125479255924e-05 0.000105494366273022 -0.000122695570008516)
(6.04013500280523e-05 0.000272934241469766 -8.1420926126798e-05)
(1.1204570290316e-05 0.000365758875517766 -9.86828653448383e-05)
(-9.18696712163443e-05 0.000399738232703941 -0.000190295904963621)
(-0.000207667598907295 0.000360861962911627 -0.000379486570159366)
(-0.000265826855358834 0.000195594771010576 -0.000643397568774517)
(4.96606230318944e-05 -0.000290206333431737 -0.000225328300607285)
(8.69048775779166e-05 -4.97672643290766e-06 -0.000108895262633985)
(0.000104020011794048 0.000180648474499336 -4.23314707767943e-05)
(0.000118298588729405 0.000347739559002767 5.20640921830731e-06)
(0.000109103200789363 0.000446391793076031 9.2050774257745e-06)
(7.20790113611222e-05 0.000496603379778444 -2.61214509701748e-05)
(-5.79138076886934e-06 0.000509463350089494 -0.000118942787714959)
(-8.33366540434001e-05 0.000448060241783241 -0.000296236193387476)
(-5.77827715502028e-05 0.00027372082392778 -0.000532247508143117)
(4.61899816003578e-05 -0.000170517018834871 -0.000158393462898775)
(8.9752985718101e-05 6.94401787929415e-05 -5.1078771802834e-05)
(0.000118286473220502 0.000251573145669759 2.00829935882229e-05)
(0.000146764488082675 0.000414296727408819 6.81903999245659e-05)
(0.000159820201330283 0.000514335256004147 7.83203761795592e-05)
(0.000157426420355782 0.000575006712605344 6.36927429482103e-05)
(0.000140603364939655 0.000609764808490914 2.24546624083787e-05)
(9.6772442058386e-05 0.000617668477692721 -6.55356597381431e-05)
(6.83112007074656e-05 0.000540486789291356 -0.000230842215081825)
(0.000219809275263283 0.000407461127873212 -0.00044332704840753)
(4.1809172840326e-05 -4.91765805826911e-05 -0.000101851355955583)
(8.73630787742099e-05 0.000145607019737378 -2.96760909590602e-06)
(0.00012279504596371 0.000322389410037297 7.07496866908786e-05)
(0.000158912184740502 0.000477531036120022 0.000117683401367819)
(0.00018462569553616 0.000574152439461498 0.000129008253279831)
(0.00019958803892986 0.00063924408352475 0.000121265377021341)
(0.000209491665749412 0.000686236269822052 9.93060241547885e-05)
(0.000217399295295665 0.000721202169505012 5.72892483550596e-05)
(0.000216275618445148 0.000738647845918147 -2.44967273265193e-05)
(0.000253833811664378 0.000658133724373327 -0.000182650091228998)
(0.000621659859300948 0.000651597813703311 -0.000393104394615971)
(-9.85307557777562e-05 -0.00012883666377853 -0.000849534336851983)
(-0.000283592486043261 -0.000177290653001739 -0.00130115112196668)
(-0.000159007285271825 -0.00039364151913619 -0.00113291804746102)
(-0.000426542888675282 -0.000124978341526792 -0.00130834033150962)
(-0.000376300646754252 -0.000436009914353449 -0.00146259652800414)
(-0.00015107806749136 -0.000643348309362441 -0.00102801976641247)
(-8.01781816430992e-05 -0.000759996106622855 -0.000863373165041238)
(-0.000253628203232817 -0.000514603410557199 -0.00102543064798325)
(-0.000453867485394566 -0.00020373411834303 -0.00120742782769006)
(-0.000493633737817968 -3.94833899836103e-05 -0.00120543735312014)
(-5.30742894487831e-06 -0.00075417174895059 -0.000692720529837899)
(-9.89208987249263e-05 -0.000431331150758576 -0.000663132444577861)
(-0.000252763364183691 -0.00014192895313357 -0.000706840043121254)
(-0.000436507850076018 1.33151391456567e-05 -0.000913608599499617)
(-0.000513847456070303 2.99871321075949e-05 -0.00107704073026319)
(3.58060279322063e-05 -0.000674972225781156 -0.000543383007640014)
(-5.35037659209133e-07 -0.00029777291783721 -0.000439984898824974)
(-9.24814561781954e-05 -7.17050837524056e-05 -0.000428238480992806)
(-0.000217947899421353 0.000101743063006094 -0.000485691251427276)
(-0.000371047246153544 0.000158193031489382 -0.000690068259185919)
(-0.00049458647821562 8.08628880385272e-05 -0.000948331825113056)
(5.15156842741363e-05 -0.000559186466413612 -0.000419375242705421)
(5.09512874586459e-05 -0.000181436065108285 -0.000297795794487559)
(1.48771025612456e-05 1.90695970543599e-05 -0.000256538364568923)
(-4.44762970363468e-05 0.000183907121975688 -0.000243402238063796)
(-0.000153066498002269 0.000270130868441905 -0.000326856279419557)
(-0.000291185070783033 0.000264404234854381 -0.000536763098754353)
(-0.000400110129093819 0.000127580192946418 -0.00082470280788894)
(5.27437415844501e-05 -0.000427625732370343 -0.000319493986540865)
(7.62891446933444e-05 -8.7754692476498e-05 -0.000198591651026714)
(7.45848248031747e-05 0.0001035452454517 -0.000142173670694546)
(6.35197511811785e-05 0.000270306950672083 -0.000102197956574642)
(1.67216442348514e-05 0.000362265927681428 -0.000123062978781792)
(-8.32590678111317e-05 0.000395323992768616 -0.000222746255984209)
(-0.000193773193438784 0.000354370537355124 -0.000426184732265656)
(-0.000251408420532067 0.000189115147079397 -0.000704274377618867)
(4.92516441160375e-05 -0.000296606557023822 -0.000239159647688471)
(8.69415566305014e-05 -7.21082009336958e-06 -0.000125026159361213)
(0.000104369605293676 0.000178108944233603 -5.98076802028709e-05)
(0.000119704936005576 0.000344675798487632 -1.24420591561591e-05)
(0.000111814497552849 0.000442539545153754 -9.85082680044928e-06)
(7.6133904362663e-05 0.000491845202228257 -4.86894181908726e-05)
(-5.93327989856316e-07 0.000503893181855792 -0.000148981113609037)
(-7.53505953336655e-05 0.000440609084688729 -0.000339651993417794)
(-5.14641373715076e-05 0.00026851084923669 -0.000590595403784439)
(4.62457713716495e-05 -0.000173972587459313 -0.000172774410111718)
(8.9573182480134e-05 6.50407155803489e-05 -6.78116918567808e-05)
(0.000117516118440772 0.000245927800831756 2.95563430346038e-06)
(0.000146189798077219 0.000408619470246662 5.17513965713819e-05)
(0.000159523912046248 0.000508422746924456 6.16247609576674e-05)
(0.000157324017900415 0.00056843323566123 4.56883296525168e-05)
(0.000139797628798531 0.000602488635273385 1.49122678706268e-06)
(9.35654420557459e-05 0.000609638255399272 -9.266320780985e-05)
(6.41749516080875e-05 0.000530797352654941 -0.000268588408108879)
(0.000217430458488583 0.000400212715469169 -0.000490244525906587)
(4.26114279451111e-05 -6.29624126607469e-05 -0.000116948103315046)
(8.72415286683365e-05 0.000133146721151034 -2.08263303595377e-05)
(0.000121358917806646 0.000310891560786061 5.34354732512906e-05)
(0.000156756939614234 0.000467588047857865 0.000101730277679755)
(0.000182001398968206 0.000565070524233626 0.000113561474421881)
(0.000196511606539521 0.000630101266507231 0.000105582571445386)
(0.000205156800158375 0.000676524153971435 8.26277384437829e-05)
(0.000209238467995457 0.000710703070039553 3.83019906693508e-05)
(0.000199737466755924 0.000726562191044082 -4.80880951417726e-05)
(0.000228417447725012 0.000643464439203372 -0.000212583700483519)
(0.000587765372579242 0.000635616221566442 -0.000418738255482799)
(3.73689221896986e-05 4.9259481884918e-05 -6.89472558140287e-05)
(8.15677036525238e-05 0.000204062505839798 1.91293576617805e-05)
(0.000119266803314941 0.000376357201912027 9.54959328106716e-05)
(0.000158359072110652 0.000525145092754345 0.000142665960203948)
(0.000190489696692418 0.00061725877960787 0.000154658864744352)
(0.000214303134327536 0.000682466466448031 0.000149469836403579)
(0.000233799835490974 0.000735099995881642 0.000134284414134878)
(0.000255266996512059 0.00078117147305206 0.000108714014036977)
(0.000282477345876705 0.000826401656055764 6.60548444927908e-05)
(0.000315012110709427 0.00086701787481619 -1.29583592730813e-05)
(0.000429619111504029 0.000807579629148012 -0.000169641881786112)
(0.001044847216629 0.00167639232199134 -0.000355014960989283)
(-8.97632961702581e-05 -0.000122109059760828 -0.000825865247735698)
(-0.000261339080821906 -0.0001711445617036 -0.00129115627522161)
(-0.000148980214949273 -0.000378929861989018 -0.00112018678166853)
(-0.000392895926539292 -0.00012061970703612 -0.00131376483517923)
(-0.000357507619242656 -0.00042670718326884 -0.0014764014202797)
(-0.000145193871114822 -0.000627057352152784 -0.00102892488935009)
(-0.000452392459380024 -3.80677776538948e-05 -0.00122717531541232)
(-0.000430881429268007 -0.000201658953337687 -0.00123930039202983)
(-0.000245131564943498 -0.000511735103121866 -0.00105177878617115)
(-7.9835883542922e-05 -0.000748724411167914 -0.000873653574429869)
(-6.98891649541856e-06 -0.000749269027099224 -0.000706412521299889)
(-9.61639060014388e-05 -0.000432980732549498 -0.000687113537879999)
(-0.000241835734628837 -0.000143490417331684 -0.000737313102745717)
(-0.000411994615029521 1.07710324870998e-05 -0.000955521490147282)
(-0.000471076999159577 2.75329120132768e-05 -0.00111607755507181)
(3.40974126374041e-05 -0.000675700623389978 -0.000557141734718134)
(4.08444745889666e-07 -0.000301315123282825 -0.000459634776587794)
(-8.77517975185331e-05 -7.44110699896555e-05 -0.000453236751272148)
(-0.00020658651410889 9.80745247502358e-05 -0.000518480130612346)
(-0.000348219940939422 0.000152786979892354 -0.000736977636290859)
(-0.000455410106759089 7.53744005844981e-05 -0.00100129869039623)
(5.0334404858721e-05 -0.000564318967632931 -0.000432150977586117)
(5.10421154548427e-05 -0.000185372068713413 -0.000314335684168929)
(1.67027750295173e-05 1.52912578662076e-05 -0.000277134976678891)
(-3.95456939420992e-05 0.000179424834794882 -0.000268011077319402)
(-0.000142475642150854 0.000265104426045663 -0.00035976183125493)
(-0.000270919422478511 0.000257667714935679 -0.000585248434269723)
(-0.000367621670323048 0.000120865782239735 -0.000884577832837713)
(5.20708128025752e-05 -0.000435963704333971 -0.000331184410010782)
(7.60121995333275e-05 -9.19240029351976e-05 -0.000213174388183513)
(7.53561746214137e-05 9.93534827220062e-05 -0.000159594827368712)
(6.58484583367267e-05 0.000265677868046461 -0.000121305627959456)
(2.18330321487184e-05 0.000357027368229738 -0.000146288738857856)
(-7.42435116840214e-05 0.000389418897357351 -0.000255020450350698)
(-0.000177661805014075 0.000346199219983644 -0.000474446826934231)
(-0.000230683148057853 0.00018104729096616 -0.000768283205349888)
(4.86257552439352e-05 -0.000305822761445366 -0.000250187764235393)
(8.64857407650847e-05 -1.15129320325239e-05 -0.0001383669934541)
(0.000104440704219753 0.000173839235458736 -7.50530062223129e-05)
(0.000120720320470754 0.000340215871033966 -2.82573875797163e-05)
(0.000114448335883099 0.00043740556472231 -2.75134989927471e-05)
(8.06498035204282e-05 0.000485904334117943 -7.05587553077777e-05)
(5.91757899597893e-06 0.000497203280962786 -0.000179514359880496)
(-6.491726579303e-05 0.00043149637560727 -0.000385371289900486)
(-4.38333891066422e-05 0.000260922736105297 -0.000653443168143942)
(4.55514861061289e-05 -0.000182818265483262 -0.000183856929482816)
(8.89774626798207e-05 6.0403435829873e-05 -8.08624711189066e-05)
(0.000116939970856655 0.000241243529482868 -1.1017236996126e-05)
(0.000146187164049515 0.000403842830421407 3.78687556738786e-05)
(0.000160371560532241 0.000503098997918478 4.69798746469682e-05)
(0.000159243351878732 0.000562275301042105 2.92454537778184e-05)
(0.000142454420334493 0.000595584630372052 -1.86055399628784e-05)
(9.61280764028462e-05 0.000602089373653792 -0.00012026397623221)
(6.72369699031263e-05 0.000521379515964441 -0.000309819712946012)
(0.000215592413903493 0.000395562806625913 -0.000545543107692516)
(4.24992662672661e-05 -6.86046323944153e-05 -0.000128923534261239)
(8.67317635703274e-05 0.000126570327685031 -3.48305265930484e-05)
(0.000120115227964216 0.000303462108348225 3.93357272105885e-05)
(0.000155496991555214 0.000460520593758052 8.84376022706767e-05)
(0.000180833910999364 0.000557980503681656 0.000100243694609095)
(0.000195601480184494 0.000622479629133269 9.16010640778443e-05)
(0.00020420119123355 0.000668153227867226 6.72574468309991e-05)
(0.000206895997417373 0.000701647135546773 2.01209532440598e-05)
(0.000193416283780494 0.000716668480545087 -7.20232604697757e-05)
(0.000219200464001174 0.000632645255281801 -0.000245626425346662)
(0.000581682240664642 0.000626131208925522 -0.000451660923119475)
(3.8093283232924e-05 3.36499625320343e-05 -8.21320458313471e-05)
(8.12778471667935e-05 0.000189879409508273 3.61707874134423e-06)
(0.000117708267599973 0.000363452390778052 8.07392530766132e-05)
(0.000156018863162099 0.00051408837396054 0.000129329796957419)
(0.000187661428992263 0.000607282350558403 0.000141948083369506)
(0.000211206811554708 0.00067258158580913 0.000136789985840357)
(0.000230249389206193 0.000724684905013768 0.000121249525225762)