/*--------------------------------*- C++ -*----------------------------------*\
  =========                 |
  \\      /  F ield         | OpenFOAM: The Open Source CFD Toolbox
   \\    /   O peration     | Website:  https://openfoam.org
    \\  /    A nd           | Version:  12
     \\/     M anipulation  |
\*---------------------------------------------------------------------------*/
/*   Windows 32 and 64 bit porting by blueCAPE: http://www.bluecape.com.pt   *\
|  Based on Windows porting (2.0.x v4) by Symscape: http://www.symscape.com   |
\*---------------------------------------------------------------------------*/
FoamFile
{
    format      ascii;
    class       volScalarField;
    location    "700";
    object      k;
}
// * * * * * * * * * * * * * * * * * * * * * * * * * * * * * * * * * * * * * //

dimensions      [0 2 -2 0 0 0 0];

internalField   nonuniform List<scalar> 
10116
(
1.80898904315967e-06
1.95748215083021e-06
1.86684679001674e-06
2.42472759099299e-05
2.1007580674401e-06
2.01988266338494e-06
2.55408993471114e-05
1.95093183285071e-06
2.43778147779752e-05
4.91123025833361e-05
2.23676897048575e-06
2.16771487727209e-06
2.67484529874787e-05
2.11038857984164e-06
2.56701193957944e-05
5.1147834044376e-05
1.97994835070365e-06
2.45743420602685e-05
4.91082489421725e-05
6.79145232919048e-05
2.36796844948085e-06
2.307968775016e-06
2.78718678011976e-05
2.26447391227159e-06
2.68790723221799e-05
5.30483020845291e-05
2.14159368713539e-06
2.5866210979657e-05
5.11314478564688e-05
7.04771094722171e-05
1.91844504199851e-06
2.44963687389297e-05
4.89302052257831e-05
6.78306340069037e-05
8.33586626319509e-05
2.4967771322541e-06
2.44466969566451e-06
2.89260414426465e-05
2.41038711845613e-06
2.80026491794166e-05
5.48269566056054e-05
2.29786101865397e-06
2.70754075574435e-05
5.30269545596401e-05
7.28722699164225e-05
2.07544344319672e-06
2.57782207291749e-05
5.09341499707883e-05
7.03749626828491e-05
8.63541396914591e-05
1.79191016952126e-06
2.39407781068263e-05
4.83854279662194e-05
6.74029018795438e-05
8.31971974121138e-05
9.68160892148634e-05
2.62171451325138e-06
2.57712609846864e-06
2.99149132782224e-05
2.55262409664464e-06
2.90549672101725e-05
5.64940729153593e-05
2.44647565544313e-06
2.81987610864437e-05
5.4802334300393e-05
7.51166797342168e-05
2.2274622182695e-06
2.69777488426059e-05
5.28160240961847e-05
7.27619631637339e-05
8.91560458737252e-05
1.93932032939525e-06
2.51961380530118e-05
5.03593082405077e-05
6.99170769851623e-05
8.61693126484247e-05
0.000100185432712211
1.63876475081287e-06
2.29577564751218e-05
4.73290966175147e-05
6.64955804590511e-05
8.25784846198389e-05
9.6568554846818e-05
0.000108931196847997
2.74257765847545e-06
2.70571043568022e-06
3.08527625442209e-05
2.69034891423917e-06
3.00458386138559e-05
5.8055973085338e-05
2.59050000608203e-06
2.925105135011e-05
5.64667452458095e-05
7.72195837331968e-05
2.37222653102931e-06
2.80904074191404e-05
5.45804014731162e-05
7.50009003188711e-05
9.17821437715349e-05
2.082354134443e-06
2.63698797358038e-05
5.22151774277464e-05
7.22822101026643e-05
8.89600585748827e-05
0.000103339098221054
1.77453853340952e-06
2.41709892111173e-05
4.92580795724069e-05
6.89661176114476e-05
8.55120326100509e-05
9.9909528214728e-05
0.000112632015189827
1.47677041666489e-06
2.16971346879402e-05
4.57720260673467e-05
6.50259138627173e-05
8.13798944595551e-05
9.57760841407133e-05
0.000108611142047424
0.000120055921097505
2.85919514348481e-06
2.82991380339428e-06
3.17390262344724e-05
2.82412237363618e-06
3.09877531197593e-05
5.95182486003182e-05
2.72999780387116e-06
3.02426040114847e-05
5.80266097570798e-05
7.91872176944158e-05
2.51201022675195e-06
2.91343951082361e-05
5.62353427313618e-05
7.70994254847739e-05
9.42419065414197e-05
2.21818753450611e-06
2.74575171103914e-05
5.39565403440207e-05
7.45034761181601e-05
9.15783486303681e-05
0.000106295457521529
1.9063609001306e-06
2.53042227588534e-05
5.10726434965931e-05
7.12937184194441e-05
8.82743966682137e-05
0.000103048931696047
0.000116098021411491
1.60008874054088e-06
2.28571921652404e-05
4.76408804398874e-05
6.74372472539288e-05
8.42592269255031e-05
9.90710101028636e-05
0.00011227927019977
0.00012405584299165
1.30833915910282e-06
2.02563746152968e-05
4.38056356460324e-05
6.30121726103218e-05
7.95564573929126e-05
9.43266894827392e-05
0.000107672686576762
0.000119686964404249
0.000130409815037389
2.9707373634291e-06
2.94952460689148e-06
3.25712708608353e-05
2.95340267352832e-06
3.18753792326964e-05
6.08843128072529e-05
2.86559817865377e-06
3.11855643100952e-05
5.94872894951529e-05
8.10245744479165e-05
2.64752976677465e-06
3.01187455592128e-05
5.77869741221768e-05
7.90633297453309e-05
9.65417473944323e-05
2.34938600034189e-06
2.84794500282423e-05
5.55910020325682e-05
7.65867508498689e-05
9.40317202228659e-05
0.000109064146173866
2.03128369888648e-06
2.63542642793501e-05
5.27761378364566e-05
7.34821657741849e-05
9.08695748014401e-05
0.000105994972715495
0.000119348037659371
1.7201182763362e-06
2.39397988265368e-05
4.93993219589891e-05
6.97107636013691e-05
8.69748296552178e-05
0.000102176199472231
0.000115728402882242
0.000127804020034153
1.41844164746262e-06
2.13547220145899e-05
4.5601095350242e-05
6.53485822252516e-05
8.23650407284866e-05
9.75585110035651e-05
0.000111288455685121
0.000123650780690038
0.000134683145621435
1.13375330682142e-06
1.86647037858355e-05
4.15024424569858e-05
6.05195994035244e-05
7.71455183385205e-05
9.21981601111139e-05
0.000106014992835388
0.000118638015382406
0.00013001001345504
0.00014013300203504
3.07663875423127e-06
3.0641157535079e-06
3.33470772320758e-05
3.07790745761515e-06
3.27084055095199e-05
6.21547958356097e-05
2.99678084434779e-06
3.20744113613237e-05
6.08518014622661e-05
8.27348417359522e-05
2.77938770253119e-06
3.10553220719086e-05
5.92402428612999e-05
8.08973105510924e-05
9.86865819763372e-05
2.47669923616985e-06
2.9443670521378e-05
5.71241735834887e-05
7.85370859326408e-05
9.63260349138726e-05
0.000111651675447204
2.15198577261992e-06
2.73413874286567e-05
5.43760763078764e-05
7.55361662829291e-05
9.33029133909695e-05
0.00010875505814841
0.000122391709778526
1.83339784179358e-06
2.49425682707712e-05
5.10507431689915e-05
7.1850065399301e-05
8.95291044471276e-05
0.000105094195039622
0.000118966017717813
0.000131319688894503
1.52633667535021e-06
2.23785378750001e-05
4.72908273354904e-05
6.75524606216394e-05
8.50159469514849e-05
0.000100609146687139
0.000114698523945207
0.000127380204889404
0.000138689515699628
1.23010147757102e-06
1.96929247981063e-05
4.32128232499379e-05
6.27665776654188e-05
7.98670783712003e-05
9.53496852629576e-05
0.000109560353946679
0.000122544466612134
0.000134244517132942
0.000144658577866351
9.55746183798315e-07
1.69268464344067e-05
3.88964085274723e-05
5.75997743347411e-05
7.42071230862266e-05
8.94419945755171e-05
0.000103629141496565
0.000116814007482807
0.000128878536208576
0.000139711778053848
0.000149309285816333
3.17637566885603e-06
3.17292145308402e-06
3.40631680701559e-05
3.19730409866981e-06
3.34861224857153e-05
6.33295367021424e-05
3.12324839508594e-06
3.29085986535992e-05
6.21213693236451e-05
8.43195631983109e-05
2.90705729247896e-06
3.19386338132861e-05
6.05981547005288e-05
8.2604591116704e-05
0.000100679450436284
2.60066410822532e-06
3.03610559572029e-05
5.85605863964552e-05
8.03588308185291e-05
9.84658114343522e-05
0.000114062849119499
2.26926361427147e-06
2.82733335569716e-05
5.58776826979578e-05
7.74600409401154e-05
9.55792910794566e-05
0.000111335077282015
0.000125235499738857
1.94287154341489e-06
2.58856289989724e-05
5.26025787440175e-05
7.38593009108151e-05
9.19259257142194e-05
0.000107829870418857
0.000121999242762707
0.000134612331458033
1.62752998169331e-06
2.33267856783448e-05
4.88781193688484e-05
6.96274206571906e-05
8.75114767708822e-05
0.000103479351951395
0.000117904011563509
0.000130882024730487
0.000142448452784815
1.32558430931552e-06
2.0649710748939e-05
4.48228295589054e-05
6.48869397691405e-05
8.24370055746237e-05
9.83267870932032e-05
0.000112909518231311
0.00012623111161574
0.000138230784241315
0.000148903284172145
1.03945667225489e-06
1.78765315193096e-05
4.05106949410822e-05
5.97438341872538e-05
7.68263580671854e-05
9.24965253656479e-05
0.000107086403295099
0.000120644228001508
0.000133051688591439
0.000144196208195711
0.000154068908206275
7.79409734644242e-07
1.50489318154085e-05
3.60019692333593e-05
5.42817305855483e-05
7.07833420060797e-05
8.61187122733165e-05
0.000100575430135357
0.000114213091719822
0.000126919936693446
0.00013851437255787
0.000148870416673345
0.000157982851272783
3.26966901227205e-06
3.2755584923971e-06
3.47202214871489e-05
3.31104359259095e-06
3.42065923070205e-05
6.44094965239183e-05
3.24462840855248e-06
3.3687959076605e-05
6.32956458174301e-05
8.57803119863869e-05
3.03023595346221e-06
3.27681281510266e-05
6.18620031242971e-05
8.41868941683493e-05
0.000102522373750573
2.72089278844873e-06
3.12274950710576e-05
5.99033671000973e-05
8.2054977011907e-05
0.000100454221402599
0.000116300482548389
2.38359782373667e-06
2.91594469177005e-05
5.72849791738727e-05
7.92577005629345e-05
9.77029000388281e-05
0.00011373929374928
0.000127883786632236
2.04937939579654e-06
2.67765036380626e-05
5.40598441893333e-05
7.57422538205128e-05
9.4169247079947e-05
0.000110387993602722
0.00012483379449591
0.000137688218665182
1.7252301455683e-06
2.42188940259965e-05
5.03703589717889e-05
7.15773450861321e-05
8.98547986196956e-05
0.000106172304436453
0.000120909205764737
0.000134162982055145
0.000145969252926949
1.41391049599969e-06
2.15367931773431e-05
4.63355496041523e-05
6.68841827175408e-05
8.48577340387304e-05
0.000101130182458846
0.00011606161309659
0.000129697735275355
0.000141974920891114
0.000152886908451171
1.12106878084522e-06
1.87572252053638e-05
4.20305106541221e-05
6.17679227034444e-05
7.93006059999681e-05
9.53832146496728e-05
0.000110354818260206
0.000124264971853105
0.000136992333619696
0.000148419766276327
0.000158534784705085
8.50458725605827e-07
1.59074974651334e-05
3.75093819273298e-05
5.63099332451774e-05
7.32856597537987e-05
8.90603835315564e-05
0.000103927489036536
0.000117948891289824
0.000131012158662445
0.00014293410576253
0.000153586785718225
0.000162960152845848
6.12038915384572e-07
1.30435352836742e-05
3.28281845151391e-05
5.05829310604603e-05
6.68987628152932e-05
8.22667779525484e-05
9.69172603890636e-05
0.000110902086616714
0.000124135768449445
0.000136441421068571
0.000147615555949552
0.000157527572560664
0.000166172065377653
3.35633186447308e-06
3.37150583546101e-06
3.53198674310584e-05
3.41833027528357e-06
3.48668717871341e-05
6.53956209677063e-05
3.36061515643381e-06
3.44115963044181e-05
6.43752707439701e-05
8.71185852894218e-05
3.14863882625167e-06
3.35436976063291e-05
6.30318276564635e-05
8.56455066531155e-05
0.000104217312993901
2.83702234766897e-06
3.20419085215142e-05
6.11536783843033e-05
8.3627529264594e-05
0.000102293165240916
0.000118366910429441
2.49467701817498e-06
2.99984669163469e-05
5.86013772916601e-05
8.0931957857752e-05
9.96766162657196e-05
0.000115970797188695
0.00013033939772176
2.15329139277835e-06
2.76226160216425e-05
5.54260610005986e-05
7.75024230748996e-05
9.62627626115612e-05
0.000112772378294656
0.000127473685014002
0.000140551345815399
1.82036296360147e-06
2.50620806330598e-05
5.17724416639795e-05
7.34056736511891e-05
9.20492056924013e-05
0.000108691673613945
0.000123718600693535
0.000137228498054185
0.00014925786977675
1.49920291997191e-06
2.2371730558793e-05
4.77582607981733e-05
6.87619916410741e-05
8.71321197732489e-05
0.000103762262236511
0.00011901904848248
0.000132947970284276
0.000145483243524553
0.000156618513768645
1.19611123730304e-06
1.95759280348119e-05
4.34588774694821e-05
6.36752842424542e-05
8.16322942582872e-05
9.81030351351317e-05
0.000113433511452731
0.000127673830893229
0.000140698993937145
0.000152387895892423
0.000162726943224063
9.17848456366e-07
1.67069120877048e-05
3.8928690749048e-05
5.8225514991057e-05
7.56504043522763e-05
9.18413529655978e-05
0.000107097699401619
0.000121483053141366
0.000134882921186146
0.000147109735729658
0.00015803061097328
0.000167631684217997
6.68611315679457e-07
1.38022113447057e-05
3.42178193319943e-05
5.24826568783785e-05
6.92699660662424e-05
8.50802442069409e-05
0.000100147757860895
0.000114525909550745
0.000128128368167081
0.000140776268502489
0.000152264253959626
0.00016245964821983
0.000171351781870603
4.56381088258369e-07
1.0925424176556e-05
2.93831580512511e-05
4.65157616548624e-05
6.257067617618e-05
7.79083707016278e-05
9.26931356168421e-05
0.000106949127460619
0.00012059868512637
0.000133495942148523
0.000145440399055274
0.000156219534328104
0.000165700876348981
0.000173879828534021
3.43576320474722e-06
3.460563363969e-06
3.5863743857477e-05
3.51867466254267e-06
3.54687070713318e-05
6.62892794427436e-05
3.47020258036702e-06
3.50755989441794e-05
6.53612588134208e-05
8.83358327508664e-05
3.26233264649191e-06
3.42651944540779e-05
6.41077199768932e-05
8.69818799322417e-05
0.000105766040869261
2.94895612960842e-06
3.28044228260065e-05
6.2312078072522e-05
8.50774473712365e-05
0.000103984547579948
0.000120264189415989
2.60208034242647e-06
3.07881942873087e-05
5.98278732619232e-05
8.24848928503322e-05
0.000101502325877876
0.000118031691933648
0.000132604683479694
2.25445206693297e-06
2.84264700661991e-05
5.67049879305647e-05
7.91424877137625e-05
9.82090749582722e-05
0.000114985889504762
0.000129921777728988
0.000143204398396397
1.91323634499753e-06
2.58618631824883e-05
5.30873916695555e-05
7.51155552954227e-05
9.40979361735736e-05
0.000111040875599831
0.000126335628534321
0.000140082276224197
0.000152317943265482
1.58242639382601e-06
2.31613242272772e-05
4.90956752143996e-05
7.05236282791795e-05
8.92630456815834e-05
0.000106225946847906
0.000121785147509214
0.000135985907536126
0.000148760795812749
0.000160103700557484
1.26858357005226e-06
2.03471657216249e-05
4.48028264468521e-05
6.54694144532851e-05
8.38240744516667e-05
0.000100658061743493
0.000116324032496763
0.000130872391716669
0.000144174622434059
0.0001561064668105
0.000166654198740441
9.79483411000456e-07
1.74506069362829e-05
4.02630953352355e-05
6.0031412063538e-05
7.78798458387234e-05
9.44627055113849e-05
0.000110085544165087
0.000124813189176802
0.000138528369684858
0.000151038583795921
0.000162206697573936
0.000172017699952127
7.21969801370582e-07
1.45137722464366e-05
3.55268061021676e-05
5.42778036567671e-05
7.15118018923537e-05
8.77409318296702e-05
0.000103203909012108
0.000117955420326227
0.00013190775413693
0.000144878698624438
0.000156658143867346
0.000167108297337094
0.000176214428919712
4.99225680137972e-07
1.15830185951978e-05
3.06447137467072e-05
4.82746599956617e-05
6.47968685138802e-05
8.05785623416736e-05
9.57861213628537e-05
0.000110444127089219
0.000124473642655634
0.00013772675439985
0.000150000730918295
0.000161081196560071
0.000170833499043298
0.000179247324291195
3.15835853163515e-07
8.72728503049016e-06
2.56729126426791e-05
4.20888554089887e-05
5.78129897402104e-05
7.30602298523002e-05
8.79247030725175e-05
0.000102395083352802
0.000116382374283773
0.00012975597484468
0.000142348606383586
0.000153949787655464
0.000164342352515944
0.000173393218420627
0.000181100320889079
3.50618487172136e-06
3.54207150282341e-06
3.63521611202363e-05
3.61166101415356e-06
3.60143096581851e-05
6.70918709273338e-05
3.57277149726503e-06
3.56802768991613e-05
6.62548595383089e-05
8.94335229743571e-05
3.37002267787391e-06
3.49288423940299e-05
6.5090644468928e-05
8.81975093022424e-05
0.000107170207396105
3.05664074528289e-06
3.35153456628652e-05
6.33780669773876e-05
8.64061379042909e-05
0.000105530100797286
0.000121994171808696
2.7059712187989e-06
3.15288601026343e-05
6.0965543091765e-05
8.39172708348921e-05
0.000103181820236554
0.000119923985922979
0.000134681665710383
2.35247167628395e-06
2.91841264378786e-05
5.78975127555858e-05
8.06644925998768e-05
0.00010001006044497
0.000117030484850458
0.000132180249393885
0.000145649600991099
2.00385615108458e-06
2.66244727601232e-05
5.4319354801241e-05
7.67095612950975e-05
9.60033167057883e-05
0.000113222312650853
0.00012876301054989
0.000142726872823688
0.000155151899839847
1.6638247223702e-06
2.39095662314473e-05
5.03506586575964e-05
7.21718768947491e-05
9.12533906057091e-05
0.000108524208999519
0.000124362749758742
0.000138814640767221
0.000151810904925005
0.000163345677043453
1.3393390460097e-06
2.10772419252626e-05
4.60669424886319e-05
6.7153400406837e-05
8.58786003803707e-05
0.000103050777202442
0.000119028852248908
0.000133863493723095
0.000147422835950913
0.000159580108349356
0.000170321795737562
1.03904559114657e-06
1.81516022284279e-05
4.15192363164798e-05
6.17308980804095e-05
7.99764401576093e-05
9.69263486038311e-05
0.000112892266375551
0.000127939980294558
0.000141949256231595
0.000154722919947046
0.000166120465875502
0.000176126764930508
7.70500295269097e-07
1.5175691414566e-05
3.67578558902147e-05
5.59709984136999e-05
7.36262867632803e-05
9.02498777761847e-05
0.000106085417251015
0.000121188677843712
0.000135470113635392
0.00014874348797234
0.000160793402425367
0.000171477716581818
0.000180780487081351
5.39276743374756e-07
1.22005974880448e-05
3.18337240261719e-05
4.9937758739073e-05
6.69026955905544e-05
8.31047353009718e-05
9.87130462060627e-05
0.000113752587037756
0.000128142967554095
0.00014173374052701
0.000154318520635925
0.000165678077207998
0.000175672479665952
0.000184287104131121
3.4651442784024e-07
9.27870649844256e-06
2.67970077054907e-05
4.36949164822306e-05
5.98805761095882e-05
7.5572319405073e-05
9.08644081919248e-05
0.000105744759902762
0.000120122367291031
0.000133864302296338
0.000146801036737269
0.000158719918865199
0.000169401989620176
0.000178711852748472
0.000186641304483885
1.9394708686916e-07
6.48607634470741e-06
2.16987165708439e-05
3.73054863086955e-05
5.26357622485907e-05
6.77368232309685e-05
8.26285088053666e-05
9.72623393278258e-05
0.000111530966163893
0.000125300648939475
0.000138423039554724
0.000150722466498403
0.000161983573049774
0.000171986590025151
0.000180598958115016
0.000187823030333853
3.56398604193865e-06
3.61315294694266e-06
3.67841759278321e-05
3.69642394736041e-06
3.65039375610795e-05
6.78044047221178e-05
3.66768366172396e-06
3.62281067747342e-05
6.70574125932529e-05
9.04130311257053e-05
3.4711021064833e-06
3.55329105626564e-05
6.59816940561234e-05
8.92938291869614e-05
0.000108431359054848
3.15920411159708e-06
3.41715501310827e-05
6.43525302121719e-05
8.76150507854376e-05
0.000106931463284852
0.000123558528631091
2.80608527700693e-06
3.22204876964439e-05
6.20133178901611e-05
8.52304118776134e-05
0.000104716752562228
0.000121649493982494
0.000136572143136568
2.44751761073691e-06
2.98961800853918e-05
5.90048224250582e-05
8.2069122691186e-05
0.000101667274444021
0.000118908075452296
0.000134251078885713
0.000147888864915049
2.09186006796231e-06
2.73443821727341e-05
5.5469091101687e-05
7.81896197770823e-05
9.77672828852869e-05
0.000115237808663992
0.000131002680968092
0.000145164415280949
0.000157761762458332
1.74333887059111e-06
2.46253356553219e-05
5.15273176326153e-05
7.37092246856797e-05
9.31052683914169e-05
0.000110659131731739
0.000126754235021323
0.000141436494659127
0.000154635833638498
0.000166346611077754
1.40861201670382e-06
2.17693767048917e-05
4.72542756023016e-05
6.87297360340742e-05
8.77984155735739e-05
0.00010528377223103
0.00012155053310672
0.000136649529883729
0.000150446318283679
0.000162811702208253
0.000173732437009043
1.09724624588577e-06
1.88157721018028e-05
4.2701475351411e-05
6.33268667101002e-05
8.19426498990416e-05
9.92345098206345e-05
0.0001155198731841
0.000130865410548632
0.000145147866788358
0.000158165852020361
0.000169776120482073
0.00017996374893491
8.17445895841624e-07
1.57999778097108e-05
3.79172455697436e-05
5.75651979800837e-05
7.56156546945772e-05
9.26088338596026e-05
0.000108793400004936
0.000124226061816289
0.000138815246644434
0.000152370561211062
0.000164671628789081
0.000175572891847113
0.000185058302089807
5.75565133211032e-07
1.27741666035831e-05
3.29522011333261e-05
5.1507264056268e-05
6.88898531542096e-05
8.5487764973991e-05
0.000101473663662118
0.000116872882808704
0.000131603377610539
0.000145511741779381
0.000158387247334996
0.000170005267690869
0.000180221449602139
0.000189019872360678
3.74736251988086e-07
9.79618084936909e-06
2.78567348288049e-05
4.5214658966233e-05
6.18376003991244e-05
7.79500028035524e-05
9.36471970043251e-05
0.000108916443314327
0.000123664699540454
0.000137756587784048
0.000151019818797889
0.000163238072772969
0.000174187490745776
0.00018372722412553
0.000191844544218869
2.13455992808689e-07
6.9324928742887e-06
2.26757963014578e-05
3.87470885466557e-05
5.45314509032969e-05
7.00762460610378e-05
8.53993297835397e-05
0.000100450296368991
0.000115118975246204
0.000129268727372658
0.000142748746851119
0.000155381219394179
0.00016694874803741
0.00017722981808731
0.000186089416121818
0.000193523412474094
9.61494627133435e-08
4.28689321166431e-06
1.74518394725975e-05
3.21592156223068e-05
4.70422550524922e-05
6.19486583795621e-05
7.68189352997482e-05
9.15674714755363e-05
0.000106068035079622
0.000120177252345218
0.000133747661760982
0.000146624682899816
0.000158629261138334
0.000169543654993266
0.000179146763636992
0.000187307765464183
0.000194035009715526
3.6180736119889e-06
3.66932226723223e-06
3.7158066468234e-05
3.7692675126362e-06
3.69363024550976e-05
6.84273406978607e-05
3.75378809215808e-06
3.67192057793651e-05
6.77698740340759e-05
9.12755422753071e-05
3.5645043830758e-06
3.6079846978447e-05
6.67820593996562e-05
9.02721780972237e-05
0.000109550894888574
3.2557569188559e-06
3.47690056687766e-05
6.52363714605377e-05
8.87055605910713e-05
0.00010819016652037
0.000124958803281228
2.90200736478346e-06
3.28614766500268e-05
6.29719919304679e-05
8.64256443388371e-05
0.000106108712103629
0.000123209879820159
0.000138277766753702
2.53938337055596e-06
3.05623734687221e-05
6.0026190733499e-05
8.33575800572842e-05
0.000103182276822161
0.000120620400782833
0.000136136045610291
0.000149923913491262
2.17728935383964e-06
2.80223304643892e-05
5.65377516142528e-05
7.95566595803284e-05
9.93910595299372e-05
0.00011708912621494
0.000133056522535294
0.000147396768437928
0.000160149287949295
1.82068462614548e-06
2.53022448745737e-05
5.26264510211211e-05
7.51375281865173e-05
9.48205993948281e-05
0.000112632363014274
0.000128961301084962
0.000143853389390954
0.000157237517984355
0.000169108275087389
1.47649234363141e-06
2.24324145913254e-05
4.83672345190081e-05
7.02008237507803e-05
8.95854952784864e-05
0.000107358888597236
0.000123890886422528
0.000139232542105919
0.000153247037948196
0.00016580322410009
0.000176888054236723
1.15435096436414e-06
1.94461595508495e-05
4.38127140067975e-05
6.48215647105244e-05
8.37807139416367e-05
0.000101389460915741
0.000117970580989566
0.000133591356195991
0.000148126149966968
0.000161369594740274
0.000173176055173117
0.00018353092313892
8.63346417255335e-07
1.63921749900784e-05
3.9009108308355e-05
5.90630317717974e-05
7.7482149721195e-05
9.48198307665555e-05
0.00011132959983438
0.000127069021744757
0.000141944549839118
0.000155761616746537
0.000168295412505214
0.000179397599622738
0.000189052301120876
6.10910288106109e-07
1.33158206343497e-05
3.40060093928266e-05
5.29857936310802e-05
7.07602938584259e-05
8.77292199830407e-05
0.000104068988427298
0.000119805309564671
0.000134854391189801
0.000149059686830496
0.000162206028950561
0.000174063722678786
0.000184485013938901
0.000193453786069785
4.00061894660812e-07
1.0276218163764e-05
2.88535258958432e-05
4.66497489549389e-05
6.36853657584417e-05
8.01939140947327e-05
9.62727577516413e-05
0.000111908650490015
0.000127006495808657
0.000141428281217994
0.000154998519117248
0.000167496501432576
0.000178692927358819
0.000188442431952273
0.000196730933812266
2.31271000535018e-07
7.34821211676053e-06
2.35966969938623e-05
4.0112440685026e-05
5.63271863952123e-05
7.22917435580691e-05
8.80232730689177e-05
0.000103469681802229
0.000118518057517261
0.00013302888334452
0.000146848756831036
0.000159797160853182
0.00017165309569408
0.000182190102155877
0.000191267546788223
0.00019887662803839
1.062993717232e-07
4.6116913239531e-06
1.82690306174183e-05
3.34249935731219e-05
4.87530043510903e-05
6.410108476876e-05
7.94054532626456e-05
9.4577389796102e-05
0.000109487069885274
0.000123987572329319
0.0001379284837089
0.000151152923064011
0.000163479874248892
0.000174689685487418
0.000184559542093502
0.000192956063515832
0.000199880919946792
3.2567334616358e-08
2.27768904073539e-06
1.29192428080903e-05
2.66291203921059e-05
4.10221683523947e-05
5.56975073543336e-05
7.05054040995784e-05
8.53241136777666e-05
0.000100010071266147
0.000114410387565572
0.000128372376860507
0.000141744488175169
0.000154370303575074
0.000166069878653395
0.000176624510714743
0.000185812821591943
0.00019350686417779
0.000199721973743812
3.7240918239814e-06
3.74821613780944e-05
3.82552530230654e-06
3.7310126507039e-05
6.89610835567544e-05
3.82699610631672e-06
3.71519941679235e-05
6.83926707751339e-05
9.20219152240354e-05
3.64871400121082e-06
3.65697519684491e-05
6.74925485207167e-05
9.11337135824272e-05
0.000110530015884767
3.34510244982745e-06
3.53096831462671e-05
6.60305270635798e-05
8.96789260534743e-05
0.00010930759504582
0.000126196352712943
2.99255810147237e-06
3.34472226662256e-05
6.38422304542205e-05
8.75042638560877e-05
0.000107359188469998
0.000124606670077658
0.00013980000745047
2.62777993853597e-06
3.11821055051561e-05
6.09617326856078e-05
8.45310088454849e-05
0.000104556571404161
0.000122169079475534
0.000137836773270456
0.000151756280996111
2.26016135932034e-06
2.86582795043168e-05
5.75254256381766e-05
8.08115211944956e-05
0.00010087611020927
0.000118777894041238
0.000134926246981759
0.000149425614937196
0.000162316010697269
1.89587865077715e-06
2.59408666533227e-05
5.36491716675567e-05
7.64580800665098e-05
9.64004086749581e-05
0.000114445474397212
0.000130985672478578
0.000146067081992446
0.000159617652694479
0.000171632163412665
1.54282043311354e-06
2.30609849864658e-05
4.94083442472001e-05
7.15684845368827e-05
9.12417060997191e-05
0.000109277745029839
0.000126051436098798
0.000141614130083978
0.000155826742350125
0.000168556353579234
0.000179790118466391
1.21045613690646e-06
2.00512582247171e-05
4.48546980785834e-05
6.62172428369063e-05
8.5492512084633e-05
0.000103392868589445
0.000120245932951342
0.00013611950842328
0.000150885700301998
0.000164335787122197
0.000176321955793549
0.00018682989003663
9.0869370882541e-07
1.69565323611364e-05
4.00360192261988e-05
6.04667567383145e-05
7.92276704351193e-05
9.68848608869774e-05
0.000113695947892881
0.00012971930652768
0.00014485938281091
0.00015891810811428
0.000171666466729927
0.000182953745653147
0.000192764430551606
6.45464190228551e-07
1.38307522936103e-05
3.49990564482183e-05
5.43757268931633e-05
7.25159926312057e-05
8.98309161725461e-05
0.000106500575831801
0.000122551055270116
0.00013789689540264
0.000152378357029867
0.000165775971975064
0.00017785551598215
0.000188466398013428
0.000197592777313753
4.24663072741712e-07
1.07339021898566e-05
2.97928740193685e-05
4.80024285094224e-05
6.54254896663938e-05
8.23053862301783e-05
9.87419723514369e-05
0.000114721628546332
0.000130147229947898
0.000144878053426634
0.000158735220500038
0.0001714935496776
0.00018291865784516
0.000192861706240486
0.00020130841902571
2.46984467733237e-07
7.73039648193063e-06
2.44621740305828e-05
4.14025886048968e-05
5.80237636864916e-05
7.43836260114548e-05
9.04998732903352e-05
0.000106319034188852
0.000121725565810839
0.000136577060069818
0.000150717318922558
0.00016396265661476
0.000176087714118024
0.000186860555942189
0.000196135929989056
0.000203903677358521
1.15561369001656e-07
4.91272631885516e-06
1.90395989964499e-05
3.46250367128285e-05
5.03751862003284e-05
6.61409526909149e-05
8.18560549369998e-05
9.742908398158e-05
0.000112726796854154
0.000127598836661991
0.000141891841258749
0.000155446446999786
0.00016807907809053
0.000179566554846352
0.000189681074288679
0.000198283506897731
0.00020537080648956
3.62010948331644e-08
2.47408876342171e-06
1.35712427446805e-05
2.77076130598015e-05
4.25349998107118e-05
5.76487059377963e-05
7.28923151419377e-05
8.81397454623594e-05
0.000103243117431743
0.000118045385502466
0.000132390344907109
0.00014612369932423
0.000159086959555876
0.000171098404068172
0.000181937536569124
0.000191381313366544
0.00019929923541135
0.000205700119324219
5.92275383341337e-09
7.99439799603414e-07
8.18263734202198e-06
2.06824298476775e-05
3.45410812031193e-05
4.89662586943059e-05
6.36855996468464e-05
7.85391295538206e-05
9.33692886988944e-05
0.000108016109219673
0.000122322385586914
0.000136133771445369
0.000149298169804647
0.00016165955586327
0.00017303849053867
0.00018321631623182
0.000191972310524494
0.000199182206674538
0.000204868144493371
3.88246869709517e-06
3.76357230019746e-05
6.94095737118309e-05
3.88304174668265e-06
3.75258623599775e-05
6.89263196110511e-05
9.26527196541385e-05
3.72005903769468e-06
3.7000941040242e-05
6.81135226478937e-05
9.18792788189526e-05
0.000111369566709561
3.42539833824498e-06
3.57937130154495e-05
6.67356251160063e-05
9.05362196370611e-05
0.000110284935283954
0.000127272331836144
3.0767602217532e-06
3.39768372367007e-05
6.46246529727167e-05
8.84674019719021e-05
0.000108469525433514
0.000125841223286519
0.000141140190982761
2.71176555449058e-06
3.17518337174378e-05
6.18118943737497e-05
8.55906050681286e-05
0.000105791580968367
0.000123555602939385
0.000139354727923577
0.00015338734792535
2.34014210700961e-06
2.92515293384504e-05
5.84312822558108e-05
8.19552123014408e-05
0.000102223822726113
0.000120305647766071
0.000136613431926613
0.000151252477893688
0.000164263349808312
1.96900409306769e-06
2.65415326259804e-05
5.45963551449479e-05
7.76712375624455e-05
9.78460240186921e-05
0.000116099957945986
0.000132828951585199
0.000148079182269637
0.000161777759951514
0.000173919654954399
1.60747315629713e-06
2.36550498607284e-05
5.03783839999962e-05
7.28341612180753e-05
9.27680017755278e-05
0.000111041611854292
0.000128033728284751
0.00014379589562907
0.000158187010223427
0.000171072550014326
0.000182439858599492
1.26533832554487e-06