/*--------------------------------*- C++ -*----------------------------------*\
  =========                 |
  \\      /  F ield         | OpenFOAM: The Open Source CFD Toolbox
   \\    /   O peration     | Website:  https://openfoam.org
    \\  /    A nd           | Version:  12
     \\/     M anipulation  |
\*---------------------------------------------------------------------------*/
/*   Windows 32 and 64 bit porting by blueCAPE: http://www.bluecape.com.pt   *\
|  Based on Windows porting (2.0.x v4) by Symscape: http://www.symscape.com   |
\*---------------------------------------------------------------------------*/
FoamFile
{
    format      ascii;
    class       volScalarField;
    location    "700";
    object      omega;
}
// * * * * * * * * * * * * * * * * * * * * * * * * * * * * * * * * * * * * * //

dimensions      [0 0 -1 0 0 0 0];

internalField   nonuniform List<scalar> 
10116
(
2.46684080289412
2.46683937620765
2.38167915593664
0.480129454040655
2.46684296055528
2.38166561584907
0.481795121560945
2.28699598870675
0.466504211269493
0.221895810898187
2.46683873864376
2.38168115142711
0.483697065008347
2.28698408871966
0.468158300676554
0.223683793144283
2.21611155685982
0.45074650905199
0.21859560802315
0.148679069991776
2.46684018393712
2.3816768863936
0.485760599424264
2.28699529407819
0.470085898928632
0.225412852884848
2.21610866980698
0.452324392845551
0.220355664538808
0.150227609911087
2.18722004162014
0.438487338617287
0.214056818985593
0.147640535845202
0.117585048427066
2.46684036137273
2.38167831457462
0.487737728937109
2.28700715071431
0.472222214441982
0.227078169560206
2.21610777623832
0.454242035378585
0.222072898072931
0.151667357823862
2.18721680669061
0.439968259260042
0.215768345937716
0.149169414782525
0.118915152644869
2.18619056140802
0.431935033511745
0.209908181139574
0.145952600837706
0.117219689190981
0.10139250334778
2.46684027355081
2.38167882394126
0.489804784687776
2.28699488805213
0.47440867020109
0.228636904076317
2.21611981621152
0.456395302637485
0.223735906515072
0.153014137989743
2.18721638577025
0.441850038745029
0.217460364405392
0.150599121339696
0.120147549157165
2.18618866139388
0.433308664128614
0.211561686930415
0.147452276289643
0.118535348433719
0.102561774626304
2.19192356688865
0.429078087355423
0.206897400579385
0.144091491262997
0.11648800519703
0.101261902191363
0.0919423973303284
2.46683995439073
2.38167884349941
0.491643322995398
2.28699535625915
0.476459284577982
0.230091747995135
2.21610859319903
0.458588006686979
0.225301590311981
0.154266821266468
2.18721731502461
0.444077335218124
0.219109452156065
0.151939607114494
0.121294760865527
2.18619094853945
0.435165555014706
0.213218804075468
0.148863470804211
0.119761269823739
0.103650585914816
2.19192438861071
0.430344094720091
0.208490933176786
0.145558205481093
0.117784467109731
0.102419598130928
0.0929949750214501
2.19484406644401
0.426946974444237
0.204686451077539
0.142372763806498
0.115521359642681
0.100901233291356
0.0918907000085428
0.0860420553618473
2.46683978504417
2.38167839094607
0.493288559777297
2.28699536226502
0.478248792289191
0.231440456411691
2.21610912826935
0.460620403180004
0.226750914582508
0.155425953238519
2.18721854171178
0.446248651039424
0.220664837216641
0.153187936338496
0.122361178343151
2.18619249795843
0.437425718330509
0.214849459451396
0.15019101905155
0.120904435299947
0.104666912073204
2.19192763990854
0.432179267942811
0.210110979939078
0.146945638189919
0.118998265379324
0.10350407124075
0.0939817255442422
2.19484900882524
0.428089525375044
0.206221150264699
0.143806841638619
0.11679776183792
0.102044955526168
0.0929332905760186
0.0870076255040575
2.19511644958611
0.424019329016063
0.202590362244467
0.140790802027539
0.114451062330353
0.100337075310983
0.0916787885120204
0.0860138975776504
0.0822135127435912
2.46683990677036
2.38167804636786
0.494800443440956
2.28699488697729
0.479871429007807
0.232677839397436
2.21610902010285
0.462391528455373
0.228094947970149
0.156496146238493
2.18721893297476
0.448252322757543
0.222101107120562
0.154342531626161
0.123349064644101
2.18619332334242
0.439569845501271
0.216384715596555
0.151429034711328
0.121967823396451
0.105614045463371
2.19192922591298
0.434407696364522
0.211717980450404
0.148255550294262
0.120132888121085
0.104518032310509
0.0949074399528742
2.19485127197041
0.429875654992745
0.207803770665956
0.145169084023255
0.117996318378246
0.103121258316521
0.0939168149993557
0.0879191022029351
2.19512173051142
0.425028104390523
0.204064924177715
0.142193999165123
0.115708615330323
0.101467520713392
0.0927102210160585
0.0869703789904544
0.0831119148698635
2.19479106206845
0.420104729529661
0.200187404040187
0.139183994724181
0.113330201185887
0.0996285640103582
0.0913080120880254
0.0858636374326526
0.0821933369908386
0.0796896723323934
2.46684022002074
2.38167802958593
0.496189295667718
2.28699449508457
0.481354788585972
0.233814622071965
2.21610859564203
0.46399494877106
0.229320960633132
0.157479498500467
2.18721863028617
0.449998214733341
0.223432355986839
0.155409322014425
0.124261694742441
2.18619296407863
0.441543843270743
0.21780171115667
0.152574186212725
0.122953047779988
0.106493788773997
2.19192935559213
0.436517559101919
0.213229309274559
0.149478592564759
0.121189512995575
0.105463533871523
0.0957735632496426
2.19485490421041
0.432058454024264
0.209381775687629
0.146459162896368
0.119119175584504
0.104129796996554
0.0948410482551389
0.088779011113911
2.19512424883346
0.426783678094955
0.205607648164216
0.143531491944006
0.116891299413114
0.102533876140367
0.0936878029141747
0.0878791915948381
0.08396575146273
2.1947964491521
0.420992411936765
0.20159966505264
0.140557513251693
0.114570780251533
0.100747713144756
0.092329986275366
0.0868105949650238
0.0830832058422385
0.0805346610283574
2.19479622405428
0.415340758043341
0.19735857599695
0.137427829632533
0.112149749428361
0.0988330791452088
0.0908148391087114
0.0855950056603369
0.082074265056145
0.0796751570600582
0.078035194979454
2.46684052630004
2.38167823826378
0.497469272676003
2.28699438130914
0.482712771678138
0.234861807477271
2.21610826886637
0.465457805109248
0.230441684750466
0.158381387309123
2.18721838558272
0.45157652848582
0.224645613093015
0.156387304626487
0.125101322280745
2.18619245882425
0.443270446582953
0.219115365424589
0.153632080503461
0.123863641665697
0.10730818564746
2.19193017652708
0.438461780545628
0.214624105029288
0.150610337949525
0.122168909655662
0.106341921288924
0.0965807495388636
2.19485246846861
0.434127614162129
0.210867609607189
0.147665050767723
0.1201660796501
0.105071189232934
0.0957063035497585
0.089587230933531
2.19512998790003
0.428912910336112
0.207154454011393
0.144801153917877
0.118001023871531
0.103534887733183
0.094608436124273
0.0887380670276159
0.084775859221222
2.19479898194182
0.422782523738692
0.203102567843467
0.141870815510602
0.115738401578973
0.101804251324464
0.0933008175770342
0.0877147527762096
0.0839347125082945
0.0813429733997749
2.19480165421141
0.416149178700417
0.198707102194138
0.138772218535149
0.113375179865564
0.0999432164819759
0.0918301132676502
0.0865348879440953
0.0829556781347157
0.0805119940921034
0.0788368300112701
2.19511835084351
0.409811381553647
0.194106092455454
0.13547977538316
0.110894397682896
0.0979884076462504
0.0902529701988305
0.085241749639402
0.0818697479205892
0.0795781890985678
0.0780269295460219
0.0769830883181837
2.46684067564232
2.38167846466504
0.498633581689389
2.28699446389101
0.483957004511661
0.235820368568583
2.21610812657094
0.466791774820414
0.231472985328446
0.15920413364259
2.18721828147891
0.453014674355657
0.225751724051768
0.157282631642223
0.12587017800026
2.1861925995857
0.444823633414566
0.220311166414463
0.154601620954714
0.124700584838309
0.108058775017618
2.19192560145426
0.440176665257465
0.215916674102738
0.15165579278751
0.123074028903923
0.107155376040704
0.0973300703791997
2.1948527181049
0.436038290892776
0.212239255513638
0.148781386078994
0.121136964344741
0.105946128990996
0.0965128969335775
0.0903432954219591
2.19512531012005
0.430931552985975
0.208613736583005
0.145989377833837
0.119036699150761
0.104470223813208
0.0954711500233417
0.0895457896526678
0.0855408225980246
2.19480477306468
0.424852486179232
0.204616641236719
0.143120244598885
0.116835071002064
0.102797067510762
0.0942166063212676
0.0885710931269085
0.0847440439662219
0.0821141087172667
2.19480411277543
0.418096471250865
0.200174840877238
0.140062015393029
0.114529038116669
0.100991224478188
0.0927950955623396
0.0874343428600998
0.0838033727200585
0.0813182151317348
0.0796083720941648
2.19512371954644
0.410940908942351
0.195391870534532
0.13679534059761
0.112106438338405
0.0990919069344989
0.0912644820366855
0.0861780726351807
0.0827457646771115
0.0804073513589798
0.0788206920795777
0.0777491262029703
2.1948478584119
0.403644163094332
0.190454996490464
0.13335443901386
0.109574086342604
0.0971241688041647
0.0896730818637569
0.084855127192857
0.0816177239177407
0.0794219181795055
0.077949456042798
0.0769815542722276
0.076358226773846
2.46684064221503
2.38167856149577
0.499669192921537
2.28699458411622
0.485107357467849
0.236688008066844
2.21610811195761
0.468010970227041
0.232416342637874
0.159948581520367
2.18721813548526
0.454320363217118
0.226764463918112
0.158099207132479
0.126569028472422
2.18619290281801
0.446235680829487
0.221399147239133
0.155487353051926
0.125466758311154
0.108746225797099
2.19192819025174
0.44170400766303
0.217093094788445
0.15261360223501
0.123905711693351
0.107904701148723
0.0980219529893916
2.19484585270533
0.437742370748549
0.213508296283149
0.149812127191948
0.122034224546046
0.106756474238028
0.0972617173528453
0.0910471995513772
2.1951233359375
0.432800138106792
0.209961349886502
0.147089762863064
0.119997596774604
0.105340011957624
0.0962756829453913
0.0903015890785663
0.0862592080352665
2.19480015470226
0.426810658132942
0.206047878890954
0.1442909536318
0.117859301862775
0.103725439037088
0.0950755823990553
0.0893771900717669
0.0855087258283919
0.0828455924040042
2.19480992350875
0.420107135631412
0.201655620125638
0.141291658392141
0.115613490014131
0.101976406396992
0.0937060905422059
0.0882875959851009
0.0846108720188124
0.0820887657011259
0.0803482543678289
2.19512596666166
0.412876954218654
0.196833347076466
0.138062927888618
0.113248073555427
0.100133226121009
0.0922255309334787
0.0870744648373596
0.0835902147106194
0.0812103901167841
0.0795903372492355
0.0784905468264212
2.19485291589123
0.405257804435478
0.191700268444779
0.134641807920255
0.110774704553714
0.0982236050722893
0.0906838635710173
0.0857915567857907
0.0824925491896151
0.0802469775793711
0.0787361506902063
0.0777399242939387
0.0770948948496532
2.19192765331609
0.397487740434547
0.186441163458937
0.131108098320939
0.108235594413777
0.0962831588761705
0.0891239204578871
0.084488582835131
0.0813692839868396
0.0792501023985673
0.0778337874056622
0.0769222173361324
0.0763633436887443
0.0760393491546109
2.46684050039522
2.38167850858917
0.500574814307735
2.28699462096519
0.486140993595366
0.237458871768921
2.21610814042867
0.469134101746327
0.233272942259312
0.160614822426922
2.18721799056135
0.455513571735665
0.227690123355157
0.158837779789406
0.127198366312482
2.18619273279667
0.447513870418828
0.222389895728222
0.156294433797841
0.12616305728599
0.109370837126381
2.19193103762335
0.443089992804513
0.218161097493437
0.153487062985998
0.124666643430075
0.108590971027234
0.0986564039114836
2.1948509122686
0.439240309253018
0.214664813016121
0.15075644918577
0.122858524809023
0.107502767601303
0.0979530291454473
0.0916985527641429
2.19511801965706
0.434488565717083
0.211204996800111
0.148104743621131
0.120885468347731
0.106145515137224
0.0970227385602792
0.0910052404850841
0.0869300395625513
2.19479808419679
0.428626884586199
0.20737015562928
0.145375484796084
0.118809860368589
0.104589092479927
0.0958769783631138
0.090131751785505
0.0862270193402179
0.0835351540950373
2.19480540488336
0.42199497636485
0.203057334258586
0.142445241138369
0.116626838965228
0.102897989590631
0.0945610753402521
0.0890914911549858
0.0853745371802939
0.0828201323991483
0.0810531313715549
2.19513163075226
0.414801893759156
0.198282450140001
0.139273703133431
0.114321578032859
0.101112101926788
0.0931328813673688
0.0879253676993759
0.0843958947154975
0.0819796451581979
0.0803297991811818
0.0792049483147192
2.19485255486382
0.407121800907457
0.193107003882932
0.13588928766849
0.111906076524656
0.0992604597092837
0.0916434187648436
0.086687474645747
0.0833360535302223
0.0810479072049673
0.0795031235348431
0.0784796114781091
0.0778114500131881
2.19193032253663
0.399016088487443
0.187651278453505
0.132369961000854
0.10942734972579
0.0973815792587869
0.0901372880315932
0.0854288497260328
0.0822472785203738
0.08007586510678
0.0786174204637265
0.0776739992447947
0.0770924901556477
0.0767517765195014
2.18619316583205
0.390778227068025
0.18216236936771
0.128853400046774
0.106975368121943
0.0955407416989269
0.0886684443487256
0.0841994631491431
0.0811785418279635
0.0791151978005143
0.0777292104608929
0.0768422271516089
0.0763206771231844
0.0760506605373179
0.0759390204136167
2.46684034403216
2.38167837977611
0.501353908835186
2.28699455104593
0.487048645824763
0.23812924899615
2.21610812019581
0.470151964759958
0.234036769668351
0.161201911343324
2.18721795804653
0.456608086769835
0.228530330469626
0.159498962543435
0.127758542961197
2.18619237837851
0.448681717896041
0.22329525231131
0.157023978786317
0.126790000721303
0.109932827885868
2.19192892420189
0.44434393631908
0.219128147747015
0.154281918210216
0.125357928211055
0.109214489192229
0.09923339044691
2.19485649617563
0.440596270026299
0.215712495228804
0.151616181939541
0.123612047741294
0.108186163990268
0.0985869654249025
0.0922968853171901
2.19512317259869
0.43595108313164
0.212341141536605
0.149035157821903
0.121701146239492
0.106887287639527
0.0977123115347805
0.091656360326863
0.0875522677132398
2.1947923848653
0.430287521685201
0.208586883747262
0.146374413247221
0.119687788894036
0.105388835055388
0.0966212276165142
0.0908343622111427
0.0868977760380034
0.0841810236660559
2.19480323613488
0.423747493692882
0.204352512286645
0.143514234005284
0.117567463463594
0.103755485329467
0.0953590458808142
0.0898442859476962
0.0860921395147312
0.0835097414838838
0.0817200172303373
2.19512717403219
0.416605936169415
0.199654349952753
0.140410872222289
0.115325111853814
0.10202786533604
0.0939845741022325
0.0887274194439243
0.0851584759311376
0.0827104672150357
0.0810347038945028
0.0798882775786184
2.19485558276338
0.40893844536838
0.19452277445983
0.13708296884601
0.112970411002588
0.100234895859004
0.0925489947169056
0.0875377955714206
0.0841412609537752
0.081816343342041
0.0802417358871785
0.0791937377685223
0.0785048574632568
2.19193053319912
0.400737261313045
0.189019394183594
0.133598866361538
0.110551128286457
0.0984167250559342
0.091098218452769
0.0863273559093997
0.0830930599474964
0.0808775513211819
0.0793832124645057
0.0784114375054068
0.0778074473111972
0.0774477369592476
2.18619326213848
0.392073194557425
0.183300586952731
0.130091922613144
0.1081619747294
0.0966420221694072
0.0896882929649472
0.0851475918999958
0.0820641032871259
0.0799466437429945
0.0785151030649244
0.0775917958569271
0.0770436114288797
0.0767556648689543
0.0766314830380335
2.1872225768608
0.383889498372081
0.177776455503648
0.126820826857261
0.105972509196334
0.0950276218559607
0.0884036807508217
0.0840632960124943
0.0811073963437157
0.0790720277957186
0.0776902024558902
0.0767955847175169
0.0762722773622937
0.0760229781543312
0.0759559093390085
0.075992322245529
2.46684022555632
2.38167825929687
0.502007612433216
2.28699443818413
0.4878316091113
0.238698744605788
2.21610802160031
0.471048952802786
0.234702437150341
0.16170882093746
2.18721794616756
0.457605530551934
0.229281924821929
0.160082010940195
0.128249682112688
2.18619237164844
0.449744881151911
0.224115869729
0.157676924691168
0.12734803074134
0.110432434236168
2.19192635636024
0.445483302659647
0.220011749365637
0.154999916420178
0.125980186187071
0.109775484601516
0.0997529249081094
2.19485263827251
0.441822845056235
0.216657869231418
0.152397278930237
0.124296311155424
0.108806984565893
0.0991634890388784
0.0928418508853244
2.19512727738939
0.43727175357735
0.213368088573587
0.149881179201377
0.122445988766367
0.107566384509508
0.0983446395189166
0.0922544840702506
0.0881249981792938
2.19479722313122
0.431708228552504
0.209702520781257
0.147291161823489
0.120494430688566
0.106125222713092
0.0973081453470071
0.0914845050548017
0.0875199520488418
0.0847815693437864
2.19479727009853
0.425357189184712
0.20553870067353
0.144497354444718
0.118435649041136
0.104549343940512
0.0960999752367943
0.0905453818796721
0.0867623433655777
0.0841556772701959
0.0823464809389204
2.19512508842636
0.418283857490591
0.200922129375263
0.141465051741937
0.116256713460773
0.102879941765543
0.0947795284842099
0.0894786475281402
0.085875316148097
0.0833998127059877
0.081701765554849
0.0805369525261929
2.1948532106827
0.410641927712516
0.195864912747317
0.138205209727941
0.113965726015612
0.101146409591384
0.0933988432405545
0.0883392750374007
0.0849036690235355
0.0825469720322607
0.0809464938633849
0.0798772249663538
0.0791705006741522
2.19192744641621
0.40241813718541
0.190402193804998
0.134777643389632
0.111608843368855
0.0993891859789333
0.0920044489132333
0.087179525001783
0.0839001423053235
0.0816470364549298
0.0801218351025013
0.0791250952743883
0.078500705870394
0.0781237378814401
2.18619471361911
0.393595688553397
0.184623859540276
0.131305074864781
0.109281798831163
0.0976790501523847
0.0906540693206723
0.0860521765885528
0.0829158183087255
0.080752872456201
0.0792830605465303
0.078328825341986
0.0777566703578624
0.0774501366228704
0.0773103755482169
2.18721940471083
0.384706409688003
0.178836723769793
0.12803627217268
0.107159130959187
0.0961369625785485
0.0894348542122834
0.085023934207566
0.0820052092575372
0.079914156487877
0.0784838708954485
0.0775486993366794
0.0769936867469247
0.076722058736226
0.0766410090106225
0.0766683975777338
2.2161134346418
0.378982350969015
0.174005502303673
0.125510027125494
0.10556865840805
0.0949720182720922
0.0884868195573217
0.0841927617758922
0.0812396025846972
0.079185496926963
0.077772575590353
0.0768388569322906
0.0762760502634475
0.0760024121407335
0.0759414585283211
0.0760141418528821
0.0761500015614741
2.46684015387546
2.38167818723332
0.502533070006879
2.28699435520286
0.488488194441102
0.23916786140644
2.21610791189308
0.471823771910437
0.235268798064399
0.162135352502074
2.18721777354698
0.458487702557422
0.229938560764385
0.160585734186675
0.128671809787948
2.18619245982691
0.450721277957353
0.224851824110663
0.158253124761657
0.127837333960053
0.11086988434636
2.19192844307735
0.446519599445916
0.220810864051068
0.155642119665143
0.126533972492588
0.11027419838365
0.10021508994287
2.19485008024361
0.44292899701641
0.217516861282393
0.153102237017489
0.12491203214906
0.109365494841292
0.0996826048122469
0.0933332473279233
2.19512818885931
0.438464461664152
0.214292182930077
0.150647789545072
0.123122068396622
0.108183171265866
0.0989196790842008
0.0927992636635893
0.0886475816847032
2.19479932936694
0.432986691719861
0.210708780047682
0.148123703902771
0.121230348620373
0.106799182036183
0.0979379955438706
0.0920817302550975
0.0880926404463255
0.0853355078702274
2.19480176472533
0.426733300120488
0.206636631543503
0.14540082706477
0.11923355999024
0.105280304191619
0.0967838296365278
0.0911940787526782
0.0873840279656988
0.0847563032489379
0.0829303885217645
2.19511913237263
0.419826139014382
0.202081315358232
0.142434057969756
0.117116007074201
0.103668477535174
0.0955174998149217
0.0901783113516651
0.0865449062226245
0.0840455818128101
0.0823284195217539
0.081147963688587
2.19485171209349
0.412228326018701
0.19710672368639
0.139246009153919
0.114889825739797
0.10199440775395
0.0941919350620128
0.0890899580032121
0.0856204387625393
0.0832363616250814
0.081613654721598
0.0805261889643486
0.0798043088637788
2.19192862319553
0.403993390358244
0.191715846451664
0.135887413890916
0.112598314186033
0.100298657779037
0.0928545163255015
0.087982379852612
0.0846641680112076
0.082378855186717
0.0808271451963956
0.0798087804845993
0.0791666223881028
0.0787747308353733
2.18619094240793
0.395091745845788
0.185975649120212
0.132472697220667
0.110336507917096
0.0986528625454512
0.0915640408322185
0.086909172020129
0.0837277382605185
0.081526265641657
0.0800240016781245
0.0790431939614409
0.0784497851885629
0.0781260961705247
0.0779718908396048
2.18721884687694
0.385870672162045
0.180122971284908
0.129238072427102
0.10828030275171
0.0971807517629867
0.0904098815378855
0.0859387267253417
0.0828669301293433
0.0807291211173676
0.0792582670458145
0.0782890718155614
0.0777069784809896
0.0774149181199054
0.0773184980188058
0.0773331602809905
2.21610968677025
0.379367610374218
0.175072426991938
0.126707127694958
0.106762508385261
0.0960966274605896
0.0895356327262517
0.085171576224947
0.0821549998345519
0.0800435902291332
0.0785795480851458
0.0776014924635089
0.0770020640372513
0.0767005187239024
0.0766208487082214
0.0766828836792134
0.0768126964174531
2.2869972684867
0.384948015403528
0.17374816776503
0.126150741113731
0.10645895782191
0.095790014774435
0.0891817247236772
0.0847647282408667
0.0816990398262167
0.0795450886654757
0.0780435393378839
0.0770289350801943
0.0763904383923092
0.0760501112636092
0.0759452346869494
0.0760112380372857
0.0761761411765705
0.0763740273454225
2.38167816861927
0.502911363110003
2.28699432764512
0.489008838712242
0.239534737969801
2.2161078606209
0.472471620871032
0.235735653749224
0.16248158467436
2.18721759841153
0.459251696716474
0.230498217311116
0.161009822208088
0.129025087944908
2.18619214144988
0.451590120092721
0.225496743487028
0.158751370050724
0.128257939259666
0.111245449761343
2.19193069383333
0.447468339783835
0.221529279680916
0.156209169402191
0.127019612281121
0.110710878083225
0.10062007856192
2.19485224688886
0.443937219444721
0.218293965285745
0.153732163157291
0.125459850387244
0.109861976518899
0.100144401979351
0.0937710415992021
2.19512591424171
0.439536241510701
0.215124328037719
0.151338810399027
0.123730156741435
0.108737964918198
0.0994374451105623
0.093290499421744
0.0891196289051999
2.19480698275924
0.434140038985074
0.21161139668502
0.148875572740805
0.121897875907696
0.10741116848186
0.0985107397149754
0.0926256892733025
0.0886151930134763
0.0858419192139372
2.19480358136484
0.427963340604698
0.207622798709223
0.1462203082382
0.119960874351553
0.105948943445905
0.0974108179565444
0.0917899731916401
0.0879562673930233
0.0853103223571108
0.0834701071835994
2.1951233616461
0.421141840923812
0.203159490156444
0.143324270197332
0.117906020336932
0.104394560371873
0.0961985523219402
0.090825624683309
0.0871660264718457
0.0846460779713862
0.0829125225802647
0.0817187731050169
2.19484823000087
0.413667074272453
0.198243440050053
0.14020277875642
0.115742152194245
0.102778822880193
0.0949279228769855
0.0897888863958434
0.0862899836301126
0.0838822434335138
0.0822404723500433
0.0811375087481876
0.0804027861222918
2.1919282280851
0.405457552191555
0.192934019947472
0.136917564814066
0.113517136261313
0.101144605885781
0.0936475226796456
0.0887340939161201
0.0853823235667359
0.0830694046587568
0.0814950277147612
0.080458158717166
0.0798008257188522
0.0793962411308877
2.18619182441514
0.396433926717488
0.187267387838639
0.133574018642895
0.111323645629358
0.0995633665020343
0.0924170802689212
0.0877159526764677
0.0844958136721089
0.0822615249371125
0.0807316470996756
0.0797280669326651
0.0791161991175099
0.0787774661355843
0.0786106628501299
2.18721766922195
0.387100580441584
0.181460022587933
0.130400691712561
0.109337353391153
0.0981605220307404
0.0913276209806121
0.0868042138406021
0.0836871827843773
0.0815098669624889
0.0800048279212251
0.0790068304924122
0.0784013967071169
0.0780910067925321
0.0779800599745585
0.0779825907530769
2.21610871984906
0.380204497398607
0.176380725469551
0.127907482483198
0.107892948995122
0.097154068995839
0.0905257536150322
0.086101704732865
0.0830314600453256
0.0808718918871975
0.0793650495514145
0.0783498992653169
0.0777196827760173
0.0773941391543451
0.0772969532582754
0.0773463058941578
0.077465798251542
2.28698419106163
0.38485383678935
0.174706359200277
0.12734252312374
0.107671032035166
0.0969402347169755
0.0902567765016559
0.0857689591975066
0.082638426078336
0.0804250990184742
0.0788696282984383
0.0778070782749246
0.0771274222263683
0.0767536853099976
0.0766240842838388
0.0766744227229219
0.0768315069017502
0.0770259459590212
2.38167969099606
0.438320916368023
0.187417933089861
0.132195489550129
0.110195738322945
0.098293391850543
0.0909546067243685
0.0860687685104877
0.0826769691030917
0.0802827823478176
0.0785967841135317
0.0774348920405329
0.0766733270758394
0.0762260992611037
0.0760311130693705
0.0760361601671925
0.0761832475622204
0.0764039551794929
0.0766344197725318
2.28699435779735
0.489377796017682
0.23979244217109
2.21610786296679
0.472980106355056
0.236099852154928
0.162746469536693
2.18721763936476
0.459889497108484
0.230959740114436
0.16135423103417
0.129309621939786
2.18619183029496
0.452345112366952
0.226047712599385
0.159171213335697
0.128610004554536
0.111559419132188
2.19192815865758
0.448323233796668
0.222161543094817
0.156700076010326
0.127437177051996
0.111085791754148
0.100968167182888
2.19485451046682
0.444853753337702
0.218992375672544
0.154288541145291
0.125940293609306
0.110296716384984
0.100549072335742
0.0941553583219156
2.19512590061767
0.440509172500668
0.215878289136467
0.151955793271245
0.124270952936052
0.109231098527704
0.0998980428692252
0.0937281548895144
0.0895409685015903
2.19480490985426
0.43517677048528
0.212417307518317
0.149552240608667
0.122497933188446
0.107961544065287
0.0990264181236573
0.0931161885272643
0.0890872131202509
0.0863002042608576
2.1948049626262
0.429071793803928
0.208503792341211
0.146958151837789
0.120620001675318
0.10655599634691
0.0979809132463929
0.0923327144397039
0.0884784133298626
0.0858168083448016
0.0839644529107342
2.1951248445159
0.422315252300927
0.204125738553071
0.144131810679229
0.118625688663933
0.105058352635266
0.0968228740100108
0.0914202289765721
0.0877377431549718
0.085199981298236
0.0834524252205908
0.0822474300186347
2.19485011945575
0.414902740888875
0.199304667943582
0.141081292206021
0.116525074899217
0.103501097410891
0.0956070660214985
0.0904354657246046
0.0869110043598144
0.0844828539346801
0.0828247483878524
0.0817086170671389
0.0809630555442477
2.19192921889522
0.406727202738525
0.194059544577406
0.137865044633491
0.114364641432239
0.101926962661752
0.0943830937022546
0.0894336935494369
0.0860529974529602
0.0837163519608641
0.0821225731192692
0.0810699320244451
0.0803997136257567
0.0799843876261705
2.18619271536672
0.397683450907017
0.188471968577201
0.134597660203916
0.112240607143657
0.100410114478831
0.0932124782719181
0.088470905939562
0.0852174165984193
0.082955087352685
0.0814017291512516
0.0803787468115931
0.0797510873432884
0.0793994620645199
0.0792218858917998
2.18721426789469
0.388267247238983
0.182772554040894
0.131500634145382
0.110327384622338
0.099076396282209
0.0921873257105509
0.0876181840247181
0.0844623169213432
0.0822514319318248
0.0807174579086296
0.0796950119204035
0.0790695422986505
0.0787431262096635
0.0786192932616112
0.0786110972758659
2.21610684513456
0.381185847166733
0.177736259299521
0.12907726640637
0.108960493441192
0.0981463899582262
0.0914567017394668
0.0869803488604298
0.0838642448408665
0.0816639555764395
0.0801210996482188
0.0790747285183871
0.0784183968895809
0.0780720281866889
0.0779588693799385
0.0779958525636802
0.0781051259271699
2.28700717368183
0.385302136882136
0.175953047134772
0.128561610607791
0.10882337811738
0.0980214456553059
0.0912700859617568
0.0867210940784055
0.0835354073141119
0.081272018114365
0.0796713074743261
0.0785685983815025
0.0778544161691266
0.0774524494043281
0.0773013783033574
0.0773366359827784
0.0774833090302067
0.0776695040029227
2.38166628498341
0.438065501810886
0.188148626029532
0.133372933336094
0.111441629018957
0.0994846891662028
0.0920682020248545
0.0871081240625769
0.0836484059894995
0.0811917790732145
0.0794484953153564
0.0782348217758268
0.0774276626258597
0.0769418372107767
0.0767161251408037
0.0766991375862017
0.0768331550889432
0.0770485216274166
0.077278156075247
3.68516441843931
0.781183947057484
0.270353116227364
0.155686687816032
0.120725204787808
0.104217680414943
0.0946897453701016
0.0886056232661998
0.0844815808967409
0.0816004086886726
0.0795702822067732
0.0781536269328502
0.0771952975802059
0.0765890877560636
0.0762604174048446
0.076155098073855
0.0762264458706719
0.0764197382494275
0.0766677786771608
0.0769065809369632
2.21610790843142
0.473339613249734
0.236354872794767
0.162927659497466
2.18721771688427
0.46038689503018
0.231318653128275
0.161617625722548
0.129524936607175
2.18619206547132
0.452975151461628
0.22650244534595
0.159512396798237
0.12889361759486
0.111812004205451
2.19192566944164
0.449070285985994
0.222703608114177
0.157114279979804
0.127786823315381
0.111399241474031
0.101259708345037
2.19485167505948
0.445690762232361
0.219610558548067
0.154770939017089
0.126353551328882
0.11067000170741
0.100896900311709
0.0944864527272815
2.19512581305032
0.441391869789099
0.216554364762912
0.152500445265836
0.124745222280603
0.109662925372782
0.100301675232048
0.0941123518360798
0.0899116419416089
2.19480438151785
0.436107479889372
0.213144851665399
0.150155920149415
0.123031332530247
0.108450694790291
0.0994851624722665
0.0935531961952077
0.0895085324305887
0.0867100607445981
2.19480280664187
0.430068135602258
0.209287177450164
0.147620643911988
0.121212118918488
0.107101843169719
0.0984941893522354
0.0928221216486706
0.0889500706286717
0.0862751644127165
0.0844126358162815
2.1951262419407
0.423369636488867
0.204986216852834
0.144857556804715
0.119276840441261
0.105660892855185
0.0973905061916291