/*--------------------------------*- C++ -*----------------------------------*\
  =========                 |
  \\      /  F ield         | OpenFOAM: The Open Source CFD Toolbox
   \\    /   O peration     | Website:  https://openfoam.org
    \\  /    A nd           | Version:  12
     \\/     M anipulation  |
\*---------------------------------------------------------------------------*/
/*   Windows 32 and 64 bit porting by blueCAPE: http://www.bluecape.com.pt   *\
|  Based on Windows porting (2.0.x v4) by Symscape: http://www.symscape.com   |
\*---------------------------------------------------------------------------*/
FoamFile
{
    format      ascii;
    class       volScalarField;
    location    "700";
    object      p;
}
// * * * * * * * * * * * * * * * * * * * * * * * * * * * * * * * * * * * * * //

dimensions      [0 2 -2 0 0 0 0];

internalField   nonuniform List<scalar> 
10116
(
83333.3353071114
83333.3353057375
83333.3353071385
83333.3353071634
83333.3353042994
83333.3353057641
83333.3353057903
83333.3353071884
83333.335307196
83333.3353073308
83333.3353027927
83333.3353043246
83333.3353043515
83333.3353058152
83333.3353058241
83333.3353059565
83333.3353072657
83333.33530725
83333.3353073738
83333.3353076834
83333.3353012068
83333.3353028192
83333.3353028358
83333.3353043765
83333.3353043842
83333.3353045056
83333.3353058962
83333.3353058808
83333.3353060023
83333.3353063125
83333.3353073738
83333.3353073311
83333.3353074379
83333.3353077358
83333.3353082447
83333.3352995438
83333.3353012348
83333.3353012422
83333.3353028735
83333.3353028686
83333.3353029743
83333.3353044603
83333.3353044422
83333.3353045498
83333.3353048541
83333.33530601
83333.3353059663
83333.335306071
83333.3353063688
83333.3353068841
83333.3353075153
83333.3353074424
83333.3353075263
83333.3353078084
83333.3353082951
83333.3353090179
83333.3352978022
83333.3352995732
83333.3352995727
83333.3353012915
83333.3353012754
83333.3353013659
83333.3353029612
83333.335302928
83333.3353030178
83333.3353033085
83333.3353045793
83333.335304531
83333.3353046199
83333.3353049094
83333.3353054282
83333.3353061591
83333.3353060837
83333.3353061657
83333.3353064483
83333.3353069392
83333.3353076751
83333.3353076907
83333.3353075865
83333.335307643
83333.3353079046
83333.3353083744
83333.3353090622
83333.3353099864
83333.3352959792
83333.3352978328
83333.3352978253
83333.3352996322
83333.3352996065
83333.3352996823
83333.335301383
83333.3353013362
83333.3353014091
83333.3353016861
83333.3353030859
83333.3353030202
83333.3353030884
83333.3353033626
83333.3353038819
83333.3353047359
83333.335304654
83333.3353047186
83333.335304991
83333.3353054841
83333.3353062359
83333.3353063444
83333.3353062359
83333.3353062899
83333.3353065526
83333.3353070257
83333.3353077242
83333.3353086702
83333.3353078997
83333.3353077645
83333.335307791
83333.3353080282
83333.335308476
83333.3353091409
83333.3353100267
83333.3353111305
83333.3352940714
83333.3352960107
83333.3352959964
83333.3352978942
83333.3352978597
83333.3352979207
83333.3352997274
83333.3352996691
83333.335299726
83333.3352999892
83333.3353015134
83333.3353014316
83333.3353014805
83333.3353017403
83333.3353022604
83333.3353032503
83333.3353031489
83333.3353031902
83333.3353034452
83333.3353039387
83333.3353047072
83333.3353049309
83333.3353048141
83333.3353048492
83333.3353051003
83333.3353055734
83333.3353062863
83333.3353072601
83333.335306565
83333.335306424
83333.335306447
83333.3353066853
83333.3353071364
83333.3353078101
83333.3353087152
83333.3353098506
83333.3353081404
83333.3353079759
83333.3353079723
83333.3353081826
83333.3353086055
83333.3353092434
83333.3353100997
83333.335311169
83333.3353124324
83333.3352920749
83333.3352941037
83333.3352940827
83333.3352960745
83333.3352960315
83333.3352960778
83333.3352979933
83333.3352979243
83333.3352979657
83333.3352982152
83333.3352998636
83333.3352997679
83333.3352997988
83333.3353000454
83333.3353005678
83333.3353016856
83333.3353015658
83333.3353015853
83333.335301824
83333.3353023186
83333.3353031047
83333.335303455
83333.3353033169
83333.3353033267
83333.3353035583
83333.3353040299
83333.3353047589
83333.3353057633
83333.3353051632
83333.3353050122
83333.3353050151
83333.3353052406
83333.33530569
83333.3353063757
83333.3353073067
83333.3353084807
83333.3353068191
83333.3353066475
83333.3353066391
83333.3353068503
83333.3353072763
83333.3353079221
83333.3353087956
83333.3353098937
83333.3353111987
83333.3353084108
83333.3353082193
83333.3353081869
83333.3353083705
83333.3353087669
83333.335309376
83333.3353101998
83333.3353112352
83333.3353124666
83333.3353138703
83333.3352899852
83333.335292108
83333.3352920797
83333.3352941697
83333.3352941186
83333.3352941498
83333.3352961776
83333.3352960984
83333.335296124
83333.3352963607
83333.3352981354
83333.3352980269
83333.3352980405
83333.3352982742
83333.3352988006
83333.3353000435
83333.3352999077
83333.3352999071
83333.3353001308
83333.3353006273
83333.3353014317
83333.3353019001
83333.3353017416
83333.3353017273
83333.3353019406
83333.3353024119
83333.335303158
83333.3353041949
83333.3353036989
83333.335303525
83333.3353035009
83333.3353037051
83333.335304151
83333.3353048508
83333.3353058114
83333.335307028
83333.3353054308
83333.3353052476
83333.3353052181
83333.3353054154
83333.3353058384
83333.3353064942
83333.3353073908
83333.3353085256
83333.3353098795
83333.3353071045
83333.3353069049
83333.3353068664
83333.3353070503
83333.3353074496
83333.335308066
83333.3353089053
83333.335309967
83333.3353112365
83333.3353126906
83333.3353087078
83333.3353084924
83333.3353084337
83333.3353085927
83333.3353089631
83333.3353095432
83333.3353103333
83333.3353113315
83333.3353125273
83333.3353139003
83333.3353154249
83333.3352877973
83333.3352900193
83333.3352899829
83333.3352921764
83333.3352921165
83333.3352921321
83333.3352942771
83333.3352941877
83333.3352941969
83333.3352944215
83333.3352963259
83333.3352962048
83333.335296201
83333.335296422
83333.3352969533
83333.3352983233
83333.3352981724
83333.3352981527
83333.3352983621
83333.3352988611
83333.3352996854
83333.3353002678
83333.3353000914
83333.3353000551
83333.3353002515
83333.3353007231
83333.3353014869
83333.3353025581
83333.3353021555
83333.3353019597
83333.3353019099
83333.3353020937
83333.3353025374
83333.3353032529
83333.335304245
83333.3353055072
83333.3353039798
83333.3353037723
83333.3353037148
83333.3353038891
83333.3353043067
83333.3353049744
83333.3353058985
83333.3353070748
83333.3353084824
83333.335305731
83333.3353055187
83333.3353054584
83333.3353056276
83333.3353060226
83333.3353066472
83333.3353075074
83333.3353086027
83333.3353099186
83333.3353114309
83333.3353074178
83333.3353071935
83333.3353071277
83333.3353072866
83333.3353076595
83333.3353082461
83333.3353090504
83333.335310073
83333.3353113042
83333.335312724
83333.3353143068
83333.3353090279
83333.335308793
83333.3353087107
83333.3353088485
83333.3353091955
83333.3353097477
83333.3353105045
83333.3353114644
83333.3353126201
83333.3353139568
83333.3353154522
83333.33531708
83333.3352855062
83333.3352878327
83333.3352877875
83333.3352900904
83333.3352900206
83333.3352900194
83333.3352922882
83333.335292188
83333.33529218
83333.3352923926
83333.3352944316
83333.3352942981
83333.3352942764
83333.3352944843
83333.3352950209
83333.3352965221
83333.3352963564
83333.3352963174
83333.3352965129
83333.3352970152
83333.3352978614
83333.3352985576
83333.3352983642
83333.3352983069
83333.3352984873
83333.3352989601
83333.3352997426
83333.3353008507
83333.3353005349
83333.3353003196
83333.3353002461
83333.3353004112
83333.3353008535
83333.3353015853
83333.3353026106
83333.3353039215
83333.3353024496
83333.3353022191
83333.3353021347
83333.3353022868
83333.3353027002
83333.3353033815
83333.3353043353
83333.3353055561
83333.3353070214
83333.3353042948
83333.335304057
83333.3353039682
83333.3353041132
83333.3353045012
83333.3353051356
83333.3353060206
83333.3353071549
83333.3353085229
83333.3353100986
83333.3353060606
83333.3353058229
83333.3353057348
83333.335305878
83333.335306246
83333.3353068393
83333.3353076624
83333.3353087158
83333.3353099903
83333.3353114655
83333.3353131146
83333.3353077551
83333.3353075106
83333.3353074207
83333.3353075583
83333.3353079074
83333.3353084653
83333.3353092353
83333.3353102178
83333.3353114067
83333.3353127872
83333.3353143372
83333.33531603
83333.3353093658
83333.3353091174
83333.3353090159
83333.3353091365
83333.3353094638
83333.3353099904
83333.3353107155
83333.3353116376
83333.3353127512
83333.335314046
83333.335315505
83333.3353171052
83333.3353188204
83333.3352831076
83333.3352855426
83333.3352854886
83333.3352879066
83333.335287826
83333.3352878065
83333.3352902069
83333.3352900946
83333.3352900681
83333.3352902684
83333.3352924494
83333.3352923027
83333.335292262
83333.3352924563
83333.3352929982
83333.3352946365
83333.335294456
83333.3352943973
83333.3352945785
83333.3352950844
83333.335295955
83333.3352967668
83333.3352965566
83333.3352964782
83333.3352966431
83333.3352971178
83333.3352979207
83333.3352990684
83333.3352988367
83333.3352986028
83333.3352985066
83333.3352986539
83333.3352990957
83333.3352998452
83333.3353009057
83333.3353022688
83333.3353008425
83333.3353005912
83333.3353004819
83333.3353006136
83333.3353010237
83333.3353017196
83333.3353027048
83333.3353039727
83333.3353054995
83333.3353027794
83333.3353025176
83333.3353024013
83333.3353025228
83333.3353029048
83333.3353035506
83333.335304463
83333.3353056396
83333.3353070636
83333.3353087074
83333.3353046405
83333.3353043767
83333.3353042597
83333.3353043781
83333.3353047377
83333.335305339
83333.3353061844
83333.335307274
83333.3353085978
83333.3353101346
83333.3353118557
83333.3353064151
83333.3353061569
83333.3353060448
83333.3353061661
83333.3353065098
83333.3353070734
83333.3353078602
83333.335308871
83333.3353101
83333.3353115326
83333.3353131461
83333.3353149123
83333.3353081103
83333.3353078524
83333.3353077429
83333.3353078637
83333.3353081934
83333.3353087252
83333.3353094622
83333.3353104053
83333.3353115499
83333.3353128859
83333.3353143965
83333.3353160582
83333.3353178444
83333.3353097132
83333.3353094613
83333.3353093462
83333.3353094548
83333.3353097672
83333.3353102715
83333.3353109668
83333.3353118525
83333.3353129243
83333.3353141742
83333.3353155903
83333.3353171546
83333.3353188439
83333.3353206326
83333.3352805967
83333.3352831443
83333.3352830806
83333.3352856194
83333.3352855276
83333.3352854879
83333.335288028
83333.3352879025
83333.3352878563
83333.3352880423
83333.3352903749
83333.3352902136
83333.3352901527
83333.3352903329
83333.3352908803
83333.3352926632
83333.3352924672
83333.3352923876
83333.335292554
83333.3352930637
83333.3352939608
83333.3352948921
83333.3352946649
83333.335294565
83333.3352947141
83333.3352951912
83333.3352960163
83333.3352972068
83333.3352970584
83333.3352968058
83333.3352966871
83333.3352968171
83333.3352972592
83333.3352980278
83333.335299126
83333.335300545
83333.3352991581
83333.3352988868
83333.3352987536
83333.3352988661
83333.335299274
83333.3352999856
83333.3353010043
83333.3353023222
83333.3353039148
83333.3353011873
83333.3353009037
83333.3353007617
83333.3353008616
83333.3353012387
83333.3353018971
83333.3353028387
83333.3353040603
83333.3353055437
83333.3353072603
83333.3353031412
83333.3353028527
83333.335302708
83333.3353028022
83333.3353031545
83333.3353037652
83333.3353046355
83333.3353057646
83333.3353071419
83333.335308745
83333.3353105431
83333.3353050122
83333.3353047276
83333.3353045868
83333.335304683
83333.3353050176
83333.3353055875
83333.3353063945
83333.3353074385
83333.3353087136
83333.3353102049
83333.3353118885
83333.3353137342
83333.3353067882
83333.3353065168
83333.3353063856
83333.3353064902
83333.3353068141
83333.3353073507
83333.3353081029
83333.335309072
83333.3353102539
83333.3353116386
83333.3353132092
83333.3353149417
83333.3353168074
83333.3353084747
83333.3353082139
83333.3353080911
83333.335308201
83333.3353085164
83333.3353090257
83333.3353097319
83333.3353106369
83333.3353117376
83333.3353130263
83333.3353144911
83333.3353161139
83333.3353178707
83333.3353197355
83333.3353100578
83333.3353098182
83333.3353096986
83333.3353098017
83333.3353101045
83333.3353105902
83333.3353112582
83333.3353121089
83333.3353131398
83333.3353143446
83333.3353157142
83333.3353172355
83333.33531889
83333.3353206543
83333.3353225043
83333.3352779754
83333.3352806325
83333.3352805581
83333.3352832231
83333.3352831192
83333.3352830575
83333.3352857457
83333.3352856062
83333.3352855383
83333.3352857085
83333.3352882034
83333.3352880262
83333.3352879435
83333.3352881085
83333.3352886617
83333.335290598
83333.3352903851
83333.3352902834
83333.3352904339
83333.335290948
83333.3352918733
83333.33529293
83333.3352926853
83333.3352925626
83333.3352926954
83333.335293175
83333.3352940242
83333.335295261
83333.3352951966
83333.3352949253
83333.3352947835
83333.335294896
83333.3352953389
83333.3352961282
83333.335297267
83333.3352987461
83333.335297394
83333.3352971028
83333.3352969456
83333.3352970394
83333.3352974459
83333.3352981748
83333.3352992293
83333.335300601
83333.3353022639
83333.3352995184
83333.3352992138
83333.335299047
83333.3352991265
83333.3352994998
83333.335300172
83333.3353011448
83333.3353024143
83333.3353039613
83333.3353057554
83333.3353015655
83333.3353012546
83333.3353010839
83333.3353011558
83333.3353015018
83333.3353021232
83333.3353030203
83333.3353041918
83333.3353056261
83333.3353072997
83333.33530918
83333.33530353
83333.3353032205
83333.3353030523
83333.3353031242
83333.3353034505
83333.3353040282
83333.3353048577
83333.3353059384
83333.3353072639
83333.3353088187
83333.3353105776
83333.3353125081
83333.3353054033
83333.3353051056
83333.3353049465
83333.3353050263
83333.3353053406
83333.3353058825
83333.3353066529
83333.3353076526
83333.3353088773
83333.3353103172
83333.3353119548
83333.3353137648
83333.3353157164
83333.3353071709
83333.3353068971
83333.335306754
83333.3353068481
83333.3353071578
83333.3353076714
83333.3353083915
83333.3353093204
83333.3353104556
83333.3353117897
83333.3353133111
83333.335315001
83333.3353168347
83333.3353187842
83333.3353088361
83333.3353085884
83333.3353084627
83333.3353085683
83333.3353088753
83333.3353093661
83333.3353100442
83333.3353109128
83333.3353119703
83333.3353132114
83333.335314627
83333.3353162038
83333.3353179227
83333.3353197598
83333.3353216901
83333.3353103817
83333.335310178
83333.33531007
83333.3353101751
83333.3353104748
83333.3353109452
83333.3353115886
83333.3353124062
83333.3353133971
83333.3353145572
83333.3353158796
83333.3353173539
83333.335318966
83333.3353206969
83333.3353225241
83333.3353244245
83333.3352752789
83333.3352780104
83333.3352779226
83333.3352807124
83333.3352805946
83333.3352805076
83333.335283354
83333.3352831994
83333.3352831071
83333.3352832594
83333.3352859289
83333.3352857346
83333.3352856278
83333.3352857759
83333.3352863349
83333.3352884364
83333.3352882049
83333.3352880792
83333.3352882128
83333.3352887313
83333.3352896867
83333.3352908766
83333.3352906129
83333.335290466
83333.3352905815
83333.335291064
83333.3352919389
83333.3352932257
83333.3352932479
83333.335292957
83333.335292791
83333.3352928855
83333.3352933296
83333.3352941412
83333.3352953236
83333.3352968674
83333.3352955472
83333.3352952355
83333.335295054
83333.3352951289
83333.3352955344
83333.3352962821
83333.3352973752
83333.3352988046
83333.3353005431
83333.3352977704
83333.3352974446
83333.3352972532
83333.3352973127
83333.3352976831
83333.3352983705
83333.3352993769
83333.3353006977
83333.3353023127
83333.33530419
83333.3352999136
83333.3352995807
83333.335299385
83333.3352994358
83333.3352997767
83333.3353004101
83333.335301336
83333.3353025528
83333.3353040481
83333.3353057969
83333.3353077651
83333.335301972
83333.3353016397
83333.3353014456
83333.335301495
83333.3353018142
83333.335302401
83333.335303255
83333.3353043752
83333.3353057548
83333.3353073774
83333.3353092163
83333.3353112374
83333.3353039392
83333.3353036167
83333.3353034309
83333.3353034867
83333.3353037925
83333.3353043409
83333.3353051319
83333.3353061654
83333.3353074372
83333.3353089372
83333.3353106472
83333.3353125403
83333.3353145835
83333.3353058046
83333.3353055051
83333.3353053352
83333.3353054054
83333.3353057057
83333.3353062238
83333.3353069605
83333.3353079176
83333.3353090924
83333.3353104782
83333.3353120628
83333.3353138272
83333.335315745
83333.3353177858
83333.3353075504
83333.3353072908
83333.3353071466
83333.3353072374
83333.3353075396
83333.3353080346
83333.3353087256
83333.3353096162
83333.3353107057
83333.3353119891
83333.3353134577
83333.335315098
83333.3353168903
83333.3353188095
83333.3353208289
83333.3353091759
83333.3353089656
83333.335308854
83333.3353089634
83333.3353092689
83333.3353097451
83333.3353103981
83333.3353112321
83333.3353122477
83333.3353134415
83333.335314807
83333.3353163337
83333.3353180073
83333.335319808
83333.3353217124
83333.3353236966
83333.3353106627
83333.3353105237
83333.3353104548
83333.3353105729
83333.3353108756
83333.3353113347
83333.3353119561
83333.3353127426
83333.3353136948
83333.3353148109
83333.335316086
83333.335317512
83333.3353190774
83333.3353207674
83333.335322563
83333.3353244423
83333.3353263839
83333.3352725139
83333.3352753205
83333.3352752083
83333.3352780922
83333.3352779572
83333.3352778389
83333.3352808476
83333.335280675
83333.3352805545
83333.3352806878
83333.3352835448
83333.3352833319
83333.3352831979
83333.3352833271
83333.3352838925
83333.3352861724
83333.3352859206
83333.3352857684
83333.3352858833
83333.3352864064
83333.3352873942
83333.3352887273
83333.3352884428
83333.3352882695
83333.3352883663
83333.3352888518
83333.3352897544
83333.3352910949
83333.3352912086
83333.3352908968
83333.3352907049
83333.3352907804
83333.3352912257
83333.3352920613
83333.3352932907
83333.3352949041
83333.335293614
83333.335293281
83333.3352930741
83333.3352931296
83333.3352935344
83333.3352943024
83333.3352954371
83333.3352969285
83333.3352987482
83333.3352959403
83333.3352955928
83333.335295376
83333.3352954157
83333.3352957835
83333.3352964877
83333.3352975302
83333.3352989062
83333.3353005942
83333.3353025606
83333.3352981831
83333.3352978283
83333.3352976074
83333.3352976377
83333.3352979742
83333.3352986211
83333.3352995782
83333.3353008436
83333.3353024041
83333.3353042336
83333.3353062959
83333.3353003384
83333.3352999839
83333.3352997645
83333.3352997928
83333.3353001059
83333.3353007031
83333.3353015837
83333.3353027463
83333.3353041838
83333.3353058788
83333.3353078034
83333.3353099211
83333.3353023998
83333.3353020545
83333.3353018435
83333.3353018772
83333.3353021755
83333.3353027318
83333.3353035452
83333.3353046154
83333.335305938
83333.3353075025
83333.3353092897
83333.3353112713
83333.3353134121
83333.3353043591
83333.3353040354
83333.33530384
83333.3353038873
83333.3353041793
83333.3353047032
83333.3353054588
83333.3353064471
83333.3353076658
83333.335309108
83333.3353107614
83333.3353126059
83333.3353146134
83333.3353167515
83333.3353062024
83333.3353059186
83333.3353057492
83333.3353058178
83333.3353061112
83333.3353066105
83333.3353073169
83333.3353082335
83333.3353093598
83333.3353106912
83333.3353122192
83333.3353139302
83333.3353158034
83333.3353178122
83333.3353199272
83333.3353079074
83333.3353076872
83333.33530756
83333.3353076562
83333.3353079578
83333.3353084389
83333.335309104
83333.3353099585
83333.3353110036
83333.3353122367
83333.3353136517
83333.3353152382
83333.3353169815
83333.335318861
83333.335320852
83333.3353229287
83333.3353094707
83333.3353093278
83333.3353092584
83333.3353093843
83333.3353096942
83333.3353101606
83333.3353107914
83333.3353115932
83333.3353125682
83333.3353137155
83333.3353150307
83333.335316506
83333.3353181297
83333.3353198865
83333.3353217564
83333.3353237167
83333.3353257448
83333.3353108807
83333.3353108286
83333.3353108369
83333.3353109893
83333.3353113019
83333.335311755
83333.3353123572
83333.335313115
83333.3353140305
83333.3353151036
83333.3353163318
83333.3353177091
83333.3353192263
83333.3353208708
83333.3353226275
83333.3353244775
83333.3353263997
83333.335328374
83333.3352725655
83333.3352724385
83333.3352754102
83333.3352752463
83333.3352751002
83333.3352782335
83333.3352780377
83333.3352778835
83333.3352780001
83333.3352810464
83333.3352808111
83333.3352806448
83333.3352807541
83333.3352813297
83333.3352837995
83333.3352835255
83333.3352833426
83333.3352834363
83333.3352839652
83333.3352849891
83333.3352864767
83333.3352861692
83333.3352859667
83333.3352860426
83333.3352865309
83333.335287464
83333.3352888628
83333.3352890741
83333.3352887397
83333.3352885195
83333.3352885743
83333.3352890208
83333.3352898822
83333.3352911626
83333.3352928509
83333.3352915908
83333.3352912353
83333.3352910011
83333.3352910361
83333.3352914402
83333.3352922302
83333.3352934097
83333.335294968
83333.335296875
83333.3352940245
83333.3352936544
83333.335293411
83333.3352934304
83333.3352937958
83333.3352945182
83333.3352955998
83333.3352970352
83333.3352988018
83333.3353008638
83333.3352963713
83333.3352959938
83333.3352957471
83333.3352957568
83333.3352960896
83333.3352967513
83333.335297742
83333.3352990597
83333.3353006904
83333.3353026064
83333.3353047696
83333.3352986269
83333.3352982501
83333.3352980055
83333.3352980129
83333.3352983209
83333.33529893
83333.3352998394
83333.3353010476
83333.3353025472
83333.33530432
83333.3353063362
83333.3353085573
83333.3353007855
83333.335300418
83333.3353001824
83333.3353001952
83333.3353004872
83333.3353010526
83333.3353018905
83333.3353030003
83333.3353043774
83333.335306011
83333.3353078808
83333.3353099568
83333.3353122018
83333.3353028391
83333.3353024929
83333.3353022736
83333.3353022998
83333.3353025845
83333.3353031155
83333.3353038917
83333.3353049142
83333.3353061803
83333.3353076832
83333.3353094104
83333.3353113405
83333.3353134436
83333.3353156853
83333.3353047754
83333.3353044688
83333.3353042758
83333.3353043234
83333.3353046091
83333.335305114
83333.3353058378
83333.3353067834
83333.3353079504
83333.3353093346
83333.3353109274
83333.3353127147
83333.3353146749
83333.3353167792
83333.3353189961
83333.335306577
83333.3353063353
83333.335306185
83333.3353062614
83333.3353065553
83333.335307041
83333.3353077208
83333.3353085993
83333.3353096785
83333.3353109563
83333.3353124268
83333.3353140799
83333.3353159003
83333.3353178662
83333.3353199512
83333.3353221271
83333.3353082178
83333.3353080679
83333.3353079874
83333.3353081027
83333.3353084101
83333.3353088819
83333.3353095246
83333.3353103455
83333.3353113478
83333.3353125314
83333.3353138927
83333.3353154241
83333.3353171137
83333.3353189456
83333.335320899
83333.3353229494
83333.3353250725
83333.3353097002
83333.3353096472
83333.3353096595
83333.3353098242
83333.3353101465
83333.3353106085
83333.3353112205
83333.3353119927
83333.3353129293
83333.3353140312
83333.3353152965
83333.3353167199
83333.335318292
83333.3353200001
83333.3353218282
83333.3353237564
83333.3353257626
83333.3353278256
83333.3353110242
83333.335311065
83333.3353111765
83333.3353114016
83333.3353117423
83333.3353121979
83333.335312786
83333.3353135184
83333.3353143999
83333.3353154321
83333.3353166145
83333.3353179434
83333.3353194117
83333.3353210089
83333.3353227221
83333.3353245356
83333.335326431
83333.335328388
83333.3353303867
83333.3352726687
83333.3352724872
83333.3352723196
83333.3352755628
83333.3352753325
83333.3352751458
83333.3352752528
83333.3352784428
83333.3352781785
83333.3352779729
83333.3352780645
83333.3352786591
83333.335281313
83333.3352810126
83333.3352807926
83333.3352808634
83333.3352814023
83333.335282469
83333.3352841183
83333.3352837852
83333.3352835488
83333.3352836005
83333.3352840931
83333.3352850606
83333.3352865237
83333.3352868393
83333.3352864799
83333.3352862281
83333.3352862597
83333.3352867069
83333.3352875968
83333.3352889328
83333.3352907025
83333.3352894733
83333.3352890937
83333.3352888298
83333.3352888424
83333.3352892454
83333.3352900592
83333.3352912873
83333.3352929177
83333.3352949187
83333.3352920194
83333.3352916255
83333.3352913539
83333.3352913516
83333.3352917145
83333.3352924566
83333.3352935805
83333.33529508
83333.335296931
83333.3352990959
83333.3352944747
83333.3352940735
83333.3352937997
83333.3352937882
83333.3352941175
83333.3352947954
83333.3352958225
83333.3352971966
83333.3352989028
83333.3353009119
83333.3353031833
83333.3352968347
83333.3352964346
83333.3352961644
83333.3352961508
83333.3352964543
83333.3352970766
83333.3352980172
83333.3352992747
83333.3353008411
83333.3353026973
83333.3353048118
83333.3353071439
83333.3352990942
83333.3352987042
83333.3352984439
83333.3352984362
83333.3352987226
83333.3352992986
83333.3353001632
83333.3353013158
83333.3353027516
83333.3353044594
83333.3353064177
83333.3353085948
83333.3353109513
83333.3353012449
83333.3353008768
83333.3353006342
83333.3353006407
83333.335300919
83333.3353014582
83333.3353022571
83333.3353033164
83333.3353046338
83333.3353062021
83333.3353080083
83333.3353100298
83333.335312235
83333.3353145871
83333.3353032749
83333.335302947
83333.3353027317
83333.3353027604
83333.3353030393
83333.3353035508
83333.3353042939
83333.3353052712
83333.3353064824
83333.3353079236
83333.3353095862
83333.3353114555
83333.3353135083
83333.3353157143
83333.3353180395
83333.3353051678
83333.335304906
83333.3353047341
83333.3353047927
83333.3353050801
83333.3353055715
83333.3353062676
83333.3353071732
83333.3353082901
83333.335309617
83333.3353111483
83333.3353128738
83333.3353147773
83333.335316836
83333.3353190212
83333.3353213025
83333.3353069038
83333.3353067365
83333.3353066361
83333.3353067344
83333.3353070358
83333.3353075128
83333.3353081695
83333.3353090129
83333.3353100469
83333.3353112719
83333.3353126851
83333.3353142789
83333.3353160415
83333.3353179561
83333.3353200006
83333.3353221486
83333.3353243734
83333.3353084606
83333.3353084045
83333.3353084121
83333.3353085699
83333.3353088917
83333.3353093595
83333.3353099832
83333.3353107734
83333.3353117353
83333.3353128709
83333.3353141791
83333.3353156549
83333.335317289
83333.3353190685
83333.3353209764
83333.3353229917
83333.3353250908
83333.3353272504
83333.3353098541
83333.3353098946
83333.3353100163
83333.3353102581
83333.3353106139
83333.33531108
83333.3353116787
83333.3353124251
83333.3353133262
83333.335314385
83333.3353156018
83333.3353169736
83333.3353184934
83333.3353201508
83333.3353219322
83333.3353238211
83333.3353257979
83333.3353278412
83333.3353299303
83333.3353110971
83333.3353112118
83333.3353114224
83333.3353117526
83333.3353121657
83333.3353126456
83333.3353132306
83333.3353139442
83333.3353147962
83333.3353157909
83333.3353169299
83333.3353182117
83333.3353196314
83333.3353211806
83333.3353228482
83333.3353246208
83333.3353264827
83333.3353284155
83333.3353303992
83333.3353324124
83333.3352728351
83333.3352725874
83333.3352723758
83333.3352724656
83333.3352757866
83333.3352754824
83333.3352752393
83333.3352753161
83333.3352759376
83333.3352787236
83333.3352783891
83333.3352781247
83333.3352781734
83333.3352787302
83333.335279849
83333.3352816472
83333.3352812843
83333.3352810066
83333.3352810314
83333.3352815317
83333.3352825409
83333.3352840763
83333.3352844981
83333.3352841103
83333.3352838221
83333.3352838265
83333.3352842752
83333.3352851975
83333.3352865957
83333.3352884542
83333.3352872565
83333.3352868502
83333.3352865532
83333.3352865406
83333.3352869419
83333.3352877819
83333.3352890632
83333.3352907722
83333.3352928748
83333.3352899208
83333.3352895016
83333.3352891994
83333.3352891733
83333.3352895331
83333.3352902965
83333.3352914662
83333.3352930351
83333.3352949773
83333.3352972529
83333.3352924895
83333.3352920635
83333.3352917611
83333.3352917272
83333.3352920524
83333.3352927479
83333.3352938144
83333.3352952494
83333.335297037
83333.3352991462
83333.3353015338
83333.3352949587
83333.3352945341
83333.3352942369
83333.3352942021
83333.335294501
83333.3352951378
83333.3352961122
83333.3352974228
83333.3352990613
83333.3353010073
83333.3353032274
83333.3353056785
83333.335297323
83333.3352969097
83333.3352966241
83333.3352965959
83333.3352968772
83333.3352974651
83333.3352983587
83333.3352995575
83333.3353010565
83333.3353028441
83333.3353048976
83333.3353071832
83333.3353096591
83333.3352995745
83333.3352991843
83333.3352989183
83333.3352989055
83333.3352991781
83333.3352997269
83333.3353005506
83333.3353016499
83333.3353030225
83333.3353046612
83333.3353065522
83333.3353086717
83333.3353109861
83333.3353134563
83333.3353017013
83333.3353013524
83333.3353011157
83333.3353011265
83333.3353013998
83333.3353019189
83333.3353026831
83333.3353036947
83333.3353049539
83333.3353064566
83333.3353081942
83333.3353101512
83333.3353123032
83333.3353146176
83333.3353170584
83333.3353036864
83333.3353034055
83333.3353032137
83333.3353032561
83333.3353035382
83333.3353040361
83333.3353047503
83333.3353056853
83333.3353068435
83333.3353082238
83333.3353098207
83333.3353116239
83333.3353136165
83333.335315774
83333.3353180659
83333.3353204593
83333.3353055111
83333.3353053282
83333.3353052095
83333.335305293
83333.3353055898
83333.335306073
83333.3353067454
83333.335307614
83333.3353086831
83333.3353099538
83333.3353114238
83333.3353130856
83333.3353149272
83333.3353169309
83333.3353190729
83333.335321325
83333.3353236578
83333.3353071602
83333.3353070927
83333.3353070859
83333.3353072303
83333.3353075482
83333.3353080215
83333.3353086589
83333.3353094704
83333.3353104617
83333.3353116357
83333.335312992
83333.3353145263
83333.3353162291
83333.3353180872
83333.3353200827
83333.3353221929
83333.3353243923
83333.3353266551
83333.3353086246
83333.3353086657
83333.3353087914
83333.3353090319
83333.3353093899
83333.3353098625
83333.3353104728
83333.3353112365
83333.3353121613
83333.3353132513
83333.3353145078
83333.3353159283
83333.3353175063
83333.3353192311
83333.3353210887
83333.3353230614
83333.3353251283
83333.3353272664
83333.3353294531
83333.3353099346
83333.335310049