/*--------------------------------*- C++ -*----------------------------------*\
  =========                 |
  \\      /  F ield         | OpenFOAM: The Open Source CFD Toolbox
   \\    /   O peration     | Website:  https://openfoam.org
    \\  /    A nd           | Version:  12
     \\/     M anipulation  |
\*---------------------------------------------------------------------------*/
/*   Windows 32 and 64 bit porting by blueCAPE: http://www.bluecape.com.pt   *\
|  Based on Windows porting (2.0.x v4) by Symscape: http://www.symscape.com   |
\*---------------------------------------------------------------------------*/
FoamFile
{
    format      ascii;
    class       surfaceScalarField;
    location    "700";
    object      phi;
}
// * * * * * * * * * * * * * * * * * * * * * * * * * * * * * * * * * * * * * //

dimensions      [0 3 -1 0 0 0 0];

internalField   nonuniform List<scalar> 
28903
(
7.26008364636832e-07
-3.87742394860545e-08
1.72000326255276e-08
7.54041560519443e-07
-3.78191331817664e-08
9.7860179882082e-09
1.0357678603018e-06
-8.00258704230661e-08
1.49879233692581e-08
-3.17793853600692e-07
-1.16036022080361e-08
4.54629727855255e-08
7.86021209370855e-07
-3.69571469578624e-08
4.97421209569327e-09
1.07034015415436e-06
-7.95533104536775e-08
7.14825638008278e-09
-3.32277379204088e-07
-1.03660122650071e-08
3.46412106490119e-08
1.16379847399444e-06
-1.23572761623611e-07
1.69419320693164e-08
-2.79815901726564e-07
-2.3145499346168e-08
4.63655393416786e-08
-5.32325037936618e-07
-3.5051469780794e-09
6.24134995940721e-08
8.21021334507479e-07
-3.74207008264045e-08
2.43725513781352e-09
1.11058302674506e-06
-7.93328265702552e-08
2.13493668735274e-09
-3.44223667574604e-07
-8.68566790640471e-09
2.56016091103154e-08
1.20050236303907e-06
-1.23923996805577e-07
7.66172492608748e-09
-2.96897236695587e-07
-2.06222249817806e-08
3.44822400008174e-08
-5.44499372524074e-07
-2.83034830990396e-09
4.96463763831659e-08
1.33203236978485e-06
-1.70636497015956e-07
1.77927614526704e-08
-3.33830816767946e-07
-3.57224784871969e-08
5.36845617746044e-08
-5.82138245704009e-07
-7.41637661049653e-09
6.61344132971825e-08
-5.5688295507991e-07
-1.9723247993451e-09
7.57137440633117e-08
8.59585247104514e-07
-3.80971728222052e-08
-4.6833660698814e-10
1.15398128695872e-06
-8.04942862275526e-08
-2.74887169042783e-10
-3.52180766814616e-07
-7.57590993322324e-09
1.79628409177861e-08
1.24386704920885e-06
-1.24871854345827e-07
2.16363078487949e-09
-3.10100255436125e-07
-1.788581742283e-08
2.45289557440015e-08
-5.54773993100166e-07
-1.86970437384136e-09
3.77445225815953e-08
1.37326523827749e-06
-1.72172699779581e-07
7.04433031078065e-09
-3.55071104689509e-07
-3.1680000236322e-08
3.99474886626331e-08
-5.96594552214785e-07
-5.75881482576332e-09
5.18664331080937e-08
-5.66615474942705e-07
-1.4723634912482e-09
6.08510407224093e-08
1.46579013263544e-06
-2.20436536877953e-07
1.81079991235475e-08
-3.63105348714336e-07
-5.08870644024685e-08
5.98466072178633e-08
-6.81994118453718e-07
-1.21078932283638e-08
7.75463490580144e-08
-6.1100135030202e-07
-4.83663904665796e-09
8.16550937271334e-08
-5.44138472491328e-07
-1.81144901547282e-09
8.68350179666301e-08
9.01915597851718e-07
-3.85501069083724e-08
-3.79481152022288e-09
1.20068879729888e-06
-8.18144839963998e-08
-3.03355520393269e-09
-3.56364065186369e-07
-6.61381600430712e-09
1.03410016617176e-08
1.29054268191265e-06
-1.26970247139846e-07
-2.26620318533963e-10
-3.18449259215819e-07
-1.57305274876637e-08
1.62327915102303e-08
-5.62219323134601e-07
-1.01244603842911e-09
2.64179052067888e-08
1.42190033203482e-06
-1.74397639739879e-07
8.89461919780154e-10
-3.7153512889198e-07
-2.77640897049392e-08
2.85153032349849e-08
-6.08567644911189e-07
-3.76485044444458e-09
3.83951649337264e-08
-5.74466720111348e-07
-7.67949812461681e-10
4.63649425852438e-08
1.51069484799838e-06
-2.23326187401763e-07
6.25002389457075e-09
-3.86689929344602e-07
-4.53711726758442e-08
4.43416710477183e-08
-6.99798982177793e-07
-9.0956966751595e-09
6.10916241033303e-08
-6.21930609239823e-07
-3.61375054582045e-09
6.49361682443389e-08
-5.51762801092876e-07
-1.32949978699787e-09
6.98047410268307e-08
1.54248510044017e-06
-2.72178227562287e-07
1.83126372758988e-08
-3.76557005573675e-07
-6.8931034200333e-08
6.46006481814472e-08
-7.61814285628894e-07
-1.82495926697618e-08
8.74454198509252e-08
-7.09141066961932e-07
-8.1645141548641e-09
9.5875474999243e-08
-5.9328275529669e-07
-3.89957176344284e-09
9.39441121058509e-08
-5.13335699368522e-07
-1.50356326870633e-09
9.56105328046176e-08
9.48265705585744e-07
-3.88513996029613e-08
-7.49861082473789e-09
1.25117344479982e-06
-8.28152537943226e-08
-6.2014983802014e-09
-3.57185230792565e-07
-5.64205878306301e-09
2.66371218785048e-09
1.34086784086532e-06
-1.28954663639155e-07
-3.20334001870837e-09
-3.22459544197446e-07
-1.36657903953535e-08
8.03273963502496e-09
-5.66906254383658e-07
-2.21884349892325e-10
1.52502298119818e-08
1.47383766332489e-06
-1.7735839421609e-07
-1.57842269863219e-09
-3.82187791733667e-07
-2.43935931341167e-08
1.9090298963069e-08
-6.1717778955722e-07
-1.87532307867824e-09
2.57066060971463e-08
-5.8009617192439e-07
-1.01069488325099e-10
3.21473907659973e-08
1.56350633117229e-06
-2.26811686278183e-07
-3.8881165028704e-10
-4.04964311411604e-07
-4.01496500804275e-08
3.15520956551386e-08
-7.14578548387613e-07
-5.94539597017079e-09
4.5479120150551e-08
-6.30717058050973e-07
-2.09396330188362e-09
4.85064222848336e-08
-5.57614719961123e-07
-7.54355003212406e-10
5.29711493195825e-08
1.58960461690132e-06
-2.76365983440036e-07
5.88060237951597e-09
-4.01489863854508e-07
-6.20665418307279e-08
4.78930763911394e-08
-7.81842893824167e-07
-1.37622962475605e-08
6.90355440326403e-08
-7.22316771247854e-07
-5.94666022814805e-09
7.65969563254838e-08
-6.01605976397587e-07
-2.88242944243121e-09
7.48129105888191e-08
-5.19011251501147e-07
-1.09782503861883e-09
7.6577995161994e-08
1.57303700778794e-06
-3.25020405081855e-07
1.85004610363574e-08
-3.77738004817524e-07
-8.97229898479978e-08
6.82071273329864e-08
-8.14405133432308e-07
-2.5659883209661e-08
9.485837698604e-08
-7.90317659959775e-07
-1.23213428886996e-08
1.08296658287773e-07
-6.8198288615408e-07
-6.36516328921031e-09
1.10276151681836e-07
-5.59376266496198e-07
-3.1921485955187e-09
1.03588523345529e-07
-4.74494628859926e-07
-1.22060909023154e-09
1.02193874022791e-07
9.98905097069415e-07
-3.91192170718357e-08
-1.15091354710096e-08
1.30590736055808e-06
-8.37205134489129e-08
-9.86567183661017e-09
-3.5484635409925e-07
-4.63265541020475e-09
-5.2030833068797e-09
1.39524996414796e-06
-1.30627881617146e-07
-6.56789790969527e-09
-3.22523910226738e-07
-1.15658371586121e-08
-2.19391537342104e-10
-5.68970955510931e-07
5.54458700574389e-10
4.17318046515938e-09
1.52960962718754e-06
-1.80042144622505e-07
-4.6696011424924e-09
-3.87827072976182e-07
-2.10464815083676e-08
9.82019731427348e-09
-6.2259285963024e-07
-3.84496096909216e-11
1.3267406912903e-08
-5.8345373029807e-07
5.49232335496353e-10
1.80582969028265e-08
1.61961233688477e-06
-2.30555248279827e-07
-2.88784224581927e-09
-4.16714084095612e-07
-3.53477327488687e-08
2.1116761880862e-08
-7.25289175453637e-07
-2.88586328086319e-09
3.08142189645868e-08
-6.36960891536966e-07
-5.65619126569332e-10
3.24171099585023e-08
-5.61553018815682e-07
-1.89791209523201e-10
3.62750729019897e-08
1.64474756264317e-06
-2.80967960636457e-07
-9.66281511173449e-10
-4.20764256061445e-07
-5.55261918588685e-08
3.42373754293843e-08
-7.98527347692042e-07
-9.26167740670335e-09
5.15581240007526e-08
-7.32963880686489e-07
-3.52327706058734e-09
5.75563224510516e-08
-6.07967027931115e-07
-1.66127590129002e-09
5.5776162980856e-08
-5.23055714024565e-07
-6.31867622501043e-10
5.76467590349319e-08
1.62126680564558e-06
-3.30305112478964e-07
5.70149251946026e-09
-4.03269511513994e-07
-8.15280199937987e-08
5.0879890453772e-08
-8.35798977156096e-07
-1.97347951792347e-08
7.5259436389397e-08
-8.05049373208212e-07
-9.00112721654918e-09
8.6824045741756e-08
-6.91872743694837e-07
-4.64718408387394e-09
8.82510210336004e-08
-5.65538057148242e-07
-2.36854341837124e-09
8.22469093850477e-08
-4.78411624279455e-07
-8.91136838439104e-10
8.13859674346495e-08
1.57853256709071e-06
-3.77892422624993e-07
1.81587173849951e-08
-3.72445758364041e-07
-1.13199256718652e-07
7.11633400582871e-08
-8.45377020698859e-07
-3.41729048701172e-08
1.00310090987257e-07
-8.42534644931114e-07
-1.71977274231778e-08
1.17460016328363e-07
-7.56554100184659e-07
-9.33025661612008e-09
1.24500972545441e-07
-6.40417008755663e-07
-5.08798386945489e-09
1.21459907761921e-07
-5.19681310787115e-07
-2.64598506325416e-09
1.10917614178668e-07
-4.34082220362519e-07
-9.90972890471157e-10
1.06858274391959e-07
1.05415120291461e-06
-3.95061970296852e-08
-1.57386292088614e-08
1.36533750401691e-06
-8.46538503287517e-08
-1.38912458022751e-08
-3.49459236334348e-07
-3.59887564071835e-09
-1.32972869427701e-08
1.45427659798135e-06
-1.32241270520361e-07
-1.0522264275388e-08
-3.18885630517884e-07
-9.42284030767557e-09
-8.71255403961479e-09
-5.68502092061663e-07
1.33743284460614e-09
-7.00901913546354e-09
1.5896686093482e-06
-1.82482589705806e-07
-8.23250403765652e-09
-3.88912861276848e-07
-1.75807182718652e-08
5.19424710604039e-10
-6.24931855719606e-07
1.78107015395872e-09
8.92809164653784e-10
-5.84515878759068e-07
1.21517891880633e-09
4.02076895937921e-09
1.67956254239267e-06
-2.33961901164928e-07
-6.03247198218789e-09
-4.22836567619335e-07
-3.04757210810664e-08
1.08732769534225e-08
-7.32193179390258e-07
1.9339740187742e-10
1.64939512458169e-08
-6.40600531750432e-07
9.51647774906852e-10
1.65069452790827e-08
-5.63503922562646e-07
3.74883392641954e-10
1.9634139023837e-08
1.70304193367372e-06
-2.85412417881666e-07
-3.43976213201722e-09
-4.32999108407553e-07
-4.9206358438784e-08
2.32225521732197e-08
-8.10637011216222e-07
-4.83073800228986e-09
3.51685983567073e-08
-7.4056278712939e-07
-1.06547298919278e-09
3.89122852992639e-08
-6.12185686835341e-07
-4.1528830322664e-10
3.68607339424086e-08
-5.25378931499811e-07
-1.65712991331751e-10
3.87634777843654e-08
1.67732349028019e-06
-3.35869187054291e-07
-1.16662059872652e-09
-4.22913414026867e-07
-7.36754716741707e-08
3.68228143906016e-08
-8.536733970232e-07
-1.38320984420454e-08
5.66834226783531e-08
-8.17016565949554e-07
-5.55170451703124e-09
6.55542144029407e-08
-6.99474826901482e-07
-2.7521864383408e-09
6.62489152092606e-08
-5.69892363191235e-07
-1.40337723391072e-09
6.09037235214379e-08
-4.80852014670511e-07
-5.201272631788e-10
6.06072028926173e-08
1.62716084913136e-06
-3.84008961947239e-07
5.09063724761024e-09
-3.98136170946056e-07
-1.03662587439172e-07
5.35407217452664e-08
-8.67546156727271e-07
-2.68687443150746e-08
8.01860550249114e-08
-8.58222613182088e-07
-1.27891778675859e-08
9.47383488152404e-08
-7.67575885239179e-07
-6.83900441680553e-09
1.00038707734885e-07
-6.47721274215549e-07
-3.75842766217977e-09
9.69452854702278e-08
-5.2395326993181e-07
-2.00635454737142e-09
8.76338734726403e-08
-4.36464051685412e-07
-7.35090793130161e-10
8.45030656710025e-08
1.57490302209316e-06
-4.29493777360246e-07
1.66561412151825e-08
-3.63920233576095e-07
-1.39588813605717e-07
7.35275999609497e-08
-8.6577445861881e-07
-4.38441729356449e-08
1.0486336878731e-07
-8.73237933562376e-07
-2.27266741703633e-08
1.24140255080984e-07
-8.04361623583343e-07
-1.27591124483047e-08
1.34968153931019e-07
-7.09717070192644e-07
-7.28286076977022e-09
1.37054496904075e-07
-5.95841951808389e-07
-4.17115335987188e-09
1.29941921042174e-07
-4.78567672716315e-07
-2.23642939480704e-09
1.16258113292821e-07
-3.95212657511476e-07
-8.87750683060709e-10
1.09977960340267e-07
1.11411141597014e-06
-3.98440837708813e-08
-2.00962475833029e-08
1.42985678419827e-06
-8.58020184574377e-08
-1.82392355105161e-08
-3.4099965062635e-07
-2.5807662189686e-09
-2.16160427473614e-08
1.51841419113145e-06
-1.33847969122476e-07
-1.49303935587014e-08
-3.11620674393462e-07
-7.25108439214255e-09
-1.75063820755073e-08
-5.6551464797956e-07
2.13532647848347e-09
-1.84224461849548e-08
1.65478161532608e-06
-1.84806302391478e-07
-1.24942462665904e-08
-3.85755261186163e-07
-1.40201242765513e-08
-9.08107251231843e-09
-6.24307144104685e-07
3.62181424935631e-09
-1.16211040471409e-08
-5.83276330932008e-07
1.89123603839836e-09
-1.01397465111833e-08
1.74390627289209e-06
-2.37105791255162e-07
-9.72143272845963e-09
-4.23826397592143e-07
-2.54395239733311e-08
6.0186815347415e-10
-7.3547870665072e-07
3.33271211575337e-09
2.25399083919186e-09
-6.41595986754975e-07
2.47531454231664e-09
6.25561295207404e-10
-5.63380724583807e-07
9.60480785338121e-10
2.93665995497481e-09
1.76510901946063e-06
-2.89415475005508e-07
-6.59037300243486e-09
-4.39180379574775e-07
-4.27523679576981e-08
1.24192766501125e-08
-8.18447374263974e-07
-3.05157963053818e-10
1.91778609539151e-08
-7.45057331158983e-07
1.43941545919413e-09
2.04966535741597e-08
-6.1414991433297e-07
8.3698701876318e-10
1.80094639272484e-08
-5.25902632249875e-07
3.0172755341398e-10
1.98556965552471e-08
1.73634567016517e-06
-3.40912636130133e-07
-3.51475309051418e-09
-4.35236877516626e-07
-6.59168719637859e-08
2.55845554833627e-08
-8.66646118059341e-07
-7.94492083482867e-09
3.93068167331869e-08
-8.25577456116316e-07
-2.0486861059982e-09
4.47111271382191e-08
-7.04538786107303e-07
-7.96651766662486e-10
4.43579100224974e-08
-5.72336329574371e-07
-4.15315027079517e-10
3.95536930543641e-08
-4.8173822049197e-07
-1.51011935109215e-10
3.98006337832406e-08
1.68342955725662e-06
-3.90397454266761e-07
-1.76615493667911e-09
-4.17819494716675e-07
-9.45040766239466e-08
3.93446204571331e-08
-8.86107044614815e-07
-1.9592517984897e-08
6.11492820687515e-08
-8.71018502247079e-07
-8.27571509032503e-09
7.22055454465033e-08
-7.76096478858841e-07
-4.21019247881621e-09
7.55316548824689e-08
-6.52928381076203e-07
-2.2977815922546e-09
7.23493762505655e-08
-5.26576941154662e-07
-1.2670785441024e-09
6.42737511625079e-08
-4.37513345926916e-07
-4.52472764106888e-10
6.21088323407632e-08
1.62364154433907e-06
-4.36407358397791e-07
3.65118009476735e-09
-3.89564896408157e-07
-1.28731691769891e-07
5.57970831389165e-08
-8.8844126405813e-07
-3.52038642796231e-08
8.45483596997414e-08
-8.89490575944407e-07
-1.72779564241898e-08
1.00927879155884e-07
-8.16113908205748e-07
-9.49570315224589e-09
1.09146788517642e-07
-7.1790583979841e-07
-5.40718503695834e-09
1.09876613435636e-07
-6.00973100360254e-07
-3.16680309334219e-09
1.03236619018227e-07
-4.81197468938588e-07
-1.76382454568985e-09
9.12918868415623e-08
-3.96285981147578e-07
-7.20402137082956e-10
8.62965720850869e-08
1.57019541677181e-06
-4.78724787695133e-07
1.32065955824172e-08
-3.51838514198963e-07
-1.69158095923349e-07
7.49462567034668e-08
-8.82884839476629e-07
-5.48669760379821e-08
1.08961167706161e-07
-8.95099788175942e-07
-2.89625759865822e-08
1.29804324237121e-07
-8.32815676450102e-07
-1.66477877238207e-08
1.42635135689412e-07
-7.54796184849515e-07
-9.79940448158306e-09
1.48583639401699e-07
-6.6184538090874e-07
-5.90203009759422e-09
1.46626323553363e-07
-5.50758380279559e-07
-3.53058225389197e-09
1.36139734182149e-07
-4.38061053426706e-07
-1.97096840310135e-09
1.19872088692637e-07
-3.58669687206508e-07
-8.18783394528004e-10
1.11814869404007e-07
1.17904645553932e-06
-4.03202283939287e-08
-2.46239069238206e-08
1.49986874976519e-06
-8.70556735669033e-08
-2.27717840948715e-08
-3.29245773189151e-07
-1.57722833484923e-09
-3.02742578725489e-08
1.58802523864735e-06
-1.35679397102983e-07
-1.97318251301015e-08
-3.00760755882449e-07
-5.07543609092393e-09
-2.65972604053112e-08
-5.59940239788519e-07
2.95631667704721e-09
-3.01461397558884e-08
1.72546870906432e-06
-1.87189724883578e-07
-1.73156485104711e-08
-3.7847788594493e-07
-1.04049145448086e-08
-1.90568587637337e-08
-6.20769655949635e-07
5.49969481208753e-09
-2.44104192817355e-08
-5.79708210126797e-07
2.57814230842897e-09
-2.45683670948909e-08
1.81348032819197e-06
-2.40171496484399e-07
-1.42070936453152e-08
-4.20042934309771e-07
-2.02666189088651e-08
-1.00387879819784e-08
-7.35317872937732e-07
6.54337551651765e-09
-1.21626237914505e-08
-6.39929683167554e-07
4.01545519087155e-09
-1.54107201279809e-08
-5.61124815331284e-07
1.55735304190504e-09
-1.39532912112369e-08
1.83147141624967e-06
-2.93202102402512e-07
-1.02844216687764e-08
-4.39835030050154e-07
-3.60997078498796e-08
1.57796094036121e-09
-8.22151164377648e-07
4.35872732371642e-09
3.2772041046069e-09
-7.4643531757799e-07
3.9959969449298e-09
2.11007982505085e-09
-6.13767320062815e-07
2.11110450671383e-09
-9.08257323317667e-10
-5.24549200402997e-07
7.73992250187017e-10
8.09302973979024e-10
1.79889814074393e-06
-3.45396803997583e-07
-6.55848212832316e-09
-4.41248700967911e-07
-5.79231306742091e-08
1.458617584169e-08
-8.75003036750007e-07
-1.89368437601819e-09
2.23659817681596e-08
-8.30643011711723e-07
1.55698765102472e-09
2.41252235433285e-08
-7.06956522285301e-07
1.20685576390874e-09
2.25441370355985e-08
-5.72764793207819e-07
5.78929849994597e-10
1.81603793058635e-08
-4.80990194348396e-07
2.17114639764846e-10
1.88908126312009e-08
1.7424386396496e-06
-3.96024179644679e-07
-3.89124971781251e-09
-4.29976711269813e-07
-8.53429814140078e-08
2.80881901928381e-08
-8.99577874480144e-07
-1.2276897365641e-08
4.33886056024667e-08
-8.80201569491543e-07
-3.68387692342443e-09
5.01243915740555e-08
-7.81792494493141e-07
-1.50063236892612e-09
5.11113538301879e-08
-6.55901807103744e-07
-7.84872802509252e-10
4.77006263094848e-08
-5.27471814909357e-07
-5.13475755561757e-10
4.08111572418032e-08
-4.37152974531358e-07
-1.75167112373083e-10
3.96155396568091e-08
1.67990160668107e-06
-4.43450712998979e-07
-3.2050421490364e-09
-4.09128900780603e-07
-1.18284293848487e-07
4.15666371490125e-08
-9.07452947330237e-07
-2.66025201697919e-08
6.53672142802978e-08
-9.02792680267496e-07
-1.17256280999576e-08
7.79003560501714e-08
-8.25247636666557e-07
-6.10764363791252e-09
8.32365191999893e-08
-7.23790422374776e-07
-3.4235626648647e-09
8.25426901422243e-08
-6.0418563439233e-07
-2.07317064009861e-09
7.63682365065175e-08
-4.82329161536339e-07
-1.22207713254501e-09
6.61748612864927e-08
-3.96153960188162e-07
-5.28736878832047e-10
6.25054456401671e-08
1.61940413504108e-06
-4.86140511716433e-07
5.02015709129103e-10
-3.7728183302002e-07
-1.5690831132702e-07
5.72986601262209e-08
-9.05981854615483e-07
-4.49177897118758e-08
8.86065790282602e-08
-9.11772489775719e-07
-2.25191745751248e-08
1.06459531016579e-07
-8.45045987615085e-07
-1.26367327528826e-08
1.16299871108294e-07
-7.63604403647021e-07
-7.37155008363538e-09
1.1991892335878e-07
-6.67677313320071e-07
-4.50456887433236e-09
1.17046451868686e-07
-5.54010369804511e-07
-2.80004480752185e-09
1.07524931244014e-07
-4.39276105799733e-07
-1.64845043887857e-09
9.34348142684725e-08
-3.58642143746819e-07
-7.0810006891913e-10
8.69769625794095e-08
1.56738487432659e-06
-5.2397164793813e-07
7.19522933986254e-09
-3.34347187225635e-07
-2.02217435563168e-07
7.48183197980746e-08
-8.99170395465447e-07
-6.74056032929422e-08
1.12366178383833e-07
-9.15467737100264e-07
-3.59938413679089e-08
1.35112781753859e-07
-8.54014215916943e-07
-2.10180322558375e-08
1.49216823025825e-07
-7.82142097187172e-07
-1.26454689379555e-08
1.57102442213526e-07
-7.05480137490238e-07
-7.85751300873333e-09
1.59044824537008e-07
-6.13821127781678e-07
-4.98174568960119e-09
1.53690207155077e-07
-5.06010270846603e-07
-3.11142238484202e-09
1.40394143182353e-07
-3.98994536793193e-07
-1.80107247519695e-09
1.22049334853325e-07
-3.24245232589855e-07
-7.65670669573846e-10
1.1257956838561e-07
1.24952695134367e-06
-4.09829956360442e-08
-2.95028293315335e-08
1.57529724765794e-06
-8.83788151929984e-08
-2.73754412334821e-08
-3.13989281695534e-07
-5.56220520386387e-10
-3.93210904254919e-08
1.66358300103584e-06
-1.37753641937153e-07
-2.48472208005904e-08
-2.86185255550017e-07
-2.8997364721492e-09
-3.60342742276571e-08
-5.51692035611842e-07
3.78170728605652e-09
-4.23049192742032e-08
1.80220644916543e-06
-1.8977330354566e-07
-2.26280821395533e-08
-3.67119244306396e-07
-6.74988739366444e-09
-2.94097556005527e-08
-6.14274137371829e-07
7.42677244037372e-09
-3.75611977109962e-08
-5.73746569292598e-07
3.27627401899374e-09
-3.9383212095139e-08
1.88890247080612e-06
-2.43341777181449e-07
-1.92844425555448e-08
-4.11618483013029e-07
-1.50105878219044e-08
-2.11351158172132e-08
-7.31789058374795e-07
9.82428755720205e-09
-2.6914035312238e-08
-6.35579653006081e-07
5.57593317443202e-09
-3.17591918550895e-08
-5.56684937305228e-07
2.15796468352288e-09
-3.11667702481389e-08
1.90308076837389e-06
-2.96932526531126e-07
-1.48215411328642e-08
-4.35346275556873e-07
-2.92752505324151e-08
-9.68757439128378e-09
-8.21958360308837e-07
9.14675435239313e-09
-1.28367190360276e-08
-7.44720930815541e-07
6.60247946449075e-09
-1.64652901669511e-08
-6.10973324255747e-07
3.40581726089279e-09
-2.00528904378533e-08
-5.21249950913059e-07
1.25172245128445e-09
-1.85047894728023e-08
1.86556867199925e-06
-3.496510498421e-07
-1.02108664907197e-08
-4.41481676395705e-07
-4.96787155709359e-08
3.54119963659304e-09
-8.78942172425447e-07
4.3540133962716e-09
5.51846657008651e-09
-8.32202756799845e-07
5.26814802319284e-09
3.56650685653611e-09
-7.06648276651102e-07
3.25693529373495e-09
6.56760538832538e-10
-5.7108534247624e-07
1.5825873775913e-09
-3.39637550473859e-09
-4.78529328049985e-07
5.87345316487388e-10
-2.23856194931383e-09
1.80473161641633e-06
-4.00921696447547e-07
-6.73626173802099e-09
-4.35655569223578e-07
-7.59026525467059e-08
1.70998758374878e-08
-9.08246354681261e-07
-4.73096376746916e-09
2.60921823704753e-08
-8.85654871798362e-07
1.05968447508194e-09
2.83191625217903e-08
-7.84526071549684e-07
1.29854501447524e-09
2.67683335699998e-08
-6.56538192452601e-07
7.63662823639175e-10
2.29960894043027e-08
-5.26541102768231e-07
2.38094697616401e-10
1.72087065439924e-08
-4.35304816132992e-07
9.85650371056605e-11
1.69441118179603e-08
1.7386744954558e-06
-4.495478401913e-07
-5.2643789540545e-09
-4.21020900951259e-07
-1.0775794771685e-07
3.03987054039402e-08
-9.21234796921166e-07
-1.79153263376289e-08
4.75139129841589e-08
-9.12372491083988e-07
-6.06540257866438e-09
5.53457911692113e-08
-8.31396041599795e-07
-2.62307813554048e-09
5.73953073251251e-08
-7.27192105152272e-07
-1.37342021605494e-09
5.51012484035064e-08
-6.05381941755784e-07
-9.4637655012564e-10
4.93291194838202e-08
-4.81885731624407e-07
-6.77698120409733e-10
4.08701985459409e-08
-3.94737997609624e-07
-3.43660322677924e-10
3.85431678361994e-08
1.67577029602909e-06
-4.93670035433691e-07
-6.15660153326876e-09
-3.96615468572573e-07
-1.45284528311627e-07
4.31109499952972e-08
-9.25385773463551e-07
-3.50449297082104e-08
6.94052117685881e-08
-9.25459238627493e-07
-1.59678876336461e-08
8.32960405602239e-08
-8.54601386764576e-07
-8.50039107076298e-09
8.98502841467376e-08
-7.69990578458571e-07
-4.84758488908726e-09
9.10459943400498e-08
-6.7139271792085e-07
-3.03930266349341e-09
8.72235345599573e-08
-5.55514365664686e-07
-2.01482423993252e-09
7.86651205589055e-08
-4.39127249986978e-07
-1.2782589753472e-09
6.67757894535375e-08
-3.57515543244707e-07
-5.84740380149755e-10
6.19634469905166e-08
1.61745472447799e-06
-5.31251222526296e-07
-4.9475660739718e-09
-3.59459419584169e-07
-1.88640481033463e-07
5.73291592897979e-08
-9.22734624622924e-07
-5.61401787545188e-08
9.2088185763393e-08
-9.32567904045484e-07
-2.85938680711547e-08
1.11783451498585e-07
-8.66653769469152e-07
-1.62971311540958e-08
1.22760083143765e-07
-7.91406663922356e-07
-9.67937076934643e-09
1.27872969120925e-07
-7.11851904888788e-07
-6.06250017160247e-09
1.27849557185018e-07
-6.17607140523048e-07
-3.97069401166519e-09
1.22003097723175e-07
-5.07633762599903e-07
-2.60894934022881e-09
1.1010908937717e-07
-3.98999306027427e-07
-1.59766496811217e-09
9.43295788663056e-08
-3.23292687885146e-07
-7.04347816923248e-10
8.67290836528997e-08
1.56685703336747e-06
-5.61860650278624e-07
-1.92314693677268e-09
-3.09045928837138e-07
-2.38862880885383e-07
7.23274521022937e-08
-9.14834728094908e-07
-8.15555663202452e-08
1.14505115680058e-07
-9.3639686475399e-07
-4.38780824773053e-08
1.39881760766698e-07
-8.74590940468027e-07
-2.58976735484223e-08
1.55516414009826e-07
-8.02896399091312e-07
-1.58070895673424e-08
1.64474939319252e-07
-7.32284761553416e-07
-1.00294951152731e-08
1.68295434688067e-07
-6.55964465121328e-07
-6.58620323859427e-09
1.66841199263792e-07
-5.65663711072855e-07
-4.38655471528803e-09
1.58619497454118e-07
-4.62196080478909e-07
-2.8515711878281e-09
1.43020220326991e-07
-3.61508008721402e-07
-1.69477297646578e-09
1.23044014765624e-07
-2.91558865514883e-07
-7.36262731825822e-10
1.12466413783188e-07
1.32560095210726e-06
-4.14526510434452e-08
-3.46427733848889e-08
1.65641172023245e-06
-8.98821139044845e-08
-3.22073906052879e-08
-2.9519691802294e-07
5.16664391257637e-10
-4.87989356736973e-08
1.74519897995313e-06
-1.39983502628811e-07
-3.00136892551293e-08
-2.67538725714815e-07
-6.93288024060835e-10
-4.58852739858102e-08
-5.40686736547072e-07
4.61432934416919e-09
-5.49415029291912e-08
1.88554086363358e-06
-1.9267653799796e-07
-2.84000938998161e-08
-3.51626406140677e-07
-3.08559818781714e-09
-4.01576387337948e-08
-6.04728489136299e-07
9.3804435671788e-09
-5.11775448285429e-08
-5.65310318334045e-07
3.96239706016338e-09
-5.47028750291061e-08
1.97071255221504e-06
-2.46679325160883e-07
-2.49031952390533e-08
-3.98593693970212e-07
-9.70683863194983e-09
-3.269724154623e-08
-7.24863059967421e-07
1.31781739945734e-08
-4.20854452122185e-08
-6.28484782993601e-07
7.16593651261979e-09
-4.85460809572545e-08
-5.49997342656432e-07
2.75897531632391e-09
-4.88291283375577e-08
1.98060614663528e-06
-3.00817532907205e-07
-2.00246720296518e-08
-4.25839479385428e-07
-2.23544080542421e-08
-2.14517721092575e-08
-8.17966226740937e-07
1.40432968815746e-08
-2.93449368119191e-08
-7.3991480336836e-07
9.25898107156794e-09
-3.54039907789504e-08
-6.0571208405356e-07
4.71341283536837e-09
-3.95762504657669e-08
-5.159329294822e-07
1.73716014423397e-09
-3.82206504840774e-08
1.93731591459704e-06
-3.53889614855155e-07
-1.47993976871122e-08
-4.36355320514023e-07
-4.1249210979221e-08
-7.97410368244558e-09
-8.78690999367085e-07
1.07767685659158e-08
-1.1569031947286e-08
-8.30292804212185e-07
9.07178370091188e-09
-1.72146344973594e-08
-7.03559930364106e-07
5.34522407528494e-09
-2.14938982719036e-08
-5.6721859641483e-07
2.59847664829697e-09
-2.52666935939421e-08
-4.74279892626602e-07
9.61601841019404e-10
-2.3716082149715e-08
1.870900541211e-06
-4.05529630680617e-07
-1.02746902116293e-08
-4.35425801131948e-07
-6.61792147412406e-08
6.03478212552039e-09
-9.12316586640511e-07
3.07019693839201e-09
8.89264187287482e-09
-8.87360002532011e-07
5.95674485849106e-09
6.53920145956062e-09
-7.8421785909452e-07
4.17755933117144e-09
2.33603077935814e-09
-6.54745132227741e-07
2.34026734398207e-09
-1.89468104379531e-09
-5.23692537647428e-07
9.91663988510888e-10
-6.64956131835066e-09
-4.31887225676673e-07
3.65976442617745e-10
-6.0221823524648e-09
1.80047125603617e-06
-4.5479761095074e-07
-7.91186706847623e-09
-4.26279712825065e-07
-9.69094971944726e-08
1.9545021937669e-08
-9.3008640127079e-07
-8.93969871536526e-09
3.01575374789121e-08
-9.18094531898848e-07
-2.08472390076423e-10
3.30824958498873e-08
-8.34397777086509e-07
9.85849199299786e-10
3.16308924880551e-08
-7.27986256307064e-07
7.42696120243382e-10
2.75829323986687e-08
-6.04467722605946e-07
2.0028239127491e-10
2.21190495387052e-08
-4.79773446901878e-07
-1.41283053648275e-10
1.53369550169343e-08
-3.91958784065491e-07
-1.64653308426023e-10
1.43294036050669e-08
1.7343147667627e-06
-5.00209796822012e-07
-7.86457142731631e-09
-4.08168826139735e-07
-1.33571885987006e-07
3.21117119541901e-08
-9.39437397230999e-07
-2.50508854916171e-08
5.1588122536515e-08
-9.35349219859384e-07
-9.28741278836507e-09
6.06249426514792e-08
-8.61089980793574e-07
-4.25161571062631e-09
6.34639505196434e-08
-7.73750338715564e-07
-2.24662041020428e-09
6.20283951469282e-08
-6.72864143726877e-07
-1.53212888312685e-09
5.71578716998862e-08
-5.55180416658227e-07
-1.21585876025466e-09
4.953405371845e-08
-4.37537275631698e-07
-9.139951800982e-10
3.98504179446873e-08
-3.55211317080433e-07
-4.73497684375355e-10
3.67121623023083e-08
1.67424470889406e-06
-5.39153726549654e-07
-1.1316608010989e-08
-3.78435675601323e-07
-1.7586414153171e-07
4.33958133419669e-08
-9.42555992812985e-07
-4.50645866174636e-08
7.29504971996167e-08
-9.46652773521049e-07
-2.10998288543051e-08
8.86211930868699e-08
-8.76580711325071e-07
-1.14463387182427e-08
9.61697994154278e-08
-7.98187628814903e-07
-6.61961419318794e-09
9.84038649017356e-08
-7.15988823223803e-07
-4.21240170982584e-09
9.63564308983103e-08
-6.19456859391264e-07
-2.92777520423372e-09
8.99859923744557e-08
-5.076637496098e-07
-2.07914626100671e-09
7.94964689433292e-08
-3.97759063912798e-07
-1.36582303480373e-09
6.63166363452191e-08
-3.21333460683394e-07
-6.37228880844861e-10
6.06417135362446e-08
1.61775738774436e-06
-5.68515280296795e-07
-1.36504255894471e-08
-3.33638664610325e-07
-2.24010722465887e-07
5.50252987741569e-08
-9.3904662600754e-07
-6.89932801444381e-08
9.43898153100275e-08
-9.54011747034962e-07
-3.55676827712492e-08
1.16674182933589e-07
-8.87681440926249e-07
-2.05128777106924e-08
1.29090598229884e-07
-8.1258900822311e-07
-1.23374812643164e-08
1.35110495872548e-07
-7.39101163744518e-07
-7.84973556368062e-09
1.36477056197595e-07
-6.6020975710511e-07
-5.29298293212055e-09
1.33417951802889e-07
-5.67662549879068e-07
-3.69021824854147e-09
1.25083264921902e-07
-4.62419079107088e-07
-2.53437983699582e-09
1.11268418225546e-07
-3.60489489510121e-07
-1.58827902176586e-09
9.41951058924299e-08
-2.89837914247283e-07
-7.14544249904907e-10
8.57223375188303e-08
1.56464720112449e-06
-5.86976238209049e-07
-1.59607604531114e-08
-2.7295161243357e-07
-2.78689755279358e-07
6.63493154232238e-08
-9.29287348410952e-07
-9.73549937834776e-08
1.14580116860766e-07
-9.57926742005519e-07
-5.26141098977378e-08
1.43541229231854e-07
-8.96180790784173e-07
-3.1299191548478e-08
1.61394447145524e-07
-8.23228976319524e-07
-1.92759716167242e-08
1.71615404982326e-07
-7.52639795555166e-07
-1.23855721293655e-08
1.76348674917314e-07
-6.82037565420897e-07
-8.31109151998749e-09
1.76706696951127e-07
-6.0579714301842e-07