/*--------------------------------*- C++ -*----------------------------------*\
  =========                 |
  \\      /  F ield         | OpenFOAM: The Open Source CFD Toolbox
   \\    /   O peration     | Website:  https://openfoam.org
    \\  /    A nd           | Version:  12
     \\/     M anipulation  |
\*---------------------------------------------------------------------------*/
/*   Windows 32 and 64 bit porting by blueCAPE: http://www.bluecape.com.pt   *\
|  Based on Windows porting (2.0.x v4) by Symscape: http://www.symscape.com   |
\*---------------------------------------------------------------------------*/
FoamFile
{
    format      ascii;
    class       volVectorField;
    location    "700";
    object      U;
}
// * * * * * * * * * * * * * * * * * * * * * * * * * * * * * * * * * * * * * //

dimensions      [0 1 -1 0 0 0 0];

internalField   nonuniform List<vector> 
10116
(
(-1.36319494992626e-06 -0.000309650991686651 -1.51066093559315e-05)
(-2.89337452833838e-07 -0.000332588413376567 -1.19298100732311e-05)
(-2.41266708631895e-06 -0.000338576883847387 -1.83490703759242e-05)
(-2.54873282857907e-07 -0.000418096066758801 -3.30448605106051e-05)
(6.92009266959913e-07 -0.000355607810588308 -9.31424915656759e-06)
(2.07008690100197e-07 -0.000365235748621485 -1.55432363350202e-05)
(3.45920254419542e-07 -0.000434380286324502 -2.71836494392353e-05)
(-1.91974992088768e-06 -0.000364360041586241 -2.00240123707661e-05)
(1.30263847733987e-07 -0.000460311702131568 -3.65314395319766e-05)
(-7.35971882506941e-08 -0.000384270956602654 -4.22424933818182e-05)
(9.04068425392204e-07 -0.000374812816090877 -8.41787642271862e-06)
(2.40882855641217e-06 -0.000391949495790589 -1.2376668435349e-05)
(8.76275173596453e-07 -0.000450516031768727 -2.18957379351463e-05)
(1.34346613172417e-06 -0.000392909108466214 -1.71284819039328e-05)
(1.77757703881569e-06 -0.000480751980015864 -3.0682121513257e-05)
(2.17726228162513e-07 -0.000394861327563394 -3.53000005977721e-05)
(-1.7328761693801e-06 -0.00037290184724749 -2.1012492840044e-05)
(1.3336863933718e-06 -0.000485161729785873 -3.91355916838401e-05)
(-1.30098495042465e-08 -0.00040839545868358 -4.54548776424836e-05)
(-2.58991564804575e-08 -0.000357709953134103 -5.06991431140838e-05)
(1.14201939161507e-06 -0.000389638185311422 -7.5560387833808e-06)
(3.3213662617121e-06 -0.00041373674026004 -1.13530115610348e-05)
(1.19137998288965e-06 -0.00046357363287315 -1.82124256267289e-05)
(4.18959600365893e-06 -0.000421572683555959 -1.39864233902697e-05)
(3.3345283283971e-06 -0.00050005585574682 -2.52073364030769e-05)
(4.87224174585251e-07 -0.000404486825679865 -2.89747908696539e-05)
(1.98644883572355e-06 -0.00040211618600489 -1.79508425497478e-05)
(3.81646162394306e-06 -0.000507538317216674 -3.31712771191533e-05)
(8.47443435270055e-07 -0.000421136912149532 -3.85390045533354e-05)
(1.55370356733068e-07 -0.000365649063457559 -4.24975245487721e-05)
(-1.88379222752181e-06 -0.000376303835381164 -2.16521308050716e-05)
(2.55421780708966e-06 -0.000497027125565219 -4.10845982051908e-05)
(2.96231481210593e-07 -0.000424049232926282 -4.82006430434423e-05)
(-2.00006131020552e-07 -0.000369610191912473 -5.37021508363291e-05)
(-1.7605705482657e-09 -0.000334929778411143 -5.82322598496419e-05)
(1.52195317260074e-06 -0.000403093065667306 -6.54352740171887e-06)
(4.31472043835798e-06 -0.000430846438724002 -1.04457229478945e-05)
(1.49835561134033e-06 -0.000473938569912823 -1.47082914294806e-05)
(6.03404232586514e-06 -0.000444902478559401 -1.3173539077851e-05)
(4.46218406405169e-06 -0.000515610815120317 -2.15283816964001e-05)
(7.13941175885222e-07 -0.000412122363749783 -2.31706212964684e-05)
(5.48606541845178e-06 -0.000431566335931851 -1.46305004328488e-05)
(6.09577850638146e-06 -0.000528456521457688 -2.75541695897809e-05)
(1.76066569199277e-06 -0.000432382337796704 -3.20587771830233e-05)
(3.35364260192403e-07 -0.000372358159294404 -3.46301031979328e-05)
(2.38787088452793e-06 -0.00040590035153413 -1.84461652804258e-05)
(5.76184629113648e-06 -0.000520173666697554 -3.50024210539733e-05)
(1.73940063610808e-06 -0.000438008059607667 -4.12504585998964e-05)
(3.45036044938415e-07 -0.000378634298520645 -4.54987211866097e-05)
(1.29826043826891e-07 -0.000341028516196678 -4.86540596497963e-05)
(-2.78880917882548e-06 -0.000377856026448882 -2.21887830068502e-05)
(3.54828009384799e-06 -0.000505866061466219 -4.28379334154092e-05)
(6.34793191591934e-07 -0.000433828933637979 -5.04479127007043e-05)
(-2.70839629130596e-07 -0.000378924971227639 -5.64867689835552e-05)
(-2.02177473508739e-07 -0.000342097372427347 -6.11696830221429e-05)
(-6.95948281852757e-09 -0.000312247939714656 -6.42867653026587e-05)
(1.98997680464558e-06 -0.000415420700865895 -5.41295400467389e-06)
(5.6155086649658e-06 -0.000446757199027709 -9.58377768137763e-06)
(1.84252346745823e-06 -0.000482576904255534 -1.13025206170727e-05)
(7.9915518178994e-06 -0.000463163289069986 -1.2171177896487e-05)
(5.56336664693311e-06 -0.000528286309232801 -1.81633879204235e-05)
(9.35045451122055e-07 -0.0004180215470291 -1.7563350316e-05)
(8.40454050945959e-06 -0.00045558256994325 -1.38089424487152e-05)
(7.98679846439888e-06 -0.000545277599074186 -2.38763612364154e-05)
(2.57296216498564e-06 -0.000441312205238699 -2.62389039398975e-05)
(4.84813233322114e-07 -0.000377536785078709 -2.70326199978355e-05)
(6.57732887494288e-06 -0.000435905425886475 -1.49716976684237e-05)
(8.79865690130235e-06 -0.000541824421970082 -2.92244646510941e-05)
(3.17097961424221e-06 -0.000450250388678714 -3.46774651845299e-05)
(9.55356666591102e-07 -0.000386150241216575 -3.75815854865385e-05)
(2.6286443710624e-07 -0.000345929288861662 -3.93039309852911e-05)
(2.16357899164799e-06 -0.000407708915885127 -1.90444828678152e-05)
(7.50649444591912e-06 -0.000529508259804062 -3.66365579686267e-05)
(2.66941803765184e-06 -0.0004483859011723 -4.34198010714109e-05)
(6.75712399592967e-07 -0.000388680324941179 -4.82550848361168e-05)
(1.9555597817028e-07 -0.000348858027144906 -5.16174691017877e-05)
(9.21580625086647e-08 -0.000316870541612358 -5.34300593445038e-05)
(-4.68512905661989e-06 -0.000379528670930806 -2.28254586211807e-05)
(4.00767369295478e-06 -0.000513988831241299 -4.45387463854718e-05)
(8.24472778444873e-07 -0.000442376496941062 -5.26269726528063e-05)
(-3.78339874092304e-07 -0.000386131736596368 -5.88434723802998e-05)
(-3.68805530553554e-07 -0.000348566220070376 -6.39991594899122e-05)
(-1.6529355456133e-07 -0.00031764437448329 -6.72040327845336e-05)
(-2.70792026088913e-08 -0.000289477256098429 -6.89057897107837e-05)
(2.46999217686671e-06 -0.000426564377652677 -4.19402725721597e-06)
(7.11710092405347e-06 -0.000461811267073395 -8.61184014980869e-06)
(2.21960339434403e-06 -0.000489712202100172 -7.85501227905087e-06)
(1.02527974606048e-05 -0.000480244878922349 -1.13683330657238e-05)
(6.74071194561854e-06 -0.000539269900406233 -1.49339020782565e-05)
(1.16669071060372e-06 -0.000422447959508645 -1.2056049738232e-05)
(1.14721766033208e-05 -0.000474255995836199 -1.28029320889752e-05)
(9.89274003940074e-06 -0.000559039988148347 -2.05753641868782e-05)
(3.36291071503928e-06 -0.000448437120648904 -2.07123364377883e-05)
(6.40784385724132e-07 -0.0003813979080445 -1.95918958978603e-05)
(1.05597604289052e-05 -0.000460400441140922 -1.40862685365424e-05)
(1.15639703041795e-05 -0.000559206111434507 -2.54963944231632e-05)
(4.5133284452172e-06 -0.000459952367586672 -2.88104559892072e-05)
(1.54135274020705e-06 -0.00039197120245212 -3.00165515580255e-05)
(3.82810008656195e-07 -0.000349569477937801 -3.01249796147793e-05)
(7.11611629682043e-06 -0.000438161408979341 -1.55668140066325e-05)
(1.13501695799362e-05 -0.000551685940199162 -3.07301700399925e-05)
(4.6695216271199e-06 -0.000461156295060075 -3.67439166890501e-05)
(1.6609732320088e-06 -0.000396776900723601 -4.0278844048804e-05)
(6.34846759706165e-07 -0.000354243843438183 -4.22676788807961e-05)
(1.93851192741131e-07 -0.000320404620853635 -4.27237972989883e-05)
(1.05374031989165e-06 -0.000409624916946593 -1.96771474792319e-05)
(8.78962439010587e-06 -0.000538061578145691 -3.82579018807034e-05)
(3.46712347821383e-06 -0.000457327890531861 -4.55156645998505e-05)
(1.00903782562961e-06 -0.000396292008904954 -5.05597377154064e-05)
(3.22294038304729e-07 -0.000355813971555337 -5.44456029604321e-05)
(1.37819280950134e-07 -0.000322744027044709 -5.64080102958013e-05)
(4.85681891013966e-08 -0.000292861669152245 -5.69181851686341e-05)
(-7.61280835796406e-06 -0.000381924040095507 -2.34530057862809e-05)
(3.72190610116021e-06 -0.000522196052287174 -4.62963610390073e-05)
(7.31619244364227e-07 -0.000450965193597345 -5.48789508768676e-05)
(-6.07282594587202e-07 -0.000393342315003 -6.12183368056963e-05)
(-5.35197698813319e-07 -0.000354434263863394 -6.64519913988793e-05)
(-3.23671250809989e-07 -0.000322951125058794 -7.00901092921639e-05)
(-1.41707709653514e-07 -0.000294168764486262 -7.18387953852768e-05)
(-4.47556115865732e-08 -0.000266935548568968 -7.22495450459572e-05)
(2.94192299901378e-06 -0.000436448034524331 -2.90101316670088e-06)
(8.68691209701766e-06 -0.000475874088757436 -7.59664523424312e-06)
(2.61635177316905e-06 -0.00049541679160526 -4.30234423324385e-06)
(1.27315158618485e-05 -0.000496529207947782 -1.04636876663884e-05)
(7.9815326945554e-06 -0.000548826021637312 -1.16609711347446e-05)
(1.41082164271365e-06 -0.000425506398459027 -6.5363398175582e-06)
(1.48075824942973e-05 -0.000491732924145189 -1.20282983054987e-05)
(1.19026839542332e-05 -0.000571101476253624 -1.74407250947556e-05)
(4.15042072598524e-06 -0.00045410291525119 -1.53316152296891e-05)
(8.2267686224531e-07 -0.000383996461190133 -1.22863361536635e-05)
(1.47607006229136e-05 -0.00047936717981438 -1.30200597978297e-05)
(1.43763726948761e-05 -0.000573398242697489 -2.22013488570497e-05)
(5.86623826388205e-06 -0.000467747305975251 -2.32988554858449e-05)
(2.11550792374474e-06 -0.000396440126929803 -2.26602102295302e-05)
(5.09032250040777e-07 -0.00035209531549557 -2.10453127999931e-05)
(1.21936105195553e-05 -0.000463053331960504 -1.4616382491174e-05)
(1.50639412190178e-05 -0.000569463601755218 -2.69642842109203e-05)
(6.60327578893051e-06 -0.000471248494505956 -3.08153120367436e-05)
(2.63214104921399e-06 -0.00040303834393306 -3.26876451281217e-05)
(1.06850067616075e-06 -0.000358260634598983 -3.31106892658332e-05)
(2.89348708595656e-07 -0.000322839006973647 -3.21208508460465e-05)
(6.85351601154341e-06 -0.000440483278437596 -1.63056040048591e-05)
(1.3493733620731e-05 -0.000560705341960117 -3.22741142444112e-05)
(6.08849020856466e-06 -0.000470474707845981 -3.87500573003605e-05)
(2.41523961174579e-06 -0.000404727277383328 -4.25119258603437e-05)
(1.05050274142916e-06 -0.000361579983301309 -4.50668708505372e-05)
(4.69708590860221e-07 -0.000326622492534728 -4.57406898550268e-05)
(1.26370542828865e-07 -0.000295268978127743 -4.50268664694149e-05)
(-1.05183999420601e-06 -0.000412342500771152 -2.02498045507397e-05)
(9.38040045362012e-06 -0.000546685534981839 -3.99661199563016e-05)
(4.00294251467214e-06 -0.000466245414553327 -4.77086664565656e-05)
(1.23996702149921e-06 -0.000403794112301785 -5.28791864586156e-05)
(4.81193058458368e-07 -0.000361980042180547 -5.68664666405976e-05)
(2.01389311970854e-07 -0.000328416422508222 -5.93143834667858e-05)
(8.90723944093053e-08 -0.000297928434133925 -5.99389133175669e-05)
(1.24534460598489e-08 -0.000269263015188685 -5.92832545531995e-05)
(-1.14862141778448e-05 -0.000384757097677465 -2.39589635851406e-05)
(2.57085740672826e-06 -0.000530922241546505 -4.8137316011153e-05)
(2.46293363891947e-07 -0.000460008699467224 -5.72810316173536e-05)
(-1.02053635421734e-06 -0.000401102531863038 -6.37504005388759e-05)
(-7.93130275329581e-07 -0.00036093291000496 -6.89980366275318e-05)
(-4.55678767384701e-07 -0.000328268207433742 -7.26399648059889e-05)
(-2.62862675958874e-07 -0.000298985088307682 -7.47790102853589e-05)
(-1.32803919079405e-07 -0.000271278353066475 -7.52407442070762e-05)
(-5.06666200234514e-08 -0.000244873398629225 -7.45284590451878e-05)
(3.48553561014992e-06 -0.000444987463809557 -1.53530072429043e-06)
(1.02480228826224e-05 -0.000488723703148319 -6.52091325778982e-06)
(3.02283605592982e-06 -0.000499715997560865 -6.47614118439139e-07)
(1.53641466445541e-05 -0.000511889244123839 -9.50463167767989e-06)
(9.26698436820803e-06 -0.000557027979064499 -8.27948961131123e-06)
(1.66292792136186e-06 -0.000427201658022389 -9.50235039686623e-07)
(1.83767571489674e-05 -0.000508459141922863 -1.11451265600555e-05)
(1.40152692398963e-05 -0.000581752272792608 -1.4242504439479e-05)
(4.94875228354317e-06 -0.000458400026224282 -9.9618435453808e-06)
(1.01634882074428e-06 -0.00038532959017338 -4.97784989791746e-06)
(1.92438791947185e-05 -0.00049711886205253 -1.22298760423307e-05)
(1.73245856457444e-05 -0.000585864816706686 -1.91089428322956e-05)
(7.25453438209921e-06 -0.000474062216333162 -1.79557023769342e-05)
(2.68518031780898e-06 -0.000399654382584454 -1.54166953617381e-05)
(6.45804446763848e-07 -0.000353494604363087 -1.19886535308922e-05)
(1.75963918003043e-05 -0.000482285666902074 -1.34763325943274e-05)
(1.88814808773335e-05 -0.000583920885118803 -2.36750477594024e-05)
(8.57720664496392e-06 -0.000479373325797207 -2.5270304287043e-05)
(3.62407543996613e-06 -0.000407883899798032 -2.53311666225666e-05)
(1.49993841212637e-06 -0.000361142157312597 -2.40849918711647e-05)
(3.88837054365223e-07 -0.000324268271879819 -2.1570297937882e-05)
(1.29999289015892e-05 -0.000465690892517278 -1.54300877996163e-05)
(1.82153328850263e-05 -0.000578826204040816 -2.851195382872e-05)
(8.68415436365282e-06 -0.000480841210467417 -3.27717572762744e-05)
(3.82137240756984e-06 -0.000411234444511705 -3.48633942027468e-05)
(1.783648932151e-06 -0.000365882136586419 -3.5885202605497e-05)
(8.00852646696823e-07 -0.000329325054564013 -3.5178496679448e-05)
(1.99527159867737e-07 -0.000296697004015122 -3.31885660372963e-05)
(5.60656931545541e-06 -0.000443638482316115 -1.6971837924139e-05)
(1.50005464439004e-05 -0.000569774211417336 -3.39643438954698e-05)
(7.27523366830833e-06 -0.00047971526049336 -4.08847453409368e-05)
(3.11146656388911e-06 -0.000412485063120693 -4.47687960781886e-05)
(1.52767554244888e-06 -0.000367990258791875 -4.7438227788238e-05)
(7.54725302825869e-07 -0.000332576366599733 -4.86430432882498e-05)
(3.41578810881178e-07 -0.000300603991668539 -4.8110487350175e-05)
(7.10391230978438e-08 -0.000270712698007654 -4.63652280164401e-05)
(-4.12115455647767e-06 -0.000415544367056936 -2.09285015017338e-05)
(9.1495607913582e-06 -0.000555874899958584 -4.1785200733502e-05)
(4.16077037291774e-06 -0.000475602105662509 -5.0085135952149e-05)
(1.29458632569551e-06 -0.00041180609523705 -5.53745031428513e-05)
(5.70172997324019e-07 -0.000368716746347523 -5.93751955289504e-05)
(3.13858538952384e-07 -0.000333982412763761 -6.18471006862194e-05)
(1.3734418996316e-07 -0.000303047080185525 -6.29150589580857e-05)
(4.08406326170933e-08 -0.000273920493367382 -6.23766528962961e-05)
(-7.89718604060134e-09 -0.000246300255432778 -6.07172420873142e-05)
(-1.61744628225644e-05 -0.000387647009737995 -2.41884396218173e-05)
(5.20791819204885e-07 -0.00054045252006871 -5.00137459006243e-05)
(-6.7765459087608e-07 -0.000469754953538961 -5.98476116723242e-05)
(-1.66298411563612e-06 -0.000409565497151432 -6.6491726779669e-05)
(-1.16510274664145e-06 -0.000368263890874691 -7.17814640824775e-05)
(-6.38246373768684e-07 -0.000334437747636628 -7.53530073949404e-05)
(-3.55289123853456e-07 -0.000304057891965455 -7.74290463221203e-05)
(-2.21525948853502e-07 -0.000275832956364037 -7.82406511415947e-05)
(-1.29189688670432e-07 -0.000248953698260902 -7.75944182605704e-05)
(-5.50140538494797e-08 -0.000223423331867554 -7.59327680129227e-05)
(4.06504061655854e-06 -0.000452279247965806 -7.58534887834902e-08)
(1.19144601708163e-05 -0.000500336572522164 -5.35166118476342e-06)
(3.44753932772033e-06 -0.000502623502901584 3.16776554391223e-06)
(1.80634353836053e-05 -0.000526130496621269 -8.49776998309077e-06)
(1.05839294843422e-05 -0.000563869948730172 -4.78998401256774e-06)
(1.92249502632135e-06 -0.000427532510147262 4.73916992871228e-06)
(2.2174260542664e-05 -0.000524293899339167 -1.01793010671926e-05)
(1.62002971979271e-05 -0.000591074764739422 -1.09259107883811e-05)
(5.77365793673805e-06 -0.000461356122242377 -4.53040822967932e-06)
(1.20959171089582e-06 -0.000385391733967623 2.44355368426753e-06)
(2.40013636474127e-05 -0.000514112113220768 -1.13300983373037e-05)
(2.04034001785414e-05 -0.000596910252175132 -1.59395581658429e-05)
(8.681604059663e-06 -0.000479010085123923 -1.26262326505625e-05)
(3.25823116388604e-06 -0.000401602213308008 -8.17579672917793e-06)
(7.89827384074003e-07 -0.000353724340458426 -2.87331413419631e-06)
(2.32966763426018e-05 -0.000500297770639675 -1.26855143283029e-05)
(2.28616826355033e-05 -0.000596621225803513 -2.06021364126714e-05)
(1.06224184636372e-05 -0.000486000513557731 -1.99143651863865e-05)
(4.64191755735762e-06 -0.000411449148583377 -1.80881375083414e-05)
(1.94364835426013e-06 -0.000362897579611146 -1.51087214537132e-05)
(4.91475292726413e-07 -0.000324666782346337 -1.10013727185081e-05)
(1.95672404144103e-05 -0.000485178910188961 -1.43157687026086e-05)
(2.30969375729452e-05 -0.00059351621283344 -2.52487087750349e-05)
(1.13527715619847e-05 -0.000489181604918355 -2.71994126773091e-05)
(5.27026939945681e-06 -0.000416286349702939 -2.74640373551713e-05)
(2.53648297526945e-06 -0.000369005351836675 -2.68487177901259e-05)
(1.13131086653394e-06 -0.00033101245176716 -2.46868176959289e-05)
(2.74981685009667e-07 -0.000297205475280355 -2.13534498224626e-05)
(1.27821276708472e-05 -0.000469140611663143 -1.62747598469512e-05)
(2.0736662694528e-05 -0.000588216917001081 -3.02577212708328e-05)
(1.05692963276882e-05 -0.00049032182145415 -3.48818267438576e-05)
(5.00174173694458e-06 -0.000419179569708494 -3.70723358416083e-05)
(2.59226197158406e-06 -0.000372470014405914 -3.82053896074213e-05)
(1.31552054695166e-06 -0.000335493331461518 -3.80683617445694e-05)
(5.92509437943481e-07 -0.000302240644075016 -3.63258125064928e-05)
(1.25427394580265e-07 -0.000271278001889634 -3.34534757100896e-05)
(3.37750195945353e-06 -0.000447336380902015 -1.76658780715502e-05)
(1.56945987453879e-05 -0.000579429745754175 -3.58046505799728e-05)
(8.09865181308331e-06 -0.00048938780345442 -4.3243286036855e-05)
(3.64952264126822e-06 -0.000420725556679485 -4.72254427762151e-05)
(1.96736716854372e-06 -0.000374928056171148 -4.9901800130857e-05)
(1.1097370443212e-06 -0.000338346044333801 -5.11418389834675e-05)
(5.57507386755295e-07 -0.000305955971898281 -5.10991969995075e-05)
(2.29890379607852e-07 -0.000275595075002341 -4.95349055015867e-05)
(3.53005612485381e-08 -0.000246934859541982 -4.69089760789197e-05)
(-8.05073226494123e-06 -0.000418887767807943 -2.13292808213488e-05)
(8.04170991767746e-06 -0.00056595688703584 -4.36827533827202e-05)
(3.88416415478289e-06 -0.000485687575118695 -5.26632158468097e-05)
(1.11728163348344e-06 -0.000420519744189741 -5.81074955797795e-05)
(5.48483002723815e-07 -0.000376270159715569 -6.21346977397562e-05)
(3.94457751795539e-07 -0.00034036697992471 -6.45328636294684e-05)
(2.31450877215659e-07 -0.000308340930893624 -6.55571259500146e-05)
(7.98406414584256e-08 -0.00027873390555337 -6.54221583254031e-05)
(-7.72854878917547e-10 -0.000250650264144668 -6.38908361728801e-05)
(-2.46960723061572e-08 -0.000224085950135724 -6.13879833689977e-05)
(-2.15571951253863e-05 -0.000390485481573634 -2.42009861927612e-05)
(-2.40614193074207e-06 -0.000551028648471242 -5.18427635170793e-05)
(-2.0402471415889e-06 -0.000480403890506349 -6.25186833011935e-05)
(-2.54758543406452e-06 -0.000418813626312289 -6.94229944615036e-05)
(-1.66760130875122e-06 -0.000376414903533805 -7.48282909529295e-05)
(-8.80445830984946e-07 -0.000341523544013584 -7.83673170527014e-05)
(-4.62141732953335e-07 -0.000310023271379667 -8.03003669720291e-05)
(-2.8950912668117e-07 -0.000280739562694205 -8.09920479721583e-05)
(-2.10481124155607e-07 -0.000253298416115875 -8.0658938555242e-05)
(-1.37853157282103e-07 -0.000227250417539263 -7.90682378098616e-05)
(-6.07269627657681e-08 -0.000202656164189933 -7.66167532447484e-05)
(4.7038674135014e-06 -0.000458223620478558 1.47723150563358e-06)
(1.37455280003142e-05 -0.000510711913368753 -4.130123933739e-06)
(3.89507135342809e-06 -0.000504086809540381 7.15387577139294e-06)
(2.08589372052559e-05 -0.000539114655068971 -7.36350367776306e-06)
(1.19604329581869e-05 -0.000569393624942535 -1.17973106895748e-06)
(2.19296872263886e-06 -0.00042645773699176 1.06111101193559e-05)
(2.60781579932708e-05 -0.000539037188974567 -9.14094651261222e-06)
(1.84550927803621e-05 -0.000599059286594499 -7.48716829436255e-06)
(6.64038053182159e-06 -0.000462972784147139 1.00410069897839e-06)
(1.40259775154479e-06 -0.000384153674080323 1.0050195181974e-05)
(2.9005049988368e-05 -0.00053025902142548 -1.03422447179718e-05)
(2.35988360077198e-05 -0.000606621884608646 -1.26348566543088e-05)
(1.01506667429462e-05 -0.000482618978070166 -7.23076650791316e-06)
(3.85083194962468e-06 -0.000402269954356256 -8.46873664135447e-07)
(9.3506075581231e-07 -0.000352751841988224 6.3714354805833e-06)
(2.92893853895697e-05 -0.000517563003140191 -1.18093296795711e-05)
(2.70040451275719e-05 -0.000607896521928632 -1.74505223631876e-05)
(1.27387265173068e-05 -0.000491244802835467 -1.45711020543984e-05)
(5.68139388557028e-06 -0.000413738975824333 -1.08464325247702e-05)
(2.39657337245507e-06 -0.000363486501603404 -6.09222421884655e-06)
(5.97066648577336e-07 -0.000323991497426697 -3.35637369260255e-07)
(2.65006737903443e-05 -0.000503469234402385 -1.35093497927142e-05)
(2.81639857732785e-05 -0.000606407491074699 -2.22174140509863e-05)
(1.41198343788676e-05 -0.000496000395963226 -2.18265489930628e-05)
(6.77088684279349e-06 -0.000420045572194308 -2.01828702105752e-05)
(3.31190691278863e-06 -0.000370987448595415 -1.78721214014891e-05)
(1.46644825697397e-06 -0.000331672590789063 -1.41957580449844e-05)
(3.51782548977982e-07 -0.000296761394041594 -9.45140797285624e-06)
(2.04832234949278e-05 -0.000488876995909329 -1.53297495391074e-05)
(2.6690445915427e-05 -0.000603129223396273 -2.70624987349116e-05)
(1.39676727827193e-05 -0.000498844112944456 -2.93072430731028e-05)
(6.95613824101977e-06 -0.00042438258532981 -2.96350578232571e-05)
(3.69368943652629e-06 -0.000375741251536685 -2.91223270270345e-05)
(1.88997535098758e-06 -0.000337368018119384 -2.75714434793851e-05)
(8.40533930547217e-07 -0.000302952842531924 -2.45563614182452e-05)
(1.80602510206543e-07 -0.000270996786274531 -2.04971086928485e-05)
(1.14693015381263e-05 -0.000473215242058544 -1.7002075606702e-05)
(2.24341205286009e-05 -0.000598202264436488 -3.22045894697404e-05)
(1.20962668139864e-05 -0.000500231636645113 -3.7245410478229e-05)
(6.04566797723463e-06 -0.000427595256407137 -3.95053736510379e-05)
(3.3961254507064e-06 -0.000379560289448306 -4.06242998639405e-05)
(1.9234218111648e-06 -0.000341415439638573 -4.05231327348016e-05)
(9.818983487695e-07 -0.000307771385575637 -3.93128927582337e-05)
(4.14671684558552e-07 -0.000276336247514929 -3.66846205754605e-05)
(7.42426327205443e-08 -0.000246763882635678 -3.30607611961388e-05)
(2.0548354569688e-07 -0.000451252991554313 -1.82613476731848e-05)
(1.5505177439163e-05 -0.000590055782335565 -3.77620794401364e-05)
(8.47966316891285e-06 -0.000499813161952566 -4.58314551570438e-05)
(3.95658379614953e-06 -0.000429672464296554 -4.99509749921895e-05)
(2.30891567722689e-06 -0.000382676005755459 -5.26339409311746e-05)
(1.4553489175242e-06 -0.000344912497247269 -5.37903566763376e-05)
(8.34170873228616e-07 -0.000311432281833569 -5.37159249407282e-05)
(3.93036553103074e-07 -0.000280610029475354 -5.26018847913175e-05)
(1.37211130770424e-07 -0.000251477433519047 -5.01632135722006e-05)
(5.26123252045346e-09 -0.000224030024244469 -4.6803033004598e-05)
(-1.26776240652262e-05 -0.000422322588661202 -2.15511157691966e-05)
(6.06331937455002e-06 -0.000577225420765356 -4.55547423167463e-05)
(3.17257919097514e-06 -0.000496746284196152 -5.53910240001315e-05)
(6.89247471843224e-07 -0.000430046880949168 -6.10688684791401e-05)
(3.89833221626202e-07 -0.000384655927136247 -6.51838397831911e-05)
(4.16769431820745e-07 -0.000347665987951257 -6.75293398353708e-05)
(3.23364408086154e-07 -0.000314508361522955 -6.84049573976918e-05)
(1.52825449307428e-07 -0.000283841049781222 -6.81692435920986e-05)
(1.10282388468389e-08 -0.000255220902892521 -6.70054810925209e-05)
(-4.70416451082585e-08 -0.000228145453474888 -6.46313467723849e-05)
(-4.04288056991827e-08 -0.000202673685254443 -6.14291216239803e-05)
(-2.71941932499792e-05 -0.000393331660929716 -2.41451077175246e-05)
(-6.12947889540755e-06 -0.000562959189453621 -5.35565713065126e-05)
(-3.79651441669656e-06 -0.00049210842406344 -6.52052743726384e-05)
(-3.65981117995863e-06 -0.000428898246297436 -7.24621648819092e-05)
(-2.29957292047726e-06 -0.000385365326806889 -7.80963398782469e-05)
(-1.18611556303572e-06 -0.000349445211328177 -8.16874319136734e-05)
(-5.88299566095003e-07 -0.00031688707377566 -8.35211194668141e-05)
(-3.46380468848147e-07 -0.000286507594555565 -8.40097359717189e-05)
(-2.68918519154716e-07 -0.000258032754268528 -8.35076793389424e-05)
(-2.24680513224457e-07 -0.000231377143935028 -8.21988717762058e-05)
(-1.5694205966569e-07 -0.000206224058289559 -7.98140947293552e-05)
(-6.76495047302733e-08 -0.000182617639416246 -7.67112268699453e-05)
(5.4342104761674e-06 -0.000462808487191123 3.0437151971239e-06)
(1.57465597769958e-05 -0.000520013180565858 -2.80113007294645e-06)
(4.37643711242843e-06 -0.000504093857747221 1.13546527105726e-05)
(2.38745859941807e-05 -0.000550874007323307 -6.18934452500313e-06)
(1.34211367994925e-05 -0.000573559299711803 2.57335999883785e-06)
(2.46969030796721e-06 -0.000423932051909111 1.66982737494084e-05)
(3.0109426549249e-05 -0.000552445835060529 -7.95789984773169e-06)
(2.07953486292705e-05 -0.000605736486123775 -3.93846206579698e-06)
(7.54515592970418e-06 -0.000463233474161946 6.6978779371745e-06)
(1.58760137574477e-06 -0.000381577293575205 1.79110156612547e-05)
(3.42483383953591e-05 -0.000545369023265599 -9.29015571132055e-06)
(2.68956683284016e-05 -0.000614986623514218 -9.18816136719335e-06)
(1.16653814539282e-05 -0.000484897618292706 -1.73112130917541e-06)
(4.47216972444841e-06 -0.000401634878520806 6.6367868423343e-06)
(1.08079082740553e-06 -0.000350549294331804 1.58135492308051e-05)
(3.55630511889684e-05 -0.000533967150741429 -1.08136528259877e-05)
(3.12877922850127e-05 -0.000617828599567316 -1.41592686892522e-05)
(1.49192922050192e-05 -0.000495143339126236 -9.15219788142901e-06)
(6.74402129650523e-06 -0.000414746746374639 -3.52316486992691e-06)
(2.85786111542491e-06 -0.000362875408164943 3.04340428032565e-06)
(7.05084139696902e-07 -0.00032220196601854 1.05085407442376e-05)
(3.3755587557666e-05 -0.000521023919750791 -1.25976731457921e-05)
(3.34208290832414e-05 -0.000617855488644197 -1.91010571090605e-05)
(1.69862802696719e-05 -0.000501421497497685 -1.64648449818897e-05)
(8.31693378455207e-06 -0.000422523348129792 -1.29030146381359e-05)
(4.10534190834978e-06 -0.000371796399742254 -8.86349639847023e-06)
(1.80733141735842e-06 -0.000331258721005394 -3.62291557817236e-06)
(4.30097107496291e-07 -0.000295319723155594 2.59669072228656e-06)
(2.85774392594472e-05 -0.000507437376051128 -1.46266926749472e-05)
(3.28677505430878e-05 -0.000616200420285181 -2.4092658528625e-05)
(1.74909617708095e-05 -0.000505813275821741 -2.39392699236118e-05)
(8.98269464124774e-06 -0.00042827527656555 -2.23209194532524e-05)
(4.83435161055885e-06 -0.000377860602489278 -2.01018524009325e-05)
(2.47827739989949e-06 -0.000338206106867115 -1.7083980714532e-05)
(1.09011263637514e-06 -0.000302717726220605 -1.27364611537812e-05)
(2.36970596492169e-07 -0.000269832889623074 -7.42505102259028e-06)
(2.01749224342153e-05 -0.000493226535783233 -1.6213411410893e-05)
(2.94472534935633e-05 -0.000613347445332765 -2.91283476918401e-05)
(1.62290565760495e-05 -0.000508934510520124 -3.17006224966493e-05)
(8.52553164539612e-06 -0.000432935180269707 -3.20555929261164e-05)
(4.87754161104651e-06 -0.000382957312210638 -3.14995285648557e-05)
(2.76428815737738e-06 -0.000343420450909163 -2.99824064064597e-05)
(1.41361241858666e-06 -0.000308642415123014 -2.75457404242841e-05)
(5.95826447235811e-07 -0.000276227649400595 -2.37983293069264e-05)
(1.13081544973169e-07 -0.000245811962203613 -1.91225527786618e-05)
(9.09183351312106e-06 -0.000477565792279098 -1.7829954335099e-05)
(2.32025241190191e-05 -0.000609206607715627 -3.43084462958919e-05)
(1.31660112953903e-05 -0.000510918957768245 -3.9879107727905e-05)
(6.8564768652606e-06 -0.000436727052043988 -4.22384441637582e-05)
(4.11348872517972e-06 -0.000387461824913303 -4.33327349061494e-05)
(2.5431276974345e-06 -0.000348124488099084 -4.3128727380302e-05)
(1.44817954004653e-06 -0.00031338972740373 -4.18896733648716e-05)
(7.05758581448329e-07 -0.000281508018503547 -3.97557488100943e-05)
(2.69211367178867e-07 -0.000251458427319139 -3.63787437222764e-05)
(3.12833136211429e-08 -0.000223235096599608 -3.21339801580925e-05)
(-3.77109057731373e-06 -0.000455358281358003 -1.86733695060202e-05)
(1.44122775458504e-05 -0.000602020264767631 -3.97542978372489e-05)
(8.40558706550877e-06 -0.000511263793973989 -4.85965317306442e-05)
(3.99883421539196e-06 -0.000439462544483929 -5.29405196611401e-05)
(2.50764652897038e-06 -0.000391269929765988 -5.56825447768392e-05)
(1.74965418951427e-06 -0.000352395621535374 -5.67628909930944e-05)
(1.12501399108673e-06 -0.000317771967353468 -5.65295034090117e-05)
(6.00613019979357e-07 -0.000285883966931613 -5.53272810018777e-05)
(2.36430505857175e-07 -0.00025622528599336 -5.33033663163282e-05)
(4.85578277167736e-08 -0.000228254244851056 -5.01262811503454e-05)
(-2.1288746703512e-08 -0.000202035097623824 -4.61602876195425e-05)
(-1.75912261795058e-05 -0.000425973487176656 -2.15999564003975e-05)
(3.26955119843505e-06 -0.000590047577989353 -4.7292757476368e-05)
(2.06241897307802e-06 -0.000508988710348001 -5.8173050257201e-05)
(2.39428027604839e-08 -0.000440472725660724 -6.41860801164056e-05)
(8.96244886790357e-08 -0.000393874665509309 -6.84918274049385e-05)