/*--------------------------------*- C++ -*----------------------------------*\
  =========                 |
  \\      /  F ield         | OpenFOAM: The Open Source CFD Toolbox
   \\    /   O peration     | Website:  https://openfoam.org
    \\  /    A nd           | Version:  12
     \\/     M anipulation  |
\*---------------------------------------------------------------------------*/
/*   Windows 32 and 64 bit porting by blueCAPE: http://www.bluecape.com.pt   *\
|  Based on Windows porting (2.0.x v4) by Symscape: http://www.symscape.com   |
\*---------------------------------------------------------------------------*/
FoamFile
{
    format      ascii;
    class       volScalarField;
    location    "100";
    object      k;
}
// * * * * * * * * * * * * * * * * * * * * * * * * * * * * * * * * * * * * * //

dimensions      [0 2 -2 0 0 0 0];

internalField   nonuniform List<scalar> 
10103
(
1.38587349088159e-06
1.38045101914867e-06
1.95635717365055e-05
2.11413558734007e-05
1.38850566207343e-06
1.95637751477439e-05
2.11603878142829e-05
5.62349079491886e-05
0.000146570048366693
6.95908140850646e-05
1.39790456149531e-06
1.9548991193773e-05
2.11640622201076e-05
5.6234431727279e-05
0.000146617229042573
6.96430557754455e-05
9.89770795017912e-05
0.000275058659819243
0.000284384597070988
0.000132731059546184
1.40282753470919e-06
1.94875995769885e-05
2.11153151892989e-05
5.61184269354985e-05
0.000146401489899618
6.95484631971807e-05
9.89778208699473e-05
0.000275077938700768
0.000284340896333328
0.000132732156437046
0.000144225864701292
0.000394686707411182
0.000467661393508796
0.000419478178679197
0.000199800623980241
1.40292390566685e-06
1.93796405858565e-05
2.10060909879394e-05
5.58944630733367e-05
0.000145922196303045
6.93050265390064e-05
9.87585303968852e-05
0.000274662005583981
0.000283896008528407
0.000132474146571947
0.000144237310485029
0.000394686524436076
0.00046757077597037
0.000419295344412947
0.000199686621729455
0.000190756001389559
0.000505848940198424
0.000634345583937267
0.000648113577756301
0.000550328344252591
0.000250394709143985
1.39886297632963e-06
1.92251363968825e-05
2.08418427728579e-05
5.55593606955506e-05
0.000145213826966588
6.8912948051882e-05
9.83604510486845e-05
0.000273883962537578
0.000283081830549017
0.000131996744259768
0.000143919423282508
0.000394108978164687
0.00046687624051073
0.000418613512921836
0.000199256314177914
0.000190778560836736
0.000505845514926426
0.000634228021506881
0.000647842156819545
0.000549971887875475
0.00025017714513602
0.000237778346211641
0.000608383771287457
0.000789135434978698
0.000852198620292512
0.000823723804079762
0.000673325863278342
0.000280072666723
1.39010095130984e-06
1.90217300108905e-05
2.0626015330021e-05
5.51107022270218e-05
0.000144275938531852
6.83692279864064e-05
9.77841776494258e-05
0.00027275406148322
0.000281915119226626
0.000131296560034326
0.000143353674526463
0.000393056696720837
0.000465664170740055
0.00041747895815067
0.000198609712900529
0.000190376546315499
0.000505131386560522
0.000633326573429145
0.000646843307450006
0.000549034207109428
0.000249709211499403
0.000237815927510144
0.000608395706568437
0.00078900868350884
0.00085187052850346
0.000823216601038364
0.000672760124467044
0.000279802018330716
0.00028354699438275
0.000702547676532631
0.000931088937851466
0.00104090936841263
0.00106241092820244
0.000993120839209179
0.000787489835760818
0.000322022974800449
1.37537293290593e-06
1.87620732338382e-05
2.03504817667584e-05
5.45376892760847e-05
0.000143090005354615
6.76810076077199e-05
9.701988158502e-05
0.000271255530585371
0.000280352968867245
0.000130297933919936
0.00014254269441325
0.000391537107379815
0.0004639339731935
0.000415885744236979
0.000197816926685697
0.000189658598806761
0.000503837267965343
0.000631755596888274
0.000645191508473182
0.00054755537962398
0.000249147299015228
0.000237344861991687
0.000607576895956727
0.000787935244403892
0.000850608336071205
0.000821865119303819
0.000671516223715932
0.000279283324514474
0.000283601430962686
0.00070258698712542
0.000930973613764241
0.0010405496330712
0.0010617989077425
0.000992325467237022
0.000786678508943919
0.000321646738878178
0.000325221493077135
0.000787856910531062
0.00105984225018103
0.00121388485745126
0.00128019175013587
0.0012649542108202
0.00115487029128928
0.000900171212220914
0.000364823383639574
1.35348202940513e-06
1.84377929895208e-05
2.00032116660843e-05
5.38205591648225e-05
0.000141621865988461
6.68244994096503e-05
9.6047260443705e-05
0.000269346854237304
0.000278366435176739
0.000129058820997446
0.000141469655141921
0.000389519679663057
0.000461633843528594
0.000413710375322936
0.000196433046976767
0.000188630989899785
0.000501970840896254
0.000629512525045425
0.000642862736781128
0.000545515958717436
0.000242340727038773
0.000236495392276614
0.000606083877193424
0.000786053015383083
0.000848507486816017
0.000819716311823865
0.000669464209377044
0.000278540238173154
0.000283075004703014
0.00070169486133478
0.000929769523611738
0.00103907242524957
0.00106011405706835
0.000990551659525679
0.000785112844462225
0.000320980080420336
0.000325247036468979
0.000787927154071019
0.00105975769288759
0.00121352064384192
0.00127951244284232
0.00126399760489485
0.0011537397080983
0.000899078137547909
0.000364332064372914
0.00035736209812755
0.000863046234452069
0.00117528479257117
0.00137062708835739
0.00147881056856766
0.00150877736349613
0.00145840508887942
0.00131041351879044
0.001010768263719
0.000408248416982579
1.32346039541654e-06
1.95723529539998e-05
1.80386275428243e-05
5.29390308574886e-05
0.000139832556630639
6.57684552124912e-05
9.48340275904813e-05
0.000266967886021861
0.000275908712703834
0.000127534293505009
0.000140103102216892
0.000386943610332712
0.000458700163478182
0.000410944105226806
0.000194772699992787
0.000187270000266395
0.000499489784883697
0.000626537682945771
0.000639770198673293
0.000542765096178596
0.000240904729079173
0.000235281704132904
0.000603927086267679
0.000783360686416233
0.000845542228934034
0.000816704400383767
0.000665148676257524
0.000277418600853688
0.000282132138928994
0.000700051023131198
0.000927636379628341
0.00103659313058034
0.00105742508242968
0.000987763231482934
0.000782737120540639
0.000319997151691181
0.000324682047700066
0.00078698734979966
0.00105846481935031
0.00121188081917926
0.00127756345237154
0.00126182408708708
0.0011515101807727
0.000897135859101929
0.000363499906747778
0.000357237273026236
0.000863129749998244
0.00117524600438636
0.00137028545788638
0.0014781014766223
0.0015077122951204
0.00145705409173533
0.001308909582336
0.0010093721590231
0.000407632569580255
0.000356363165980098
0.000926217187400588
0.00127725480961393
0.00151123384684672
0.0016586515504852
0.00172931795493389
0.00172581769468418
0.00164280348716786
0.00146022685513178
0.00111928170360969
0.000451757807060407
1.28409436986192e-06
1.90481709266759e-05
1.75540342279191e-05
6.44684634612494e-05
0.00013765821687192
5.1867918010572e-05
9.33436083868098e-05
0.000264046942991381
0.000272913108084739
0.000125698002428764
0.000138397247144648
0.000383722654752421
0.000455045547710842
0.000407536214477838
0.000192694895227667
0.000185533798803131
0.00049631521930128
0.000622737744242522
0.000635832595451191
0.000539295641982003
0.000246302940786965
0.00023366914816799
0.000601053518622503
0.000779787516488626
0.00084162572950968
0.00081278591132712
0.000661829746624864
0.00027598530872079
0.000280804555665607
0.000697672316674605
0.000924574253396993
0.00103308659944191
0.00105367370491585
0.000983578134929533
0.0007792304423934
0.000318656136445657
0.000323708232976092
0.000785245538319222
0.00105614481386724
0.00120909963963024
0.00127443393564245
0.00125846670560444
0.00114816763007396
0.000894297864507488
0.000362279350657544
0.00035668822301621
0.0008621826000456
0.00117390315316882
0.00136853499835815
0.00147595508476797
0.00150522791535983
0.00145434515556
0.00130617657315935
0.00100700921084847
0.000406616630646194
0.000356375497443971
0.000926331280184267
0.00127727443032177
0.0015109392888869
0.00165794860069429
0.00172819419694968
0.00172431656095899
0.00164101979588023
0.00145832513842249
0.0011175858845555
0.000451032865213765
0.000370584458205407
0.000973610791297257
0.00136577713734922
0.00163606391326974
0.00182027405067301
0.00192848335986327
0.00196540583846498
0.00193123353192243
0.00181851477314517
0.00160490604877556
0.00122804147529432
0.000482026776404859
1.23420133342707e-06
1.84179804338442e-05
1.69725366940701e-05
6.29011710730102e-05
0.000135041625107361
5.05793348350791e-05
0.000123399441487403
0.000269250773334702
0.000260486628889684
9.15327028490927e-05
0.000136297878835511
0.000379751391311189
0.000450554843517875
0.000403409723620096
0.000190503847435481
0.000183362285970936
0.00049233687587354
0.000617985848668176
0.000630930416009796
0.000534964976426631
0.000244621473783717
0.000231606046369221
0.000597369095011799
0.000775215659807204
0.000836631832994912
0.000807836110673181
0.000659316182027652
0.000274279675228531
0.000279005073094783
0.000694491840570019
0.000920501119752622
0.00102845209479562
0.00104876564777146
0.000978746473712102
0.000775122387934082
0.000316857826848656
0.000322516060388255
0.000782733691101376
0.00105279957664538
0.0012051514838373
0.00127006706152504
0.0012537972154464
0.00114353568060183
0.000890420543701373
0.000360604391389717
0.000355802954572774
0.000860400705136909
0.00117145891025198
0.00136552789221334
0.00147247797321043
0.0015013885640322
0.00145030093044879
0.00130219551454034
0.00100360684960485
0.000405131431289735
0.000366412021994524
0.000925631862807026
0.00127592675486137
0.00150912621938323
0.00165566777805058
0.00172547980675003
0.00172124784914966
0.00163773119550189
0.00145504416147797
0.00111476462893128
0.000449810217364586
0.000371742149944689
0.000973974247632827
0.00136588670675648
0.00163584036269594
0.00181960960774749
0.00192734696046826
0.00196381795907515
0.00192926031714316
0.00181627544983484
0.00160261089234618
0.00122611065795027
0.000481284377059498
0.000371368328291367
0.00101598590670645
0.00144128312502927
0.00174575790691679
0.00196431735510123
0.00210756002338251
0.00218091182381915
0.00218730981003229
0.00212525237983977
0.00198598141390343
0.00174721096289474
0.00135585055673947
1.17314350773625e-06
1.76657069466031e-05
1.62799910179511e-05
6.10380592200145e-05
0.000131918783601377
4.90449891601248e-05
0.000120573874319789
0.000264820507023059
0.000256186156554518
8.935382239174e-05
0.000187856384483538
0.00039833740200385
0.000445069203875017
0.000374900913517893
0.000133741454126762
0.000180683175945433
0.000487417765950673
0.000612122867838288
0.000624910700020361
0.000529790374230663
0.000237260417232161
0.000229019239320775
0.000592741488028736
0.000769485005215263
0.000830389693748635
0.000801628213960338
0.000654014958434487
0.000271988969865797
0.00027670122175248
0.000690402865578289
0.000915278942252106
0.0010225324337119
0.0010425310491624
0.000973031845123134
0.00077021075536059
0.000314530142755945
0.000320701614844176
0.00077935721337379
0.00104833529769973
0.00119992195987064
0.00126433153703483
0.00124781976211415
0.00113769053227289
0.00088541517194856
0.000358378614701944
0.000355732246078481
0.000857884394675962
0.00116791976337076
0.00136123784996635
0.00146761086901693
0.00149609924787638
0.0014447910625406
0.00129681268642825
0.000999005472043195
0.000403087043025817
0.000365121569845243
0.000923863422617891
0.00127341432208698
0.00150596254440769
0.00165193112190223
0.00172125726780273
0.00171665601719598
0.00163294188872901
0.00145033938822058
0.00111072367120412
0.000448019525164303
0.000370778176837077
0.000976527363219761
0.00136467337534018
0.00163400992536231
0.00181725107515038
0.00192447728961414
0.00196049007372784
0.00192556803222617
0.00181236890257241
0.00159874260337652
0.00122277640088071
0.000479813351763941
0.000371661121430773
0.00101666900195406
0.00144150274836395
0.00174562792846413
0.00196372002642624
0.00210645157180775
0.00217929416550388
0.00218522515163002
0.00212278833853732
0.00198329526002779
0.00174459720529957
0.00135389092675813
0.000385024748884941
0.000381485960102576
0.00105258797487452
0.00150617628135647
0.00184120900277114
0.00209155058626275
0.00226748981501337
0.00237450494270489
0.00241663352064598
0.00239528934153936
0.0023078808494441
0.00214584463035375
0.00189437736316038
1.10045982062719e-06
1.67808444174943e-05
1.5468532864813e-05
5.88119435357606e-05
0.000128194321498265
4.72284864958115e-05
0.000117301552713757
0.000259535932112972
0.000251030966554509
8.6756583622743e-05
0.000183653872671148
0.000392118944896776
0.000438428156640153
0.000369028442896224
0.000130658900527147
0.000246129519002053
0.000523611637210665
0.000617553422954907
0.000604955475858432
0.000481395256420905
0.000177409559307783
0.000225814561381231
0.000587003693993501
0.000762396340752913
0.000822689616009811
0.000793988159630552
0.000646121764596665
0.00026916112079846
0.000273809050672253
0.000685252782613605
0.000908718853813888
0.00101511819575799
0.00103473186821262
0.000965370331814767
0.000763656948017011
0.000311614798180596
0.000318355518429021
0.000775004459145125
0.00104259740021787
0.00119322914396095
0.00125702614830693
0.00124030456857663
0.00113038884246063
0.00087907531671281
0.000355496202671905
0.000354277556879045
0.000854465672522988
0.00116317955738991
0.0013555386535166
0.00146120221597087
0.00148920717319347
0.00143767602452895
0.00128985700379379
0.00099299695685734
0.000400357267232788
0.000363907725500669
0.000921427692045248
0.0012697604314157
0.00150142300483545
0.00164667690654549
0.00171543119519442
0.00171041419538837
0.00162649504666329
0.00144402566093295
0.0011052670267099
0.000445543064295563
0.000359458555179389
0.000974797176453213
0.00136214313152582
0.00163074862456155
0.00181333379637371
0.00191997133988732
0.00195548272690305
0.00192017861142888
0.00180677302779203
0.00159323645787675
0.00121799247786594
0.000477679643194983
0.000371312484740653
0.00101597020874513
0.001441161522285
0.00174384380383225
0.00196133333387848
0.00210349307935748
0.002175795819416
0.00218125129844709
0.00211844275904221
0.00197873944187536
0.00174008778323847
0.0013498466958025
0.000383605322777031
0.000381659474404758
0.0010530451168539
0.00150645648583386
0.00184117064503074
0.00209104264475242
0.00226644388720416
0.0023729071691496
0.00241450609706055
0.00239269484989849
0.00230494290254943
0.00214280155391579
0.0018916760287688
0.00155384956613042
0.00107383833397801
0.000390816979253521
0.00108419356033446
0.00156237845099981
0.00192359186968996
0.00220287041639395
0.00240912369371703
0.00254751364733119
0.0026223062433434
0.00263612745884211
0.00258918899664889
0.0024785443224381
0.00229719876002962
1.01644686545217e-06
1.57568343229866e-05
1.45311677999136e-05
5.61872664003082e-05
0.000123790253852229
4.51038062620906e-05
0.00011331264031235
0.000253203026193615
0.000244878428471163
8.36868120649636e-05
0.000179445761585302
0.00038475191886256
0.000430463555485147
0.000361973988512309
0.000126977765194781
0.00024057438087669
0.000515635375975201
0.000608627318572866
0.000596269744058734
0.000474086962938298
0.000173448766030155
0.000266192950494328
0.000640114484780056
0.000784743966687449
0.000813280626499156
0.000753714302433703
0.000579957883770181
0.000221876740673332
0.000270187779495962
0.000678842659073628
0.000900584217486292
0.00100595220913762
0.00102510912351738
0.000955565270976727
0.00075537747872216
0.000308055608752474
0.000315397933945443
0.000769493210629072
0.00103537079072209
0.00118482989225199
0.00124788713807522
0.00123083909862023
0.00112114586096518
0.000871108269941257
0.000351859329094315
0.00035281359622754
0.00085006396117328
0.00115706976997284
0.00134822744244865
0.00145302364263347
0.00148046250416571
0.00142868840640662
0.00128105697680683
0.000985325954664162
0.00039679657709593
0.000363029115179017
0.000918135880230669
0.00126485742135296
0.00149537245182984
0.00163973887814027
0.00170781055275383
0.00170231446049244
0.00161816249945939
0.00143584474355889
0.00109811954897407
0.00044223455974576
0.000357306222028764
0.000972154153319547
0.00135840353661927
0.00162603494712459
0.00180779453849339
0.00191373016463922
0.00194866493869356
0.00191293078356403
0.00179929586684883
0.0015858734889879
0.00121153921548617
0.000474717084391221
0.000369934430690741
0.00101364513430642
0.00143874343975037
0.00174053645731354
0.001957302771133
0.00209879369041706
0.00217049095579612
0.00217542536809943
0.00211221171743032
0.00197227464239864
0.00173367691412342
0.00134405009930797
0.000381629860611371
0.000381401412616792
0.0010522368919498
0.00150540002417846
0.00183957440061644
0.00208867362136157
0.00226345386380449
0.00236931544076948
0.0024103540153321
0.00238805434666844
0.00229992449444862
0.00213756128941277
0.00188640513370117
0.00154873305696482
0.00107001187423658
0.000390982914795656
0.00108460143315243
0.0015627352855322
0.00192362729311464
0.00220246099056605
0.00240816812193424
0.00254597785359684
0.00262019520084154
0.00263348322333037
0.00258611069160342
0.00247523936965675
0.00229407316485334
0.00203586160832588
0.00175564135603978
0.00131873220619179
0.000398618030866365
0.00111104308853025
0.00160969397641594
0.00199428297483647
0.00229929530325942
0.00253336616653422
0.00270093418859364
0.00280608816871868
0.00285178706337686
0.0028393544779887
0.00276831789040783
0.00263558823373357
9.21931072076127e-07
1.45923568343716e-05
1.34661105882564e-05
5.31425076444622e-05
0.000118636800071785
4.26491235862823e-05
0.00010856803496072
0.000245685767272295
0.000237595923399597
8.00976342775754e-05
0.000173777473395574
0.000375869440076646
0.000420945270366575
0.000353558174042939
0.000122624098069306
0.000237512416610924
0.000506301182184569
0.000597936483772499
0.00058583058003216
0.000465291893067575
0.000168706164222443
0.000261914615812584
0.000630673398974141
0.000773484817537601
0.000801881592575517
0.000743174247708564
0.000571384445519651
0.000217090813292103
0.000303778580693746
0.000746010685867683
0.000944387489032015
0.00101338962081608
0.000994733909230972
0.000890596215301599
0.000670937773127287
0.000265684277331015
0.000311595684435159
0.000762583520490911
0.00102638244112249
0.0011744240825685
0.0012366000099938
0.00121911215100081
0.00110969509664165
0.000861324069589653
0.000347395514927074
0.000350422364254973
0.00084440104087585
0.00114934684744798
0.001339030476612
0.00144277707916399
0.00146953412974381
0.00141746447733857
0.00127007220073033
0.000975722150521753
0.000392276045229553
0.000372311736244183
0.00091415199456741
0.00125852537998373
0.00148758854322739
0.00163086471553961
0.00169811891609427
0.00169206115275421
0.00160763280792221
0.00142547122023771
0.00108895595173288
0.000437824743457061
0.00035632056869165
0.000969000916362524
0.00135341441665805
0.00161973337497813
0.00180045534227106
0.00190554435517613
0.00193980175127893
0.00190356632686377
0.00178965219634992
0.00157633358031356
0.00120306943654906
0.000470841741248337
0.000368829518823059
0.00101072320634519
0.00143495579841262
0.00173569844661568
0.0019515642259632
0.00209225123561144
0.0021632442584501
0.00216758180299302
0.00210390096380239
0.00196368097293003
0.00172513227777258
0.00133627361894912
0.000378907743639607
0.000380758782036121
0.0010502835728923
0.00150327029535987
0.0018363000968253
0.00208458702592328
0.00225863849624484
0.00236381557616237
0.00240422814250885
0.00238138031636513
0.00229280807688401
0.00213015331570846
0.00187894294952746
0.00154162326787355
0.00106469304737306
0.000390745352649242
0.00108385521181473
0.00156154708236269
0.00192195935251426
0.00220015556368388
0.00240519495465732
0.00254235839564992
0.00261595261237379
0.00262866555940459
0.0025807953214558
0.0024695287045911
0.00228806414426781
0.00202959101806932
0.00174960557050604
0.00131387672090165
0.000398793457021442
0.00111147543082156
0.001610107620442
0.00199442197395118
0.00229898934041068
0.00253252043327679
0.002699494822114
0.00280404331526684
0.00284916149066536
0.00283622814439531
0.00276487834533692
0.00263222648774127
0.00243260860586651
0.00217553158371647
0.00189628529897477
0.00146203347039011
0.000404964670635232
0.0011333241373402
0.00164932534602061
0.00205404323566692
0.00238198959161776
0.00264123268660829
0.00283572581201845
0.00296916452941706
0.00304443102914729
0.00306317082030859
0.00302585218937685
0.0029315346577854
8.18304067232103e-07
1.32918244292319e-05
1.22741817917092e-05
4.96632430302823e-05
0.000112670727590646
3.98502116652939e-05
0.000103050297514885
0.000236868241351606
0.000229058850951035
7.59486886034922e-05
0.000166901592249743
0.000365301762044001
0.000409665410253202
0.000343600924137629
0.000117528438159895
0.000230959351933198
0.000494955180471064
0.000585159557559114
0.000573370094507858
0.000454792341098616
0.000163084469201161
0.000257185346094899
0.000619334243823431
0.000760001929323618
0.000788192426979145
0.000730484929067905
0.000561043658286312
0.000211340552858052
0.000298712975074947
0.000734511088397839
0.00093074532436481
0.000999207373050647
0.000981125011548938
0.000878442100957341
0.000661285365994607
0.000260176156216932
0.000342074306621416
0.00084963568765402
0.00109602595082701
0.00120496329444888
0.00122280904264372
0.0011616606860867
0.00101531079472
0.000754008122846618
0.000306724780350403
0.000346658390332592
0.000837180953806451
0.00113970048093014
0.00132760781186421
0.00143010055615067
0.00145605045646165
0.00140364338289121
0.00125658471239946
0.000963953422635238
0.0003866963059247
0.000370505801732612
0.000908545115074682
0.00125047022198267
0.00147776859853851
0.00161972287258889
0.00168600225220153
0.00167928342928237
0.00159452997092707
0.00141253948070456
0.00107744385564
0.000432276844793624
0.000374540089334284
0.000966093444995407
0.00134698708089745
0.00161160274936974
0.00179104195898756
0.00189511190609732
0.00192856901493235
0.00189174211645905
0.00177747665281087
0.00156421977174645
0.00119216039611116
0.000465391401626261
0.000367534297307129
0.00100773347282762
0.00142989389870593
0.00172921782022725
0.00194393179569965
0.00208364236483284
0.00215380342843856
0.00215744332309969
0.00209320786983178
0.00195262286152033
0.00171406885165031
0.00132607516411181
0.000375324562111724
0.000379831084180021
0.00104757855921131
0.00149947297549466
0.001831412053961
0.00207871842973235
0.00225189255871708
0.00235626829260819
0.00239595905855372
0.00237247676383831
0.002283377903131
0.00212035538163775
0.00186906218583298
0.00153218459098613
0.00105756019926253
0.00039017351707318
0.00108213891182243
0.00155905123889178
0.00191876866863624
0.00219606901178688
0.00240032899715959
0.00253675074065544
0.00260964147920384
0.0026217020203558
0.00257324557112567
0.00246147615261433
0.00227962783672723
0.00202101822110282
0.00174128316127053
0.00130719622968807
0.000398572907108287
0.00111077460521265
0.00160895735521915
0.00199276539440833
0.00229673429456811
0.00252960430980192
0.00269590262895894
0.00279978410599363
0.00284426449938573
0.00283074665943254
0.00275888007670583
0.00262574874241415
0.00242556654015527
0.00216850261756456
0.00188948686874042
0.00145643895990639
0.000405148548397455
0.00113378945219477
0.0016497982752353
0.00205427493359671
0.00238180003851051
0.00264051137418324
0.00283440965789204
0.00296722668550076
0.00304188112992265
0.00306007315310089
0.00302237992178452
0.00292807346835857
0.00277422507732124
0.0025599089598526
0.00230109452807454
0.00199991876306442
0.00155869090250491
0.000410009453583072
0.00115144876800163
0.00168209162701039
0.00210404392821441
0.00245207252472318
0.00273387314517499
0.00295293778566816
0.00311257881200375
0.00321542196234312
0.00326307805066844
0.00325628901673226
0.00319498310776347
7.0730875971254e-07
1.18663729430116e-05
1.09612531956349e-05
4.5745492308084e-05
0.000105830196509115
3.6700244970246e-05
9.67270177409296e-05
0.000226631209253566
0.00021914631670694
7.12094973555645e-05
0.000158882731813938
0.000352905996299024
0.000396430614054894
0.000331925305642251
0.000111629466589109
0.000223200485393364
0.000481462406547744
0.000570026093254178
0.000558619449821759
0.000442363141952694
0.000156488928529952
0.000251929949991956
0.000605732204997232
0.000743929143397957
0.000771869483752399
0.000715330099236871
0.000548676586821999
0.000204501261413423
0.000292904115701626
0.000720901088712959
0.000914274971326216
0.00098219326051395
0.000964755683766019
0.000863778742051249
0.00064961105471645
0.000253534867658752
0.000335917884370065
0.000835772394546257
0.00107960750784843
0.00118788986012439
0.0012061035855929
0.00114614498989002
0.00100179875638318
0.000743485299912048
0.000300654559103335
0.000380075327030876
0.000949861303293647
0.00124032414570176
0.00138690007225622
0.00143962011399275
0.00141457590231281
0.00131356085106179
0.00112777127492947
0.00082820519116153
0.000342318915740117
0.000350622574126489
0.000900930736535187
0.00124034317438954
0.00146553617633355
0.00160590821206917
0.00167103831830458
0.00166355599117373
0.00157844487325897
0.00139668453127504
0.0010632985920773
0.000425168881898715
0.000373668978680217
0.000960467253711646
0.00133870464723919
0.0016013091519635
0.00177919188645755
0.00188204448604213
0.00191456066964011
0.00187704081754686
0.00176234320194555
0.00154909469593443
0.00117837797658222
0.000458922788409084
0.000366477436428066
0.00100779408186065
0.00142320381944084
0.00172083222582535
0.00193411094239641
0.00207264128682639
0.00214181762024584
0.00214463839114233
0.00207973898415731
0.00193867170624329
0.00169999715046682
0.00131288667310022
0.000370073509467369
0.000378566816030343
0.00104411646659548
0.00149447508149396
0.00182481583270837
0.00207088041913883
0.00224298079651482
0.00234640680837539
0.00238525417083028
0.00236102774035822
0.00227129102691854
0.00210778022916773
0.00185629619709868
0.00151984240245966
0.00104811238001536
0.000389273705062867
0.0010795349287531
0.00155521980458303
0.00191387830044299
0.0021901409858266
0.00239346167616971
0.00252901170195641
0.00260108884570495
0.00261239502165896
0.00256324954901807
0.00245087409674909
0.00226855921867482
0.00200979100515898
0.00173033007268705
0.00129831832557506
0.00039801907498304
0.00110912861567269
0.00160647399378925
0.00198951409570466
0.00229268536321286
0.00252474371497839
0.00269026016681145
0.00279338347460575
0.00283713678243678
0.00282293103644145
0.00275041936982919
0.00261669481501028
0.00241605461770867
0.00215892418892027
0.00188022353296751
0.00144884338717611
0.000404943961852636
0.00113312753899802
0.00164870653298867
0.00205268557785135
0.00237962173348653
0.0026376786784037
0.00283088965902157
0.00296301209445466
0.00303698591036812
0.0030545319776803
0.00301623521696426
0.00292132024746345
0.00276668716620156
0.00255213753359525
0.00229332991598824
0.00199243321328489
0.00155247757076631
0.00041019218594853
0.00115193591581477
0.00168261737137092
0.00210436155857187
0.00245199877705991
0.00273328722747409
0.00295176494731389
0.00311078025217362
0.00321299417357867
0.00326007209164796
0.00325286673142405
0.00319152839606873
0.00307514816914603
0.0029014146287837
0.00267513446292738
0.00240301161720298
0.00207392994737343
0.00162388283327983
0.000413832043809823
0.00116584808887564
0.00170874311110505
0.00214536535243989
0.00251078376084386
0.00281252788332372
0.00305375227870974
0.0032374280143459
0.00336588678947557
0.0034405498367271
0.00346214679290209
0.00343086850887219
5.92926150542227e-07
1.03350613395334e-05
9.5459008057733e-06
4.14018778311657e-05
9.80609145850293e-05
3.32059818811287e-05
8.95736417923229e-05
0.000214853700461723
0.000207739241848816
6.58616836534432e-05
0.000149640937173594
0.000338512358156179
0.000381048913752063
0.000318356646047075
0.00010487709462639
0.000213667674757005
0.000465625457288746
0.00055228805887348
0.000541314833751984
0.000427777171166853
0.000148834691980375
0.000258828120171125
0.000589870990688348
0.000724945216950604
0.000752569593133784
0.000697382410300693
0.000534012051939227
0.000196449430961085
0.000286249465225573
0.000705219286360437
0.000894829975418141
0.000961957048495344
0.000945227365171794
0.000846236151475876
0.00063561102087359
0.000245597758293304
0.000328995044322306
0.00081958607462149
0.001060051243668
0.00116741714354054
0.00118603972643435
0.00112744499968263
0.000985455057977274
0.000730722027489311
0.000293379180680137
0.000372475831020333
0.000933331511680771
0.00122092837240434
0.00136676228107052
0.00141975960665803
0.00139573248554333
0.00129644186455288
0.00111316041112126
0.000817055196750546
0.000335774825424324
0.000416929555122716
0.00104636068313453
0.00137757794464668
0.00155895779047737
0.00164441647583709
0.00165274726354998
0.00158894928168221
0.00145044986044423
0.00122779363085614
0.000892246794304967
0.000366213261869318
0.000362424660093673
0.000949695805917438
0.00132815041216981
0.00158844185292157
0.00176446100487979
0.00186587372696167
0.00189729714241286
0.00185898480567637
0.00174379106927662
0.00153052978641261
0.00116130877533221
0.000449650727248881
0.000365336207554432
0.00100256052504991
0.00141465058699657
0.00171016937705624
0.00192171007438506
0.00205882692742737
0.00212684416147892
0.00212870964744848
0.00206302373240946
0.00192133320831564
0.00168237358684785
0.00129611644749125
0.000364157277827962
0.000376942492159195
0.00104022589052742
0.00148851445535854
0.0018162018430434
0.00206075939641825
0.00223155578039403
0.0023338559658392
0.00237171623970501
0.0023466154795302
0.00225610041685557
0.00209192366461115
0.00184003749901035
0.00150385145116002
0.00103557533921487
0.00038802369428645
0.00107597470244459
0.00155003922039824
0.00190725726145364
0.00218217773897741
0.00238434769900801
0.00251886119162229
0.00258998817818325
0.00260041627732503
0.00255045798789191
0.00243734048437783
0.00225440543859009
0.001995334501345
0.00171610694853932
0.00128667149279027
0.000397130638889359
0.00110656389102542
0.00160266401346944
0.00198461433477693
0.00228675052060591