/*--------------------------------*- C++ -*----------------------------------*\
  =========                 |
  \\      /  F ield         | OpenFOAM: The Open Source CFD Toolbox
   \\    /   O peration     | Website:  https://openfoam.org
    \\  /    A nd           | Version:  12
     \\/     M anipulation  |
\*---------------------------------------------------------------------------*/
/*   Windows 32 and 64 bit porting by blueCAPE: http://www.bluecape.com.pt   *\
|  Based on Windows porting (2.0.x v4) by Symscape: http://www.symscape.com   |
\*---------------------------------------------------------------------------*/
FoamFile
{
    format      ascii;
    class       volScalarField;
    location    "100";
    object      p;
}
// * * * * * * * * * * * * * * * * * * * * * * * * * * * * * * * * * * * * * //

dimensions      [0 2 -2 0 0 0 0];

internalField   nonuniform List<scalar> 
10103
(
83333.3229202131
83333.3229067164
83333.3229202292
83333.3229202134
83333.3228932219
83333.3229066938
83333.322906732
83333.3229202933
83333.322920229
83333.3229201929
83333.322879755
83333.3228931735
83333.3228932586
83333.3229066907
83333.322906702
83333.3229067733
83333.3229204546
83333.3229202941
83333.3229202119
83333.3229201758
83333.3228663097
83333.3228796813
83333.3228798227
83333.3228931044
83333.3228932074
83333.3228933642
83333.3229067268
83333.3229066947
83333.322906748
83333.3229068553
83333.322920724
83333.3229204592
83333.3229202784
83333.3229201972
83333.3229201797
83333.3228529003
83333.3228662052
83333.3228663993
83333.3228795363
83333.3228797416
83333.322879977
83333.3228930112
83333.3228931262
83333.3228933186
83333.3228935443
83333.3229068039
83333.3229067298
83333.3229067348
83333.3229068432
83333.3229069861
83333.3229211056
83333.3229207313
83333.3229204475
83333.3229202674
83333.3229202026
83333.3229202117
83333.3228395513
83333.3228527652
83333.3228530057
83333.3228659842
83333.3228662862
83333.3228665843
83333.3228793096
83333.3228795772
83333.322879904
83333.3228802328
83333.3228928918
83333.3228930234
83333.3228932262
83333.3228935168
83333.3228938035
83333.3229069261
83333.3229068072
83333.322906764
83333.3229068347
83333.3229069851
83333.3229071436
83333.3229216047
83333.3229211144
83333.3229207263
83333.322920446
83333.3229202794
83333.3229202351
83333.3229202712
83333.3228262887
83333.3228393858
83333.322839672
83333.3228524706
83333.322852862
83333.3228532117
83333.3228656251
83333.3228660415
83333.3228664847
83333.3228668844
83333.322878994
83333.32287933
83333.3228797245
83333.3228801833
83333.3228805936
83333.3228927513
83333.3228928991
83333.3228931037
83333.3228934297
83333.3228937946
83333.3228940817
83333.3229070982
83333.3229069289
83333.3229068344
83333.322906859
83333.3229069802
83333.3229071471
83333.32290731
83333.3229222207
83333.3229216177
83333.3229211169
83333.3229207307
83333.3229204576
83333.3229203136
83333.3229202928
83333.3229203561
83333.3228131394
83333.3228260932
83333.3228264252
83333.3228390192
83333.3228394976
83333.3228399053
83333.3228519813
83333.322852542
83333.3228530872
83333.3228535341
83333.3228651157
83333.3228656548
83333.3228662257
83333.3228668168
83333.3228673008
83333.3228785956
83333.3228790052
83333.322879447
83333.3228800115
83333.3228805782
83333.3228809658
83333.3228925933
83333.3228927562
83333.3228929584
83333.3228932846
83333.3228937106
83333.3228940847
83333.3228943557
83333.3229073207
83333.322907103
83333.3229069532
83333.3229069152
83333.3229069914
83333.3229071458
83333.3229073162
83333.3229074834
83333.3229229266
83333.32292225
83333.3229216312
83333.3229211248
83333.3229207455
83333.3229204882
83333.3229203699
83333.3229203754
83333.3229204575
83333.3228001339
83333.3228129151
83333.3228132902
83333.3228256551
83333.3228262201
83333.3228266917
83333.3228384016
83333.3228391037
83333.3228397523
83333.3228402768
83333.3228512813
83333.3228520194
83333.3228527548
83333.3228534515
83333.3228539568
83333.322864465
83333.3228651328
83333.3228658028
83333.3228665737
83333.3228672776
83333.3228677438
83333.322878118
83333.3228786028
83333.3228790922
83333.3228797016
83333.3228804184
83333.3228809785
83333.3228813737
83333.3228924181
83333.3228925958
83333.3228928004
83333.3228931066
83333.322893538
83333.3228940088
83333.3228943672
83333.3228946152
83333.3229075665
83333.322907335
83333.3229071288
83333.3229070225
83333.3229070337
83333.3229071462
83333.322907318
83333.322907486
83333.3229076757
83333.3229237337
83333.3229229694
83333.3229222807
83333.3229216404
83333.3229211373
83333.3229207704
83333.3229205403
83333.3229204489
83333.3229204733
83333.3229205696
83333.3227873079
83333.3228002972
83333.3227998817
83333.3228124062
83333.3228130556
83333.3228135847
83333.3228249104
83333.322825752
83333.3228265078
83333.3228271342
83333.3228375134
83333.3228384464
83333.3228393444
83333.3228401671
83333.3228407957
83333.3228503847
83333.3228513038
83333.3228521929
83333.322853144
83333.3228539276
83333.3228544074
83333.3228636815
83333.3228644769
83333.3228652441
83333.3228661186
83333.3228670615
83333.3228677616
83333.3228683165
83333.3228775687
83333.3228781198
83333.3228786645
83333.3228793003
83333.3228800693
83333.3228808386
83333.3228813945
83333.322881738
83333.3228922195
83333.322892418
83333.3228926286
83333.3228929209
83333.3228933238
83333.3228938192
83333.322894295
83333.3228946138
83333.3228949011
83333.3229077567
83333.3229076002
83333.3229073706
83333.3229071886
83333.3229071218
83333.3229071717
83333.3229073127
83333.3229074861
83333.3229076746
83333.3229078872
83333.3229250264
83333.3229237688
83333.3229230179
83333.3229222806
83333.3229216394
83333.3229211541
83333.3229208129
83333.322920612
83333.3229205426
83333.3229205797
83333.3229206841
83333.3227747018
83333.3227874818
83333.3227870283
83333.3228006142
83333.3228000344
83333.3227993029
83333.3228115353
83333.3228125149
83333.3228133728
83333.322814078
83333.3228238356
83333.3228249614
83333.3228260218
83333.3228269907
83333.322827816
83333.3228363753
83333.32283754
83333.3228386437
83333.3228397815
83333.3228407269
83333.3228414047
83333.3228493091
83333.3228504012
83333.3228514357
83333.322852557
83333.3228536743
83333.322854451
83333.3228552049
83333.3228627798
83333.3228636867
83333.3228645567
83333.3228655061
83333.3228665733
83333.3228675831
83333.3228683305
83333.3228688347
83333.3228769845
83333.3228775553
83333.3228781581
83333.3228788309
83333.3228796108
83333.3228804728
83333.3228812541
83333.3228817328
83333.3228821326
83333.3228919164
83333.3228922249
83333.3228924442
83333.3228927294
83333.3228931023
83333.3228935754
83333.3228941017
83333.3228945472
83333.3228948914
83333.3228952177
83333.3229078788
83333.3229078229
83333.322907658
83333.3229074198
83333.322907266
83333.3229072387
83333.3229073242
83333.3229074806
83333.3229076678
83333.3229078812
83333.322908111
83333.3229259416
83333.3229249598
83333.3229238092
83333.3229230101
83333.3229222521
83333.3229216402
83333.3229211857
83333.3229208735
83333.3229206987
83333.3229206452
83333.3229206914
83333.3229207919
83333.3227623601
83333.3227748845
83333.3227743949
83333.3227878175
83333.3227871918
83333.32278638
83333.3228011402
83333.3228003762
83333.3227994224
83333.3227983064
83333.3228102744
83333.3228115921
83333.3228128119
83333.3228139083
83333.3228148505
83333.3228224567
83333.3228238659
83333.322825182
83333.322826516
83333.3228276886
83333.3228286942
83333.322835014
83333.3228363944
83333.3228376905
83333.3228390556
83333.3228403822
83333.3228413909
83333.3228422597
83333.3228480754
83333.3228493193
83333.3228504975
83333.3228517445
83333.3228530763
83333.3228542757
83333.3228552006
83333.3228559326
83333.3228618117
83333.3228627666
83333.3228637359
83333.322864766
83333.3228658983
83333.3228670842
83333.3228681365
83333.3228688175
83333.3228693718
83333.3228763744
83333.3228769549
83333.3228775678
83333.3228782935
83333.3228790898
83333.3228799734
83333.3228808784
83333.3228816031
83333.3228821143
83333.3228825699
83333.3228913038
83333.3228919592
83333.3228922623
83333.3228925346
83333.3228928824
83333.32289332
83333.3228938402
83333.3228943659
83333.3228948211
83333.3228952022
83333.322895557
83333.3229085214
83333.3229080025
83333.3229079354
83333.3229077028
83333.3229074705
83333.3229073581
83333.3229073715
83333.3229074829
83333.3229076575
83333.3229078652
83333.3229081003
83333.322908343
83333.3229265331
83333.3229258442
83333.3229248142
83333.3229237919
83333.3229229536
83333.3229222257
83333.3229216562
83333.3229212341
83333.3229209498
83333.3229207943
83333.3229207529
83333.3229208049
83333.3227503325
83333.3227625488
83333.3227620259
83333.3227752353
83333.3227745683
83333.3227736777
83333.3227883662
83333.3227875552
83333.3227865094
83333.3227852586
83333.322801963
83333.3228009508
83333.322799744
83333.3227983688
83333.3227968602
83333.3228086547
83333.3228103087
83333.3228118355
83333.3228133562
83333.3228146947
83333.3228158838
83333.3228208071
83333.3228224786
83333.322824034
83333.3228256439
83333.3228272165
83333.3228285654
83333.3228295148
83333.3228334579
83333.3228350286
83333.3228365058
83333.3228380438
83333.322839645
83333.3228410986
83333.3228422188
83333.3228431209
83333.3228467268
83333.3228480748
83333.322849384
83333.3228507463
83333.322852207
83333.3228536822
83333.3228549739
83333.3228558992
83333.3228566417
83333.3228608365
83333.3228617674
83333.3228627795
83333.3228639031
83333.3228650954
83333.3228663629
83333.3228676159
83333.3228686274
83333.3228693409
83333.3228699512
83333.322875441
83333.3228763436
83333.3228769437
83333.3228776859
83333.3228785147
83333.3228794055
83333.3228803538
83333.3228812492
83333.3228819833
83333.3228825449
83333.3228830401
83333.3228912672
83333.3228914571
83333.3228920611
83333.3228923506
83333.3228926672
83333.3228930679
83333.3228935567
83333.3228941006
83333.3228946378
83333.3228951218
83333.3228955358
83333.3228959191
83333.3229090344
83333.3229085672
83333.322908207
83333.3229080034
83333.3229077273
83333.3229075322
83333.3229074659
83333.3229075135
83333.3229076484
83333.3229078429
83333.322908073
83333.3229083299
83333.3229085547
83333.3229273848
83333.3229265124
83333.3229256653
83333.3229246723
83333.3229237187
83333.3229228987
83333.3229222212
83333.3229216905
83333.3229212978
83333.3229210361
83333.3229208963
83333.3229208614
83333.3227386745
83333.322750524
83333.322749972
83333.3227629097
83333.322762208
83333.3227612404
83333.3227758025
83333.3227749503
83333.3227738162
83333.3227724324
83333.3227892034
83333.3227881609
83333.322786853
83333.3227853263
83333.3227836279
83333.3228030954
83333.3228017922
83333.3228003308
83333.3227986336
83333.3227968985
83333.3227949991
83333.3228067126
83333.3228086793
83333.3228104941
83333.3228123446
83333.3228141345
83333.3228157101
83333.3228167933
83333.3228189173
83333.3228208252
83333.322822604
83333.322824431
83333.3228263126
83333.3228280755
83333.3228294303
83333.322830434
83333.3228317389
83333.3228334695
83333.3228351096
83333.3228367928
83333.3228385751
83333.3228403533
83333.3228419072
83333.322843068
83333.3228439841
83333.322845374
83333.3228466932
83333.3228481039
83333.3228495796
83333.3228511385
83333.322852766
83333.3228543406
83333.3228556502
83333.3228565962
83333.3228573798
83333.3228596794
83333.3228607678
83333.3228617352
83333.3228629165
83333.3228641823
83333.3228655019
83333.3228668581
83333.3228681178
83333.3228691462
83333.322869913
83333.3228705707
83333.3228746334
83333.3228754685
83333.322876325
83333.3228770439
83333.3228778875
83333.3228787889
83333.322879747
83333.3228807228
83333.3228816283
83333.3228824013
83333.3228830085
83333.3228835498
83333.3228915523
83333.322891415
83333.3228917526
83333.3228921751
83333.3228924654
83333.322892824
83333.3228932715
83333.3228937966
83333.3228943612
83333.3228949193
83333.3228954331
83333.3228958888
83333.322896277
83333.3229095113
83333.3229090493
83333.3229086487
83333.3229083194
83333.3229080182
83333.3229077574
83333.3229076116
83333.3229075857
83333.3229076619
83333.3229078174
83333.3229080289
83333.3229082742
83333.3229085098
83333.3229086138
83333.3229284341
83333.3229273889
83333.3229264523
83333.3229255184
83333.3229245511
83333.3229236461
83333.3229228738
83333.3229222399
83333.322921741
83333.3229213729
83333.3229211304
83333.322921
83333.3227274476
83333.3227388652
83333.3227382881
83333.3227508875
83333.3227501595
83333.3227491191
83333.322763492
83333.3227626021
83333.3227613869
83333.3227598727
83333.3227766436
83333.3227755831
83333.3227741789
83333.3227725048
83333.3227706187
83333.3227903658
83333.3227890256
83333.3227874765
83333.3227856101
83333.32278367
83333.3227815256
83333.3228041295
83333.3228029075
83333.3228011673
83333.3227991856
83333.3227971006
83333.3227950271
83333.3227927623
83333.3228044819
83333.3228067329
83333.322808818
83333.3228109331
83333.3228130844
83333.3228151079
83333.3228166804
83333.3228178285
83333.3228168102
83333.3228189362
83333.3228209206
83333.3228229278
83333.3228250315
83333.3228271297
83333.322828983
83333.3228303564
83333.3228314239
83333.3228299769
83333.3228317334
83333.3228335239
83333.3228353336
83333.3228372448
83333.322839227
83333.3228411294
83333.3228427436
83333.322843922
83333.3228448786
83333.3228441608
83333.3228452881
83333.3228466769
83333.3228482532
83333.3228499058
83333.3228516286
83333.3228533738
83333.322854995
83333.3228563365
83333.322857326
83333.3228581614
83333.3228584317
83333.3228595943
83333.3228606765
83333.3228618411
83333.3228631653
83333.3228645346
83333.3228659452
83333.3228673456
83333.3228686258
83333.3228697021
83333.3228705244
83333.322871249
83333.3228743112
83333.3228747297
83333.322875565
83333.3228764046
83333.3228772299
83333.3228781315
83333.3228790872
83333.3228800888
83333.322881087
83333.3228820187
83333.3228828327
83333.3228835021
83333.3228840683
83333.3228916259
83333.322891601
83333.3228916737
83333.3228919726
83333.3228922784
83333.322892594
83333.3228929942
83333.3228934814
83333.3228940346
83333.3228946182
83333.3228951939
83333.322895722
83333.3228961517
83333.3228963553
83333.3229100381
83333.3229095168
83333.3229090741
83333.3229086971
83333.322908338
83333.3229080259
83333.3229078082
83333.3229077061
83333.3229077125
83333.3229078112
83333.3229079824
83333.3229082008
83333.322908429
83333.3229086654
83333.3229087572
83333.322929623
83333.3229284426
83333.3229273762
83333.3229263859
83333.3229254115
83333.322924464
83333.3229236073
83333.3229228779
83333.3229222771
83333.322921804
83333.3229214569
83333.3229212274
83333.322716716
83333.3227276334
83333.3227270346
83333.3227392231
83333.3227384774
83333.3227373691
83333.3227514711
83333.3227505591
83333.3227492722
83333.3227476308
83333.3227643514
83333.3227632542
83333.3227617635
83333.3227599499
83333.3227578789
83333.32277779
83333.322776468
83333.3227748361
83333.3227728051
83333.3227706643
83333.3227682773
83333.3227915526
83333.3227901745
83333.3227883535
83333.3227862002
83333.322783887
83333.3227815568
83333.3227789933
83333.3228053056
83333.3228039845
83333.3228022339
83333.3227999873
83333.3227975784
83333.3227951787
83333.322792785
83333.3227901858
83333.3228019882
83333.3228044997
83333.3228068394
83333.3228091775
83333.322811599
83333.3228140005
83333.3228161353
83333.3228177255
83333.3228189626
83333.3228145036
83333.322816828
83333.3228190105
83333.3228211741
83333.3228234383
83333.3228257757
83333.3228280212
83333.3228299407
83333.3228313388
83333.3228324687
83333.3228283042
83333.3228299147
83333.322831753
83333.3228336875
83333.3228357022
83333.3228378142
83333.3228399438
83333.32284193
83333.3228435919
83333.3228448066
83333.3228458211
83333.3228423893
83333.3228439624
83333.322845186
83333.3228467859
83333.3228485259
83333.3228503242
83333.3228521692
83333.3228539873
83333.3228556507
83333.3228570464
83333.322858097
83333.3228590264
83333.3228572905
83333.3228583811
83333.3228595024
83333.322860732
83333.3228620686
83333.3228634765
83333.3228649208
83333.3228663913
83333.3228678252
83333.322869141
83333.3228702704
83333.3228711789
83333.3228719577
83333.3228738304
83333.3228743397
83333.3228749136
83333.3228757176
83333.3228765649
83333.3228774475
83333.3228783891
83333.3228793883
83333.3228804218
83333.3228814416
83333.3228823955
83333.3228832246
83333.3228838616
83333.3228841703
83333.3228916205
83333.3228916394
83333.3228916965
83333.3228918592
83333.3228920959
83333.3228923799
83333.3228927306
83333.3228931698
83333.3228936891
83333.322894263
83333.3228948582
83333.3228954335
83333.3228959272
83333.3228963476
83333.3228965474
83333.3229106308
83333.3229100397
83333.3229095238
83333.322909094
83333.3229086973
83333.3229083348
83333.3229080532
83333.3229078773
83333.3229078094
83333.3229078403
83333.3229079551
83333.3229081331
83333.3229083419
83333.3229085656
83333.3229087841
83333.322908869
83333.3229309341
83333.3229296319
83333.3229284423
83333.3229273546
83333.322926327
83333.3229253398
83333.3229244183
83333.3229236008
83333.3229229033
83333.3229223283
83333.3229218769
83333.3229215453
83333.3227065443
83333.3227168929
83333.3227162745
83333.3227279785
83333.3227272226
83333.3227260503
83333.3227397897
83333.3227388747
83333.3227375267
83333.3227357619
83333.322752334
83333.3227512137
83333.3227496569
83333.3227477124
83333.3227454596
83333.3227655022
83333.3227641735
83333.3227624441
83333.3227602623
83333.3227579277
83333.3227553026
83333.3227791134
83333.3227776227
83333.3227757541
83333.3227734286
83333.3227708939
83333.3227683112
83333.3227654534
83333.3227928777
83333.3227913908
83333.322789477
83333.3227870546
83333.3227843991
83333.3227817196
83333.3227790178
83333.322776069
83333.3228066015
83333.3228051762
83333.3228033741
83333.3228009912
83333.3227983038
83333.322795571
83333.3227929007
83333.3227902017
83333.3227873038
83333.3227991978
83333.3228020114
83333.3228045839
83333.3228071228
83333.3228097441
83333.3228124301
83333.3228150092
83333.3228172308
83333.3228188521
83333.3228201711
83333.3228119392
83333.3228145245
83333.322816883
83333.3228191982
83333.3228215865
83333.3228240844
83333.3228265992
83333.3228289539
83333.3228309343
83333.3228323738
83333.3228335674
83333.3228260481
83333.3228281646
83333.3228298575
83333.3228318628
83333.3228339754
83333.3228361796
83333.322838448
83333.3228406816
83333.3228427343
83333.3228444573
83333.3228457369
83333.322846861
83333.3228403942
83333.3228422193
83333.3228436887
83333.3228452322
83333.322847019
83333.322848881
83333.32285079
83333.3228527201
83333.3228545914
83333.3228563033
83333.3228577631
83333.3228589264
83333.3228599648
83333.322856136
83333.3228572633
83333.3228583485
83333.3228595716
83333.3228609278
83333.3228623474
83333.3228638094
83333.3228653113
83333.3228668244
83333.3228682875
83333.3228696329
83333.3228707829
83333.3228716507
83333.3228720836
83333.3228732426
83333.3228738372
83333.3228744125
83333.322875089
83333.3228758858
83333.3228767501
83333.3228776658
83333.3228786454
83333.3228796796
83333.3228807356
83333.3228817668
83333.3228827146
83333.3228834879
83333.3228841036
83333.3228844104
83333.3228916112
83333.3228916246
83333.3228916675
83333.3228917823
83333.3228919524
83333.3228921807
83333.3228924841
83333.322892871
83333.3228933434
83333.3228938858
83333.3228944711
83333.3228950639
83333.322895612
83333.3228960909
83333.3228965027
83333.3228967008
83333.3229112951
83333.3229106313
83333.3229100396
83333.3229095379
83333.3229090924
83333.322908687
83333.3229083461
83333.3229080999
83333.3229079572
83333.3229079149
83333.3229079637
83333.3229080881
83333.3229082624
83333.3229084641
83333.3229086736
83333.3229088635
83333.3229089432
83333.3229323672
83333.3229309423
83333.3229296338
83333.3229284398
83333.3229273317
83333.3229262849
83333.3229253023
83333.3229244062
83333.3229236171
83333.3229229439
83333.3229223902
83333.3229219556
83333.3226969946
83333.3227067081
83333.3227060717
83333.322717219
83333.3227164584
83333.3227152257
83333.3227285123
83333.3227276109
83333.3227262104
83333.3227243263
83333.3227406278
83333.3227395129
83333.3227379125
83333.3227358469
83333.3227334161
83333.3227534734
83333.3227521412
83333.322750342
83333.3227480324
83333.3227455112
83333.3227426523
83333.3227668611
83333.3227653501
83333.3227634051
83333.3227609088
83333.3227581665
83333.3227553388
83333.3227521941
83333.3227805521
83333.3227789514
83333.3227769182
83333.32277433
83333.3227714344
83333.3227684831
83333.3227654792
83333.3227621889
83333.3227943348
83333.3227927302
83333.3227907373
83333.3227881278
83333.3227851759
83333.3227821408
83333.3227791412
83333.3227760847
83333.3227727917
83333.3228079909
83333.322806467
83333.3228046169
83333.322802108
83333.3227992138
83333.3227961892
83333.3227932114
83333.3227902904
83333.3227873192
83333.3227841218
83333.3227960864
83333.322799263
83333.3228020819
83333.3228047994
83333.3228075802
83333.3228104631
83333.3228133564
83333.3228160761
83333.3228183751
83333.3228200495
83333.3228214467
83333.3228093711
83333.3228120206
83333.3228145716
83333.3228170125
83333.3228195109
83333.3228221211
83333.3228248078
83333.3228274558
83333.3228299006
83333.3228319497
83333.3228334613
83333.3228347635
83333.3228234899
83333.3228259344
83333.3228279455
83333.3228299006
83333.3228320818
83333.3228343617
83333.3228367182
83333.3228391009
83333.3228414114
83333.3228435283
83333.3228453271
83333.3228467382
83333.3228479926
83333.3228385355
83333.3228403249
83333.3228420002
83333.3228436345
83333.3228454222
83333.3228473221
83333.3228492738
83333.3228512658
83333.322853256
83333.3228551688
83333.3228569194
83333.3228584062
83333.3228595243
83333.3228601038
83333.3228549188
83333.322856125
83333.3228572491
83333.3228584326
83333.3228597531
83333.3228611694
83333.3228626307
83333.3228641404
83333.3228656871
83333.3228672292
83333.3228687067
83333.3228700435
83333.3228711155
83333.3228719443
83333.3228723707
83333.3228726109
83333.3228732448
83333.3228738584
83333.3228745052
83333.3228752295
83333.3228760432
83333.3228769272
83333.322877876
83333.3228788904
83333.3228799494
83333.3228810151
83333.3228820357
83333.3228829363
83333.3228836812
83333.322884291
83333.3228846024
83333.3228916244
83333.3228916138
83333.3228916304
83333.3228917054
83333.3228918313
83333.3228920086
83333.3228922572
83333.3228925905
83333.3228930096
83333.322893507
83333.322894063
83333.3228946492
83333.3228952249
83333.3228957548
83333.3228962219
83333.3228966102
83333.3228968052
83333.3229120381
83333.3229112951
83333.3229106284
83333.3229100518
83333.3229095408
83333.3229090846
83333.3229086886
83333.322908375
83333.3229081584
83333.3229080408
83333.3229080178
83333.3229080789
83333.3229082049
83333.3229083732
83333.3229085621
83333.3229087506
83333.3229089138
83333.3229089903
83333.3229339236
83333.3229323714
83333.3229309431
83333.3229296391
83333.3229284385
83333.3229273156
83333.3229262636
83333.3229252923
83333.3229244167
83333.3229236491
83333.3229229959
83333.3229224591
83333.3226881292
83333.3226971441
83333.322696491
83333.3227070126
83333.3227062521
83333.3227049604
83333.3227177076
83333.3227168335
83333.3227153877
83333.3227133875
83333.3227292916
83333.3227282185
83333.3227265924
83333.3227244134
83333.3227218091
83333.3227417508
83333.3227404074
83333.3227385828
83333.322736169
83333.3227334697
83333.3227303814
83333.322754783
83333.3227533223
83333.3227513116
83333.3227486862
83333.3227457554
83333.3227426906
83333.3227392642
83333.3227683204
83333.3227667061
83333.3227646089
83333.3227618457
83333.3227587264
83333.3227555169
83333.3227522213
83333.3227486014
83333.3227821365
83333.3227803938
83333.322778268
83333.3227754575
83333.3227722529
83333.3227689274
83333.3227656091
83333.3227622063
83333.3227585217
83333.3227959194
83333.322794177
83333.3227921172
83333.3227893437
83333.3227861519
83333.3227828035
83333.3227794763
83333.3227761774
83333.322772803
83333.3227691855
83333.3228094688
83333.3228078402
83333.3228059112
83333.3228033061
83333.322800234
83333.3227969742
83333.3227937119
83333.3227905305
83333.3227873896
83333.3227841549
83333.3227807651
83333.3227930139
83333.3227962132
83333.3227993523
83333.3228022323
83333.3228051473
83333.3228081712
83333.3228112706
83333.3228143283
83333.3228171659
83333.3228195418
83333.3228213118
83333.3228228404
83333.3228065883
83333.3228094224
83333.3228120927
83333.3228146429
83333.3228172319
83333.3228199304
83333.3228227281
83333.3228255583
83333.3228283086
83333.322830836
83333.3228329775
83333.3228346282
83333.3228359957
83333.3228210083
83333.3228234474
83333.32282574
83333.322827853
83333.3228300518
83333.322832386
83333.322834803
83333.3228372739
83333.3228397388
83333.3228421067
83333.3228442735
83333.3228461066
83333.322847482
83333.3228481876
83333.3228366613
83333.3228385156
83333.3228402419
83333.3228419633
83333.3228437642
83333.322845674
83333.322847647
83333.322849671
83333.3228517245
83333.3228537547
83333.3228556878
83333.3228574278
83333.3228588157
83333.3228598776
83333.3228604372
83333.3228536418
83333.3228549149
83333.3228561198
83333.3228573069
83333.3228585761
83333.3228599547
83333.3228614018
83333.3228629023
83333.3228644547
83333.3228660321
83333.3228675855
83333.3228690471
83333.3228703162
83333.3228713438
83333.3228721662
83333.322872599
83333.3228719632
83333.322872613
83333.3228732489
83333.3228738974
83333.3228745837
83333.3228753421
83333.3228761798
83333.3228770913
83333.3228780734
83333.3228791145
83333.3228801859
83333.3228812448
83333.3228822327
83333.3228831001
83333.3228838315
83333.3228844229
83333.3228847349
83333.3228916739
83333.3228916278
83333.3228916133
83333.322891648
83333.3228917278
83333.3228918602
83333.3228920563
83333.3228923325
83333.3228926952
83333.3228931397
83333.3228936535
83333.3228942151
83333.322894793
83333.3228953528
83333.3228958672
83333.3228963184
83333.3228966825
83333.322896875
83333.322912869
83333.3229120352
83333.3229112904
83333.3229106391
83333.3229100563
83333.3229095375
83333.3229090829
83333.3229087042
83333.322908415
83333.3229082217
83333.3229081238
83333.3229081153
83333.3229081823
83333.3229083051
83333.322908462
83333.3229086334
83333.3229088013
83333.3229089434
83333.3229090176
83333.3229339302
83333.3229323743
83333.3229309522
83333.3229296506
83333.3229284409
83333.3229273105
83333.3229262611
83333.3229253018
83333.3229244429
83333.3229236929
83333.3229230557
83333.3226800063
83333.3226882642
83333.3226875972
83333.3226974279
83333.3226966712
83333.3226953201
83333.3227074504
83333.3227066147
83333.3227051276
83333.3227030116
83333.3227184017
83333.3227173992
83333.3227157625
83333.322713476
83333.3227107036
83333.3227303605
83333.3227290498
83333.3227272359
83333.3227247331
83333.3227218637
83333.3227185515
83333.3227430356
83333.3227415674
83333.3227395164
83333.3227368135
83333.3227337146
83333.3227304212
83333.3227267173
83333.3227561462
83333.3227546348
83333.3227525251
83333.3227496294
83333.3227463223
83333.3227428717
83333.3227392933
83333.3227353485
83333.3227699218
83333.3227681562
83333.3227659861
83333.3227630101
83333.3227595719
83333.3227559756
83333.3227523554
83333.3227486211
83333.3227445694
83333.3227839137
83333.3227819619
83333.3227797371
83333.3227767455
83333.3227732791
83333.3227696243
83333.3227659628
83333.3227623038
83333.3227585366
83333.3227544557
83333.3227976347
83333.3227957386
83333.3227935514
83333.3227906575
83333.3227872532
83333.3227836438
83333.3227800143
83333.3227764391
83333.3227728719
83333.3227691881
83333.3227653445
83333.3228111026
83333.3228093005
83333.3228072448
83333.3228045365
83333.3228013137
83333.3227978574
83333.3227943549
83333.3227909163
83333.322787562
83333.3227842183
83333.3227807704
83333.3227770707
83333.3227898384
83333.3227931018
83333.3227963614
83333.3227994416
83333.322802473
83333.3228056059
83333.3228088419
83333.322812113
83333.3228153017
83333.3228182448
83333.322820737
83333.322822672
83333.3228243127
83333.3228035539
83333.3228065918
83333.3228094249
83333.3228121028
83333.3228147725
83333.3228175415
83333.3228204163
83333.3228233584
83333.3228262948
83333.3228291219
83333.3228317148
83333.3228339048
83333.3228355448
83333.3228363393
83333.3228184844
83333.3228209935
83333.322823365
83333.3228256418
83333.3228279135
83333.3228302789
83333.3228327347
83333.3228352579
83333.322837812
83333.3228403314
83333.3228427279
83333.3228448837
83333.3228466003
83333.3228479154
83333.3228486163
83333.3228347197
83333.3228366555
83333.3228384887
83333.3228402468
83333.3228420526
83333.322843956
83333.3228459322
83333.3228479669
83333.3228500496
83333.3228521442
83333.3228541901
83333.3228561031
83333.3228577554
83333.322859083
83333.3228601369
83333.3228607046
83333.3228523205
83333.3228536409
83333.3228549114
83333.3228561443
83333.3228573877
83333.3228587192
83333.3228601334
83333.3228616136
83333.3228631541
83333.3228647391
83333.3228663307
83333.3228678723
83333.3228692856
83333.3228705048
83333.3228715144
83333.3228723206
83333.3228727566
83333.322871315
83333.3228719665
83333.3228726111
83333.3228732611
83333.3228739267
83333.3228746437
83333.3228754324
83333.3228762988
83333.3228772414
83333.3228782515
83333.3228793088
83333.32288038
83333.3228814188
83333.3228823777
83333.3228832237
83333.3228839438
83333.3228845137
83333.3228848251
83333.3228917718
83333.3228916779
83333.3228916256
83333.3228916207
83333.3228916526
83333.3228917368
83333.3228918824
83333.322892102
83333.3228924054
83333.3228927928
83333.3228932558
83333.3228937796
83333.3228943404
83333.3228949078
83333.322895452
83333.3228959506
83333.322896386
83333.3228967294
83333.3228969191
83333.3229128675
83333.322912032
83333.3229113005
83333.3229106427
83333.3229100543
83333.3229095347
83333.3229090896
83333.3229087289
83333.3229084601
83333.3229082859
83333.3229082039
83333.3229082047
83333.3229082718
83333.3229083854
83333.3229085272
83333.3229086816
83333.3229088326
83333.3229089594
83333.3229090316
83333.3229339402
83333.32293239
83333.3229309728
83333.3229296658
83333.3229284492
83333.3229273171
83333.3229262733
83333.3229253251
83333.3229244807
83333.322923745
83333.3226727163