/*--------------------------------*- C++ -*----------------------------------*\
  =========                 |
  \\      /  F ield         | OpenFOAM: The Open Source CFD Toolbox
   \\    /   O peration     | Website:  https://openfoam.org
    \\  /    A nd           | Version:  12
     \\/     M anipulation  |
\*---------------------------------------------------------------------------*/
/*   Windows 32 and 64 bit porting by blueCAPE: http://www.bluecape.com.pt   *\
|  Based on Windows porting (2.0.x v4) by Symscape: http://www.symscape.com   |
\*---------------------------------------------------------------------------*/
FoamFile
{
    format      ascii;
    class       surfaceScalarField;
    location    "100";
    object      phi;
}
// * * * * * * * * * * * * * * * * * * * * * * * * * * * * * * * * * * * * * //

dimensions      [0 3 -1 0 0 0 0];

internalField   nonuniform List<scalar> 
28828
(
6.00271287562257e-06
-1.8530873121145e-08
1.17661622117391e-08
6.00671643010885e-06
1.05641383099952e-11
-4.00802017886141e-09
5.56565157492063e-06
-4.43860462881746e-08
1.05254542670366e-08
5.85728317132972e-06
-7.64166361419659e-09
1.77748929203903e-08
6.01234283508882e-06
1.58196475792938e-08
-2.14505632612442e-08
5.57690677557365e-06
-1.09042884302856e-08
-3.40019961865526e-10
5.86316019996205e-06
3.92566929533305e-09
-1.38169908627563e-08
4.65340197932273e-06
-6.69666573827215e-08
5.46081183249928e-09
2.21071890916195e-06
-1.17829206979517e-08
9.91287599877003e-09
4.81758396150623e-06
-2.90903087504725e-09
1.30107591757912e-08
6.01841336228666e-06
3.42329760771522e-08
-4.03178073975988e-08
5.58144396093728e-06
2.26370345688252e-08
-1.13630540952714e-08
5.87263091173121e-06
1.34303767182651e-08
-4.43476930982189e-08
4.66291994348215e-06
-2.06601928971555e-08
2.34134238597171e-10
2.21868320933758e-06
-1.63149196825683e-09
-2.75032928023754e-09
4.82386606014171e-06
4.4580224429728e-09
-2.45478146639959e-08
4.1147129364515e-06
-8.45743703188022e-08
2.65808703630577e-09
1.31897481379401e-06
-1.50719971361769e-08
4.40321073195733e-09
1.21898671508537e-06
-4.44987624116728e-09
7.37286366591216e-09
4.04781488696421e-06
-9.94835456287295e-10
5.38307514460151e-09
6.02152461796964e-06
5.3886953095214e-08
-5.70080235216806e-08
5.5784205749524e-06
5.97630041561812e-08
-2.25019916778921e-08
5.87686238828256e-06
2.60138763914288e-08
-7.0561178295352e-08
4.66409880264354e-06
2.68354813794091e-08
-5.37957729679528e-09
2.22473911661481e-06
9.33219443155393e-09
-1.33401163403389e-08
4.82959527728124e-06
1.03955276587152e-08
-6.04696417189131e-08
4.12247074128584e-06
-2.80543023868209e-08
-3.67395400158559e-10
1.32314060694087e-06
-3.8332756404259e-09
-1.73263064997557e-09
1.22305088411426e-06
1.39291015601046e-09
-3.7573766922621e-09
4.0524752955814e-06
3.82617555348786e-09
-3.30368938273678e-08
3.74272310504394e-06
-9.82004388678877e-08
3.08597200832174e-10
1.061765609591e-06
-1.84195208067827e-08
2.8117439158252e-09
6.44165723898816e-07
-6.25449965154779e-09
2.9755833096657e-09
9.41710134026883e-07
-2.03983778430055e-09
4.94313100924059e-09
3.52740851110261e-06
-1.09032720861133e-09
-1.35239419012963e-09
6.01958469979212e-06
7.40484599456361e-08
-7.21134470453643e-08
5.56911976765356e-06
9.74829291093353e-08
-3.43022086496411e-08
5.8732957168147e-06
3.94724616176321e-08
-9.29129938522145e-08
4.66052265194994e-06
7.60826143860707e-08
-1.27507084636636e-08
2.22868959499724e-06
2.23013307918338e-08
-2.27502155616668e-08
4.83438312646603e-06
1.69007976614526e-08
-9.22535405599731e-08
4.12360620997147e-06
2.93846387492845e-08
-3.69351131753854e-09
1.3255977821668e-06
8.31928117950729e-09
-6.82628870462279e-09
1.22536415283671e-06
7.64750852343623e-09
-1.29039948112752e-08
4.05715258693881e-06
7.21741098594288e-09
-7.23726906636851e-08
3.75001577491671e-06
-3.39778582743777e-08
-1.36558267320528e-09
1.06401450189991e-06
-4.74694794086029e-09
-1.70194122889736e-09
6.45998089773748e-07
3.17578220745677e-10
-2.49064445113775e-09
9.43854039314029e-07
2.67156739065795e-09
-4.74619604965003e-09
3.52907962384849e-06
2.66735223198268e-09
-3.73767525921611e-08
3.4292695924698e-06
-1.0994955753326e-07
-8.01417674420041e-10
9.32539393115277e-07
-2.11816360996169e-08
7.19473946875718e-10
4.93663151069361e-07
-7.25445809291803e-09
1.97047983926432e-09
4.61215953650265e-07
-3.38189095586277e-09
2.46621648958151e-09
8.12333331527037e-07
-1.76614391714157e-09
3.01692127860964e-09
3.37597891341186e-06
-1.41222472644432e-09
-7.73429315035782e-09
6.01275808296307e-06
9.43802370010575e-08
-8.75598678813764e-08
5.55355985244993e-06
1.35563873313506e-07
-4.59530075114145e-08
5.86139631355659e-06
5.3492445017737e-08
-1.13713495571662e-07
4.65244421315562e-06
1.2583379148332e-07
-2.02868440965731e-08
2.23013021865287e-06
3.64009039392382e-08
-3.26740314561297e-08
4.83360541216572e-06
2.46255735559327e-08
-1.16768772644917e-07
4.12028553183808e-06
8.72348950321976e-08
-7.83835299399398e-09
1.3266412254393e-06
2.17491251001372e-08
-1.32503493913761e-08
1.2263079153252e-06
1.39285524668259e-08
-2.07234647597422e-08
4.0680927510268e-06
1.03470737293771e-08
-1.1354630441603e-07
3.7516071249238e-06
3.05737250059137e-08
-2.78149531362077e-09
1.06515218081061e-06
9.34163149716723e-09
-5.85649312502137e-09
6.46349639481611e-07
7.3141381138884e-09
-6.84399245323757e-09
9.44521394853494e-07
7.27211351394512e-09
-1.36275773642297e-08
3.52913886675715e-06
5.99211129782898e-09
-7.84330260390159e-08
3.43624237485334e-06
-3.92790781686153e-08
-1.68130095754622e-09
9.33792615879286e-07
-5.05471194049416e-09
-2.30987699786963e-09
4.94291656132962e-07
1.65634555312844e-10
-2.17991247793376e-09
4.61643227352727e-07
2.37710818268923e-09
-2.62389955329937e-09
8.13072289163914e-07
2.56864597632264e-09
-5.38587389049134e-09
3.37193363184593e-06
2.03871195971795e-09
-3.53718999193058e-08
3.15778655732999e-06
-1.21092979459985e-07
-1.78833336381803e-09
8.44888382853209e-07
-2.33158003269456e-08
-3.79415345430411e-10
4.28044521323118e-07
-8.19150999914338e-09
5.90139742896734e-10
3.27088388323996e-07
-3.84116828433316e-09
1.40202145829258e-09
3.84451650314598e-07
-2.44114033494666e-09
1.93859866130322e-09
7.44351170674031e-07
-1.86529024406716e-09
1.43798137594137e-09
3.0992886393351e-06
-1.35981388625951e-09
-1.25778866568572e-08
6.00161565877234e-06
1.14502921656884e-07
-1.03364940891194e-07
5.53210528494793e-06
1.73708847806912e-07
-5.78664478923333e-08
5.84366148399223e-06
6.78477790456988e-08
-1.37683944163021e-07
4.63998498949985e-06
1.75953922211521e-07
-2.79357012960651e-08
2.22938515068976e-06
5.16074043114882e-08
-4.33215154146511e-08
4.8235501778692e-06
3.34074640424209e-08
-1.37083004068182e-07
4.11327064200189e-06
1.45406886541806e-07
-1.25631984762765e-08
1.32595350891938e-06
3.62514690184959e-08
-1.94476038022896e-08
1.22515171546111e-06
2.16912488837658e-08
-2.85915311632756e-08
4.07314291727179e-06
1.49044584878049e-08
-1.3672572214917e-07
3.74872626255522e-06
9.46850709519566e-08
-4.57091053551123e-09
1.06506787689653e-06
2.39154566093272e-08
-9.9216560142193e-09
6.45256942406775e-07
1.39825465162855e-08
-1.22150741988494e-08
9.44260520314709e-07
1.20008819097825e-08
-2.21185122890677e-08
3.53337775677021e-06
1.08162561051629e-08
-1.28606772217485e-07
3.43767445453727e-06
3.11596673876216e-08
-2.02139366494494e-09
9.34193807180383e-07
1.08674244065231e-08
-4.71047401450873e-09
4.93901200236248e-07
7.81520004716511e-09
-5.96804829839017e-09
4.6110290585659e-07
8.14226869162614e-09
-7.17593345250394e-09
8.11808062509016e-07
7.88197937777317e-09
-1.42551604770495e-08
3.34466516465993e-06
6.55867000210887e-09
-5.77228146239426e-08
3.16435811734636e-06
-4.39833980889345e-08
-1.86782332502671e-09
8.45419251647993e-07
-5.12581995443501e-09
-2.14282794937448e-09
4.27946146814322e-07
4.40662565091436e-10
-2.48569076247144e-09
3.2687169485259e-07
2.48969971461645e-09
-2.07680940914252e-09
3.83863573281343e-07
2.80972584860396e-09
-2.27789291064386e-09
7.43864885394299e-07
2.35087101323638e-09
-5.21261417957619e-09
3.09979958365432e-06
1.59582465954819e-09
-3.74764950012264e-08
2.94308131606177e-06
-1.33455721499276e-07
-2.4504334881393e-09
7.81521828010075e-07
-2.54538213250159e-08
-9.15655106186451e-10
3.88853779247309e-07
-9.09488231370212e-09
-2.93535919374012e-11
2.71511827443799e-07
-4.3229605770125e-09
6.31086212937813e-10
2.56728353625624e-07
-2.631093122041e-09
1.12948847689087e-09
3.41155262723202e-07
-2.1111255872349e-09
1.45315290678439e-09
6.7621407485032e-07
-1.87100039396645e-09
4.7712140619429e-10
2.79022420558333e-06
-1.37874958629961e-09
-1.56726642337294e-08
5.98567443460326e-06
1.34304563626806e-07
-1.18367581075932e-07
5.50498614938152e-06
2.11587277743654e-07
-6.9957598561885e-08
5.82217993874532e-06
8.20090534972199e-08
-1.63905017224645e-07
4.6232710728841e-06
2.26221476183758e-07
-3.58037820475229e-08
2.22741029441608e-06
6.72589374398805e-08
-5.53055458431969e-08
4.80982165679277e-06
4.27845313670924e-08
-1.66735541987059e-07
4.10278168611738e-06
2.0379248807998e-07
-1.73521387456522e-08
1.32407136197984e-06
5.16799254684851e-08
-2.61251459107811e-08
1.22206035775069e-06
3.06009572992851e-08
-3.74264284337551e-08
4.05917711807927e-06
2.10511308189826e-08
-1.44169143162429e-07
3.74256478293759e-06
1.58772279392065e-07
-7.20702783337389e-09
1.06372770043659e-06
3.9231361766989e-08
-1.42045278079288e-08
6.42920376394834e-07
2.18744533005468e-08
-1.72946509004974e-08
9.417010273566e-07
1.77852897503214e-08
-2.89158282203566e-08
3.53220712245381e-06
1.30669709135069e-08
-1.4861997751328e-07
3.43478546152393e-06
1.00122767088378e-07
-2.54906612857715e-09
9.33808019626552e-07
2.67903027392741e-08
-7.06121331070139e-09
4.9227211711756e-07
1.54992716102724e-08
-9.80994158598236e-09
4.5915958431651e-07
1.35532673327668e-08
-1.18252152103385e-08
8.10819501754671e-07
1.37497514608867e-08
-2.40668200093912e-08
3.27118995245765e-06
1.63725058573917e-08
-7.15031469868331e-08
3.16473757671498e-06
3.21529271441816e-08
-1.37144990065929e-09
8.45288272162365e-07
1.23924213323121e-08
-3.41730101302276e-09
4.27046270411891e-07
8.989089207617e-09
-4.98371282251091e-09
3.25712352332934e-07
8.80404270288918e-09
-5.47019650815077e-09
3.8233615384026e-07
8.76155167898138e-09
-6.5295627569623e-09
7.39330691096774e-07
8.26809497992572e-09
-1.14315610506302e-08
3.09757219007087e-06
5.7068153420276e-09
-6.12035658635696e-08
2.94907364732458e-06
-4.71476838260354e-08
-2.82863331337448e-09
7.81390528869689e-07
-4.87279509027638e-09
-1.98710884144149e-09
3.8836107774177e-07
8.18233007106609e-10
-2.02737712469658e-09
2.70774071863251e-07
2.69623445710465e-09
-1.95575673609029e-09
2.55808515901798e-07
3.3313099535572e-09
-1.67922883092343e-09
3.40062092556468e-07
3.05338668490941e-09
-1.88784178659204e-09
6.75768082693119e-07
2.41425512216157e-09
-5.58788446028309e-09
2.79185508090373e-06
1.64471665792687e-09
-4.07526540929349e-08
2.80103864464243e-06
-1.51152235568942e-07
-3.14829818398558e-09
7.38312532790823e-07
-2.8358853132001e-08
-9.6298869622084e-10
3.64887268893515e-07
-1.00969907916091e-08
-1.54787129641953e-10
2.42784595102897e-07
-4.73969646491174e-09
3.31212106100521e-10
2.03706247177036e-07
-2.7542938923782e-09
7.31329982046647e-10
2.19604546763418e-07
-2.11975171708137e-09
1.04096814987055e-09
3.10239088889864e-07
-2.00503037316515e-09
1.22596638753234e-09
6.13633874227209e-07
-1.92208382869963e-09
7.96237730070747e-11
2.48853763180755e-06
-1.39605803766261e-09
-1.73429594775638e-08
5.96399967419152e-06
-1.32140023242388e-07
1.53825589057008e-07
5.47158700376149e-06
2.49149685080683e-07
-8.14541951693268e-08
5.79560730874459e-06
9.56722170687465e-08
-1.87462415202895e-07
4.60206433772804e-06
2.76357542858179e-07
-4.35700620919925e-08
2.22475533281903e-06
8.26050145788345e-08
-6.78926996883302e-08
4.79723622256737e-06
5.21070692455998e-08
-2.03424699282886e-07
4.08885619364718e-06
2.62337446735625e-07
-2.21919393446928e-08
1.32142082037865e-06
6.74950341279783e-08
-3.33900666809302e-08
1.21852460355849e-06
3.993403460988e-08
-4.89166863165711e-08
4.0438425761772e-06
2.83850621794996e-08
-1.79787745721438e-07
3.73349367844622e-06
2.22904307190703e-07
-1.00357749587856e-08
1.06139760784958e-06
5.52842478679179e-08
-1.86230923291596e-08
6.3970112086627e-07
3.05023842113505e-08
-2.28075019268052e-08
9.35818678459894e-07
2.42692368543435e-08
-3.47629958322891e-08
3.51769380556015e-06
1.25284614575853e-08
-1.42181134568554e-07
3.42901941978295e-06
1.68506922386121e-07
-3.97389632290782e-09
9.32395873782901e-07
4.32329697321742e-08
-9.79642395412557e-09
4.89825453361599e-07
2.37047489240152e-08
-1.35908524613313e-08
4.56000619053119e-07
1.98355332415276e-08
-1.61869242773693e-08
8.07347368957565e-07
1.80832615273266e-08
-3.0463114478295e-08
3.21571038116157e-06
1.6539964455962e-08
-1.0968869371407e-07
3.16082183941344e-06
1.04849199144756e-07
-8.16520464194573e-10
8.44805974065396e-07
2.93368272606159e-08
-4.61584534106304e-09
4.25437431598447e-07
1.74661662272529e-08
-7.42073746562141e-09
3.2341970254988e-07
1.49762465265603e-08
-8.94217489446792e-09
3.8048946129934e-07
1.47231861106262e-08
-1.09528052903047e-08
7.33022508610985e-07
1.53932234109621e-08
-1.67805522455943e-08
3.09911061265512e-06
1.13127864695036e-08
-8.43519378782772e-08
2.94707380721861e-06
3.53392847842405e-08
-1.18759509003426e-09
7.80621798042168e-07
1.42531563291872e-08
-2.46814213187513e-09
3.87178824196718e-07
1.03737656895814e-08
-3.62101173080429e-09
2.69277355421924e-07
9.63883189859777e-09
-4.32271798940089e-09
2.54136353514089e-07
9.49635675160833e-09
-4.53261387210537e-09
3.37890020381721e-07
9.07375682932898e-09
-5.16307204802605e-09
6.73768928250689e-07
7.942613601814e-09
-1.16715028817789e-08
2.79199019432417e-06
5.61780974008939e-09
-6.69594838726497e-08
2.80438445439303e-06
-4.6263037128313e-08
-4.22829313716939e-09
7.37175375920369e-07
-4.45197630976758e-09
-2.11339819705382e-09
3.64039599089935e-07
1.27376022266047e-09
-1.59496340452402e-09
2.41845564997998e-07
3.11948224717307e-09
-1.51159088433179e-09
2.02622170277435e-07
3.77250742553028e-09
-1.31310017283321e-09
2.18411064168924e-07
3.69398734992714e-09
-1.12576496139426e-09
3.09103875412667e-07
3.18965746590032e-09
-1.52731609108469e-09
6.13259778663052e-07
2.21326425110498e-09
-5.78572043287991e-09
2.48958195832425e-06
1.6966584577399e-09
-4.35000630104324e-08
2.7546185662243e-06
-1.77897543488543e-07
-2.99514182979593e-09
7.13798404241789e-07
-3.36244621067924e-08
-3.4036875857974e-10
3.52352580656587e-07
-1.13982087942265e-08
7.92427159242118e-11
2.28578806659368e-07
-5.16130277675155e-09
3.5180092414756e-10
1.78426663627013e-07
-2.84961398975895e-09
6.41292084384231e-10
1.6930854890783e-07
-2.05907691590843e-09
8.90447371431703e-10
1.98567866770943e-07
-1.94717674039731e-09
1.10393776908141e-09
2.88406064467263e-07
-2.04955083796492e-09
1.26568154113658e-09
5.61564160461205e-07
-2.07255109746268e-09
1.29750971533406e-10
2.21290429549716e-06
-2.00985565457945e-09
-1.73558904693534e-08
5.93549414845843e-06
-1.44826341024865e-07
1.7333171255927e-07
5.76254823185692e-06
-2.08014614343659e-07
1.08938665810653e-07
5.43111335442371e-06
-9.21509834832683e-08
2.86455978171522e-07
4.57589210757618e-06
3.26416074789464e-07
-5.10864419351072e-08
2.2210742943108e-06
9.76192639517322e-08
-7.97132525808741e-08
4.78147541757008e-06
6.07814818987171e-08
-2.32476728888173e-07
4.07127138067896e-06
3.20938653793729e-07
-2.69956975333744e-08
1.31802319091685e-06
8.31215384603925e-08
-4.06867054883267e-08
1.21544834775505e-06
4.88958562069398e-08
-6.16075575854303e-08
4.04154866460776e-06
3.61260973425769e-08
-2.37257867196375e-07
3.72155319458588e-06
2.87201542834136e-07
-1.29244406964437e-08
1.05820870127157e-06
7.17042112871544e-08
-2.32137534447374e-08
6.36143311327678e-07
3.93496796825701e-08
-2.92483375818739e-08
9.29998987492964e-07
3.16613203177475e-08
-4.63750397008447e-08
3.50298108256658e-06
2.0106865799462e-08
-1.85184680643657e-07
3.42090776212307e-06
2.36741958355086e-07
-5.73006425960205e-09
9.3000832556402e-07
6.03890613103027e-08
-1.27542147900415e-08
4.86719127705238e-07
3.23970592194514e-08
-1.74122058942956e-08
4.51480550556732e-07
2.63915366565628e-08
-2.04087817264813e-08
7.9777323984611e-07
2.09621318434462e-08
-3.36272401642849e-08
3.2528530530277e-06
3.43665950982671e-09
-1.82763976249159e-07
3.15459623962036e-06
1.76126615187537e-07
-1.40157143336943e-09
8.43565008754508e-07
4.6714713016599e-08
-6.21582321583037e-09
4.23149738261444e-07
2.62066781356616e-08
-1.0009190505877e-08
3.2039066438975e-07
2.14481756605342e-08
-1.21741973708643e-08
3.77147231905136e-07
2.01075125192276e-08
-1.48705841910395e-08
7.26179377796724e-07
1.87254445136141e-08
-2.5806449167203e-08
3.09695151682457e-06
1.4450720942412e-08
-1.21988504913562e-07
2.94076743080863e-06
1.10296578952529e-07
8.54275349149657e-10
7.7997804178091e-07
3.17482827561342e-08
-2.58560308483013e-09
3.85601101462084e-07
1.95529120411119e-08
-5.12629349315953e-09
2.67070399838688e-07
1.64348813256453e-08
-6.67221153040438e-09
2.51832791380899e-07
1.55403483711415e-08
-7.45577735630934e-09
3.35668120423679e-07
1.51552001579546e-08
-8.49329138422773e-09
6.72298850657306e-07
1.40217368752257e-08
-1.80217388618353e-08
2.7948657096594e-06
9.22780023987996e-09
-9.64584246676534e-08
2.79714392788927e-06
4.51520206730196e-08
-2.5737359891807e-09
7.35329416835706e-07
1.70547175555473e-08
-2.14753604713724e-09
3.62523892198418e-07
1.20000063972881e-08
-2.57899095595271e-09
2.4020107792697e-07
1.07744655607834e-08
-3.11246910193123e-09
2.00847634925275e-07
1.02782933663308e-08
-3.33049418114931e-09
2.16530541964827e-07
9.7805856464549e-09
-3.3582975936383e-09
3.07158296181573e-07
9.10264530411234e-09
-4.37695331017658e-09
6.11851513460556e-07
7.29993820846967e-09
-1.19469631984446e-08
2.48822939595791e-06
5.91282983591518e-09
-7.15171186040422e-08
2.7592680758311e-06
-4.27051326452148e-08
-8.21061714175277e-09
7.11297802873362e-07
-3.90348405589234e-09
-2.27759059794386e-09
3.51061572715887e-07
1.69263342275629e-09
-1.24273658461303e-09
2.27489922068977e-07
3.61715003891022e-09
-1.00417685096883e-09
1.77274959908553e-07
4.25522804273841e-09
-8.42050662225391e-10
1.68111972574158e-07
4.24150119812378e-09
-6.6384754068251e-10
1.97322506175222e-07
3.8630905763527e-09
-5.54043913283688e-10
2.87277124630958e-07
3.08137466865688e-09
-1.26707202673922e-09
5.61084370841877e-07
2.07132676753909e-09
-5.68123119454547e-09
2.21286088775234e-06
1.42922562094777e-09
-4.48840312800397e-08
2.81015626188553e-06
-1.64389880040336e-07
1.41161772392474e-08
7.10614816886759e-07
-4.15583274503086e-08
-2.94487392233688e-10
3.48994081827361e-07
-1.29480897436842e-08
5.85201493715126e-10
2.23988005653481e-07
-5.61792503043924e-09
5.98565383647215e-10
1.67656821087385e-07
-2.95631490616343e-09
7.66121485532874e-10
1.46203716942415e-07
-1.99958527768872e-09
9.45289292706746e-10
1.52053269068787e-07
-1.82238388399006e-09
1.09843844680007e-09
1.8788842061717e-07
-1.98654026477929e-09
1.29126405369207e-09
2.74879045269652e-07
-2.24776511635365e-09
1.45146808693094e-09
5.29283839603427e-07
-2.44540850670689e-09
2.22367408889642e-10
1.96534072743807e-06
-2.74905360054624e-09
-1.57076805090915e-08
5.89851048684379e-06
-1.55798110474369e-07
1.92783934755362e-07
5.72302924788002e-06
-2.26950653619447e-07
1.21648016487526e-07
5.38267870660937e-06
-1.01858146195314e-07
3.23643978858706e-07
4.75965483686069e-06
-2.55069980239162e-07
6.88872427253034e-08
2.21614051032426e-06
-9.05349189049701e-08
1.12252303675868e-07
4.54417970854539e-06
-5.83070786802408e-08
3.76478221807932e-07
4.04972250346511e-06
3.79678507409668e-07
-3.17077181596402e-08
1.31375240048762e-06
9.84540830601214e-08
-4.76428064217926e-08
1.21195317416809e-06
5.73038586088044e-08
-7.27379978143191e-08
4.03756208081321e-06
4.24240415081076e-08
-2.70920144149011e-07
3.70651552988323e-06
3.51756710180095e-07
-1.57650841181486e-08
1.05413847284901e-06
8.80405817424122e-08
-2.7840295438123e-08
6.32421649275449e-07
4.79030386700499e-08
-3.59715402209851e-08
9.26918610830034e-07
3.9135876520642e-08
-6.15378758987981e-08
3.49615466986444e-06
3.32757976938178e-08
-2.63702288876491e-07
3.41055504502796e-06
3.05270947317825e-07
-7.71097274310149e-09
9.26631850780547e-07
7.8025532877505e-08
-1.58678128723981e-08
4.83093596213779e-07
4.12545488092195e-08
-2.14950039626012e-08
4.46798163337101e-07
3.32162390488591e-08
-2.61199561770411e-08
7.88929927252494e-07
2.74249562537596e-08
-4.4847826817255e-08
3.28007858376415e-06
1.32618912345538e-08
-2.25681798147318e-07
3.14705494773931e-06
2.46939820643983e-07
-2.65233016618947e-09
8.41371231631956e-07
6.50157220976012e-08
-8.16184711976363e-09
4.20205833766983e-07
3.53266186184792e-08
-1.27416456575325e-08
3.16604311576793e-07
2.81160319128734e-08
-1.53508019274952e-08
3.71038584847989e-07
2.50464248081838e-08
-1.83862058878203e-08
7.17345854006147e-07
1.80399723354966e-08
-3.94008347416938e-08
3.07742169956869e-06
1.37269683776735e-08
-1.76961967847112e-07
2.93280462115368e-06
1.82449286744194e-07
1.64266649634074e-09
7.78990855252265e-07
4.95505178603521e-08
-3.2521616251136e-09
3.83522146810059e-07
2.88601363254992e-08
-6.7900668764947e-09
2.64247115428394e-07
2.32705252585737e-08
-9.00943837372538e-09
2.48629310624377e-07
2.14037466581237e-08
-1.02676607942137e-08
3.32059488601626e-07
2.01159773031317e-08
-1.26530276539144e-08
6.68797011946101e-07
1.84197106840341e-08
-2.62754697180225e-08
2.79280417561022e-06
1.27642191826729e-08
-1.32693543749115e-07
2.78572677176311e-06
1.19210660321959e-07
2.5015676987397e-09
7.34321945026234e-07
3.48708889991446e-08
-1.26302233298717e-09
3.60906946649287e-07
2.18442140089469e-08
-3.26119692489193e-09
2.3803073012923e-07
1.8138538300631e-08
-4.66024441058707e-09
1.98455943456426e-07
1.66277595391516e-08
-5.36859204095509e-09
2.14193858182849e-07
1.57382160908165e-08
-5.70244242148547e-09
3.05045325050383e-07
1.50412340365188e-08
-7.39952263830969e-09
6.09736781745912e-07
1.21491736767867e-08
-1.88310819505965e-08
2.48517108068933e-06
9.67665776744136e-09
-1.03083538375559e-07
2.74756171086927e-06
6.37058108417281e-08
-6.84933903852925e-09
7.07195125181084e-07
2.12441561987327e-08
-2.6627066709691e-09
3.4899723693111e-07
1.38761610329823e-08
-1.95949288122462e-09
2.25670483202305e-07
1.20976095410913e-08
-2.08388130972077e-09
1.75460965032635e-07
1.12444873982253e-08
-2.26489780814001e-09
1.66268331001211e-07
1.05666287369451e-08
-2.27347712157121e-09
1.95444709965348e-07
9.93175727694361e-09
-2.3106565222116e-09
2.85473243449743e-07
8.7527084509667e-09
-4.0263542521264e-09
5.5952954590547e-07
7.35426946609723e-09
-1.1836712861415e-08
2.20971754761652e-06
6.11246742686126e-09
-7.44902256395053e-08
2.86888096373291e-06
-8.37072194435815e-08
-1.77166999354177e-08
7.06549672372145e-07
-4.46740267345926e-09
-3.58028699658012e-09
3.47159097386336e-07
2.13026196245386e-09
-8.80666897978159e-10
2.22749835470744e-07
4.11834921233744e-09
-5.05586133133156e-10
1.66463423012486e-07
4.77857128536444e-09
-3.34639738473359e-10
1.45026259040504e-07
4.76777458879679e-09
-1.91115882345287e-10
1.50856512178805e-07
4.43746988122303e-09
-4.18304949097102e-11
1.8666431516078e-07
3.84731560734522e-09
-9.52122214030423e-11
2.73685230869604e-07
2.98112959839507e-09
-9.82944348695913e-10
5.28657307413679e-07
1.94854929862721e-09
-5.57440247504479e-09
1.96425130129457e-06
1.15931406838479e-09
-4.49501707025616e-08
2.82409639801869e-06
-1.31709362251927e-07
1.68460282350017e-08
7.30986329487374e-07
-3.83269411700042e-08
6.57241349630576e-09
3.54220718469223e-07
-1.5374785404433e-08
6.34408348160536e-10
2.26185070902356e-07
-5.98397785038234e-09
9.0412891858255e-10
1.65828071665534e-07
-3.04271962966711e-09
9.86694419608932e-10
1.37160258174947e-07
-1.94653511303617e-09
1.11625142958959e-09
1.30943306168958e-07
-1.69964597221589e-09
1.22546569684929e-09
1.4541928505786e-07
-1.85750042710719e-09
1.33616391721188e-09
1.84581488931141e-07
-2.19382577265984e-09
1.52462231236601e-09
2.72349954082108e-07
-2.58867786897441e-09
1.61439645477485e-09
5.44217000989311e-07
-3.05253676257368e-09
2.85120141104328e-10
1.57174654884574e-06
-3.12914049895865e-09
5.85083934339332e-06
-1.64432951811434e-07
2.12103177065411e-07
5.67663540635817e-06
-2.42966844347918e-07
1.33572253120393e-07
5.32502043472973e-06
-1.10122072397166e-07
3.60573163636485e-07
4.7339469851441e-06
-2.77140551382287e-07
7.59016955044105e-08
2.20974459903568e-06
-1.00023330717175e-07
1.26204911366414e-07
4.50607742914485e-06
-6.49812708621275e-08
4.26730269522487e-07
4.02394059594334e-06
-2.89384008518125e-07
4.79377612419124e-08
1.20762677591739e-06
-8.24643247243834e-08
6.51459097361654e-08
1.30851993714615e-06
-5.41848876581865e-08
1.13372402618965e-07
4.02378100371959e-06
-3.62559136007049e-08
4.38680893619907e-07
3.68815391306672e-06
4.16545400619214e-07
-1.85069426738556e-08
1.04917039827258e-06
1.04068497482062e-07
-3.23494325929275e-08
6.2824463245454e-07
5.59953433412967e-08
-4.21574866421998e-08
9.2385861695892e-07
4.54281549704401e-08
-7.26822985051875e-08
3.48682895480884e-06
3.90355011571676e-08
-3.00631721055739e-07
3.39751696987717e-06
3.7444217030918e-07
-9.64720959837858e-09
9.22235392856291e-07
9.56603912027895e-08
-1.89879560208558e-08
4.78979629344084e-07
4.98710737393858e-08
-2.56940032820662e-08
4.42797081156196e-07
3.99092138363748e-08
-3.27445830369369e-08
7.8614148530743e-07
3.63391772371404e-08
-6.18126603502101e-08
3.2060682107443e-06
4.03384401168366e-08
-2.30026608064702e-07
3.13819217955785e-06
3.18389929351076e-07
-4.25815629259931e-09
8.38022547248683e-07
8.40373728201795e-08
-1.03739301692541e-08
4.16599769046806e-07
4.46206114241935e-08
-1.56278713271326e-08
3.12418497851719e-07
3.48278593502414e-08
-1.89210451975795e-08
3.64906470422951e-07
3.09761168820383e-08
-2.35406761711826e-08
7.0906309237613e-07
2.47642541276309e-08
-4.80663513203893e-08
3.05052603706428e-06
1.99154223766264e-08
-2.18700216449279e-07
2.92553522254372e-06
2.53488362695982e-07
7.27042263666166e-10
7.77188192761609e-07
6.86808664096346e-08
-4.51472370955893e-09
3.80801545422641e-07
3.85513353061715e-08
-8.66741942103348e-09
2.60830275192201e-07
3.01774278449674e-08
-1.13865573519447e-08
2.44234115175298e-07
2.71317942238128e-08
-1.30414854934434e-08
3.2522755064841e-07
2.41231223172088e-08
-1.76368137786323e-08
6.58842036709975e-07
2.09802416936091e-08
-3.67019665500502e-08
2.77479230628311e-06
1.70860169838361e-08
-1.76036976017841e-07
2.77391130515573e-06
1.89473512772663e-07
4.78975377742899e-09
7.33697446357239e-07
5.27089521302454e-08
-8.94579113870129e-10
3.59016520156738e-07
3.16396784820553e-08
-4.14159742612739e-09
2.35364577869346e-07
2.54073850651252e-08
-6.2615544581063e-09
1.95413121643947e-07
2.28411596219702e-08
-7.40424426877316e-09
2.10921910330246e-07
2.13587459433872e-08
-8.23820685474046e-09
3.0163298377087e-07
2.02336311489283e-08
-1.10556079263063e-08
6.05759705238869e-07
1.68344127536779e-08
-2.63692428647143e-08
2.4782200135823e-06
1.37095914116394e-08
-1.39454239773713e-07
2.72642389104107e-06
1.36929028676179e-07
3.41933942996253e-09
7.05490448220104e-07
3.97625571498432e-08
-6.88487228691727e-10
3.47160271655321e-07
2.44664404734734e-08
-2.04969120273583e-09
2.234601412251e-07
2.01040980046503e-08
-3.0170365488485e-09
1.73087037543666e-07
1.80174668176439e-08
-3.67660881215293e-09
1.63845128517631e-07
1.67434775545276e-08
-3.95079891268277e-09
1.9307445133066e-07
1.59149653193985e-08
-4.20581644676979e-09
2.82909001840344e-07
1.43209623642359e-08
-7.0069943407437e-09
5.56750947550394e-07
1.21865642699203e-08
-1.85632371799614e-08
2.20392061487987e-06
1.01749317215268e-08
-1.07463263710431e-07
2.93129437570326e-06
2.57644768672571e-08
-2.44716565552755e-08
6.99068358312731e-07
2.57703686947753e-08
-3.89564537366129e-09
3.4419733574494e-07
1.58367428496938e-08
-1.66110020253062e-09
2.20683624151242e-07
1.35041226740953e-08
-1.29971448746988e-09
1.64594611710404e-07
1.23617610412888e-08
-1.33191538631902e-09
1.43212590429804e-07
1.1467108479978e-08
-1.35170568380908e-09
1.49035430741782e-07
1.07436059296654e-08
-1.2645129167381e-09
1.84818979622031e-07
9.88786051036537e-09
-1.59979515251346e-09
2.71915779368733e-07
8.7498935465067e-09
-3.65240538712423e-09
5.26945443758434e-07
7.7431459748625e-09
-1.175599255688e-08
1.9596636439674e-06
6.47296573620672e-09
-7.63803914204885e-08
2.82977889784094e-06
-8.30312073645234e-08
-6.3552156935522e-09
7.30099466640846e-07
-1.44971577754462e-08
-6.79775348110534e-09
3.51666178233615e-07
2.15444633344117e-09
-1.04949798715911e-09
2.24789933657333e-07
4.69306929099283e-09
-6.11644972600328e-11
1.64599211974099e-07
5.3439976905305e-09
1.57621946529099e-10
1.35996057513354e-07
5.31068761537696e-09
2.86539191851331e-10
1.29808238289617e-07
4.97376115535958e-09
4.07645040205122e-10
1.44264809638414e-07
4.46821863431831e-09
4.91678534875992e-10
1.8338663479695e-07
3.77200465670232e-09
3.09204828420732e-10
2.71086567262953e-07
2.96492546916616e-09
-7.35998662680509e-10
5.43323631512856e-07
2.02621703501068e-09
-5.54962916192831e-09
1.56987843512313e-06
2.70125417526053e-09
-4.57853476435731e-08
3.06509873143763e-06
-1.65679288264998e-07
4.05364541089085e-09
7.43221300457645e-07
-3.07473605823435e-08
7.23462606592577e-09
3.68046173179339e-07
-1.46389323395934e-08
2.96227737267269e-09
2.33712390524327e-07
-6.64839226963526e-09
1.05818298123292e-09
1.69942367141081e-07
-3.07694543036522e-09
1.19970144429734e-09
1.36544090134205e-07
-1.89377964741978e-09
1.3247378302335e-09
1.2309332362887e-07
-1.59522590465411e-09
1.41820395298283e-09
1.26145836965026e-07
-1.72966260063165e-09
1.48120235954583e-09
1.45690018562306e-07
-2.07484144900818e-09
1.56712610940937e-09
1.87526947113969e-07
-2.52492509153488e-09
1.68812703245613e-09
2.86911066816748e-07
-3.05035322027856e-09
1.60568134503947e-09
7.11150643176167e-07
-3.6057771768486e-09
5.78960496461936e-06
-1.70607354046476e-07
2.31834451185857e-07
5.62186110040967e-06
-2.54547952310958e-07
1.44894805792099e-07
5.25663508529234e-06
-1.17008707728828e-07