/*--------------------------------*- C++ -*----------------------------------*\
  =========                 |
  \\      /  F ield         | OpenFOAM: The Open Source CFD Toolbox
   \\    /   O peration     | Website:  https://openfoam.org
    \\  /    A nd           | Version:  12
     \\/     M anipulation  |
\*---------------------------------------------------------------------------*/
/*   Windows 32 and 64 bit porting by blueCAPE: http://www.bluecape.com.pt   *\
|  Based on Windows porting (2.0.x v4) by Symscape: http://www.symscape.com   |
\*---------------------------------------------------------------------------*/
FoamFile
{
    format      ascii;
    class       volScalarField;
    location    "300";
    object      k;
}
// * * * * * * * * * * * * * * * * * * * * * * * * * * * * * * * * * * * * * //

dimensions      [0 2 -2 0 0 0 0];

internalField   nonuniform List<scalar> 
10107
(
7.0323393284306e-05
2.90814996673542e-05
0.000334880250702209
5.14943976340677e-05
9.37420594425976e-06
0.000175468892752662
1.63395738986437e-05
0.000372110787247784
0.000338452296154949
0.000250500332363113
1.72196183425689e-06
5.34682368011227e-05
7.14840503229727e-06
0.000246817931704275
0.000182593719136258
2.28247780247946e-05
0.000123736883248741
0.00038980981929589
0.000535396400544766
0.000372730160442467
0.000346810605688571
0.00040239471870192
0.00033641877415024
0.000311398289875058
0.000328250263176318
1.21439635065671e-06
6.46675048823522e-06
0.000112523424528539
4.73679902698159e-05
5.46947999158181e-06
0.00026894620969957
0.000239409047174185
0.000134809125383332
0.000194924494623751
0.00024902952032714
1.99678632031859e-05
0.000148657900277275
0.000163966833911668
0.000234792967659238
0.000401806201062037
0.000535818621243794
0.000383917460909918
0.000675435643675515
0.000539834116718016
0.000371858319178485
0.000313209629790028
0.000358125585809482
0.000410647991265529
0.000366215373001869
0.000320475721932064
0.000339807873371098
8.44726016237183e-07
5.11188008662667e-06
1.56957431651932e-05
0.000141734831272469
0.000105505534994014
3.93034609020072e-05
4.86443747003669e-06
0.000276546170614782
0.000256060550782325
0.00019968240724773
0.000266722005307276
7.41338662627828e-05
3.29065581224477e-05
0.000344511692816199
0.000254105567073703
0.000292342122249802
0.000405193803878365
0.000539044063250546
0.000393216634529353
0.000672839883076951
0.000534135984593248
0.000358287736851199
0.000791910824800676
0.00067436820640383
0.000524970343679839
0.000310530174079641
0.000360076229859059
0.000372796316314466
0.000348039776097558
7.45543244845593e-07
4.2194558566912e-06
1.32041940946314e-05
2.27722053473206e-05
0.000152200557724298
0.00012875511819472
7.23044117383152e-05
8.66319884817262e-06
0.000276883943348089
0.000261908049771293
0.000210775310594438
0.000101919396374219
7.31569875987088e-05
0.000331045474520715
4.00215301166179e-05
0.0003022686262476
0.000403476326553867
0.00053842945519144
0.000396039513639681
0.000669871096247093
0.00053562213686547
0.000367605217942457
0.00079009461745005
0.000671353593143345
0.000525131017400444
0.000333244582273367
0.000895080854641323
0.000790051848867571
0.000667285104043472
0.000517738954623658
9.44706364024934e-07
7.65227777481469e-06
1.9084942030822e-05
2.63710936706393e-05
0.000153457828045756
0.000136384152691389
8.53714928039024e-05
1.10334926915836e-05
0.00027268479345275
0.000261770456562859
0.000214435863606225
0.000103032870228941
9.88218450563654e-05
0.000339818060675303
7.35080887979241e-05
4.15512235916398e-05
0.000397950596976264
0.000534616928351368
0.000394172217200403
0.000666228731025989
0.000534906215608053
0.000369805829176915
0.000786844509853693
0.00066822748689844
0.000527996219331589
0.000337188880087254
0.000894117766575277
0.000788282501186758
0.000665241086176743
0.000517840124043686
0.000338355027632903
0.000892705328217164
0.000783156751859781
0.000656083272331172
0.000508867489820786
9.52894013314606e-07
9.48629014644817e-06
2.13319632757901e-05
2.63111818470309e-05
0.000150432342370671
0.000137013586746121
8.98835516180991e-05
1.1943216596531e-05
0.000265072289987876
0.000257485049745055
0.000213784262828744
9.58613512129511e-05
0.000101379758253764
0.000333989354937738
9.77899095508158e-05
7.35147958635051e-05
4.16858888980815e-05
0.000389142526038758
0.000527946187628985
0.000388621321258531
0.000660840260058732
0.000531134896358067
0.000367602924694742
0.000782270476494945
0.000664681260649807
0.000527313568356126
0.000337483666578253
0.000891386795487329
0.000785090298627518
0.000662825757190046
0.000518170687597367
0.000337360432162784
0.000891804159925753
0.00078173559412068
0.000655160346155454
0.000508026680942491
0.000332439625270035
0.000884961370618893
0.000770739637548381
0.000641293096081872
0.000495090357951951
9.87385749066781e-07
1.0207219426693e-05
2.11924772525606e-05
2.53339876423822e-05
0.000144423291866143
0.000133874302716151
8.99104860240481e-05
1.20952193188907e-05
0.000254199052784779
0.000249945339222977
0.000209577179403482
8.65545389067547e-05
9.48861045900196e-05
0.000319905009131799
9.97824899191732e-05
9.61778827877268e-05
7.24889737715401e-05
3.99924264808985e-05
0.00037707381489378
0.0005185854054601
0.000379848743875864
0.000653374373742197
0.000524523767029603
0.00036195832240676
0.000776110080038052
0.000659393623745215
0.000523504910774472
0.00033448613483865
0.000886704875151482
0.000780597471883329
0.000659547659307808
0.000516565422485037
0.000335180994126811
0.000986538293580094
0.000889127224323012
0.000778880694151305
0.000653309224700708
0.000506655010919367
0.000330520535174938
0.000884234678643893
0.000769826501512131
0.000640530894519445
0.000494025361727823
0.000318661126462063
0.000871161960989759
0.000752937180986989
0.000621980035070457
0.000475730255821734
9.25717198415273e-07
9.88869284873368e-06
2.00834270535868e-05
2.30894663947233e-05
0.000136063562273888
0.000128192706066703
8.72492553290534e-05
1.15692826262435e-05
0.000238833574376711
0.000239356451919637
0.000202393905282068
7.67950317164102e-05
8.58061478084556e-05
0.000301600530822558
9.36740409640017e-05
9.79616916584017e-05
9.36396637051809e-05
6.90511799793957e-05
3.7624835616693e-05
0.000361023225545725
0.000506603364896784
0.000367968374168043
0.000643820351054889
0.000515253950420278
0.00035335321387535
0.000768143747964483
0.000652014490645916
0.000516959500158707
0.000328712806388871
0.000880212228128174
0.000774518819987397
0.000654403906080925
0.000512447649990199
0.000331282008678937
0.000981843051006801
0.000884508571052666
0.000774618959083057
0.000650102701028936
0.000503964150296286
0.000327737285580579
0.0010742674561989
0.000983833238128822
0.00088173446264313
0.000767421849395984
0.000638613726462209
0.000492110825507151
0.000316765103678297
0.000870698240658911
0.000752323864759386
0.000621214804063498
0.00047472288804783
0.000300547357132669
0.000851342760055721
0.000730162659232934
0.000598118860756612
0.000452082879412122
8.58825898244425e-07
9.23497551865671e-06
1.84146132941344e-05
2.0752674039979e-05
0.000123313469029052
0.000120219132605433
8.24451879162634e-05
1.04397974386059e-05
0.000214205046035934
0.000225164362052257
0.000192422236128762
6.70715176261983e-05
7.61180919600649e-05
0.000280932560310127
8.48387670408674e-05
9.2033354232724e-05
9.54444918939054e-05
9.00726709623258e-05
6.55110081967596e-05
3.40380333341331e-05
0.000339482106517296
0.000492100287293826
0.000352489241675556
0.000632404023175111
0.000503411878875408
0.000342017775226475
0.000758362922194735
0.000642551679534655
0.000507899905179259
0.000320653644200508
0.000871874766877691
0.000766626876234937
0.000647171136297696
0.00050595437750772
0.00032563197562107
0.000975163209931935
0.000878076505130489
0.000768706469962216
0.000645030175982611
0.000499490181737514
0.000323733180051261
0.00106969818496805
0.000979203376061705
0.000877278214087682
0.000763435985382053
0.000635264328351562
0.000489013227286342
0.000314004475424107
0.00115607094129512
0.00107126069000629
0.000975414068923847
0.000868467464420321
0.000750202079301525
0.000619228080761034
0.00047275436130151
0.000298810246287068
0.000851113012745605
0.0007296872736553
0.000597405425884847
0.000451176322208255
0.000279971984793631
0.000826084995810792
0.000702810258792062
0.000570136715372074
0.000425235515397023
7.58349948828453e-07
8.37856166299794e-06
1.6375758367111e-05
1.70287153406759e-05
0.000101400805268301
0.00010913523246113
7.58491920143087e-05
9.13524263588536e-06
0.000162732618203708
0.000204891469473696
0.000180343630841278
5.74442330667722e-05
6.64399222178598e-05
0.000258685395972212
7.52912938194194e-05
8.347498557743e-05
8.99014896986299e-05
9.23545359859868e-05
8.6040919437856e-05
5.98940701561182e-05
3.11870753201012e-05
0.000309645439651393
0.000476245824029198
0.000331191713614912
0.000619756563943435
0.000489056724930489
0.000328235993904496
0.000746982439379414
0.00063123308041675
0.000496485811875297
0.00031017621041916
0.000861709775257134
0.000756915251584681
0.000637896590293136
0.000497252456377996
0.000318383247505188
0.000966494070747645
0.000869795620229163
0.000760963122461768
0.000637967218111195
0.000493143891855969
0.000318473552006855
0.00106291511429305
0.000972575200937094
0.000870986664462259
0.000757721690469591
0.000630210935005168
0.000484478754650207
0.000310255189982181
0.00115165686483421
0.00106675183688946
0.000970913959248811
0.000864245778061561
0.00074641830945357
0.000615830522855125
0.00046965527923565
0.000296274884556494
0.00123280877260635
0.00115284833481634
0.00106204210306603
0.000960638598745348
0.000849136025516516
0.000727716589275903
0.000595459198537582
0.000449305136277685
0.000278397825273779
0.000826022822080977
0.00070243492680898
0.000569507995142791
0.000424422235784016
0.000257795903975808
0.000795967592989257
0.000671235721192167
0.000538557743775433
0.000395812376448181
6.7312242450956e-07
7.34470328672386e-06
1.3787700713105e-05
1.24949365368877e-05
5.9212739170946e-05
9.14472374391895e-05
6.74030884529307e-05
7.85633537103328e-06
3.63391669527124e-05
0.000159607158727976
0.000166692797939624
4.793763226197e-05
5.68753009721442e-05
0.00023509385786461
6.56916571365468e-05
7.41397088585621e-05
8.16911070204773e-05
8.73007617207156e-05
8.88193948784954e-05
8.11479448841447e-05
5.49175234747072e-05
3.10670645889241e-05
0.000289749217580183
0.000462417178691309
0.000310110720874353
0.00060735578495113
0.000472384463869102
0.000313509068255201
0.000734469901946128
0.000618701923000492
0.000483045056233706
0.000297801098714142
0.000849836835927548
0.000745593279737158
0.000626814718282834
0.000486471097660967
0.000309583913691861
0.000955843209746427
0.000859679930839543
0.000751396020166707
0.000628968458969489
0.000484994870173227
0.000311998537450869
0.00105394411225121
0.000963951053753678
0.000862832998335704
0.000750176880157182
0.000623354804534896
0.000478424722635541
0.000305469427160575
0.00114481253249928
0.00106001424848052
0.000964404502575861
0.000858156473272608
0.000740895906045646
0.000610873384086823
0.000465297840766659
0.000292866738577764
0.00122856223645092
0.0011484899452703
0.00105764107751088
0.000956326455297262
0.000845154857099123
0.000724091074791963
0.000592149551141777
0.000446368816244905
0.00027609765981662
0.00130498141446042
0.00122941419892464
0.00114298704968075
0.00104601863083873
0.000939491634561304
0.000824243379964734
0.000700592746844588
0.00056767093249478
0.000422690184287188
0.000256348640178308
0.000796034280421092
0.000670961734419978
0.000538025455779931
0.000395092725869295
0.000234281911545339
0.000761369624554818
0.00063574665586906
0.000503776907031886
0.000364098699614539
6.04413085075609e-07
6.12657342509664e-06
1.01508820259572e-05
5.76399914104683e-06
1.24795996937673e-05
5.3601249840829e-05
5.48063130433482e-05
6.99602736097371e-06
5.30685557266121e-05
3.48059264509084e-05
0.000149808331494179
0.000148290508587008
3.86329615036493e-05
4.74551296628523e-05
0.000210165285484821
5.62057141559074e-05
6.4681834408986e-05
7.26314136564631e-05
7.95145728961428e-05
8.43457278789633e-05
8.49197780864231e-05
7.65198262530018e-05
5.11966047755088e-05
2.37940721097016e-05
0.000283256571622687
0.000454015795957646
0.000286293961973141
0.000596502247576043
0.000463080635921213
0.00028308312665196
0.000306582310370571
0.000721366389664528
0.000606711230029857
0.000468980987121368
0.000305767645840171
0.000283747802327169
0.000836440322308789
0.000733136119191021
0.000614567915771366
0.000473758845419196
0.000299909529371005
0.000943252025293713
0.000847843122588951
0.000740197868130198
0.000618228544449571
0.000475182591008893
0.000304485922639038
0.00104278547186827
0.000953337916407072
0.000852830555823481
0.000740821006513624
0.000614729043201989
0.000470890164775907
0.000299687574607983
0.00113557083790124
0.0010510819858327
0.000955889595902182
0.000850191448090947
0.000733586696059387
0.000604293839371917
0.000459633237956847
0.000288556682721104
0.00122168665507673
0.00114168644772031
0.00105100681628482
0.00094999751624974
0.000839296115465494
0.000718773629029718
0.000587393049462252
0.000442293846786598
0.0002730155162978
0.00130091918501771
0.00122521947462213
0.00113872159941567
0.00104177171718377
0.000935397233126288
0.000820482516546225
0.000697139778449646
0.000564533417470403
0.00041996811956289
0.000254251333640497
0.0013728638026183
0.00130143813857831
0.00121900753060552
0.00112590354302318
0.00102328176609986
0.000912523653112571
0.00079442106596102
0.000669261151344445
0.000536332289545089
0.000393511394759491
0.000232962961799685
0.000761550565955115
0.000635579080889747
0.000503350531677661
0.000363483189425038
0.000209448352160983
0.000722546409865599
0.000596604616395861
0.000466039172455015
0.000330190764568074
5.78475892663161e-07
4.38321575725269e-06
4.95432763973048e-06
1.21859735224199e-06
1.15373545821993e-05
3.07468210282648e-05
4.35294270430281e-06
5.77616938519011e-05
3.99006299596007e-05
1.9733529727584e-05
0.000199160112488257
0.000105904827897277
0.000112506729633584
0.000200759954615395
0.000111820978402261
2.97368567512473e-05
3.82843805946114e-05
0.000183837715374259
4.68859592048063e-05
5.53152625575852e-05
6.33906981894545e-05
7.08013108569604e-05
7.70361848221764e-05
8.11138593355234e-05
8.10540796104905e-05
7.20014849128891e-05
5.35158731342023e-05
0.000265493380263796
0.000440020984412952
0.000281764350846757
0.000584838680135125
0.000460514322711168
0.000283882008933473
0.000199796901960046
0.000338182283803915
0.00070752751493541
0.000596526464066176
0.000464309031435914
0.0002744142390798
0.000238332012148286
0.00034220471557463
0.000288487928194551
0.000821606057172169
0.000720100315286172
0.00060294871214257
0.000459208600535114
0.000234687022744497
0.000293672067049458
0.000290575929581513
0.000278346186322385
0.000928760288741767
0.000834464512567913
0.000727807767383883
0.000606211658404745
0.000463995465274175
0.000296512873654209
0.00102944185635922
0.000940773432381368
0.000841078764647389
0.000729807487681816
0.000604475912292335
0.000462027573468818
0.000293097304787696
0.00112392727424647
0.0010399566439379
0.000945374348003661
0.000840365267527346
0.00072451092528657
0.000596114969714508
0.000452700361621247
0.000283379601342968
0.00121220758614877
0.00113248029204088
0.00104217308702789
0.000941655805599088
0.000831567744514695
0.000711742957535657
0.000581156204439298
0.000437056021412722
0.00026913424936992
0.0012940470651443
0.00121838122975867
0.00113201077211857
0.00103529784659038
0.000929291500113396
0.000814868867749936
0.000692063143437956
0.000560046463330559
0.000416208529468838
0.000251457350351944
0.00136902821468885
0.00129742477082177
0.00121489481647832
0.00112176860226708
0.00101922401307572
0.00090865324139689
0.000790874784149252
0.000666010546676743
0.000533410760197245
0.000391018406379713
0.00023104878563618
0.00143657492011535
0.00136918702005293
0.00129054871662739
0.00120099705569945
0.00110175617880698
0.000994451426488414
0.000880353624275744
0.000760097536304565
0.000634036849929019
0.000501821635307368
0.000362067264565104
0.000208272586814479
0.000722835379367231
0.000596548777134003
0.000465727112707618
0.000329696322450842
0.00018330377223664
0.000679712294198792
0.000554018010068942
0.000425472382801629
0.000294077733374908
4.25644876491966e-07
2.25673911327038e-06
1.14802275468695e-06
5.20110512445894e-06
6.4276640301521e-05
4.42026041094583e-05
6.24175916388815e-05
4.55503399481447e-05
0.000187126845356091
0.000187088551597778
2.14112922586475e-05
2.95241246440205e-05
0.000156225666321377
3.78681745481582e-05
4.61724542076661e-05
5.42355828615575e-05
6.18586384969125e-05
6.87242372512365e-05
7.4306137808373e-05
7.78607240073094e-05
7.75689428848222e-05
6.88670471696008e-05
7.65586201466101e-05
0.000257248161160295
0.000420698701838065
0.000265705875891476
0.000567824027133177
0.000445708779774563
0.000274732020661777
0.00020543202954493
0.000332020642949669
0.000281918912226934
0.000691579582384164
0.0005848412636491
0.000455597868440969
0.000302517576815098
0.000251152547176347
0.000805073369371192
0.000706273030146069
0.000592665049994604
0.000450532626072721
0.000276039962291561
0.000273939538014598
0.000230992325637215
0.000282482271380302
0.000912329669146862
0.000819626624618519
0.00071472494217065
0.000594175045660335
0.00045253496414564
0.000230945456849887
0.00028877540933192
0.000284350821940714
0.00027379686986566
0.00101390095100283
0.000926294423474287
0.000827735566492984
0.000717466265835635
0.000592914537394463
0.000452171197448119
0.000286084305090882
0.00110987011055627
0.0010266396637547
0.000932889335255668
0.000828754205411804
0.000713772872690536
0.000586446651738866
0.000444628361241807
0.00027749533194197
0.00120011876654317
0.00112086946989791
0.0010311412316037
0.000931304000299443
0.000821983253911699
0.000703015475786124
0.000573460818273358
0.000430690579328662
0.000264501952480109
0.00128436387917349
0.00120893595944797
0.00112289749105994
0.00102662627703829
0.00092117880313611
0.000807418889529619
0.000685356556009346
0.000554194603373226
0.000411400702420425
0.000247967845983242
0.00136222105549152
0.0012905873423676
0.00120814157348506
0.00111520309408079
0.00101295759341005
0.000902797371681882
0.000785525654379949
0.000661212488857611
0.000529231285558012
0.000387581807172408
0.000228538395285361
0.0014330770788044
0.00136539768172348
0.00128660895282121
0.00119699740108706
0.00109778621967527
0.000990602576765886
0.000876710282005807
0.000756775974352194
0.000631015314409376
0.000499141096114328
0.000359815930409513
0.000206596195588672
0.00143278314878315
0.00135786057751988
0.00127170766902412
0.00117558450260611
0.00107123526158886
0.000960164461005237
0.000843394825989549
0.000721546423990761
0.000595178885483499
0.000464378515194674
0.000328464952720119
0.000182356636206489
0.00068010429204254
0.000554074377784589
0.000425281709774215
0.000293725913918805
0.00015592637714119
0.000633055977523041
0.000508128277907296
0.000382120315940708
0.000255754493253242
5.38258526364563e-07
6.05639706387818e-05
6.34720753881011e-05
6.41610477967489e-05
0.000193369775327175
0.000209891144245997
1.3892341190812e-05
2.13371726790227e-05
0.000127354184448547
2.92618383205286e-05
3.73106863135231e-05
4.52912762675992e-05
5.29715020058136e-05
6.01066553254726e-05
6.64147485761367e-05
7.14841395501188e-05
7.4771947723227e-05
7.51228426118736e-05
7.31203453701096e-05
6.25772044104042e-05
0.000247563133798496
0.000405923252118767
0.000257580334842404
0.000546362051378076
0.000421367109068713
0.000265403825025225
0.000672063426229257
0.000567263338350045
0.000434858299239736
0.000273513561110492
0.000249963642236071
0.000299331408742864
0.000786229131298687
0.000690191529964999
0.000579805260880007
0.00043990445017736
0.000333929338126622
0.000893777684814602
0.000803064788154276
0.000700665390817196
0.000582540785663621
0.000442654817766841
0.000274924171831881
0.000277350602157589
0.000276894767297952
0.000996105683821698
0.000909864204525985
0.000812869876542728
0.0007041526342618
0.000580719898892021
0.000441921558324484
0.000278998991056277
0.0002818775165054
0.000278990887011359
0.00026782748456502
0.00109337404239077
0.0010111185645716
0.000918464747220548
0.000815475488204611
0.000701579161691129
0.000575516625450282
0.000435647912600505
0.000271132817246212
0.00118540742212769
0.0011068426674195
0.0010179106828377
0.000918963072925914
0.000810592614024681
0.000692658061888498
0.000564386805804969
0.000423288284753268
0.000259223374339211
0.00127187130689928
0.00119688071316555
0.00111138100623171
0.00101575656876919
0.00091105913599501
0.000798142851819594
0.000677033535212916
0.00054699698937188
0.0004055703245175
0.000243826698347286
0.00135235750323075
0.00128093685629051
0.00119878599465351
0.00110624538693164
0.00100450768590899
0.000894960775154299
0.000778394549983576
0.000654869818278225
0.000523788045685993
0.0003831951314205
0.000225441115176401
0.00142645545702508
0.00135862215118807
0.00127985079740323
0.00119037823487349
0.0010914135488644
0.000984578340659047
0.000871126738400163
0.000751716651626218
0.000626527216264414
0.000495291331351117
0.000356706578860672
0.000204403537184487
0.00142932370173291
0.00135413798079104
0.00126786737027048
0.00117173011863261
0.00106745569514133
0.000956536792572833
0.000839987011530618
0.000718465555382924
0.00059240775764944
0.000461957547920675
0.000326467454329444
0.000180960104428034
0.00142106405342767
0.00133826403227841
0.0012451469301757
0.00114352164784635
0.00103501336869754
0.000920829972508435
0.000801904551295056
0.000678985053473594
0.000552887440066487
0.000424127113906632
0.000292709664167418
0.000155254234804891
0.000633544458334733
0.000508294963250209
0.000382054855052392
0.000255583031035983
0.000127300574012555
0.000582724875266209
0.000459008743858581
0.000335959818719527
0.000215228748903214
5.86624213757132e-05
6.13548910430423e-05
6.75087049345799e-05
0.000271392733313386
7.62942405750829e-06
1.39362598971508e-05
9.73572812701655e-05
2.12289981367962e-05
2.88758434995829e-05
3.66191648723075e-05
4.42539973240204e-05
5.15206378003658e-05
5.81667389165471e-05
6.39643123346042e-05
6.8657207786929e-05
7.18260534581805e-05
7.3170978217766e-05
7.17078509272752e-05
6.50260007545809e-05
0.000235270102973958
0.000389150467595796
0.000247657008397232
0.000524295218743534
0.000405207745246984
0.000257716323829575
0.000649298386301786
0.00054522616901364
0.000416486931696095
0.00026401048996936
0.000764559355568034
0.000670525439761267
0.000561492808893513
0.000425357960287908
0.000872822472136896
0.000784179998216144
0.000684244865668214
0.000568452688185981
0.000431785838609334
0.000975940415578928
0.000891309496093242
0.000796233735562418
0.00068961648977257
0.000568106514846067
0.000431654431825753
0.0010743895364349
0.000993339559282011
0.000902067235933013
0.000800574153169322
0.000688136508506468
0.000563645324289825
0.000426023405760603
0.000264433070697109
0.000271826488466694
0.000274774383964156
0.000271112088957439
0.00116805001226179
0.0010903754027206
0.0010024688656242
0.0009046528532133
0.00079746851755664
0.000680788492402859
0.000554072158207113
0.00041498231373667
0.000253419845605654
0.00125656575183914
0.00118220370943361
0.00109745054254052
0.00100268549454941
0.000898943514781941
0.000787069575086959
0.000667135920001006
0.000538505771018919
0.000398774604616093
0.00023910128115024
0.00133949293945828
0.00126847877762394
0.00118682749317405
0.00109489414012038
0.0009938718003254
0.000885140976057203
0.000769488832308609
0.000646993648029636
0.000517095201690635
0.000377875597536108
0.000221773759146341
0.001416393755727
0.0013487907569878
0.00127028787666841
0.00118117404014331
0.0010826720573297
0.000976401464751069
0.000863608502522153
0.00074494335380438
0.000620580815412122
0.000490270884017622
0.000352733510068899
0.000201698149996627
0.00148696399790682
0.00142272316915514
0.00134743580715203
0.00126123461713266
0.00116529155856422
0.00106131453997094
0.00095078265364789
0.000834699704450056
0.000713722485050507
0.000588254786279919
0.000458453640158993
0.000323695110979066
0.000179106176055639
0.00141766004831011
0.0013346298286525
0.00124143558122239
0.00113983980426843
0.00103144224258127
0.000917434933773577
0.000798744686034204
0.000676161055119124
0.000550383971227079
0.000421981113098832
0.000291005059929549
0.000154171882562286
0.00140077945863126
0.00131065196809684
0.00121166947920697
0.00110552055689493
0.000993506161120629
0.000876695730164278
0.000756086761274264
0.000632599562287624
0.000507298775002421
0.000381105330671817
0.000254817828844902
0.000126943234489899
0.000583301260318449
0.000459281946204497
0.000336033213773266
0.000215256994990143
9.75733528470129e-05
0.000528800550912477
0.000406649740570577
0.000286996576515767
0.000172639325711971
5.44398981763401e-05
5.90454449458126e-05
6.34244424522199e-05
3.24863996025101e-06
7.73538139812372e-06
6.69284234189861e-05
1.39537401447127e-05
2.10094861900289e-05
2.83714524412113e-05
3.58000495239812e-05
4.30673362568925e-05
4.99007527094301e-05
5.60695917655385e-05
6.14025900368976e-05
6.57359017942511e-05
6.87322384611888e-05
6.9702395838084e-05
6.7340954403476e-05
6.4022869744239e-05
0.000221420047749841
0.000370624482722642
0.000235316880842926
0.000501866287932249
0.00038844470258322
0.000247404857301632
0.000624596269216237
0.000523022900215454
0.000402331298045151
0.000256157310452145
0.000740143069047505
0.000647683392778783
0.000540031043650818
0.000412077378925873
0.000262181523048421
0.000849251090475986
0.00076250321499625
0.000664471556100506
0.00055072399029891
0.000418753667894857
0.000953260692720684
0.000870364449417786
0.000777298462828225
0.000672840332861805
0.000553781980810733
0.00042043716924349
0.00105284211161914
0.000973194228927801
0.000883544807870349
0.000783854470569616
0.000673300898139653
0.000550868433105081
0.000415792559625724
0.00114800863628278
0.00107142066644946
0.000984768169098815
0.000888344182295841
0.000782634686821087
0.000667511815239953
0.000542657658915713
0.000405885919095188
0.000247141839041249
0.000257305320777445
0.000263968402124172
0.000265882541166098
0.00123843124165693
0.00116488236734656
0.00108108343815311
0.000987400243341998
0.000884841026144311
0.000774238172369605
0.000655728188461604
0.000528796867225317
0.00039108255683325
0.000233838949550623
0.00132364554103686
0.0012532106562542
0.00117225570112302
0.00108113886496418
0.000981044080025912
0.000873341140111566
0.000758823644244111
0.000637609001761327
0.000509184229854898
0.000371653708438126
0.00021756351554134
0.00140316862709108
0.00133596154333369
0.00125792875430249
0.00116938461202051
0.00107155934805635
0.000966068005638368
0.000854151586106963
0.0007364617415917
0.000613185048885018
0.000484089570282116
0.000347910878190905
0.000198485834149751
0.00147658032404958
0.00141269682703026
0.00133769038896863
0.00125181996715253
0.0011562994108201
0.00105284282138518
0.000942923797497185
0.000827539751150585
0.000707342972038743
0.000582731294080702
0.000453867681198054
0.000320149396740298
0.000176793873042297
0.00154339162822101
0.00148308608199478
0.0014111193027857
0.00132804458797472
0.00123497311699602
0.00113362196990446
0.00102556439903721
0.000911976859393901
0.000793778614660385
0.000671758988738024
0.000546587062097506
0.000418838419242704
0.000288602602184667
0.000152672826960094
0.00139745042247325
0.00130713264416205
0.00120811429153644
0.00110203232107073
0.000990158156526905
0.000873545552897212
0.000753188309339005
0.000630046930142587
0.00050507722899058
0.000379250988872175
0.000253434485967862
0.00012620578686112
0.0013722017899035
0.00127586990145729
0.0011720238844019
0.00106200854926555
0.000946955302227309
0.000827956850748265
0.000706121832599521
0.000582533976226312
0.000458482425918179
0.000335313099067849
0.000214766016732567
9.75214910125185e-05
0.000529456536163026
0.0004070262635856
0.000287219020184611
0.000172875974919691
6.73691309474767e-05
0.000471256646935111
0.000350993664678616
0.000235368275730066
0.000128559009555183
4.97667153950465e-05
5.49567081067225e-05
6.01494750051071e-05
8.87595269133042e-07
3.33143564940978e-06
3.78181200723253e-05
7.82086423753024e-06
1.38764456078904e-05
2.06850944264933e-05
2.77595264448862e-05
3.48588176244457e-05
4.17394798881599e-05
4.81270324034093e-05
5.38284282736255e-05
5.86924864338321e-05
6.25391715781658e-05
6.49438726621776e-05
6.50939736687106e-05
6.31626944272306e-05
6.0242055566497e-05
0.00020632322754133
0.000350552988813492
0.000221369468396547
0.000478302389174096
0.000369955131392808
0.000234819518781675
0.000598574759104818
0.000500700651733664
0.00038586879828781
0.000245173784409711
0.000713444557644252
0.000623014651768927
0.000518541046542979
0.000397370026543713
0.00025182057215151
0.00082306930697012
0.00073812919351674
0.000641844450973058
0.000530997298369917
0.00040468063619879
0.000255406769754886
0.000927961070766487
0.000846832564148807
0.000755691657995744
0.000653264634381292
0.000537131056814718
0.000407557410901578
0.00102864979486311
0.000950547510013344
0.000862668756182074
0.000764924831294662
0.000656510782095009
0.000536651514958834
0.000404543638555279
0.00112523384643527
0.00104990832046199
0.000964714393270434
0.000869918411189028
0.000765966769400026
0.000652758624221292
0.000530127895776562
0.000395969489447171
0.00121744026168826
0.00114488044976374
0.00106223769185526
0.000969861149507019
0.000868727807174984
0.000759659185633049
0.000642858368199506
0.000517929412557513
0.000382543709944745
0.000228058012863035
0.000240327178327258
0.00024943695519605
0.000254782862359865
0.00130480753401128
0.00123511730600684
0.00115505002838707
0.0010649592718166
0.000966011588126771
0.000859562457785137
0.000746418026306168
0.000626749121359406
0.00050009395439528
0.000364570135797933
0.000212831764153427
0.00138682252020119
0.00132015372385456
0.00124277257347105
0.00115500083300099
0.00105806498723004
0.000953570269953803
0.000842754259838903