/*--------------------------------*- C++ -*----------------------------------*\
  =========                 |
  \\      /  F ield         | OpenFOAM: The Open Source CFD Toolbox
   \\    /   O peration     | Website:  https://openfoam.org
    \\  /    A nd           | Version:  12
     \\/     M anipulation  |
\*---------------------------------------------------------------------------*/
/*   Windows 32 and 64 bit porting by blueCAPE: http://www.bluecape.com.pt   *\
|  Based on Windows porting (2.0.x v4) by Symscape: http://www.symscape.com   |
\*---------------------------------------------------------------------------*/
FoamFile
{
    format      ascii;
    class       volScalarField;
    location    "300";
    object      nut;
}
// * * * * * * * * * * * * * * * * * * * * * * * * * * * * * * * * * * * * * //

dimensions      [0 2 -1 0 0 0 0];

internalField   nonuniform List<scalar> 
10107
(
1.33440092219057e-05
3.99567018849152e-06
0.000285933875971496
8.62804180707195e-06
2.25924175773353e-06
0.000127616523839855
1.78759565093379e-06
0.000500089201821131
0.000282796823491339
0.000113428529662634
4.23331647065666e-07
4.05237173695979e-05
1.53101956825846e-06
0.000342006189529464
0.000120463166963126
2.48592049728246e-06
3.99492644643229e-05
0.000708475840684411
0.001115447123828
0.000470648736534706
0.000314974149394138
0.000434736760308792
0.000290346182070004
0.00022398136006824
0.000269385243230493
2.96620616606652e-07
1.82669286094952e-06
0.000118162447021559
3.45966206891355e-05
1.07334931017502e-06
0.00045336928073188
0.000322082705739418
8.95715545409967e-05
0.000162443725580351
0.000188614063839105
4.50650564796512e-06
9.18839355118896e-05
0.000101068012079047
0.000134548980316797
0.000840606619389992
0.00125043492062243
0.000674095767004527
0.00183862789651332
0.00113470764040309
0.000501312396546795
0.000296879254678471
0.000373331168915245
0.000575749770123147
0.000372513374339434
0.000268252931722617
0.000307876433530205
1.85766807563095e-07
1.43558907282737e-06
4.89078619614139e-06
0.000161903376416229
0.000109054518789758
2.67998489427777e-05
1.23053062325254e-06
0.000492946719934521
0.000395521679122218
0.00019489158264556
0.000231654148691102
1.55822152225363e-05
7.45993466725474e-06
0.000416423452787267
0.000192693131151948
0.000226861396831211
0.000892872191424069
0.00135556662277659
0.000771628635081255
0.00191604480206425
0.00122438545081254
0.000532007680793062
0.00253720322561478
0.00183277119048614
0.00105061806526799
0.000308328077695413
0.000435118300477609
0.000411066596655364
0.000348914352531633
1.77035959702401e-07
1.14941732382598e-06
3.97134805977871e-06
7.17944644522693e-06
0.000177443838490483
0.000142647926330961
6.22147874227854e-05
2.50699596844418e-06
0.000501076045201071
0.000419980835888007
0.000215090710997738
3.20686876330363e-05
1.41714325646806e-05
0.000317958459704859
9.006037095083e-06
0.000274530681327371
0.000906088123469554
0.00140306671997073
0.000809145666482337
0.00197264463682433
0.00130435070570681
0.000583123960204035
0.00258485800242047
0.00189541649108916
0.00112959505619617
0.000323170136350444
0.00319617260645072
0.00252780888723499
0.00178766426422814
0.000978308653055308
2.36338296818166e-07
2.1724459617115e-06
5.82953070678236e-06
8.44632660121184e-06
0.000178803159596116
0.00015215355663132
7.65198664794149e-05
3.32552317938338e-06
0.000495124699561677
0.000424679288864729
0.000220686591868999
3.44857106984828e-05
3.02699393760712e-05
0.000364413347921493
1.40390759755155e-05
9.21674473867397e-06
0.000899237169632961
0.00141578802875561
0.00081768233971573
0.00200333222236841
0.00134210232417446
0.000599520076831322
0.00261852336575908
0.00194162365261182
0.0011864673332207
0.000336257446910721
0.00322610802671792
0.00256954469396159
0.00183529934023987
0.00100073416952909
0.000360914001933466
0.00318584858133713
0.00249525554593465
0.00172289842674565
0.000970378560906209
2.36742441171143e-07
2.67996303745329e-06
6.47999219760258e-06
8.35041531470228e-06
0.000175279115240742
0.000152807155935627
8.09675824934878e-05
3.64257872502078e-06
0.000480019719580773
0.000418780146550382
0.00022177960802486
3.22955063784753e-05
3.37292068327179e-05
0.000371660193431616
2.9674715860083e-05
1.39837844094169e-05
9.24517534052719e-06
0.000878777960016698
0.00140733402570423
0.000810185529182818
0.00201057087687767
0.00135128009173557
0.000601177844754159
0.00263566391300881
0.00196729645416015
0.00120982195913988
0.000339810153295773
0.00324629101916059
0.00259868664728542
0.0018689679896436
0.00102210131419316
0.000360301923455963
0.00321312364338265
0.00252775311425051
0.00174750648543918
0.000973703010788828
0.000369125867440954
0.00315612595046954
0.00244172747530948
0.00167857028944047
0.000957474457249703
2.43699977995923e-07
2.84968867807474e-06
6.39584344723986e-06
8.04593102000656e-06
0.000167274486819694
0.000149240956007097
8.14645097002209e-05
3.71362912563366e-06
0.000456324725694115
0.000405621878049203
0.000217655406783311
2.90595258248396e-05
3.19405507159528e-05
0.000360665454771862
3.30712868672729e-05
2.90844862881254e-05
1.37762938269066e-05
8.81514364455716e-06
0.00084417451920191
0.00138298135646218
0.000791136305005261
0.0019996665262706
0.0013421233625256
0.000593260388330731
0.00263663827386388
0.00197246187047533
0.00121297377178719
0.000337673486349097
0.003254387786032
0.00261319756456772
0.00188639366121109
0.00103072921787158
0.000358441242417522
0.00383442476568502
0.00323117812219681
0.00254973513457176
0.00176577119357214
0.000976857005752458
0.000366854967827561
0.0031784154701794
0.00246200651563283
0.00168756049579614
0.000956599381292157
0.000359188077426713
0.00310535974603066
0.00238241431716245
0.00163640442533168
0.000930672491338616
2.27504086659415e-07
2.74370221056624e-06
6.03288652284525e-06
7.20181011547608e-06
0.000156598107578915
0.000142584855637545
7.9418942373008e-05
3.55016969745178e-06
0.000417714535054532
0.000385246141179839
0.000209370061535228
2.5689884702222e-05
2.88192136712398e-05
0.000343067231273114
3.150427965559e-05
3.23983716055726e-05
2.82429935999462e-05
1.2993395723777e-05
8.27886521021244e-06
0.000786327657198948
0.00134185527176453
0.00075982579300935
0.00197362723993099
0.0013187386871999
0.000577936359901284
0.00262307498383084
0.00196112773171199
0.00120269904710847
0.000331201567815771
0.00325009971241637
0.00261297846278141
0.00188761275061166
0.00102828316715319
0.000354508471594944
0.00383665303747017
0.00323793392265177
0.00255958506476369
0.00177353341330875
0.000976036060338564
0.000363932858278541
0.00437538502340158
0.00382117007448097
0.00319250643586082
0.00247517134643769
0.00169308831141628
0.000954733782315756
0.000357180559606067
0.00312095896448259
0.00239252715277515
0.00163850687066312
0.000929162760806708
0.000341994768514605
0.00303878314332927
0.00231887176361207
0.00158736802810254
0.00089482059272535
2.10845790662238e-07
2.55117401693432e-06
5.47657075245804e-06
6.3828553071914e-06
0.000139176190099055
0.000133130888490033
7.51437278126142e-05
3.18298010257045e-06
0.000342294231531551
0.00035491341432515
0.000195995871438011
2.23781642943759e-05
2.54755383559777e-05
0.000322999213060481
2.84963470088957e-05
3.09237297172011e-05
3.14972619682769e-05
2.70355437728159e-05
1.22312817523627e-05
7.38204203927926e-06
0.000681293668155804
0.00127716639074089
0.000709681515305807
0.00193269504359021
0.00128011514037204
0.000554208294934404
0.00259649837642864
0.00193581093901951
0.0011815576306366
0.000322014627087641
0.00323392471878328
0.00259917773292297
0.00187541320337732
0.00101748855765704
0.000348347196904513
0.00382835775899212
0.00323298058073589
0.00255699517500936
0.0017702298395538
0.00097025771344843
0.00035968982854051
0.00437371330457407
0.00382274676199313
0.00319664379412437
0.0024792584518736
0.00169288752130871
0.000950697819564603
0.000354327543997356
0.00486713788861197
0.00436279849452369
0.00378616570522817
0.00312986645594583
0.00239777842454062
0.00163797055601168
0.000926278652197081
0.000340267916164278
0.00304809336529948
0.00232282835509399
0.00158693261850127
0.000893248764818025
0.000322014837207256
0.00296008901225282
0.00224782684020663
0.00152982815735469
0.000853537966764027
1.85524307076373e-07
2.30140556117654e-06
4.80885453902239e-06
4.99538733924022e-06
0.000109300607404509
0.000119603892518443
6.86116076694047e-05
2.73997872734445e-06
0.000175036933430615
0.000299888739521915
0.000179732489787805
1.91303384116153e-05
2.21752376359528e-05
0.000301546730306797
2.52053155699751e-05
2.80306658265566e-05
3.01671048753263e-05
3.03881203213621e-05
2.56893497976089e-05
1.08830276389491e-05
6.81425692870556e-06
0.000489766800109237
0.00117799369830399
0.00061699592938658
0.00187542783497494
0.00122054548040783
0.000520737812690816
0.00255777872823725
0.00189678460219249
0.00114870788948378
0.000308015972056685
0.00320661375610891
0.00257310591486823
0.00185161196369234
0.000999821021272326
0.000340340841027583
0.00380974818010581
0.00321667270317255
0.00254266815515998
0.0017572085802225
0.000959686810519279
0.000354061053247237
0.00436247487550273
0.00381411514045433
0.00319032299267643
0.00247367742528891
0.00168606868715359
0.000943783299666375
0.000350450709728394
0.00486311125869447
0.00436083150142813
0.00378634104867466
0.00313054164755629
0.00239660589614729
0.00163373748494597
0.000921582190452525
0.000337747651442815
0.00531071456056611
0.00485456114487286
0.00432842397892578
0.00372715137822199
0.0030519962891799
0.0023230080779081
0.00158412337571652
0.000890276865305469
0.000320479655262895
0.00296491773224277
0.0022487132985296
0.00152848606396358
0.000851963521669294
0.000300595779156556
0.00286938430013022
0.00216700036896597
0.00146435387568388
0.000808074027691129
1.64476166841293e-07
2.00226006568739e-06
3.94716145987329e-06
3.42907486551162e-06
5.11466945850621e-05
9.72560500442081e-05
5.99241544867553e-05
2.30193587700656e-06
1.18033792081411e-05
0.000164647457536274
0.000161822685798866
1.59439799870886e-05
1.89450555872204e-05
0.000278700095153366
2.19303755732215e-05
2.48194139017766e-05
2.74119197375927e-05
2.92380997829903e-05
2.91196877821349e-05
2.4003858864735e-05
9.65097187870643e-06
8.0213454401605e-06
0.000276044401708413
0.00104133181988365
0.000472394820777656
0.00180192864730998
0.00112743209374578
0.000471725565342329
0.00250764293589068
0.00184352008968616
0.00110224891193429
0.000290168990726787
0.00316887913675566
0.00253566874742987
0.00181663883154197
0.000974052933106207
0.000330018873338157
0.00378115279719427
0.00318966392527793
0.00251760735342625
0.00173554977824872
0.000944712681507288
0.000347087461364577
0.00434171146484969
0.00379544284343987
0.00317372159902083
0.0024587276723995
0.00167276283609344
0.000933822544829891
0.00034546298442608
0.00484981606239202
0.00434944623195932
0.00377697508725558
0.00312239076610065
0.0023883767643918
0.00162519721882057
0.000914748897385569
0.000334322126619571
0.00530542233520367
0.00485041910168821
0.00432575303952817
0.00372532781825547
0.00304928581342946
0.00231841512797691
0.00157842799568131
0.00088570257862408
0.000318221196978783
0.005708709222763
0.005297722919463
0.00481927965606624
0.00426883591015043
0.00364709425094783
0.00296515000560252
0.00224633363941994
0.00152494961534174
0.000849099729658534
0.0002991365394924
0.00287157537874849
0.00216653070880256
0.00146272728330798
0.000806554226160765
0.000277778784215792
0.00276522408408848
0.00207510713295698
0.00139101772416829
0.000758244998669731
1.47221170042242e-07
1.65141976475078e-06
2.74042567307303e-06
1.30795692286842e-06
4.96581849414271e-06
4.55721211077382e-05
4.66846290503842e-05
2.05410688091873e-06
9.52866949184752e-06
1.17270380107283e-05
0.000136717745481986
0.000134958651143417
1.28429464969621e-05
1.5785448307982e-05
0.000254096071467348
1.87247995248148e-05
2.15943913390806e-05
2.43059804674457e-05
2.6650004619614e-05
2.81840757511964e-05
2.77402812272612e-05
2.24250597981602e-05
8.56929808231836e-06
7.16897369896832e-06
0.000267157058536419
0.000897187044328914
0.000247329182006073
0.00171616449627475
0.00103243220276674
0.000258581362411781
0.000423912793777414
0.00244707139749381
0.00177931167921258
0.00104076884845944
0.000416489599146409
0.000265246550922008
0.00312135171429606
0.00248804762918245
0.00177160842852108
0.000939689661564581
0.000318557765831835
0.00374294216343073
0.00315266688735212
0.00248274515937361
0.00170555250924167
0.000925116010205726
0.000339026667896926
0.00431149510377181
0.00376702055839868
0.00314734731376043
0.00243505907684169
0.00165336364683463
0.000920914449456914
0.000339420098582625
0.00482724054464445
0.00432867446917686
0.00375817325768708
0.00310542268107455
0.0023730650150334
0.00161219350849309
0.000905638455828183
0.000329940956004167
0.00529075229497037
0.0048370815248837
0.00431402162618382
0.0037149238021478
0.00303938991159069
0.00230858202514901
0.00156950082314426
0.000879335376222718
0.000315155137028379
0.00570285352257107
0.00529240579644355
0.00481481727835713
0.00426508314255252
0.00364318691221101
0.00295995496627402
0.00224008056753792
0.00151894696474207
0.000844798530029731
0.000297038275804899
0.00606443078623349
0.00569504731304949
0.0052606956178701
0.00475693898573989
0.00418424827385915
0.0035501760414382
0.00286964163385041
0.00216308174994901
0.00145906877298861
0.000803822364693448
0.000276391226368926
0.00276608933085344
0.00207415483001721
0.00138941498993236
0.000756839226903819
0.000253248837962751
0.002645801171196
0.00197089065877682
0.00130894738830985
0.000703102276183347
1.40379616916499e-07
1.14650902278997e-06
1.1790824488996e-06
1.94107877540129e-07
4.4467575292029e-06
2.16338204218004e-05
1.14732632839354e-06
1.37246141915734e-05
5.66300650575517e-06
4.4590999289841e-06
0.000194394731129924
8.65474581023795e-05
6.15490626053568e-05
0.000197649740469386
6.79815511541193e-05
9.89646806342089e-06
1.27278484077024e-05
0.000227308552750765
1.55974541485629e-05
1.8429131239798e-05
2.11600598172217e-05
2.36775596982382e-05
2.57822043246396e-05
2.70510250690763e-05
2.64044459737685e-05
2.08554074148568e-05
9.95608651501523e-06
0.000272006616257363
0.000830794331697534
0.000254504526725418
0.0016205753509923
0.000946826212295824
0.000238199260074092
7.77529999202032e-05
0.000371016373854631
0.00237642793913792
0.00171030291315958
0.00100199356790112
0.00022367513942732
0.000256950656407556
0.000497341724545748
0.00032211282018153
0.00306439879729239
0.00243192077982307
0.00172291775838706
0.000895029629033461
0.000251324579076615
0.000342894312103594
0.000307745656154221
0.000263980819795869
0.00369541044040642
0.00310642568623621
0.00243977642442193
0.00166881278483363
0.000901678611407801
0.000330930412654365
0.00427193675879579
0.00372920636786148
0.00311188236684261
0.00240346691333606
0.00162823426282337
0.000905434919462923
0.000332700956592589
0.00479531625292068
0.00429857734269507
0.00373016138700372
0.00307997450879657
0.00235098240909007
0.00159485961051079
0.00089434932175926
0.000324656543020846
0.00526669844650248
0.004814538553706
0.00429324508121675
0.00369597904148
0.00302220145913614
0.00229336920794964
0.00155720042840565
0.000871093220991596
0.000311251298111909
0.00568729458609963
0.00527775084282388
0.00480136313220478
0.00425283997789839
0.00363174996091119
0.00294888474432334
0.00222966535622661
0.00151027063775497
0.000838930893994985
0.000294230865869672
0.00605844538088223
0.00568921374710356
0.00525526480547401
0.00475194058246969
0.00417930971370177
0.00354463050899479
0.00286305204973801
0.00215627416147063
0.00145321266244127
0.000799790037377278
0.000274399047007766
0.00638155813305265
0.00604997250605635
0.00565583841286942
0.00519448177755763
0.00466620126345262
0.0040770692770626
0.00343785625972015
0.00276312695320027
0.00207042290153796
0.00138590143470933
0.000754284985057992
0.000251948947192252
0.0026461538816152
0.00196993218092062
0.00130755429088342
0.000701927461988763
0.000226733148793971
0.00250903595962714
0.00185254527606462
0.00121642363960382
0.000641219075631469
9.94625404945993e-08
5.50054401301246e-07
2.10786731317078e-07
1.67131233585823e-06
1.94000344798677e-05
9.98213683266494e-06
1.27412578652244e-05
9.64823374588011e-06
0.000148668521693866
0.000155099661616979
7.14773122459556e-06
9.82593916312265e-06
0.000198320201870177
1.25900248965472e-05
1.53606575499401e-05
1.80683096717319e-05
2.06413626323958e-05
2.29631982568238e-05
2.48388021972565e-05
2.59491010610199e-05
2.52837218052719e-05
1.98359101406146e-05
2.42339510895859e-05
0.000281148735392804
0.000794243946812139
0.000271678651219231
0.00153643137176574
0.000874302953172127
0.000253576744315945
0.000107713344743249
0.000372371892602533
0.000240846172445233
0.00229582492900076
0.00163024603455817
0.000929178089496585
0.000282523062223763
0.000159371825805636
0.00299795435083929
0.00236740850089441
0.00167495247822332
0.000878788307256645
0.000224297607050197
0.00022747008110351
0.000221098866424878
0.000285531213247823
0.00363867157539086
0.00305142781939629
0.00239095794723159
0.00163148694337529
0.000878637687615656
0.000225754996710641
0.000324036652998484
0.000304274061519977
0.000282961889009589
0.00422310706578078
0.00368231649043505
0.00306818426523922
0.00236567100230391
0.0015988481980534
0.000888662701243307
0.000326021341744062
0.00475399034235005
0.00425925858950303
0.00369326801317274
0.00304662215401462
0.00232271443054523
0.00157365042560113
0.000881358578260815
0.000318808257347931
0.00523312390158793
0.00478272265372678
0.00426346226091132
0.00366863914795718
0.00299789393247676
0.00227290325131043
0.0015416149390034
0.000861075220108643
0.000306611109443114
0.00566204396969494
0.00525375851152451
0.00477890890604785
0.00423210455494866
0.00361278470582076
0.00293180012368263
0.00221496022715363
0.00149882930123513
0.000831454439930881
0.000290727470001229
0.00604234130223906
0.00567370261973846
0.00524062685823794
0.00473831003280994
0.00416656145066675
0.00353248855213173
0.00285150013984374
0.00214594232362528
0.00144502656385086
0.000794377040523233
0.000271840035900142
0.00637565970718588
0.00604403402458766
0.00565000289498559
0.00518882886670178
0.00466059846088951
0.00407117119400844
0.00343133883456124
0.00275600857052592
0.00206366112826597
0.00138038091254453
0.000750532859061377
0.000250173537943904
0.00636629698351619
0.00600840803581822
0.00558523699191809
0.00509673112817831
0.00454829365960272
0.00394867495107422
0.00330903592852159
0.00264289647687855
0.00196634439223292
0.00130434946069699
0.000699635386093355
0.000225703493585131
0.00250936821726641
0.00185186019892349
0.001215396188528
0.000640546484175953
0.000198137611612971
0.00235231907413469
0.00171746048840655
0.00111097526909521
0.000571400279841637
1.13932323214896e-07
1.90576211746652e-05
1.87877453208813e-05
1.63075884555896e-05
8.71562206382441e-05
0.000111017423285129
4.64874869822919e-06
7.12306591381123e-06
0.000166691275477369
9.73883766454238e-06
1.24049437699116e-05
1.50671858832919e-05
1.76442208381318e-05
2.00472637352215e-05
2.21752926510045e-05
2.38889906338332e-05
2.49568050602492e-05
2.47327221633232e-05
2.26863687413472e-05
1.69071252809207e-05
0.000280066813552253
0.000790907115508275
0.000283060363911351
0.00146584204138011
0.00080578170103244
0.000280433401045462
0.00221267172454572
0.00154577747905772
0.000831630400832742
0.000242397122583504
0.000169352428402972
0.000279986677530996
0.00292251290796485
0.00229227955700557
0.00160957335259156
0.000859231143346875
0.000384523235483915
0.00357274895353476
0.00298746599196253
0.00233579613876483
0.00159877407774616
0.00086524095001694
0.000228101750930409
0.000249276029414684
0.00026532093114799
0.00416499929745628
0.0036264936981433
0.00301686231417965
0.00232394304860385
0.00156905203705515
0.00087292389062695
0.000319977541892751
0.000319773101157815
0.000308198351438894
0.000273204579585951
0.00470318742153056
0.00421079514299063
0.0036478308740177
0.00300619730866375
0.00228955809970631
0.00154981235430914
0.00086757541685096
0.000312808318874593
0.0051898760934757
0.00474158032319123
0.00422476257818627
0.00363317407641101
0.00296687889032553
0.00224759733005932
0.00152315212215947
0.00084965771220037
0.000301439574867915
0.00562693760485675
0.00522029825984679
0.00474738464492036
0.0042028857550557
0.00358636027409523
0.00290876570646957
0.00219602277979348
0.00148469477216758
0.000822467232539831
0.000286618383994374
0.00601610253224533
0.00564853340900767
0.00521678990541801
0.00471603994720211
0.00414600095862591
0.00351375260702903
0.00283486758347207
0.00213199673890998
0.00143445526407705
0.000787568786597242
0.00026873447479129
0.00635913572831944
0.00602799422140616
0.00563458775440742
0.00517422195517744
0.0046468299680253
0.00405813025843746
0.00341895907999781
0.00274453976137801
0.00205378172672496
0.00137277352376258
0.000745570702585703
0.000247926059672163
0.00636043391054934
0.00600253060189733
0.00557935743692151
0.00509083229823559
0.00454221817901169
0.00394222643773819
0.00330216823517102
0.00263582981822345
0.00195996019332778
0.00129928294992894
0.000696233998453256
0.000224236782894909
0.00632241170589506
0.00593328022073298
0.00548016327385711
0.00496790907896907
0.00440424775392631
0.00379839748031928
0.00316138124607665
0.00250627246884195
0.00184867746787984
0.00121264756064809
0.000638745007654754
0.000197474712576771
0.00235293444916436
0.0017172369445275
0.00111052109580187
0.000571560114430495
0.000166962633025057
0.00217225353399336
0.00156208386438905
0.000989472046256512
0.000491857698959801
1.91556490334223e-05
1.92176127717258e-05
2.086230859628e-05
0.000253293041894596
2.54303694147422e-06
4.66346833684459e-06
0.000131661711310794
7.08700892784249e-06
9.61048247164242e-06
1.21749483657591e-05
1.47210544816748e-05
1.71568786438274e-05
1.93920434438016e-05
2.13525356636948e-05
2.29706637418113e-05
2.40785851221289e-05
2.44354654691303e-05
2.33749476205281e-05
2.03691684649551e-05
0.000271116157568697
0.000776697258756474
0.000281393110243455
0.00141835675388661
0.000794632507350632
0.000288803794144122
0.0021337207611871
0.00146996060778145
0.00080087689142108
0.000291240059593356
0.00284146482207433
0.00221110006854034
0.00152846168577825
0.000818758954424353
0.0034981403895264
0.00291446098175133
0.00226926218084428
0.00155492153056536
0.000853084023180316
0.0040976158592728
0.00356173388987461
0.00295752819127282
0.00227803693304453
0.00154144213015968
0.000859931361137217
0.0046427919646081
0.00415319366574712
0.00359402625492299
0.00295934803117899
0.00225315458621703
0.00152525398289364
0.0008539702197483
0.000306879434758869
0.000314471861292179
0.00031625724788561
0.000305099361165406
0.00513677185839591
0.00469103932656227
0.00417722793337156
0.00358990396642391
0.00292979944595461
0.00221829133786727
0.00150260075376215
0.000837347564271165
0.000295940895203106
0.00558175855081467
0.00517721950178346
0.00470673385227435
0.00416524695067761
0.00355266252290151
0.00288003703822884
0.00217312842745342
0.00146815268187524
0.000812199862762324
0.000282015567731915
0.00597959436041471
0.00561355077697668
0.00518362996109369
0.00468505411227765
0.00411760932687075
0.00348843883364966
0.0028131647600234
0.002114465506515
0.00142155479806624
0.000779441582281184
0.000265109889666912
0.00633209325910126
0.00600185133035857
0.00560962017303963
0.00515067399249118
0.00462489985028303
0.00403796303186153
0.00340074492958111
0.00272863782414382
0.00204072749333683
0.00136304831100104
0.000739377939103536
0.000245212812342947
0.00664056476384924
0.00634394749181064
0.00598663241945584
0.00556410142790548
0.00507633087890458
0.00452847704849322
0.00392922013742573
0.00328999359409948
0.00262483734201919
0.00195074329367172
0.00129232116499911
0.000691772911840915
0.000222342973053597
0.0063166226114338
0.00592746185403335
0.00547425224511467
0.00496186137370395
0.00439796215939003
0.00379182968065236
0.00315464546255569
0.00249963318316339
0.00184288302316195
0.0012081651958429
0.000635939780089502
0.000196381296557569
0.00624288190743953
0.00582095023445493
0.00534058592662413
0.00480873191882883
0.00423344497035888
0.00362411521572687
0.00299199791670082
0.00235029441139036
0.00171464906304098
0.00110841411224028
0.000570489683539764
0.000166744100759958
0.00217334298262447
0.00156247696569145
0.000989870281866757
0.000493024920762206
0.000132421161213917
0.00196446678617413
0.00138177123540657
0.000848073507655625
0.000399875507458526
1.79134792297512e-05
1.9126799465481e-05
2.03187347843259e-05
1.07135298070887e-06
2.57835891660369e-06
9.30794146355844e-05
4.6693243951019e-06
7.01376484274947e-06
9.44259029852628e-06
1.19022846602858e-05
1.43247669314159e-05
1.66137170933628e-05
1.86896930306286e-05
2.05081014475361e-05
2.20409354619826e-05
2.31486033630434e-05
2.34364691396541e-05
2.22688122547352e-05
2.10678797127775e-05
0.000259229580334478
0.000754218997115471
0.000272315939720604
0.00137803366403696
0.000779719850807859
0.000284939854534843
0.00206477801804468
0.00142059642314856
0.000798067725192194
0.000293904013003399
0.00275900725950093
0.00213259799122423
0.00146252567715676
0.000811519877402897
0.000301275900441609
0.00341646945375995
0.00283517424627636
0.00219375103000675
0.00149683590771806
0.000833165682303028
0.0040211977484678
0.00348839537152654
0.00288933522260273
0.00222297319368494
0.00150951377337747
0.000846273882280609
0.00457268524049558
0.00408645429955294
0.00353179653462408
0.00290573428477272
0.00221346660492898
0.0015005604539537
0.000840563268276791
0.00507358299505266
0.00463098994325924
0.00412087666791442
0.00353901763910799
0.00288718470627512
0.00218591237531005
0.00148077735295234
0.000824537591494831
0.000290187219199885
0.000300768755251172
0.000308207442559544
0.000309217733153776
0.00552623655018124
0.00512434127716149
0.00465688666788115
0.00411925969479952
0.00351193743428728
0.00284602571456973
0.00214676167313609
0.00144962796502744
0.000800890577488762
0.000276994579548628
0.00593254920640856
0.00556854087483773
0.00514099853874806
0.00464528781781186
0.0040814128108139
0.00345664834417753
0.00278653033559737
0.00209351043871526
0.00140649092081917
0.000770092211044387
0.000261001454133468
0.00629432355344156
0.0059654763631376
0.00557495567607964
0.00511806512381499
0.00459472745558325
0.00401063345076651
0.00337668541652536
0.00270828920613612
0.00202450904565893
0.00135124221297951
0.000732009601257227
0.000242033753755862
0.00661329981980096
0.00631702949065954
0.00596072289951552
0.0055394977602486
0.00505325121921293
0.00450709684224985
0.00390970195513238
0.00327257086097751
0.00260986822348048
0.00193865986927754
0.00128344336914369
0.0006862628523548
0.000220020016231738
0.00689104152174289
0.00662453951816302
0.0063002629048265
0.00591180051571572
0.00545925965781894
0.00494761697024864
0.00438449537696167
0.00377919949436976
0.00314303317100322
0.00248938564534948
0.00183447569588816
0.00120194504766407
0.000632162772102775
0.000194870523225415
0.00623719785503064
0.00581522764183691
0.00533473056261181
0.00480271857455789
0.00422724956844572
0.00361780022310239
0.00298574324380051
0.00234433716792662
0.00170961355775508
0.00110469441025784
0.000568435006695851
0.000166079162059709
0.00612361871000147
0.00567105932501965
0.00516699898176516
0.00461850687041256
0.00403381868081921
0.00342286918378563
0.002797472179057
0.00217136017353873
0.00156064843652434
0.00098867020459392
0.000492809647392794
0.000132658649696726
0.00196614926973404
0.00138289926456782
0.00084943333599319
0.000402028374322447
9.41972826362764e-05
0.00172352900793156
0.00117088939698873
0.000681682952969365
0.00029270016545729
1.64591877859683e-05
1.79693778456976e-05
1.97047512990905e-05
2.9105262841889e-07
1.09866238575736e-06
5.22814159041845e-05
2.60683557957756e-06
4.6434668525543e-06
6.90546084437367e-06
9.2388380781951e-06
1.15888471619429e-05
1.3881618830963e-05
1.60213000808256e-05
1.79459422153579e-05
1.96224036518428e-05
2.1003784562095e-05
2.18963906763736e-05
2.18910437439329e-05
2.11072153123981e-05
2.00520926893285e-05
0.000245157141439461
0.000726670686570444
0.000260029448750071
0.00133531932790297
0.000756941012441225
0.000274880352096323
0.00200116113116779
0.00138022670127043
0.00078283680899127
0.000286883526900188
0.00267800060750948
0.00206403155087058
0.00141823214967314
0.000801236778314528
0.000294343515784703
0.00332973195946298
0.00275400292235221
0.00212050695668914
0.0014489438112245
0.000816431585442625
0.000299501329573464
0.0039363788605668
0.00340792174423269
0.0028142094492887
0.0021592451263438
0.0014702930550394
0.000828141496053029
0.00449281852646616
0.00401077972799605
0.00346125738170075
0.00284426155872368
0.00216771482821687
0.00147302347197679
0.000825626795508492
0.00500004101236715
0.00456131398534324
0.00405568914124067
0.00348043378289862
0.00283884534183396
0.00215042547422585
0.00145762371729192
0.000810990950064207
0.00546003539666487
0.00506143780185166
0.00459773703852824
0.00406493885378709
0.00346433698566919
0.00280706320493402
0.00211735254777442
0.00142943831640889
0.000788704804889519
0.000271572664060354
0.000284020668921461
0.000293797448729562
0.000299760502557123
0.00587461986564693
0.00551323511721019
0.00508871696000043
0.00459666590199254
0.00403744926724594
0.00341852620615279
0.00275518467614231
0.00206937347353471
0.00138946128439109
0.000759667756748642
0.000256436855781616
0.00624551938690148
0.00591860508932663
0.00553038497477234
0.00507624699644304
0.00455623430121669
0.00397612902883036
0.00334681477517148
0.00268355262593295
0.00200520392962671
0.00133742918749366
0.000723527943379899
0.000238395587798253
0.00657448013543821
0.00627940699619121
0.0059246849990292
0.00550541084279709
0.00502147843188697
0.00447799789714841
0.00388363040207269
0.00324987912883393
0.00259089913819545
0.00192370867952057
0.00127267112462624
0.000679698437839129
0.000217265220443183
0.00686326230692741
0.00659741969695365
0.00627361617870146
0.00588630742357539
0.00543522029412693
0.00492521887186851