/*--------------------------------*- C++ -*----------------------------------*\
  =========                 |
  \\      /  F ield         | OpenFOAM: The Open Source CFD Toolbox
   \\    /   O peration     | Website:  https://openfoam.org
    \\  /    A nd           | Version:  12
     \\/     M anipulation  |
\*---------------------------------------------------------------------------*/
/*   Windows 32 and 64 bit porting by blueCAPE: http://www.bluecape.com.pt   *\
|  Based on Windows porting (2.0.x v4) by Symscape: http://www.symscape.com   |
\*---------------------------------------------------------------------------*/
FoamFile
{
    format      ascii;
    class       volScalarField;
    location    "300";
    object      omega;
}
// * * * * * * * * * * * * * * * * * * * * * * * * * * * * * * * * * * * * * //

dimensions      [0 0 -1 0 0 0 0];

internalField   nonuniform List<scalar> 
10107
(
5.27003482348184
7.27825328304519
1.1711807478719
5.96826009719384
4.14927083928547
1.37497000758974
9.14053124380136
0.744088826338781
1.19680374049645
2.20844203048533
4.06764258281354
1.31943070063054
4.66904877017909
0.721676797849331
1.51576389480239
9.18162026892896
3.09735072492374
0.550209050063473
0.479983666735713
0.79194977380967
1.10107641009801
0.925605459303925
1.1586815840035
1.39028662822739
1.21851612671842
4.094106352247
3.54014110772502
0.952277372082595
1.36915078196325
5.09571296103964
0.59321665831749
0.743315437022813
1.50504394027939
1.19995089947216
1.32031257509817
4.43089718798029
1.61788782172961
1.62234153555356
1.74503713893941
0.477995523463303
0.428505804186177
0.569529553072152
0.367358531302813
0.475747318072386
0.741769646511772
1.05500679099065
0.959270523407023
0.713240391181912
0.983093220884397
1.19467742579398
1.10371511542718
4.54723869844334
3.56082404316362
3.20924745751029
0.875428508100351
0.96745679284885
1.46655531476789
3.95312183062866
0.561006209051388
0.647399534080157
1.02458199855087
1.15138022269109
4.75759480946997
4.41110540376318
0.827310975187067
1.31870589031701
1.28863758371068
0.453809411660709
0.397652209927116
0.509593108202815
0.351160830034908
0.436248229051382
0.673463466386614
0.312119587743623
0.367950025570271
0.499677628849768
1.00714205595769
0.827536395191424
0.906900048186151
0.997493435200561
4.21125316065085
3.67095202867328
3.32486447822636
3.17186088385131
0.85773932202476
0.902607710510924
1.16217405432835
3.45560940552646
0.552578687406582
0.623619049706198
0.979936835099559
3.17815925430089
5.16228597672177
1.04115951130221
4.4438557929623
1.10103768652055
0.445294796502677
0.38375185408337
0.489453914227107
0.339580218221914
0.410642731684056
0.630406642549608
0.305662677296085
0.354198455220556
0.46488430922209
1.03117381462499
0.280047721088283
0.312544137674806
0.373272049677396
0.529218414870126
3.9972631466993
3.52242491168161
3.27383849417203
3.12219677449552
0.85825009128692
0.896358624214472
1.11567749307128
3.31782161675668
0.550739629216946
0.616395627068687
0.971675994405292
2.98769745909496
3.26468592581607
0.93250717245547
5.23596345843017
4.50823200270357
0.442542424195715
0.377610855221924
0.482060328387964
0.33256028310589
0.398558445189399
0.61683643879196
0.300491689378374
0.344159119610827
0.445015386895083
1.0027700001445
0.277150597304985
0.306779058188485
0.362470073186971
0.517460220517266
0.937494876397945
0.280209591079337
0.313858335325905
0.380802061309229
0.524401002167205
4.02502402442387
3.53970932205945
3.29197360510439
3.1508830226331
0.858244532807324
0.896643785477166
1.11011776380168
3.27878063814882
0.55221125127813
0.614845407228679
0.963949141820016
2.9682566388506
3.00569648010294
0.898641718538498
3.29539497570583
5.25714597072873
4.50893437524619
0.442822355298219
0.375139219251662
0.479669541432699
0.328682896812366
0.393060550219371
0.611471177626426
0.296802059106968
0.337865327436664
0.435860470519992
0.993153569147492
0.274586224779632
0.302110413907587
0.354647998715293
0.506966071173097
0.936327036300202
0.277550526809761
0.309261054694603
0.374911539164218
0.521747057689513
0.900613190765376
0.280394820899729
0.315653423791978
0.382047210126446
0.517079441862159
4.05164480188546
3.58187176909058
3.31347654572538
3.14867074790825
0.863391032380314
0.897034609653558
1.10367675881077
3.25698095035996
0.55705737268152
0.616202805492306
0.962885243701428
2.97852550755558
2.9707097236313
0.886985445651161
3.0171940487117
3.30684481874429
5.26186321824533
4.53678670404781
0.446677560524177
0.374976425413789
0.480130593770866
0.326741666752179
0.390816359863192
0.610117124834864
0.294355918189982
0.334299807573118
0.431587988916812
0.990560847566363
0.272464418333078
0.298713531065324
0.349634157954268
0.501165013592733
0.935107221105945
0.257284561274694
0.275171219505074
0.305475138805789
0.369985209340214
0.518658317374812
0.900956956184105
0.278199841065455
0.312682560596009
0.3795602564264
0.516439139925537
0.88717066764857
0.280534956409897
0.316039563548194
0.3800894359867
0.511168279119839
4.06901349337569
3.60414217353889
3.32899135058071
3.20606431223534
0.868871050726593
0.899062565189761
1.09859502937308
3.25879707512223
0.57176266165967
0.621307850577278
0.966680258858377
2.98931009642749
2.97739378968851
0.879129521357448
2.9733751092887
3.02366096824299
3.31550065235858
5.31432902124554
4.54468513030997
0.459125686653017
0.377539497408393
0.484279919888841
0.326211727335806
0.39071724779253
0.61140505839727
0.292840941528349
0.33246916052568
0.429832800983406
0.992485659282012
0.270826222581879
0.296412247945953
0.346683346925301
0.498352658450021
0.934482629395257
0.255911348098918
0.273170667525013
0.302634583138799
0.366557909848503
0.51633763420736
0.900543268147941
0.245525239596794
0.257469104738149
0.276188781560085
0.310047969204423
0.37718866886985
0.515442979626751
0.886848668437208
0.278984200230668
0.314447367456937
0.379134695853967
0.510914672942415
0.878806884789626
0.280159103134617
0.314878412291144
0.376799110330813
0.505221809921937
4.07324184915891
3.61989243280007
3.36243502119815
3.25131513111342
0.886024175121379
0.903014574370793
1.09716659415483
3.27988146396991
0.625792158627685
0.634420545868619
0.981766782723381
2.9971858613557
2.98788943717078
0.869762367679587
2.97718044401914
2.97614017048956
3.03024726371563
3.33163896088872
5.35602151296243
4.61092380035489
0.498290417752217
0.385306324110484
0.496686519337714
0.327213558741448
0.393255155726932
0.61712857485642
0.292071402423839
0.331928943360609
0.429856227076807
0.995773537061212
0.269602678693684
0.294949770661819
0.345081891890408
0.497258051405289
0.934791433703802
0.254721024345609
0.271599684316886
0.300628830853934
0.364376512908174
0.514801557167999
0.900034291669722
0.24457437204431
0.256151776988534
0.274437275651474
0.307929165192567
0.375254894584174
0.514372934514879
0.886198323397772
0.23752582477683
0.245544388848343
0.257625826459982
0.277477482392416
0.312873813369662
0.378045916935652
0.51038028370854
0.878161684050182
0.279227999520934
0.314137405829014
0.376452924919426
0.505095937412429
0.869438151427274
0.279074376612103
0.312662099331217
0.372680233810004
0.498203398038866
4.08760426479464
3.64062805979951
3.40533452077345
3.40888787680393
0.927724078357852
0.912472246204703
1.10548629584337
3.33405604383619
0.929704463019602
0.683224951361413
1.00340028146383
3.00278185522813
2.99613123920442
0.857861717515631
2.98711966570684
2.97798796838942
2.98011658958233
3.03916579930953
3.34928365706884
5.50343821068362
4.57673898216596
0.632230358575408
0.404285544748557
0.536781035077792
0.330461429859133
0.400687014765788
0.630328710351179
0.292043416865154
0.332791124351762
0.432212415724255
1.0070133972211
0.268728896211929
0.29416404789674
0.34450878629078
0.497341469921502
0.935483518651187
0.253689751935468
0.270402276044839
0.299277403115897
0.363057194969088
0.513859194948332
0.899487670518983
0.243649566960672
0.254993665666119
0.273008929334634
0.306313864016079
0.373775362656835
0.513336859024173
0.885303357560996
0.236814829760522
0.244621200461451
0.256425384498489
0.276069088151628
0.311448081911794
0.376945824240233
0.509618441091005
0.877207830434482
0.232136138846622
0.237477353855955
0.245364619602169
0.257740698260454
0.278223151360609
0.313264769157077
0.375891933460201
0.504680233517605
0.868691103169729
0.278598901108849
0.312371936105991
0.372596131930687
0.498169493163773
0.85761651310993
0.277400135267045
0.309753394971715
0.367778412526083
0.489821925819243
4.09252256686571
3.66820644959643
3.49306732275086
3.64382144658235
1.15770412245251
0.940272994817512
1.12480666653091
3.41292537707422
3.07870875889917
0.969387326815008
1.03009536096077
3.00662897851038
3.00211845303373
0.843537056330178
2.99546430097443
2.98716598030766
2.98013082638813
2.98585620709538
3.05014928535692
3.38062081357103
5.69036198270097
3.8730490814397
1.04964714294857
0.444063236964155
0.656465116115899
0.337058731963568
0.418991499789272
0.664600545929049
0.292892537224505
0.335608994153039
0.438235911148266
1.02630228670623
0.268182155030887
0.294042067006144
0.345040911489706
0.499429837051704
0.938079421217352
0.252791479480991
0.269520536012155
0.298456397159835
0.362403007307666
0.513378172715347
0.898904662888842
0.242748538401019
0.253975910984878
0.271867891185512
0.305107754949159
0.372649840781179
0.512329377015301
0.884232004386964
0.2360527735014
0.243712461759301
0.255337798184053
0.274839550061924
0.310208974183483
0.37587646410701
0.508661821945366
0.8760016620468
0.23156728321116
0.236781589630175
0.244498719146999
0.256709342627758
0.277164853939552
0.312321579536887
0.375151449899481
0.503971453869232
0.867628122946908
0.228594830028638
0.232064646946327
0.237169687432855
0.245036036253235
0.257600042641383
0.277976958470015
0.311882765120099
0.37225553341811
0.497809820828907
0.856961976672266
0.277211695821137
0.309694079891819
0.36782349103599
0.489852651011395
0.843411825733016
0.275337405361053
0.306368112649266
0.3621642616618
0.480186087944287
4.10547671168613
3.70988258459
3.70412601432622
4.40687230616592
2.51310024892921
1.17618510040621
1.17396912341745
3.40587309548597
5.56935632745119
2.96800662017695
1.0957489897602
1.09878475615041
3.00810733057151
3.00625796220537
0.827109542745637
3.00167241210895
2.99530713291871
2.98821163596928
2.983660754701
2.99267318976685
3.06124431078117
3.41224625226103
5.97442220864581
3.31903464970527
1.06026235344283
0.506043638088026
1.15754218588776
0.347578713387243
0.448533700014622
1.09475456394711
0.72322023508342
0.294787634886061
0.340980861935527
0.450610130977265
0.734154337747783
1.06975114790692
0.26797374947457
0.294663217292155
0.346898279482899
0.504165220494593
0.941460424258895
0.252008175415978
0.268928863366545
0.298136868915273
0.362479924305849
0.513646489485381
0.898117910687813
0.241861685278505
0.25307478460174
0.270968047312365
0.304231225254084
0.371805104327103
0.511328891683263
0.882939978685529
0.235242231539734
0.242818440914679
0.254349528443634
0.273776401928243
0.309130466890753
0.374827113611658
0.50752398487377
0.874570669297146
0.230909819051275
0.236027952360749
0.243625764392503
0.255724630394974
0.276139666143144
0.311348533948376
0.374254693467122
0.502986526809054
0.866289278582236
0.228117236374538
0.23150520231186
0.236503595792572
0.244255898974176
0.256752468557427
0.277194256633927
0.31121192181756
0.371661045826091
0.497122218652665
0.855954785461702
0.226379663815235
0.228521040658648
0.231719836909907
0.236686563859312
0.24455570012247
0.257036170167748
0.276836332659101
0.309401691064251
0.367585339001205
0.48955019422676
0.842873939452502
0.275316692581345
0.306427982950759
0.362275155604996
0.480264733253883
0.827045659304427
0.273091726518127
0.302708125252432
0.356041179819136
0.46961982026349
4.12079691745599
3.82309748124472
4.20185004395085
6.2779386786611
2.59455446050988
1.4212386175343
3.79398833320395
4.20862058821044
7.04583862283235
4.42545133364611
1.02451394299955
1.2236619101164
1.82791946572704
1.0157359890209
1.64487241764688
3.00479489861237
3.00792242084241
0.808758461349363
3.00600077155068
3.00151221660038
2.9957712188442
2.99022837485353
2.98795959616821
2.9985502999755
3.06971332369608
3.45241325094409
5.3751916532156
0.976054861888342
0.529638886093351
1.10710938808074
0.360883361441367
0.486376820509154
1.19178375636083
2.56963592613912
0.911502315357162
0.297727317240713
0.348784101036328
0.46338524149262
1.22684282116639
0.927540001183188
0.688067577453282
0.895611444561476
0.268113294489645
0.296103524942355
0.349957918308898
0.513065250176144
0.933800520453486
0.856450680817168
0.944208061984461
1.05441822075416
0.251328046970507
0.268625293779025
0.29830920575287
0.363259236694535
0.514590741538977
0.89599765484201
0.240977784663978
0.252271754250183
0.270279742450795
0.303647819586094
0.371246279539756
0.510282477003293
0.880963216305416
0.234380219148617
0.241930425121975
0.253440602140552
0.272848124270904
0.30817369049009
0.373772691831847
0.506178459140269
0.872859664882136
0.230164608523159
0.23522094161426
0.24274716847344
0.254778448424863
0.275152982274183
0.310348179032186
0.373205782530075
0.501732777710295
0.864684745099935
0.227532976453707
0.230852358522247
0.23576862256589
0.243436821505329
0.255879812794227
0.276331202607554
0.310388795119091
0.370825234451406
0.496117776145845
0.854626008079403
0.225970216552401
0.228049925436937
0.231176707825047
0.236065367989949
0.243873769329471
0.256346391842847
0.276234860704549
0.30887099543154
0.367056229265965
0.488901321729344
0.842017449242966
0.225113505222925
0.226312932609577
0.228179912935782
0.231206327624109
0.236114157234565
0.243913301175222
0.256076332972516
0.275085998283292
0.30623543115662
0.362090421973346
0.480013882998436
0.826645989735194
0.273164529239704
0.302827063241951
0.356181854898706
0.469701415466375
0.808455989835017
0.270905760274477
0.29905774354182
0.349773194920974
0.458622870951402
4.27944907072908
4.10275621453384
5.44637106668741
3.11198871262333
3.31322299288818
4.42817052605534
4.89885632165427
4.72110659296529
1.25868504794456
1.20624732283296
2.99553684740839
3.00471274591505
0.787744591061099
3.00779187168594
3.00589047425553
3.00169655307656
2.99682921125701
2.99279902052904
2.99153466492761
3.00051719804159
3.06794005574955
3.47183702090853
3.15914725847201
0.914989572337515
0.529684492436644
0.978015293800412
0.369573309662771
0.509787572096665
1.08342750989607
1.90721056926241
0.891637230267711
1.17053515679615
0.301233588697535
0.358744171892806
0.490323516655247
1.0707712653047
1.57589050578265
0.268540903281535
0.298331711607539
0.35383991946044
0.512674807291382
1.23068616701642
1.20428821533651
1.0447467658804
0.989321861407582
0.250731523921298
0.268604297112517
0.298928278097993
0.364192338818894
0.515041604206253
1.02299156260049
0.891181311310704
0.934522057254115
0.96761041150804
0.240084121763885
0.251552093873618
0.269780265765246
0.303282352083996
0.370838543719371
0.508822072554072
0.877501772001993
0.233460741531003
0.241037176349156
0.252591832471497
0.272023954240512
0.307301174567115
0.372666408115921
0.504480664520441
0.870414506356794
0.229331234863178
0.234358032244356
0.241855367422274
0.253855438689854
0.274186903348047
0.309302859847116
0.371987066137332
0.500177649142338
0.862662650940842
0.226837496502644
0.230108779609126
0.234969427778563
0.242580556247798
0.254977497455618
0.275400387293599
0.309421608391621
0.369751647446801
0.494796446639487
0.852921968406335
0.225445897103948
0.227468274046956
0.230533790358674
0.23535882759015
0.24311596154377
0.255569794030069
0.275478034668094
0.30812220886747
0.366243291851785
0.48790660782079
0.840709112359419
0.224773144211133
0.225908338068403
0.22771828204957
0.23068739244197
0.235546191951012
0.243321277725624
0.255500935429453
0.274591299332491
0.305774676746273
0.361596637260242
0.479413960448716
0.825811543805234
0.225057541690711
0.22599340281572
0.227690905661531
0.230654604498686
0.235524647650484
0.24316118011791
0.254876297570562
0.273013502535279
0.302682931756238
0.356023082147425
0.469480188179462
0.807947778343572
0.27102610424524
0.299198815389346
0.349911998892547
0.458555188694348
0.786960011639616
0.26911994400926
0.29586024327042
0.343950334962822
0.447592523623061
4.72437067178306
3.17793968532096
3.37837639929875
3.93442892991065
2.2186571871879
1.89061444622912
2.988404427218
2.99550403396536
0.764012298087171
3.00465407972314
3.00772716149031
3.00595457031049
3.00220125851827
2.99824734783479
2.99498859480117
2.99234658532949
2.99605448464726
3.0373867508719
3.22309604519668
3.70123266792263
0.883943122923083
0.51323757766157
0.909983762060991
0.372729145402099
0.522929608017679
0.94640589899703
0.303733906287991
0.366976066112594
0.522898512132669
1.12836966955442
1.47599679906146
1.06909161315265
0.269025032928321
0.301093960313725
0.360222949731659
0.511974517664532
0.868424342956488
0.250165263901435
0.268811357289034
0.299968554271054
0.364367169678436
0.511597165804709
1.20526988815512
1.11262443809309
1.04362202446631
0.239161068869821
0.250893640044603
0.269442152769827
0.302999092290507
0.370108756865665
0.506254397513497
0.871933040693808
0.881492269001972
0.905231600716962
0.980318430133639
0.232475116212772
0.240125327933543
0.25178380767663
0.271264792185942
0.306425576962263
0.371346004469573
0.502144141176542
0.866769842380412
0.228407653820076
0.233433284258815
0.240939144863071
0.252936703168845
0.273213920752842
0.308177115457873
0.370538699053119
0.498186832974272
0.859951366547666
0.226032594674855
0.229274392685884
0.234103846508597
0.241680746983742
0.254034471264841
0.274392279187146
0.30829986894607
0.368423867064133
0.493114264583007
0.850701531943856
0.224789636809268
0.226773352220563
0.229793803543532
0.234570826226343
0.242283515110887
0.254702272824782
0.274578803793798
0.307162673528778
0.365147703663666
0.486554492688985
0.838899122829283
0.22431593190763
0.225385443530027
0.22714186967842
0.230059368381438
0.234872710293767
0.242618713042037
0.254792970028972
0.27389534019678
0.305060273987099
0.360796098393267
0.478434275412893
0.824453619174899
0.22472109950899
0.225594515147163
0.227242542641262
0.23016474517118
0.235007578472064
0.242638724000247
0.254374384255778
0.272576609618587
0.302254994599458
0.355548072070013
0.468904786400434
0.807004551580829
0.224766136647296
0.225552136843636
0.227209823494789
0.230181677979431
0.235003439071937
0.242425911790314
0.253656389051539
0.270914300785232
0.299071876881026
0.349752993095505
0.458257459016618
0.786198054318135
0.269257164626807
0.295995823331222
0.344032055308704
0.447167366271957
0.762449487685368
0.268258224073392
0.293843854560334
0.339534421402374
0.437583368845069
3.06240844532914
3.19263853277925
3.23591728226173
1.07145751530878
3.00012317284131
2.98838951838587
0.739450219056844
2.99548065381921
3.00461954795575
3.00774703696448
3.00617033780488
3.00291439194283
2.99951570782702
2.99563074578356
2.98890831186384
2.98298480138562
2.99445812932044
3.06772242194462
3.19237385003994
0.867783407244345
0.501032369058238
0.880110419842777
0.369649749477239
0.509930995143879
0.892357818889896
0.304303355018465
0.370912095281605
0.520038642839449
0.906504724446165
0.269072257952463
0.303254225940084
0.367358118373518
0.519515491084877
0.249510418378338
0.269065190141926
0.301527461852663
0.365582877985678
0.506146905670121
0.238172744614505
0.25024595426039
0.269222703577931
0.302724016353377
0.368555201476955
0.501963820990214
0.231410225705771
0.239174871009373
0.250990719585698
0.2705238264424
0.305410251349787
0.369541945545687
0.498873843500269
0.861683908225677
0.864390496974026
0.868831894924795
0.888602611037455
0.227389894755135
0.232437915526846
0.23998423873774
0.251999179274557
0.27219218662143
0.306897692283012
0.36874210053459
0.495591474130428
0.85631911544949
0.225120047812843
0.228347225576657
0.233166050383372
0.240726541888782
0.253033748347074
0.273284532330525
0.306993324266062
0.366791395518275
0.49098088155278
0.847830079286725
0.224010670075852
0.225967275975565
0.228956831811282
0.23369935840252
0.241371077590965
0.253735558588297
0.27353137762973
0.305984489241441
0.363753266771035
0.484802974496412
0.836535217245123
0.223684917099284
0.224729118191473
0.226448108336022
0.229324170363969
0.234096324759
0.24180544919475
0.253946861762587
0.273009245570407
0.304097836403134
0.359687092570886
0.477067939701546
0.822543276060704
0.223921315548603
0.224264650833211
0.225074083849381
0.22667354890535
0.229553901501329
0.234364561994208
0.241977446005559
0.253708610845646
0.271911128977411
0.301554175881694
0.354752094584249
0.467921055361453
0.805540078896328
0.224433235214019
0.225160424734636
0.226777197256534
0.229720203452108
0.234527311786677
0.241950459551162
0.25319634029084
0.270504112232746
0.298653774715853
0.349274349692246
0.4575984535652
0.785063981472849
0.224380258893248
0.225161170480196
0.226879502708964
0.229898562772071
0.234680306010074
0.241906142045333
0.252702970498046
0.269157582650847
0.295861576538999
0.343829374295445
0.446665095263096
0.761305700839423
0.268388958844439
0.293944778892308
0.339471969134738
0.436604694662007
0.736841090597221
0.269182739374452
0.294295994988581
0.338410024514416
0.431732683027297
3.03904660161857
3.08705306668659
3.12147597404275
3.03227789416475
3.00011815589781
0.719046458134893
2.98838524891312
2.99546486959106
3.00462601301671
3.00783005496708
3.00649472784376
3.00358748310247
3.00002743082254
2.99406506223786
2.98244609025947
2.96917431186883
2.97409970003325
3.02400297030466
3.03888528969574
0.854146534759451
0.49140168059954
0.864131864937325
0.364190150813897
0.498184959868287
0.868270455551097
0.302500444966826
0.368171348099163
0.504131773964747
0.871567923943872
0.268264270236602
0.303706275371185
0.369245512804035
0.507784701768048
0.870237289687349
0.248575642771035
0.268944039682111
0.302892874811989
0.367925426868263
0.502605516272997
0.237058894475882
0.24950281052486
0.269023288383973
0.302675864366346
0.366861164553451
0.496809813048302
0.23024591815225
0.238151257199736
0.250168660399457
0.26976123545685
0.304183897168512
0.367108457145891
0.49465944482457
0.226271776257966
0.231358884294057
0.238970551282528
0.251014341516464
0.271071914838035
0.305369887091322
0.366468097201632
0.49225884093331
0.851663418267272
0.855492188883017
0.856463425840777
0.859855411441986
0.224100295094374
0.227323338618816
0.232147250996984
0.239703324504782
0.251952388873888
0.272041875238873
0.305449923327392
0.364781088653535
0.488309599120908
0.844200453061831
0.223115813284281
0.225051891406062
0.228021014261656
0.232738832848778
0.240368746191659
0.252655478125984
0.27231845803015
0.304564519942214
0.362024540875342
0.482609359123494
0.83357204374074
0.222926040451776
0.223948845324236
0.225639238657962
0.228481776556382
0.233214996627113
0.240876663873068
0.252955629780251
0.271928765924671
0.302880863980254
0.358255215558054
0.475281850939343
0.820075014619498
0.223274365941876
0.223633090381974
0.224417476121455
0.225980769616984
0.228822862877615
0.233596671701338
0.241175365364969
0.252871453760791
0.271026316836579
0.300584596254041
0.35363280695499
0.466511331105505
0.803535405870018
0.223970734082974
0.223877611104664
0.223977844115787
0.224642997415812
0.226216226082459
0.229124844692149
0.233907054487054
0.241314823616102
0.252551777685191
0.269849305989598
0.297952741114336
0.348467194949301
0.456532106793765
0.783457777159509
0.224051000938849
0.224777553806845
0.226462101010958
0.229460107637512
0.234232244984525
0.241457653553937
0.252261580396405
0.268752694263604
0.295433565497576
0.343308507176801
0.44584602106229
0.759913437037615
0.224083479864991
0.224979113836527
0.226828743055318
0.229946296295254
0.234754057422084
0.241889714824731
0.252414246649469
0.268280676474294
0.293776878371946
0.339155663344354
0.43579913231972
0.735131039215796
0.269286032506904
0.294328208868347
0.338130148669976
0.4300093873002
0.715191872440831
0.273425422355191
0.299766712023608
0.345275284800386
0.439217413336045
3.02364345326162
3.05835341538442
3.05253662388946
3.04960403194021
3.03226513676743
0.723356845224583
3.00013713898965
2.98838045979743
2.99546907768607
3.00465558655069
3.00796249508925
3.00681645249182
3.00394051422881
2.9994762954023
2.99109566163266
2.97751918913836
2.96596245573261
2.97354362953806
2.99246932825524
3.00427773299478
0.84159582841391
0.482409701247126
0.851324607503656
0.35819326447198
0.488750279496229
0.854260833816851
0.29911372441834
0.362766965218681
0.49291090282919
0.85461088358347
0.266409408438391
0.301843569932905
0.365624941348628
0.495945814394112
0.855532935659106
0.247187856857662
0.268020483030679
0.302684435412182
0.366471973762164
0.495669990498217
0.85277340878127
0.235739775981032
0.248489439518945
0.268527155356808
0.302543063041411
0.365322447095639
0.492134994857788
0.228954227464024
0.236998183514874
0.249235656597773
0.268936177458276
0.302858463460826
0.364319730926384
0.489983659391924
0.225044923362049
0.230176726231879
0.237866946818148
0.249945399180826
0.269816308099826
0.303548591683366
0.363693242287161
0.488253894098106
0.22297296138994
0.226196684535943
0.231034894547882
0.238591817587477
0.250763078409699
0.270624182703754
0.303614232252075
0.362330718725018
0.485027741143699
0.839767926024956
0.846160877093473
0.849009942988493
0.849954747828438
0.222109270702163
0.224027686058823
0.226982565048573
0.231680808334355
0.239262842499001
0.251442407034372
0.270913972761808
0.302869022617194
0.35991931550251
0.47990734444
0.829957782412825
0.222050791021436
0.223051496751367
0.22471719041986
0.22753046370878
0.23222356825405
0.239823774087711
0.251807858053849
0.270640902510486
0.301392872169232
0.356478679286952
0.473043034087391
0.817035685846065
0.222526947460745
0.22287281464881
0.223634155819203
0.22516630872045
0.22797131169518
0.232701653310009
0.240227731349556
0.251856380407158
0.269918648751023
0.299340922345917
0.352178377729945
0.4646689542303
0.800991626187371
0.223344760229283
0.223232527990347
0.22334491428444
0.223985022975246
0.225522944067485
0.22839517910162
0.23314216883117
0.240515270985375
0.251713484513421
0.268957696665129
0.296971893978183
0.347330221445164
0.455047230898727
0.781350104396661
0.224354210968957
0.22393743319077
0.223616172303584
0.223596193697007
0.224262634576955
0.225907464596106
0.22887532094957
0.233624970312934
0.240833376084075
0.251622218041252
0.268094057401588
0.29471853888616
0.34245758180135
0.444650559802137
0.758111098926311
0.223757779535365
0.224602868044191
0.226423186465465
0.229522997355626
0.234321104670774
0.24145149884641
0.251973657063587
0.267863592711665
0.293316562610869
0.338538939351357
0.434758027835137
0.733350306341407
0.224044537563946
0.225146755857938
0.227209990582072
0.230531886665583
0.235521517476098
0.24279937147524
0.253390507942105
0.269149928804277
0.294096236816686
0.337656147316541
0.428827951369748
0.712762098277871
0.273481657506057
0.299700358324422
0.344744163414191
0.436700411754033
0.719233818339245
0.283999659091176
0.316124777042931
0.373290254853404
0.499836865468514
3.02471770644669
3.05020418506065
3.03429078017122
3.73006693002183
3.04959415554777
0.960768468019774
3.03228292887633
3.00012142561296
2.98838437108533
2.99547885057045
3.00470379617671
3.00809964913782
3.00701746144821
3.00383444881016
2.9982515987981
2.98890124898374
2.97806516607392
2.97319974693783
2.97806331878807
2.9822999625052
2.99773181936069
0.827891078382834
0.47332438771967
0.838884707120295
0.351923532599028
0.479923583517603
0.842394413100237
0.29491183273909
0.356805176121867
0.483919607931643
0.842944885425786
0.263696373704352
0.298419147874618
0.360109093414916
0.486499431008613
0.84459002431271
0.245271263141469
0.266091454409389
0.300460448900134
0.362054402747679
0.487867847823224
0.845647129145181
0.234148122963325
0.247038114657015
0.26731055039711
0.301203881029322
0.362262194120674
0.486991471966943
0.844400456176771
0.227504633411589
0.235641146071543
0.248048702119294
0.267851365178407
0.301319626134713
0.361362386302082
0.485340782554217
0.223700167663723
0.228865008127955
0.236625775941072
0.248736070357815
0.26839991158489
0.30147606994513
0.360552024495731
0.483822534628363
0.221738031918302
0.224959266796749
0.22981133919749
0.237365927492466
0.249436138952056
0.269002354342138
0.301463814163715
0.359443013496906
0.481170892282816
0.220994993944036
0.222894386347369
0.225835871321403
0.230513889441619
0.238036356837579
0.25007388473158
0.269290186387805
0.300866831845224
0.357404844301429
0.476661291015547
0.825659712771639
0.834613906775716
0.840182565661514
0.842882447732132
0.221065010093225
0.222041312759539
0.223682584866423
0.22646680530491
0.23111447559669
0.23863514761258
0.250488310630932
0.269127540569706
0.299612608772505
0.354330327857233
0.470322238056992
0.813407619068618
0.221671800711855
0.221995230726669
0.222731033958097
0.224232147586481
0.226997695568804
0.231674911433121
0.239127263106209
0.250654215855244
0.268578449251581
0.297811813306762
0.350375907796195
0.462382609199822
0.797906503696435
0.222618686260508
0.222484041599352
0.222581325874453
0.223195732270802
0.224699139206609
0.227530485885277
0.232230046116898
0.239546844923358
0.250675002537108
0.26782621565943
0.295706860407367
0.345852006259866
0.453140821416939
0.778733398866995
0.223756154416107
0.223313464661996
0.222970407224336
0.222960241047492
0.223601144358995
0.225210785571095
0.22814260810283
0.232856563573223
0.240028124565401
0.250774350518471
0.267188477902562
0.293718782004613
0.341274213076525
0.443063391777645
0.755857864361074
0.224962354235915
0.224331147412505
0.223702372331994
0.223285640591874
0.223302194170414
0.224088554966201
0.225871159767222
0.228942077623611
0.233716755386584
0.240826126345393
0.25132638071582
0.267188101474191
0.292570501693586
0.337607822992235
0.433389116170487
0.731278775075203
0.223721392120547
0.224775359861552
0.226810989174903
0.230114935849488
0.23509157218244
0.242357143953894