/*--------------------------------*- C++ -*----------------------------------*\
  =========                 |
  \\      /  F ield         | OpenFOAM: The Open Source CFD Toolbox
   \\    /   O peration     | Website:  https://openfoam.org
    \\  /    A nd           | Version:  12
     \\/     M anipulation  |
\*---------------------------------------------------------------------------*/
/*   Windows 32 and 64 bit porting by blueCAPE: http://www.bluecape.com.pt   *\
|  Based on Windows porting (2.0.x v4) by Symscape: http://www.symscape.com   |
\*---------------------------------------------------------------------------*/
FoamFile
{
    format      ascii;
    class       surfaceScalarField;
    location    "300";
    object      phi;
}
// * * * * * * * * * * * * * * * * * * * * * * * * * * * * * * * * * * * * * //

dimensions      [0 3 -1 0 0 0 0];

internalField   nonuniform List<scalar> 
28758
(
-9.19787186217622e-06
-8.47701824353302e-07
-2.69752979424612e-07
-6.45893030903595e-06
-2.97825093152277e-06
2.39308183793154e-07
-3.0639285345318e-06
1.67235550689544e-07
-7.64842839819217e-06
-5.85986726744156e-07
-3.6592949678052e-06
-2.28596084145951e-06
-5.13661873108891e-07
9.94891065283741e-07
-1.97730403683597e-06
-1.89300643590326e-06
-1.02824570937857e-07
-6.44093352202302e-06
-1.02488749193036e-07
-8.65688351220537e-07
-1.38296140236526e-06
-5.87575996326938e-07
-9.8497395968546e-08
1.41880103781363e-07
-4.46525582567916e-08
-1.33865151280129e-07
2.03873676603565e-07
-7.600443819038e-08
-1.32981003484126e-07
-2.35121248992969e-07
-7.55594363030058e-07
-2.90368142736709e-06
-1.34274769537595e-06
-2.14229973951386e-06
-7.78197153626204e-07
-3.51614266995454e-06
-2.73961218213376e-06
-6.98824496237607e-07
-3.32430079777708e-07
-1.40073180450077e-07
-7.80395215876412e-07
-6.40104444454309e-07
9.58009247192095e-08
-2.06808565489828e-08
-1.00480176386947e-07
-7.74631238805054e-08
-4.93900364715236e-06
-1.93822552553109e-06
-2.80745884609861e-06
-3.48392220058591e-07
-3.52245316315491e-07
-6.92418832800059e-08
-7.12651520028899e-07
-5.60647341392128e-07
-4.42088096683329e-07
-1.28404171968284e-06
-1.04189202705377e-06
-1.32189566629186e-07
-7.5578731051819e-08
7.29767314968841e-08
2.02882293370201e-08
-1.16183087547348e-07
3.02398696229108e-08
-3.02813182912663e-08
-4.46111691870634e-08
5.90006808809813e-07
1.59702712995688e-07
5.03927985485935e-08
-3.76641206305236e-07
-4.03952016902524e-08
-6.23459409271388e-08
-5.73341490755108e-08
-1.2596173372894e-06
-3.01208338918309e-06
-5.575189311298e-07
-3.68887613324564e-06
-4.59667530879828e-07
-1.44459627878904e-06
-3.78092876247643e-07
2.91719741867327e-07
-1.09563822972852e-06
-2.36075907910175e-06
-3.53101227525013e-07
-2.77725448206766e-06
-1.48268223734531e-06
-1.37786555082735e-06
-3.77078374528406e-07
1.87152128263433e-07
-4.57800739645329e-07
-1.32665395221855e-07
2.25040931108508e-07
-1.32774039948575e-07
3.37673258977541e-08
-1.10465547970341e-06
3.3852345426225e-07
-1.11966403054406e-07
3.46192601848008e-08
1.1016527843765e-07
-9.75662940053078e-08
-1.33284886473952e-09
-6.99927956291745e-08
-6.1371867287193e-09
-1.11796581161953e-07
-3.7339344758339e-06
5.18606107458535e-06
-3.27853433967994e-06
1.02949268130715e-07
-2.02329727508995e-06
-3.68836364244088e-06
2.68948820824113e-06
-1.04505806269421e-07
-4.25959457434608e-09
-6.6314808130394e-08
-4.95258431701708e-07
-5.25734416323111e-07
-6.87330044469358e-08
-8.76536745746308e-07
-8.5019334255115e-07
-1.1795685191912e-07
2.8074150615935e-07
-9.84479789959438e-07
-2.91014466144537e-07
4.19898751771211e-07
-1.25182170527693e-06
-1.2799064232813e-06
-3.48959137263225e-08
4.33049593714545e-07
-1.59632146862902e-06
-1.09339567695655e-06
4.76105755714255e-08
-6.58177266571953e-09
1.16902429885353e-07
9.48432120526082e-08
1.08199575037113e-08
-7.83579429328633e-09
2.97013366188426e-08
-3.96942967576179e-08
1.53585606392058e-07
1.56700421429987e-07
6.39453115644265e-08
-5.81636943249768e-08
4.37567716757957e-08
-5.44505285338056e-08
-5.57346690972533e-08
-2.30006658367516e-06
-1.73676994030095e-06
-7.19471573955163e-07
-3.94572185591868e-06
-2.37278277589983e-07
-3.91124825939938e-06
-6.54041059578182e-08
-1.09821605794675e-06
-9.38142148103887e-08
-3.55444187274556e-07
-2.1284518201847e-06
-2.21160966627984e-07
5.34124002712036e-08
-9.14036368282557e-07
-2.99842152326912e-06
-1.87748933448072e-06
-3.18084542772462e-06
-3.33383096167035e-07
2.27648237907386e-07
-3.32362194107134e-07
-1.97012034138134e-08
-3.37779153891523e-07
1.69672722320187e-07
-1.05481415528476e-06
-1.43885509164715e-08
-2.96662183059348e-07
5.65400574793057e-07
-6.88121158123349e-07
-2.93044087349196e-06
-3.79047521181697e-09
-9.99128439932857e-08
1.57745672577719e-06
-4.75552809495061e-06
6.86134555141119e-07
-1.37328183716842e-06
1.60729228990014e-06
-3.80916855056923e-06
-3.63072903166906e-06
-3.05348369668871e-07
-8.19496112957563e-08
4.40346423057769e-07
-1.12555643230794e-07
-1.1737701638768e-08
-3.75288816829937e-07
-4.56339321316969e-07
2.99071297842646e-09
-6.72872388710087e-07
-7.17762754917258e-07
-1.16343103991301e-08
-9.06867824885273e-07
-5.25933354984492e-07
4.18184086017926e-08
-1.01612416094992e-06
-1.07039152342619e-06
-1.54979008634215e-08
-1.19415659789684e-06
-8.76715823721316e-07
6.55844995112479e-08
-2.279893594795e-06
-4.06964985405263e-07
4.14485977583633e-08
-1.32929166893835e-06
-1.47779054846031e-06
-2.92390733972839e-08
-1.58696644813988e-06
-1.42306944976503e-06
-5.30310355124674e-08
-2.28726508544637e-06
-1.21194193008584e-06
-6.71788696528922e-08
9.15416394224363e-09
5.13423498572604e-08
1.15138920115638e-07
5.88426159621896e-08
-2.16205946139087e-07
-3.96129793715443e-06
-3.58643594333522e-06
-2.27119087856641e-07
-4.31128621045806e-06
-2.34138150084882e-08
-3.95321625696276e-06
8.85512498825289e-08
-9.55347569371949e-07
-3.75920081529163e-09
5.14748570399677e-09
-1.95697276060854e-06
-1.00737621782308e-07
-2.35503533144786e-07
-4.60627626523831e-07
-3.21152802033769e-06
-7.74599248915074e-07
-4.01498961053013e-06
-2.71712329924211e-07
2.0010384446154e-07
-2.75278841776891e-07
1.45292952707376e-08
-3.55471363374287e-07
2.38598643025686e-07
-9.34457480022047e-07
-2.31756268913688e-08
-9.65493710495424e-08
-2.42232032788752e-07
2.24964049274525e-08
-2.62852212987775e-06
-4.35321823153249e-08
-6.50353310027063e-06
-1.39739694637578e-07
4.93714499839912e-07
8.00019224447901e-07
-4.441946619602e-06
-4.34735965670079e-06
-6.52748729554718e-07
2.46622913852505e-07
-8.29918211551042e-08
2.11993212696098e-07
-4.03468405253939e-06
-2.96430358148375e-07
-3.80744587708036e-07
3.01783953475751e-08
-5.35963900404744e-07
-6.12075410677698e-07
1.88297623343341e-08
-7.75260085740427e-07
-5.08381640144728e-07
2.43025120245828e-08
-8.35197232309897e-07
-9.05215144030661e-07
6.52719890042806e-09
-9.6995643126922e-07
-7.85526222181372e-07
2.37645101530536e-08
-1.84070216240283e-06
-5.71320937570881e-07
-6.82662035853999e-08
-1.13313929866932e-06
-1.25939252399341e-06
-7.15042885440861e-09
-1.28244221444841e-06
-1.19852824446062e-06
1.7940879166544e-09
-1.58751015635683e-06
-1.0123135852073e-06
-2.88152218271051e-08
-3.38357472700827e-06
-5.32630634188385e-07
1.04036470858511e-07
-1.39934273563704e-06
-3.09536817376423e-08
-1.59984442660717e-06
-1.66725251005007e-06
-6.09761575440868e-08
-1.87617746414079e-06
-1.60951038204875e-06
-7.31999643015199e-08
-2.34775703414381e-06
-1.32185061712684e-06
-1.87993786004007e-08
-6.85966312275931e-08
-4.66726720482562e-06
-4.34271607216977e-06
-2.32179068459713e-08
-4.30629421055114e-06
3.1849751974302e-08
-3.89648749822726e-06
1.32278854687929e-07
-9.01229583730264e-07
1.37186499016524e-08
1.34748794142204e-07
-1.82930250066385e-06
-2.75514495834239e-08
-1.64925506856428e-07
2.36457133597861e-08
-3.14844318651971e-06
-1.63478116038054e-08
-4.24649109136249e-06
-2.07894601366176e-07
1.49610409478841e-07
-2.49104636016223e-07
3.21126909767024e-08
-3.14289412672149e-07
2.26042297170854e-07
-8.45775642327884e-07
1.41065764842848e-08
-7.41259117836895e-08
-4.23425398335856e-07
2.65668785554884e-07
-2.41979129279581e-06
-7.12497998628419e-07
-6.78778189662336e-06
-3.66607514081231e-07
-3.48097685823503e-08
-5.56588202941194e-08
-5.61302357769982e-06
-3.11971626972922e-06
-8.23223147516848e-07
7.8971634358419e-08
6.93452083342672e-08
-3.24773416732556e-08
-4.26679101620211e-06
4.1289788066623e-07
-5.01690988864131e-07
-4.01996780734272e-06
-2.44058463809825e-07
-3.0504718668433e-07
4.47849433447343e-08
-4.34413845125384e-07
-5.19000102380662e-07
3.67079517876056e-08
-6.65204791344319e-07
-4.41903677673215e-07
4.77473948141899e-08
-6.94275069067415e-07
-7.75314257916013e-07
2.23182475295257e-08
-8.0470181097304e-07
-6.92851116637151e-07
3.80500673610047e-08
-1.60262381519907e-06
-5.72894767331964e-07
-6.42881259019003e-08
-9.67030951642621e-07
-1.08005491174602e-06
8.7324785323421e-09
-1.06405037577463e-06
-1.0219481977767e-06
2.45607310693194e-08
-1.26710974808452e-06
-8.9714395953246e-07
2.91935879507738e-08
-2.81673281949964e-06
-5.79560680917916e-07
1.3826908163355e-08
-1.22540508550008e-06
-1.10361314399774e-08
-1.36377294720733e-06
-1.4249075228438e-06
-1.68395289365546e-08
-1.51901595758669e-06
-1.36475831922326e-06
-2.91832087983099e-09
-1.84239317118816e-06
-1.10797701792293e-06
4.11732343350719e-08
-2.50689958515843e-06
-6.77511817677185e-07
1.33940235598372e-07
-1.64225541713375e-06
-6.88701216637521e-08
-1.84166817608736e-06
-1.89486777939315e-06
-9.20495653227106e-08
-2.03199734660378e-06
-1.73801339287923e-06
-8.45188530996988e-08
-2.16276919346183e-06
-1.35251193387167e-06
6.41858661217671e-09
1.37907666431467e-08
-4.6973578897862e-06
-4.32841901428722e-06
5.50370214008498e-08
-4.1946823502385e-06
4.80097161066707e-08
-3.81218263585884e-06
1.21840860297027e-07
-8.94343362821727e-07
2.08944946043066e-08
1.57128411159528e-07
-1.75395923417919e-06
7.32474375520003e-09
-8.95033031735379e-08
2.17800741581555e-07
-3.03858096229158e-06
3.11517428070569e-07
-4.2345502003742e-06
-1.29352902935896e-07
8.5917597370615e-08
-2.42204773085608e-07
3.65376062973787e-08
-2.74277485345423e-07
2.05259949295861e-07
-7.85186804268928e-07
4.05509490393156e-08
2.07590276318054e-09
-4.54995229972211e-07
3.12092706532659e-07
-2.26484123889413e-06
-1.11768824945522e-06
-6.59161981597139e-06
-3.62770933947918e-07
-2.94661291242587e-07
-6.02892497242364e-07
-5.94586201767002e-06
-2.85899275998599e-06
-8.59472445380268e-07
-6.01060654890832e-08
-2.15055961628259e-07
-2.81618646043945e-07
-5.14879807916712e-06
-2.46522809498294e-07
-4.64260496086655e-07
-4.05767169696124e-06
6.61677151077578e-07
-9.5233413207751e-07
-3.72719298958656e-06
-2.05390989190686e-07
-2.21399027015915e-07
5.33830789540233e-08
-3.57436297976751e-07
-4.32571254322125e-07
5.05481689391726e-08
-5.86065315322653e-07
-3.74812330320575e-07
6.61905995015691e-08
-5.82380562809055e-07
-6.658707347741e-07
3.49776145812128e-08
-6.75579024908081e-07
-5.99024782354123e-07
6.47107989041382e-08
-1.428824619086e-06
-5.15102370437854e-07
-6.59250028313733e-08
-8.29271691224211e-07
-9.34030366780912e-07
2.09576476589285e-08
-8.95879428838049e-07
-8.84345979182454e-07
4.56456890587351e-08
-1.0618528966717e-06
-7.94507440811792e-07
5.4412863580009e-08
-2.50966043869292e-06
-5.96708835226378e-07
-2.11402679277476e-08
-1.07346619331083e-06
-1.23620017720894e-06
4.20709022365763e-09
-1.1663922628228e-06
-1.22669083766922e-06
1.60975464751224e-08
-1.26071437993315e-06
-1.16989707479291e-06
3.90165979801118e-08
-1.49713772941017e-06
-9.73859378638854e-07
7.8245923102506e-08
-2.14812301140747e-06
-6.49083494806787e-07
8.90986985474138e-08
-1.4386904446776e-06
-2.80745194063766e-08
-1.57182259354163e-06
-1.62482219407862e-06
-2.66181388088627e-08
-1.6702738830642e-06
-1.47573685383495e-06
3.12331387445846e-09
-1.75469132507196e-06
-1.14049362660467e-06
9.60846331629214e-08
-2.3652214550462e-06
-7.17497666661083e-07
6.30233702067347e-08
-1.87790225089961e-06
-1.08980537787295e-07
-1.99951349290567e-06
-2.04971130179375e-06
-1.14861674976877e-07
-1.99188939607556e-06
-1.76282789408003e-06
-6.3019520721132e-08
-1.97782689214552e-06
-1.31926715096233e-06
3.94390088043081e-08
-1.19657251937343e-08
-4.37383237146821e-06
-4.06748077209148e-06
5.72179375377655e-08
-4.04670759108765e-06
3.85976186303873e-08
-3.7289057152816e-06
9.19570941326445e-08
-9.19178521388745e-07
1.88078485625225e-08
1.39658295567165e-07
-1.7038631446471e-06
3.64266146685147e-08
-2.48853622643968e-08
2.42003541568345e-07
-2.93622522688415e-06
3.6223038255594e-07
-3.9599165985679e-06
-3.75173245472747e-08
8.7819777690011e-09
-2.6076363140556e-07
4.72980647529629e-08
-2.16662843913818e-07
1.76946960296634e-07
-7.38156618386426e-07
2.92346541030693e-08
3.14400731264212e-08
-5.03212854415452e-07
3.86225123919535e-07
-2.138718273409e-06
-1.31229955708398e-06
-6.39534670862677e-06
-3.56776397814148e-07
-3.12342197302606e-07
-9.30097160293595e-07
-5.95204944205563e-06
-2.7973569561354e-06
-8.29859798487299e-07
-1.17859865817217e-07
-2.90055280930133e-07
-6.38708822330085e-07
-5.29869146897866e-06
-3.12462789229026e-07
-6.28725020319533e-07
-4.6718375005524e-06
-3.985015695724e-07
-8.76003969984234e-07
-3.73546660475767e-06
8.41257949602117e-07
-1.23084070113959e-06
-3.30613237767929e-06
-1.75116538823387e-07
-1.33039960211675e-07
6.52511436770099e-08
-2.92527689157089e-07
-3.47957263211181e-07
6.16515703027118e-08
-5.22763508343896e-07
-2.99019144681897e-07
7.24465661385806e-08
-4.90575897748733e-07
-5.69325477787127e-07
4.49508412906764e-08
-5.77477855099146e-07
-5.11091807874437e-07
8.87326608922842e-08
-1.303083096588e-06
-4.62966583222516e-07
-9.97786027665302e-08
-7.14564561213185e-07
-8.11402846223233e-07
3.08260133893858e-08
-7.61756971963729e-07
-7.66592661952917e-07
6.84270749687397e-08
-9.04833687508813e-07
-6.94161901259061e-07
8.67577051218217e-08
-2.33034101522252e-06
-5.66226648949773e-07
-7.74880129144084e-08
-9.42482093893614e-07
-1.08037322778274e-06
1.53595499787398e-08
-1.00488494349226e-06
-1.06558787895201e-06
4.06949523676309e-08
-1.06633661502799e-06
-1.01688662908511e-06
7.36510838083341e-08
-1.27294591098634e-06
-8.68759384170465e-07
1.02279186432091e-07
-1.90765063405528e-06
-6.20273779834026e-07
4.62203255162977e-08
-1.15988740373825e-06
-1.37068158545326e-06
-3.54589727989776e-09
-1.26142174111615e-06
-1.40331136777298e-06
3.56109317506929e-09
-1.34685509810337e-06
-1.40361019858281e-06
2.48457758758965e-08
-1.39489965474225e-06
-1.27594425146395e-06
6.57315579565509e-08
-1.46360064451596e-06
-1.00101615473715e-06
1.39094474501785e-07
-2.02134490333369e-06
-6.44088389776455e-07
9.92757037542081e-08
-1.6466249038823e-06
-4.65802199420266e-08
-1.7111994892938e-06
-1.76343250450323e-06
-2.72331601574075e-08
-1.66442677514084e-06
-1.5054195646172e-06
4.05914955911623e-08
-1.63109163277625e-06
-1.11949045889793e-06
1.51349188691247e-07
-2.37111746543234e-06
-7.05387523771736e-07
2.98433072856573e-08
-2.04067233574309e-06
-1.45762661378282e-07
-2.01405553556365e-06
-2.08270094822079e-06
-1.19936674522558e-07
-1.88371693139275e-06
-1.70997828572326e-06
-2.29448041820529e-08
-1.86912178871898e-06
-1.25493551261231e-06
9.20439255843506e-08
-3.32548432316973e-08
-3.97831094133127e-06
-3.80143371957464e-06
2.93610233035994e-08
-3.89775985872221e-06
-8.44721569043303e-09
-3.62847323345529e-06
7.85654811687846e-08
-9.83659576053058e-07
-5.29404528580817e-09
1.51042491141318e-07
-1.66638277095152e-06
7.26083112619253e-09
4.68055553882161e-08
2.50537427166627e-07
-2.81088218001014e-06
3.97794939701021e-07
-3.46959231548008e-06
6.34134672424175e-08
-1.99749777093869e-08
-3.48763462744345e-07
4.4563813658078e-08
-1.49446822329368e-07
1.32511427800144e-07
-6.96071642957448e-07
2.21594638030604e-08
-6.1410394256243e-08
-4.97899704894533e-07
4.40748884497487e-07
-1.99090716223929e-06
-1.35390379917653e-06
-6.18100839414233e-06
-3.4265451691075e-07
-3.09101694867882e-07
-1.0974040882153e-06
-5.91892416820426e-06
-2.78611977142442e-06
-7.87286663544393e-07
-1.31985169600491e-07
-3.08174945680061e-07
-8.53681232185317e-07
-5.4288747541962e-06
-3.19261810530668e-07
-7.61520681017858e-07
-4.84660668334434e-06
-3.13811879740537e-07
-8.91550407777152e-07
-4.34243942778776e-06
-3.42830398641352e-07
-1.1609096406657e-06
-3.46254247460246e-06
9.41151203907803e-07
-1.44689302969753e-06
-2.86176099575613e-06
-1.61108876796317e-07
-4.60939357732943e-08
9.55026217818943e-08
-2.31857069568704e-07
-2.65366610281084e-07
7.1657777254317e-08
-4.60734805031829e-07
-2.23940491794108e-07
7.77232816263532e-08
-4.10866694029275e-07
-4.81345662773186e-07
5.36803432854719e-08
-4.94786455175486e-07
-4.27231284385038e-07
1.07176863919202e-07
-1.19322538026145e-06
-3.97709924486528e-07
-1.37587558983077e-07
-6.16975146790789e-07
-7.05417020223449e-07
3.8502987404523e-08
-6.52391801292999e-07
-6.63144294279055e-07
8.76410300848906e-08
-7.86165184599473e-07
-6.01864687708472e-07
1.08968310480873e-07
-2.16425013712926e-06
-5.10140215438809e-07
-9.85277293567887e-08
-8.29420143450555e-07
-9.48246248569546e-07
2.37822325692994e-08
-8.70657517903321e-07
-9.30360987451133e-07
6.03693414943085e-08
-9.11622369101046e-07
-8.85875275835644e-07
1.05429585096051e-07
-1.10600714602636e-06
-7.69745865327224e-07
1.23345371495229e-07
-1.74751212377603e-06
-5.62628376032842e-07
1.12027307291626e-08
-1.03713056103288e-06
-1.20998859045169e-06
6.85913367914634e-09
-1.10940650261453e-06
-1.22943082442579e-06
2.71896790445383e-08
-1.16287088935313e-06
-1.22293404327206e-06
6.27613800640353e-08
-1.18635489905476e-06
-1.11508066671634e-06
1.11431080524017e-07
-1.25750977911534e-06
-8.90749852045835e-07
1.6667264997008e-07
-1.79400911548441e-06
-5.96085215151347e-07
9.5729671850385e-08
-1.22961647709203e-06
-1.48380369566391e-06
-1.15025209242213e-08
-1.34482895224513e-06
-1.55309996689088e-06
-1.328960181165e-08
-1.44527488709242e-06
-1.60353150814211e-06
2.13464571919872e-09
-1.47137536861458e-06
-1.53002739410843e-06
3.91090812783625e-08
-1.40505969267791e-06
-1.30668824875649e-06
1.12041507722167e-07
-1.3714158020585e-06
-9.78241137570779e-07
2.13578548633446e-07
-2.05439889191126e-06
-6.30876081158573e-07
1.0527518471629e-07
-1.79241951435108e-06
-6.2383886487373e-08
-1.73253924788018e-06
-1.79915950518342e-06
-1.50045428069521e-08
-1.58802102171828e-06
-1.46748439378426e-06
9.28948785177007e-08
-1.56234961643366e-06
-1.0725213564585e-06
2.11717740104297e-07
-2.41316359236521e-06
-6.76506406982748e-07
2.43036956357587e-08
-2.07564914837636e-06
-1.71735449003634e-07
-1.94157571642542e-06
-2.02443899942064e-06
-1.06922206562255e-07
-1.77463987839209e-06
-1.62224053889717e-06
2.96831598033908e-08
-1.79410975952918e-06
-1.17901539455379e-06
1.56465856039209e-07
-1.58943993515502e-08
-3.56458208372023e-06
-3.53737345505653e-06
-3.01274495461341e-08
-3.72499831949619e-06
-6.66101852908542e-08
-3.48327510654075e-06
1.69917194887223e-07
-1.14365409543227e-06
-2.98911618912809e-08
1.54843111061122e-07
-1.6217359865855e-06
-7.22508278156094e-08
-1.7055760499507e-08
2.9685187744892e-07
-2.64261812519004e-06
4.0862331011824e-07
-2.95405221925658e-06
1.35568484286011e-07
1.08356750117143e-07
-6.42721723482063e-07
5.00339796187562e-08
-9.23116346650436e-08
1.4063222778217e-07
-6.97158435577904e-07
-2.66325873602967e-09
-2.18193359765412e-07
-5.01471842490681e-07
5.20800119729994e-07
-1.76986517219637e-06
-1.28520609541796e-06
-5.95750851239379e-06
-3.24214803641532e-07
-2.95518041663567e-07
-1.14540962055215e-06
-5.83746173922868e-06
-2.78609225827182e-06
-7.32932346409685e-07
-1.18779474271403e-07
-2.99824532988975e-07
-9.64361194836385e-07
-5.50840996386086e-06
-2.9898369365154e-07
-8.64191256469038e-07
-5.02719448436477e-06
-2.90032823914348e-07
-9.18059127337534e-07
-4.53004265127043e-06
-2.77860863686824e-07
-1.12818098730651e-06
-4.0972778362377e-06
-3.1192754984296e-07
-1.42327063907461e-06
-3.17420985782247e-06
1.12972441323939e-06
-1.82817085369166e-06
-2.38147761747604e-06
-1.74288408959066e-07
1.49045903826211e-08
1.33845728430549e-07
-1.72304664063909e-07
-1.89927143137208e-07
8.42820370453809e-08
-3.90782715508901e-07
-1.66677200080025e-07
9.99230557901809e-08
-3.36616770034815e-07
-4.00494523393308e-07
6.08791094262267e-08
-4.1900137883243e-07
-3.49349377156147e-07
1.21285120119667e-07
-1.0629465668901e-06
-3.37599710563973e-07
-2.16414171279515e-07
-5.30861171395696e-07
-6.1178304438174e-07
4.43241830594426e-08
-5.58482499472157e-07
-5.70410161951392e-07
1.02952870437008e-07
-6.86443201033336e-07
-5.15535356883482e-07
1.25285980337424e-07
-2.04075798388009e-06
-4.51353557855529e-07
-1.21637049075278e-07
-7.30631071043837e-07
-8.34380145143304e-07
3.01747355694829e-08
-7.56947899162146e-07
-8.14049637821652e-07
7.57006893121391e-08
-7.85123313798779e-07
-7.71506884100335e-07
1.30788086096958e-07
-9.73718488628715e-07
-6.77548816977927e-07
1.44095229215746e-07
-1.61245114945348e-06
-5.03139105858209e-07
-8.29634510221609e-09
-9.28047198083431e-07
-1.07193148952117e-06
1.46025085783336e-08
-9.78550418244675e-07
-1.08242841211769e-06
4.49952734155944e-08
-1.00951085321791e-06
-1.07094973708897e-06
9.20868077040591e-08
-1.01983101077871e-06
-9.7805407019567e-07
1.4721816312329e-07
-1.0945214120688e-06
-7.91043462127834e-07
1.88778334859435e-07
-1.62936010361207e-06
-5.25241253318821e-07
8.17763342949795e-08
-1.11577997088516e-06
-1.32206466340414e-06
-1.75985587590188e-09
-1.2031574157384e-06
-1.37320011764033e-06
8.95890579368187e-09
-1.27233588024033e-06
-1.40750556442741e-06
3.88244548863289e-08
-1.27357212690822e-06
-1.33832341962117e-06
8.82045287091044e-08
-1.20087429456544e-06
-1.14630131077409e-06
1.62802221756213e-07
-1.1803981127967e-06
-8.67728227981522e-07
2.47305060345059e-07
-1.82947596684196e-06
-5.59653699749563e-07
1.31487595988539e-07
-1.28624558803925e-06
-1.57814447362177e-06
-1.79942134552667e-08
-1.41377177047669e-06
-1.67816152521001e-06
-2.94019585366077e-08
-1.53769876020018e-06
-1.77263115747431e-06
-2.55694354982772e-08
-1.57587103879978e-06
-1.74651241332499e-06
2.07389066197444e-09
-1.49583282288452e-06
-1.5671577119366e-06
6.28757430877854e-08
-1.34853561088865e-06
-1.27738775170318e-06
1.71705965766205e-07
-1.32543509404708e-06
-9.37226907095021e-07
2.83021061855899e-07
-2.12683233877029e-06
-5.95219010190929e-07
1.1435423321211e-07
-1.8279073305632e-06
-7.10053944620064e-08
-1.67833839815223e-06
-1.75559332859187e-06
9.87080945558947e-09
-1.50661461512529e-06
-1.39850448043637e-06
1.50856599757432e-07
-1.5206316314578e-06
-1.0131668285955e-06
2.74906249509866e-07
-2.46306788447842e-06
-6.27935870068571e-07
3.37120507446901e-08
-2.02184907210954e-06
-1.83732340919281e-07
-1.84283050354787e-06
-1.9229167507036e-06
-8.10401507264406e-08
-1.67929474781613e-06
-1.520262141774e-06
8.93945043575138e-08
-1.73395223420964e-06
-1.09364081646843e-06
2.28935077985529e-07
8.58169562369952e-09
-3.16451825586674e-06
-3.2620141915376e-06
-1.54637999452593e-07
-3.48208648941424e-06
-1.13582208647412e-07
-3.19975128646121e-06
4.74108690097323e-07
-1.45807363794725e-06
-5.13266152607968e-08
2.45316812002047e-07
-1.62091712248315e-06
-1.353696013887e-07
-1.38285643728956e-07
3.45859985049382e-07
-2.4016175408273e-06
4.75515176598449e-07
-2.43810644239083e-06
-1.09892331910771e-07
9.64810389678194e-07
-1.71583856160605e-06
2.1820020435847e-07
-5.0156410390916e-08
2.37562860846681e-07
-9.38071187049467e-07
1.03541977916202e-07
-4.7369713557102e-07
-5.75106478240648e-07
5.60076122769243e-07
-1.28378893930277e-06
-1.14360093645506e-06
-5.7441842210468e-06
-3.010172536239e-07
-2.80945175041258e-07
-1.1035502109239e-06
-5.71841059504259e-06
-2.7946063802091e-06
-6.7694264820079e-07
-8.52758267023278e-08
-2.86320479533966e-07
-9.90118409898051e-07
-5.52536523407148e-06
-2.87246943519839e-07
-9.11702992219253e-07
-5.17362584062996e-06
-2.80433766012212e-07
-9.32187245783934e-07
-4.73260941325251e-06
-2.6890361495965e-07
-1.08661708556694e-06
-4.30268317130586e-06
-2.70066111534425e-07
-1.36795788841109e-06
-3.88249322798231e-06
-2.68525233616887e-07
-1.77235418535022e-06
-2.96149278709362e-06
1.41621922104749e-06
-2.31841173201307e-06
-1.9529599893831e-06
-5.63185008930775e-07
-8.32247754463001e-08
3.62232036033989e-07
-1.18462185063761e-07
-1.33552310570762e-07
9.46157518338573e-08
-3.30625650791579e-07
-1.87723043488601e-07
2.11261615653875e-07
-2.63711829282194e-07
-3.28609506847158e-07
6.57783729438757e-08
-3.52833611043812e-07
-2.83234080188973e-07
1.34674673814961e-07
-7.9609329136904e-07
-3.2293494197269e-07
-4.19088301095651e-07
-4.51585360806685e-07
-5.28455284432096e-07
4.8685624698569e-08
-4.74099885558533e-07
-4.87711780635601e-07
1.14861236549872e-07
-5.94081234111949e-07
-4.38598325887754e-07
1.29926229828847e-07
-1.95528525250613e-06
-3.9471208625421e-07
-1.75678639616977e-07
-6.42394054657327e-07
-7.34938150555655e-07
3.49186873143204e-08
-6.57874867720039e-07
-7.12404064630462e-07
8.7246685767425e-08
-6.77249686584713e-07
-6.70485617520315e-07
1.50032064287993e-07
-8.67120054364525e-07
-5.92933983036013e-07
1.60274756759113e-07
-1.52216606277256e-06
-4.51413593427541e-07
-3.05606627256029e-08
-8.305277141953e-07
-9.52358974066925e-07
2.04600419173668e-08
-8.6456640605362e-07
-9.56212160856696e-07
5.83547870805015e-08
-8.79249487356744e-07
-9.40421650178441e-07
1.14356959655432e-07
-8.82624678235988e-07
-8.58758069610759e-07
1.74794956780571e-07
-9.63235171536591e-07
-7.00428454987641e-07
2.10104832440506e-07
-1.4959412747897e-06
-4.78344572232541e-07
6.77409658548702e-08
-1.01201833541918e-06
-1.18128037043579e-06
5.58771193204328e-09
-1.07763396826642e-06
-1.21908995441768e-06
2.57423697934366e-08
-1.12298659984346e-06
-1.24163744749235e-06
6.63358650624337e-08
-1.10770700824092e-06
-1.17679674508695e-06
1.24967199988371e-07
-1.03473956717747e-06
-1.0100773478217e-06
2.00121693150736e-07
-1.02207037433368e-06
-7.69297912500554e-07
2.74514287723305e-07
-1.65859708616235e-06
-5.0439662620202e-07
1.34875230688887e-07
-1.1812288046951e-06
-1.41816414443776e-06
-8.9167434053472e-09
-1.28320364190688e-06
-1.49695432290032e-06
-8.57234762650715e-09
-1.3762321096226e-06
-1.56930567697813e-06
9.29416612854718e-09
-1.38900757389113e-06
-1.53701409925035e-06
5.0653666284837e-08
-1.29788740736774e-06
-1.37578051356659e-06
1.19741940383048e-07
-1.15538942300052e-06
-1.12321877275709e-06
2.25150528767063e-07
-1.13766100457512e-06
-8.27352503299431e-07
3.27235032334682e-07
-1.90892089563143e-06
-5.33245420654623e-07
1.59587825137339e-07
-1.33211815844329e-06
-1.65655698344761e-06
-2.27725117855676e-08
-1.47029626775147e-06
-1.78223792776867e-06
-4.21601850923793e-08
-1.61564177611604e-06
-1.91385548723227e-06
-5.07883818164445e-08
-1.67721915814546e-06
-1.92970669866772e-06
-3.83199516170264e-08
-1.61042237277746e-06
-1.78890905504813e-06
6.34255674077525e-09
-1.45413983543499e-06
-1.53423507201278e-06
9.55272352801946e-08
-1.28534571133088e-06
-1.22029267781192e-06
2.33507085952153e-07
-1.29887411815402e-06
-8.85761548797112e-07
3.5180971556867e-07
-2.20359114343242e-06
-5.62651344627199e-07
1.31220309738271e-07
-1.7859049704351e-06
-7.04782765095164e-08
-1.60010083058424e-06
-1.67335937553762e-06
4.19993174258633e-08
-1.43591106787564e-06
-1.31537847561729e-06
2.09687283760111e-07
-1.48566133358664e-06
-9.42670614726456e-07
3.4135537933079e-07
-2.51324688227772e-06
-5.85008991547288e-07
5.64268458880788e-08
-1.93310687006446e-06
-1.83052752285165e-07
-1.74407451757687e-06
-1.80368527936262e-06
-4.65857868143694e-08
-1.59460227324468e-06
-1.40848218243537e-06
1.52027734877086e-07
-1.68414086538012e-06
-1.00041238808254e-06
2.96963946108832e-07
1.39597989213274e-07
-2.82857575952082e-06
-2.93117721579305e-06
-2.60161072932022e-07
-3.09015706885968e-06
-5.46401555262146e-08
-2.67097990829455e-06
1.00128536281863e-06
-1.60550427571283e-06
1.10967461501783e-07
4.74999859262965e-07
-1.77722078500692e-06
-1.32438413217494e-07
-3.29152887102325e-07
4.04947331717632e-07
-2.05268725279084e-06
6.40219661903712e-07
-1.9912243665847e-06
3.43978088593342e-06
-5.06011472425757e-06
-9.54986931634057e-08
-9.31130765974993e-08
9.69162505421929e-07
-1.82599022967775e-06
2.30069171174354e-07
-9.97009918982727e-07
-6.37011665872275e-07
3.88648866838003e-07
6.51318078572254e-08
-9.63518692638194e-07
-5.55750211468356e-06
-2.74875521264583e-07
-2.62225355124871e-07
-1.00105744813584e-06
-5.58443868046748e-06
-2.81982879115787e-06
-6.09944776980721e-07
-4.84839843938324e-08
-2.69406620766368e-07
-9.51631310780396e-07
-5.487473603178e-06
-2.7577946729963e-07
-9.03930120108307e-07
-5.25733891156946e-06
-2.70818034239605e-07
-9.18696883924815e-07
-4.91628138152949e-06
-2.66594440734729e-07
-1.03146009795177e-06
-4.52115195384255e-06
-2.73651947157941e-07
-1.26628820131077e-06
-4.1306787970735e-06
-2.60034571036189e-07
-1.64878266500645e-06
-3.74601389353087e-06
-2.57889955604425e-07
-2.22413069797887e-06
-2.79786893382829e-06
2.1339505913527e-06
-3.4375099203973e-06
-1.64639018974546e-06
2.25993474414261e-07
-7.74034695773212e-07
-2.2874742408862e-07
2.13604104092371e-07
-1.36067412333081e-07
-1.22586003001525e-07
5.6966604711501e-08
-3.61940984470612e-07
9.32237084410613e-08
2.07213724413231e-07
-1.92175059946378e-07
-2.70800384413853e-07
6.57123478040801e-08
-3.50513077103609e-07
-2.35083740616892e-07
1.39657384889414e-07
-4.23626099422561e-07
1.74149975349766e-07
-9.723613905873e-07
-3.75937972769106e-07
-4.55527472073908e-07
5.1271221032153e-08
-3.99214036428279e-07
-4.15740190285711e-07
1.23401861002654e-07
-5.16217016691997e-07
-3.79485744146495e-07
1.13366813466263e-07
-1.9550181345793e-06
-3.68120505639656e-07
-3.09104458601593e-07
-5.61483151846957e-07
-6.47605742509855e-07
3.82400996394799e-08
-5.6927306133541e-07
-6.23225454034752e-07
9.55992124504976e-08
-5.82012435223162e-07
-5.82195487034098e-07
1.63224344805199e-07
-7.7908764825529e-07
-5.18527773761585e-07
1.65713429191012e-07
-1.48281112990761e-06
-4.03042410657725e-07
-7.20126139859114e-08
-7.42319706030849e-07
-8.47991227944876e-07
2.48456144271502e-08
-7.63578924897334e-07
-8.46617536001313e-07