/*--------------------------------*- C++ -*----------------------------------*\
  =========                 |
  \\      /  F ield         | OpenFOAM: The Open Source CFD Toolbox
   \\    /   O peration     | Website:  https://openfoam.org
    \\  /    A nd           | Version:  12
     \\/     M anipulation  |
\*---------------------------------------------------------------------------*/
/*   Windows 32 and 64 bit porting by blueCAPE: http://www.bluecape.com.pt   *\
|  Based on Windows porting (2.0.x v4) by Symscape: http://www.symscape.com   |
\*---------------------------------------------------------------------------*/
FoamFile
{
    format      ascii;
    class       volVectorField;
    location    "300";
    object      U;
}
// * * * * * * * * * * * * * * * * * * * * * * * * * * * * * * * * * * * * * //

dimensions      [0 1 -1 0 0 0 0];

internalField   nonuniform List<vector> 
10107
(
(-7.77982313177012e-05 0.000173436629169732 -0.000226531759767566)
(-0.000121983560365304 0.000323792515319663 -0.000765711038766881)
(5.49008310999685e-05 0.00059727347726561 0.000195363651193185)
(3.80729407448604e-05 0.000182005892030462 -0.000412105278535072)
(-0.000144296781977386 3.09386172607787e-05 -0.000818020104903541)
(-2.47255632240392e-05 0.000451480285570359 -0.000172153996252563)
(-5.62001495782491e-05 0.000203784843641008 -0.000681106062267516)
(-7.49383235891862e-07 0.000442535264927251 5.96856980640871e-05)
(7.46224601898651e-05 0.000576043441701733 -5.95336405051165e-05)
(8.73209794813075e-05 0.00055988480400199 -0.000322235623612164)
(-6.7527120249653e-05 8.51129562145199e-05 -0.000150893812575805)
(-4.45126703951612e-05 0.000418058462151624 -0.000338064675810462)
(-0.000197386487660299 -0.000135197834784473 -0.000593913691867222)
(-2.13844059634924e-05 0.000348949127885478 -0.000221097557498885)
(5.71710227629906e-05 0.00050508261677248 -0.000345246560414105)
(-4.52217266151858e-05 0.000309554418543218 -0.000840081955335118)
(-1.24737422858754e-05 0.000645254876727697 -0.000350951965736768)
(-1.02162077673486e-05 0.000408557877680345 2.07240620539085e-05)
(8.67709178664327e-06 0.000572415411192873 0.00033262479373886)
(1.59948565055199e-05 0.000497154302224303 -0.000109568559685772)
(1.45068541480629e-05 0.000527913799814778 -7.1609895560341e-05)
(5.5803147452272e-05 0.000619219005217471 0.00012443001714695)
(6.4738188548906e-05 0.000596415638507915 0.000219677040499824)
(4.74922534231273e-05 0.00052404396889719 -0.000176597433338407)
(5.0394518258251e-05 0.000577597303057288 -7.29536324423313e-05)
(-0.000135598668302404 5.42183635835528e-05 -0.000108963939826942)
(1.24717007096814e-05 0.000315644970047003 -2.91556385268216e-05)
(-5.93512218043301e-06 0.000281884985537194 -0.000431646921334947)
(-9.32833081571195e-05 0.00035187441220654 -0.000306674098834018)
(-0.000197570401587391 -0.000137318600790753 -0.000644350113254749)
(-2.60137903488405e-06 0.00025566359669574 -0.000224095842690708)
(-3.59544922263042e-05 0.000325974578083981 -0.000216148102724211)
(-1.60476565516969e-05 0.000302131399510164 -0.000271987899152798)
(9.75600676336461e-07 0.000420308863300223 -0.000264229041526309)
(6.77966375112602e-05 0.000466378701099427 -0.000232561619205294)
(-8.82185091367078e-05 0.000341656607359421 -0.000618162418890811)
(5.25531868093869e-05 0.000350139629386377 -0.000165977518868731)
(-2.2964300759324e-05 0.000510079599885403 -0.000319878175259472)
(2.3149480926371e-05 0.000472865187279294 -0.000315573571399679)
(5.2757429965975e-06 0.000311194345624493 -1.0138015031905e-05)
(4.30655272546551e-06 0.00048243839698472 0.000257025700853969)
(-3.47014694682658e-06 0.000395785114452379 -2.03531416785312e-05)
(1.95022582167815e-06 0.000706764726096402 0.000539146978084911)
(1.34654418057528e-05 0.000565182683169394 0.0003083456458475)
(1.05176367524354e-05 0.000444362126751843 -2.29784452253571e-05)
(3.03212125375638e-05 0.000461208788394658 -0.000149603157450973)
(3.03982413736078e-05 0.000506797381780816 -6.38450627049417e-05)
(1.71818663995597e-05 0.000501033749467872 2.95677661118756e-05)
(3.42754321219388e-05 0.00051201637271243 1.79334282971161e-05)
(3.55945946061713e-05 0.000486484993112386 -0.000166152893026435)
(8.42854134767641e-05 0.000501235008835154 -6.78707424288064e-05)
(-0.000102199871541014 1.59732507040472e-05 -0.000102437113502543)
(-3.5647072562818e-05 0.000277962606730677 4.37424129722378e-05)
(5.35719105123607e-05 0.000254467679915705 -0.000228173267374971)
(1.19662021826374e-05 0.000199676269177376 -0.000407404419537332)
(-3.82281890891529e-05 0.000259050621840682 -0.000365475822152907)
(-7.11068839813938e-05 0.000383485450740173 -0.000204003411093114)
(-0.000206114795766895 0.000401789935543905 -0.000242484571964365)
(7.14474996278514e-06 0.00018152245886302 -0.000261254871402462)
(-3.59347279783522e-06 0.000260668955682281 -0.000211170046610322)
(-4.5630645801742e-05 0.000367469688337828 -0.000151650906758904)
(3.32850589922995e-05 0.000429920086172252 -0.000205343719205556)
(0.000140291078288018 0.000122686836132528 -0.000481497459487637)
(-0.00025576253384365 0.000624405249495083 -0.000194921011353554)
(5.59612888357187e-05 0.000385283848440459 5.76317874142909e-05)
(-6.31089560499985e-06 0.000459280435427818 -0.000215655473690821)
(3.2080504483194e-05 0.000471394699999881 -0.000194109175792672)
(9.82733164519334e-06 0.000232512968995757 -5.48891947877758e-05)
(7.83727099149876e-06 0.000388688974892599 0.000194923907417468)
(1.58223547079692e-05 0.000319072580442272 -2.49420830941248e-05)
(3.72396731260255e-06 0.000589649565610584 0.000439982083998177)
(1.42977718058635e-05 0.00047984820053776 0.00023619651432279)
(1.48150553613213e-05 0.000396757098486704 1.00820564474031e-05)
(-1.24154823301104e-06 0.000825354295060166 0.000668917391443894)
(5.77891648146134e-06 0.00070704202668034 0.000511047711052734)
(2.11276346585719e-05 0.000566439089846649 0.000291789208054112)
(2.62209127078166e-05 0.000454187734342753 -0.000162483694727302)
(2.80682911915945e-05 0.000490161832402511 -0.000124390215457179)
(2.78894662008955e-05 0.000521300571103167 -1.39406945591074e-05)
(3.67643064217489e-05 0.000490797619798489 -9.73253300098883e-05)
(-7.3778664933263e-05 0.000191597811577847 0.000188120083413568)
(-9.11633977247824e-05 0.000330906450602263 9.60335580052263e-05)
(5.36526743645511e-05 0.000254784147041225 -6.95856786384138e-05)
(6.35600838815585e-05 0.00017111076886541 -0.000386874905027178)
(2.19352760899861e-05 0.000147489672702624 -0.000444043600845155)
(1.22995713537819e-05 0.000206852695359152 -0.000353923657082942)
(-0.000109051424719741 0.000342897400145844 -0.000210541907086434)
(-0.000182070267430003 0.000616554016272171 1.68754364236203e-05)
(1.28152551840491e-05 0.00012173882388368 -0.000281145771416481)
(2.04054295348332e-05 0.000189000387655607 -0.00025157849249797)
(-2.75485956596032e-05 0.000301885119029735 -0.000142992590399633)
(0.000145725135447017 0.000257205167362744 -0.000293353323962346)
(-0.000107940911483965 0.000342205886843236 -9.86210996717398e-05)
(5.27541608236284e-05 0.000438573258096876 4.77040703133605e-05)
(-0.000172360166898398 0.000549634672476501 -0.000113154225959147)
(1.87160548602072e-05 0.00047041533470869 -0.000167296326601085)
(1.32777331957881e-05 0.000169620166498596 -8.50552410271787e-05)
(1.05166345051869e-05 0.000310825147755441 0.0001342128078918)
(2.87888424488861e-05 0.000239156429340096 -6.47776431099444e-05)
(6.68898425167368e-06 0.000487854889083309 0.000359263867791831)
(2.4054881082379e-05 0.000396004397645653 0.000174373166219526)
(2.2008859219897e-05 0.000320000861595346 -1.79879203086746e-05)
(1.77229394642102e-06 0.000697848533499871 0.000568852122618537)
(1.2621261972323e-05 0.000592194474874052 0.000415537386730298)
(2.6152974235466e-05 0.000483322213652644 0.000220079251864623)
(3.33175503801987e-06 0.000363705468373198 3.14422939005819e-05)
(-3.47596739663585e-06 0.000927359137392094 0.000753003041625195)
(-2.97874033659258e-06 0.000823603907654923 0.000642645271785422)
(1.37759976111797e-05 0.000696166943079819 0.000488402617307742)
(4.88713374419146e-05 0.000547613459565087 0.000278618477782088)
(1.13771105923968e-05 0.000324945561984542 0.000272699546455889)
(-8.59299143118464e-05 0.000320003101959659 7.70760210828819e-05)
(0.000123138923485563 0.000183358281756666 -0.000276611872009402)
(6.03911879913156e-05 0.000119182795564618 -0.000534490270442537)
(2.23189888759926e-05 9.42947942907215e-05 -0.00046664720352878)
(4.43231791825637e-05 0.000157948075802976 -0.000410969266604896)
(-3.97362201904085e-05 0.000278427877265048 -0.000225035269504722)
(-6.58653905541136e-05 0.000584927977731615 -0.000101893820357873)
(1.66850806904224e-05 6.38001300680911e-05 -0.000282889415273552)
(3.65986911634497e-05 0.000126218774736797 -0.00028423959656102)
(2.19647646631436e-05 0.000216041694595668 -0.000207269819715682)
(0.000276551848899323 0.000198524090857865 -0.000286542651502327)
(7.6263141616346e-05 0.000254598862616527 -0.00021320537773769)
(0.000120891779130278 0.000385342510361274 2.15946378773846e-05)
(-9.19921926677603e-05 0.000335141522729796 -8.54227422705672e-05)
(-7.05609293254216e-05 0.000374576556102976 -0.000158087082513673)
(1.59216554865585e-05 0.000109228411261896 -0.000104582428311874)
(1.29242886078109e-05 0.00024429876054924 8.83157137856967e-05)
(3.99735129599684e-05 0.000172863487472471 -9.8236977732107e-05)
(9.14537787738115e-06 0.000404441964648365 0.000288846854557765)
(3.26410271073508e-05 0.000317051115226827 0.000116963992187674)
(4.80369341893142e-05 0.000240797426727286 -6.58190096026437e-05)
(4.55703146423203e-06 0.000589940203113923 0.000483798964061167)
(2.13533699426132e-05 0.000492788921866031 0.000337665206352115)
(4.24476733214121e-05 0.000396277217958226 0.000162973549929809)
(3.15136225925497e-05 0.000299732846696045 -1.82174156760509e-05)
(-3.59416563940555e-07 0.000795672029119299 0.000659638417525099)
(6.30882282654463e-06 0.000697837099920036 0.00054595277220009)
(2.57692432377714e-05 0.000586486803908442 0.000395568418685944)
(5.33320070113291e-05 0.000461688744622698 0.000203994538961892)
(0.000119395439064567 0.000324967279925378 -2.96236068164412e-05)
(-1.00129683747226e-05 0.000922836412609705 0.000729759993760375)
(-1.40950020835285e-06 0.000810937533224355 0.000618436552321217)
(2.86625157523093e-05 0.000671969970702106 0.000459933108348605)
(9.50370099677203e-05 0.00050607521316064 0.000250103737137388)
(0.00011013781754692 0.000320885834378742 0.000116846405592943)
(4.6647230600191e-05 0.000256199245552856 -0.000133800602309426)
(0.000142015492044627 0.000123699702482509 -0.000459813284597744)
(4.66453005966156e-05 7.80186030811251e-05 -0.00062322259170569)
(1.73212185854851e-05 4.71157241958204e-05 -0.000460597517557588)
(5.88171080474555e-05 0.00010439722286844 -0.000460676887536915)
(3.2215355341347e-05 0.000214869098272312 -0.000323021510029246)
(1.2146282715635e-05 0.000439614535182538 -0.000291375213933668)
(1.75372283075321e-05 3.23047577267039e-06 -0.000279926281222359)
(4.50286717957138e-05 6.58312403147517e-05 -0.000296731240463715)
(5.96643162958608e-05 0.000140467968214215 -0.000266052839986815)
(0.00042791255141813 0.000156784794912858 -0.000335002871637353)
(0.000212230447772463 0.000178139388298311 -0.000307351915448092)
(0.000220573822100001 0.000326145136906402 -1.90795272703647e-06)
(7.68588155730652e-05 0.000222185490413341 -0.000240587382326723)
(-2.66219011287721e-05 0.000246237622254194 -0.000163300549915221)
(1.37717375566637e-05 0.000232931389216601 -0.000271444136426165)
(1.75178931687277e-05 4.76719588564326e-05 -0.000119566939248085)
(1.49324092136336e-05 0.000182643477247951 5.16976086562979e-05)
(4.88934394889747e-05 0.000110199514349044 -0.000121345675507803)
(1.10989356721978e-05 0.000332884645854141 0.000231437840378464)
(4.03943047548122e-05 0.000248299395176803 7.15722590786255e-05)
(7.16365650311647e-05 0.000174562846305592 -0.000106218151892945)
(6.75494747234504e-06 0.000500176360425451 0.00040972565524155)
(2.87768864242303e-05 0.000409098353942648 0.000270273765662896)
(5.86443454470834e-05 0.000318388606299449 0.000106917514401038)
(7.08062348520494e-05 0.000229688982442347 -7.79686151805636e-05)
(2.24526960084251e-06 0.000683858002316313 0.000576895870091207)
(1.46517628185707e-05 0.00059145004401986 0.000463410238416927)
(3.97028160708258e-05 0.000490485247519229 0.000320241922861807)
(7.26182382607144e-05 0.000383655226032781 0.000143566129691602)
(0.000138225839268866 0.000269265726145835 -8.29946063363715e-05)
(-5.25257717911321e-07 0.000792672249984011 0.000639352490132917)
(1.39473120867499e-05 0.000689132185541903 0.00052499427494681)
(4.65796189690969e-05 0.000567328388795394 0.00037053797570823)
(0.000108481161317625 0.000427504131299749 0.000173049712194865)
(0.000218354710539952 0.000276649709613568 -7.00079939737877e-05)
(-1.47393644191723e-05 0.000908257814795157 0.000707586169476574)
(4.03911268177195e-06 0.000786441644478562 0.00058818253485922)
(5.45871943165389e-05 0.000636274525438971 0.000422949057371797)
(0.000156098875927878 0.000461109802245411 0.000216828170217342)
(0.000135235987599338 0.000254678296064357 -0.000176399418072088)
(0.000126120558108281 0.000191276265658758 -0.000380536194331195)
(0.00012960214848495 8.80370636324434e-05 -0.000604174721864202)
(2.9632102393444e-05 5.62501609621876e-05 -0.000646982319277237)
(1.12819850487873e-05 -4.03155533073141e-06 -0.000443799594774214)
(5.54561815115599e-05 5.52637080234877e-05 -0.000476998710103762)
(8.21137077034458e-05 0.000144038426521408 -0.000423145978035505)
(7.46741317875144e-05 0.000285788830004224 -0.000494728003841371)
(1.55920259342351e-05 -6.25407655245482e-05 -0.000271749090010501)
(4.46281663266882e-05 4.16518746205938e-06 -0.000301791239362981)
(7.59288353927693e-05 6.73639222011017e-05 -0.000291793381793856)
(0.000551021282538598 0.000137401194623391 -0.0003751166886815)
(0.000359579356589108 0.000139191376094993 -0.000361596833853395)
(0.000319158107969328 0.000283064588194363 -2.49116990082018e-05)
(0.000194539397234139 0.000160246578703653 -0.00035085867487549)
(9.73424059346279e-05 0.000170147059618336 -0.000303259693330505)
(3.61846569993462e-05 0.000170350621796905 -0.000235969897363779)
(7.198427072378e-05 0.000105592429843661 -0.000353975937632916)
(1.85358485030538e-05 -1.79004855555821e-05 -0.000132931290243826)
(1.64902015989845e-05 0.000122659574456538 1.98489182884049e-05)
(5.45369185351268e-05 4.82556415121712e-05 -0.000138817338066877)
(1.26829618995079e-05 0.000268799485180775 0.000182985319950784)
(4.70511916334765e-05 0.000185482097440799 3.47927873830105e-05)
(8.88190724561122e-05 0.000112258397479781 -0.000133132798657578)
(8.46329395754609e-06 0.000423475164051755 0.000346601474706721)
(3.49278399379032e-05 0.00033661198516852 0.00021467904922292)
(7.2931718545141e-05 0.000250727301114063 6.08766140341855e-05)
(0.000106073217398386 0.000173358655826472 -0.000116718791393226)
(4.2797111803806e-06 0.000589453230884858 0.000503594033085836)
(2.13435880611046e-05 0.000502130458389026 0.000391706789756225)
(5.20892444856588e-05 0.000408852991960631 0.000255253508312259)
(9.26602128551243e-05 0.000313928590489629 8.83131191180923e-05)
(0.00016037372759588 0.000215641838715661 -0.000126648593066399)
(1.69660734407442e-07 0.000765953111400868 0.000647844689511454)
(7.37260903562197e-06 0.000682090902552119 0.000558296340222758)
(2.75658200886627e-05 0.000586265220795755 0.000444915588969466)
(6.42777870403414e-05 0.000478760221592595 0.000296888123205067)
(0.000125659801189462 0.000360890306039087 0.000110967009289467)
(0.00022333321308287 0.000234377445368416 -0.000122579876442275)
(1.23696034284907e-06 0.000781754799460412 0.000619975007017647)
(2.57122849262374e-05 0.000670550734478304 0.000498522005615699)
(7.74990189526914e-05 0.000539083702652507 0.000337377565653232)
(0.000171118992971301 0.000390105299385921 0.000138910155269166)
(0.000311642322706025 0.000242539657769152 -9.70794539665364e-05)
(-1.71302563645705e-05 0.000882652306469613 0.000679479781779524)
(1.58807251590187e-05 0.00075107286999424 0.000551645258142106)
(9.0409681695951e-05 0.000593307834056659 0.000384440987049978)
(0.000221038456491676 0.000419617672701532 0.00018380855781591)
(0.000135316459497556 0.000164403888279926 -0.000439001319662513)
(0.000151082046532243 0.000137604283342356 -0.000594887361705254)
(9.47709150120346e-05 6.38949788330892e-05 -0.000672865472541563)
(1.20468123229369e-05 2.79414824987631e-05 -0.000628294418298073)
(4.90635419330567e-06 -6.10580577173987e-05 -0.000416620379820615)
(3.57476271046424e-05 3.5666326812802e-06 -0.000478776189321646)
(9.11204761647692e-05 7.84532285756861e-05 -0.000472156709469135)
(9.99748162860357e-05 0.000158606764037752 -0.000661121786119989)
(1.23871961733952e-05 -0.000137186826135985 -0.000259638489476521)
(3.89583027602003e-05 -6.1902909251929e-05 -0.000300059288200808)
(7.33540859374824e-05 -5.90470725611169e-06 -0.000304859570775192)
(0.000652801840419996 0.000123470950793971 -0.000406485737647375)
(0.000483780800095415 0.000120827721567571 -0.000397818757141457)
(0.00040475225806122 0.000250963763447121 -4.54475406097591e-05)
(0.000326053041149129 0.000133285053033914 -0.000403105688326331)
(0.000198932577852197 0.000139351414803944 -0.000381073978867343)
(0.000123266837145797 0.000135198112057804 -0.000331405399796152)
(0.0001042106130428 0.000104605084865467 -0.000268626572661264)
(0.000101763529621016 -2.29549277971852e-05 -0.000418030723782384)
(2.02654342709258e-05 -8.89301062298455e-05 -0.000149575968115745)
(1.78581353969581e-05 6.2906353324497e-05 -1.10544863412106e-05)
(5.8247236579141e-05 -1.6474976571246e-05 -0.000153879604957276)
(1.3958271791526e-05 0.000209616761092411 0.000139688088463883)
(5.24514109695493e-05 0.000125582240425006 3.00610278591645e-06)
(0.000101119159141364 5.10885890925608e-05 -0.00015242067519461)
(9.80211209056208e-06 0.000356239809716373 0.000291649543470837)
(4.00126488078951e-05 0.000272131379955328 0.000167399174878517)
(8.48576000871093e-05 0.000189498424178682 2.34870323373009e-05)
(0.000136233354296822 0.000119817365305492 -0.000139612359066705)
(5.85974269225239e-06 0.000508645058398461 0.000439083910439696)
(2.66557782692044e-05 0.000425396649480393 0.000330453679085544)
(6.2473456494949e-05 0.000338003995468126 0.000201050269725281)
(0.000111040903019645 0.000253331287971451 4.34417121474993e-05)
(0.000181168279662751 0.000173266735451734 -0.000157814475158273)
(2.07421482606484e-06 0.000669178604686585 0.000577650253089171)
(1.36071890574932e-05 0.000588471649738697 0.000486543729499641)
(3.86138774711234e-05 0.00049939193085913 0.000375576791694989)
(7.97959450754178e-05 0.000402779048969976 0.000234136850939581)
(0.000142750490847401 0.000301452530602846 5.90708849843248e-05)
(0.000232448895019593 0.000197918157248617 -0.000162163049185581)
(-1.50560789126317e-06 0.000836247424806247 0.000702577911613272)
(9.0566556653487e-07 0.000761545192466299 0.00063100258908764)
(1.43621322467076e-05 0.000674293314750631 0.000540838655164078)
(4.39142850283007e-05 0.000573179718207582 0.000420994010803013)
(9.69562809931785e-05 0.00045815490254778 0.00026637792724422)
(0.000184716683597547 0.00033205852622568 7.73256073852718e-05)
(0.000308010432780344 0.000210467300666856 -0.000151477539211789)
(5.26201178496227e-06 0.000761635273521566 0.000595246057062814)
(4.27474874008225e-05 0.000642763678622051 0.0004664131067909)
(0.000115412753744827 0.00050399966179551 0.000302436988940217)
(0.00023495636001562 0.0003555613605917 0.000106838589657205)
(0.000394998115275602 0.000215495177387891 -0.000117605638169745)
(-1.55412575451378e-05 0.000846946428959305 0.000645923133490944)
(3.43815280568228e-05 0.000708055784065914 0.000513518767212332)
(0.000131299179003233 0.00054823898750497 0.000347205181218802)
(0.000283406573760442 0.000380267775052325 0.000153756122888617)
(0.000112100960680088 9.61720283300348e-05 -0.000610434126722487)
(0.000124264944797883 9.36859385300374e-05 -0.000726615463434291)
(3.50268580604392e-05 3.90322609304249e-05 -0.000695177470267705)
(-2.27833270431808e-06 -4.77832737287591e-06 -0.000596354829421807)
(-5.73387464050092e-07 -0.000123271833808134 -0.000380467965104543)
(9.6093786416216e-06 -5.30914633368653e-05 -0.000467285057939444)
(6.07629691488833e-05 1.53530778879065e-05 -0.000498367951490184)
(7.87880836635081e-05 5.33010324067259e-05 -0.000755611103617362)
(1.0082822146779e-05 -0.000217627312523963 -0.000230406387935185)
(3.26478382395199e-05 -0.000135161391762043 -0.000292282869454618)
(6.2295092565643e-05 -8.07683493050788e-05 -0.000312880609092018)
(0.000744032186224267 0.00010649291187476 -0.000430125668107557)
(0.000586374573972449 0.00010647631385044 -0.000425855732273872)
(0.000480513028025852 0.000223346978597064 -6.22050754997197e-05)
(0.000440834469107964 0.000116606515785124 -0.000439522985389244)
(0.000307084300687102 0.000121476166842078 -0.000428783050250101)
(0.000205197710732667 0.000119788009555231 -0.000396141482052182)
(0.000158077376169236 9.96971611030063e-05 -0.000336248057507984)
(0.000165725705914361 2.12509354204047e-05 -0.000294781640594305)
(0.000106998821501744 -0.000140340622611509 -0.000484877926392508)
(2.21741682671444e-05 -0.00016050134900057 -0.000176795173087119)
(1.94966691870484e-05 4.42966757314794e-06 -4.54793933170321e-05)
(6.28370860775555e-05 -8.61181107205901e-05 -0.000172435343209033)
(1.50631732820348e-05 0.000154632225028253 9.83338923457966e-05)
(5.72608750701427e-05 6.65921997818854e-05 -2.76422244709864e-05)
(0.000110801691938989 -1.27283859219082e-05 -0.000168798430864074)
(1.08515368021257e-05 0.000296350660198781 0.000242061111700696)
(4.4236995387242e-05 0.000213159577837375 0.000125097428502723)
(9.52313811617259e-05 0.000131609161433326 -8.59409978131904e-06)
(0.000163403157296534 6.46756874147983e-05 -0.000157565117488224)
(7.07299309548296e-06 0.000438458064965567 0.000381621529778792)
(3.08646570726562e-05 0.000358222231544427 0.000276991858838127)
(7.10806060050451e-05 0.000275316427934299 0.000154650986677937)
(0.0001270085018819 0.000197726959771704 6.55930620413971e-06)
(0.00020390732496693 0.000131542367692654 -0.000180267795808348)
(3.5744740669542e-06 0.000585763712176489 0.000514302034410182)
(1.84910495397002e-05 0.000508094878193739 0.000423651220484048)
(4.74549784060195e-05 0.000424505208162708 0.000316073724957151)
(9.30559369867066e-05 0.00033668600213062 0.000181730234257093)
(0.000158622545956615 0.000249072841152997 1.64318441756417e-05)
(0.000243658472537474 0.000166458601564583 -0.000191215341831579)
(2.65833284251795e-07 0.000739011296782616 0.000636842892909014)
(6.7445353829816e-06 0.000665684538978771 0.000561775757079394)
(2.47645024915066e-05 0.000583055027247656 0.000470867905273119)
(5.84718401064078e-05 0.000490788894653138 0.000354274554405404)
(0.000112968041498716 0.000388959438242952 0.000206434368188334)
(0.0001968401582759 0.0002819712698971 2.74051367717122e-05)
(0.000306736459173447 0.000181556822192096 -0.000191234396213056)
(-2.80274447180717e-06 0.000895702964034703 0.000745528073877243)
(-4.28869115165613e-06 0.000829871320655236 0.000686897139037855)
(2.70248122742894e-06 0.000751690299526736 0.000615082356173848)
(2.33229420627247e-05 0.0006590214354729 0.000518637134645682)
(6.40843297707806e-05 0.00055200038342845 0.000392095136710212)
(0.000134817012072219 0.000430470006942226 0.00023399226174598)
(0.000244947483210766 0.000304400841619239 4.62333685104551e-05)
(0.000385630367999754 0.000189061531101609 -0.000173388380567156)
(1.22874418250828e-05 0.000732892329152018 0.00056568100275109)
(6.44278650242352e-05 0.000607586557298716 0.000432736688725414)
(0.00015671756522465 0.000466595927564318 0.00026893810651867)
(0.000295069012092576 0.000322263966111994 7.92956803337931e-05)
(0.000468406119695917 0.000191468572326443 -0.000132659083338438)
(-9.21592016600112e-06 0.000803427204406069 0.00061023054274613)
(5.75608705916868e-05 0.000660427307397974 0.000475849006810665)
(0.000173088511823654 0.000501915428995427 0.000312511618070765)
(0.000340755761004134 0.000340871675074114 0.000127755278304752)
(6.52321165579091e-05 4.25346043492375e-05 -0.000714376757055891)
(5.3438480391176e-05 5.14121393617699e-05 -0.000800600715297705)
(-2.28746137983439e-05 4.37232018132e-06 -0.000696868011318265)
(-1.54828087237352e-05 -3.26699179221427e-05 -0.000529373503442685)
(-3.76908625044023e-06 -0.000179115924886862 -0.000301114487404731)
(-1.4531042731142e-05 -0.000114161289382007 -0.000446779056300879)
(1.91425742848767e-05 -4.73410887651736e-05 -0.000517935540367359)
(3.80011333675876e-05 -3.2973642409219e-05 -0.000843765977228819)
(1.96052189167843e-05 -0.00028550115992156 -0.000198096742010601)
(3.95998909051128e-05 -0.000211427188454203 -0.000272129303074445)
(4.98406657106262e-05 -0.000158890251223584 -0.000325969079381728)
(0.000824556841433235 9.07428530806884e-05 -0.000447560114103592)
(0.000675288835247741 9.02138632047571e-05 -0.000447320217585911)
(0.000545871713817355 0.000194680325739087 -7.480395965579e-05)
(0.000540707442797967 0.000101516850188292 -0.000468351527668761)
(0.000408615642685046 0.000107487657956007 -0.000465213420256875)
(0.000294732928554649 0.000106668505568886 -0.000441656677805633)
(0.000218628912226675 9.67818581785779e-05 -0.000396354150626239)
(0.000198189173655079 5.23443330828109e-05 -0.000335321685633288)
(0.000211970666951419 -6.94861984376765e-05 -0.00032441379830076)
(8.58161535548699e-05 -0.000247739308074503 -0.000541366755106905)
(3.68494532118363e-05 -0.000217882553878277 -0.000217322221279164)
(2.02613527071677e-05 -4.50645991534056e-05 -9.12542776011845e-05)
(7.84354615996789e-05 -0.000159358160009279 -0.000210017898379038)
(1.61348035065217e-05 0.000105244977901268 5.58891112086875e-05)
(6.27719664116148e-05 8.92056791618852e-06 -6.14627138301578e-05)
(0.000121354904153845 -8.02301731624574e-05 -0.000190497084239172)
(1.16651917215991e-05 0.000243093184733626 0.000195509197740543)
(4.79439809598021e-05 0.000158723505971982 8.47370450303866e-05)
(0.000104656026555451 7.50158008565234e-05 -3.95115118591127e-05)
(0.000188671602543634 4.61117917927538e-06 -0.000171677945102906)
(7.98948175732486e-06 0.000376988301879202 0.000329371702351994)
(3.42056200953832e-05 0.000298624553354217 0.000228713946642814)
(7.83821356943159e-05 0.000218405895527684 0.000113085920250793)
(0.000141578105904767 0.000145237939741089 -2.55248299411048e-05)
(0.000227090197310445 8.76578785701847e-05 -0.000197830288538025)
(4.72785513557317e-06 0.000513293286409921 0.000456783416990304)
(2.22654396545107e-05 0.000438220326110636 0.000367619264906299)
(5.44690853879174e-05 0.000359013631331879 0.000263971402564428)
(0.000104116905702154 0.000278145881524989 0.00013659361392488)
(0.000173249775478646 0.000201025002116593 -1.9139505235687e-05)
(0.000256173066002019 0.000134744274837745 -0.000212490482650436)
(1.68751529627266e-06 0.000654382599890086 0.000576113827659282)
(1.13617070038491e-05 0.000582914305670353 0.000499601003401915)
(3.29191404416168e-05 0.000504510361987653 0.000409598768625212)
(7.00963442482036e-05 0.000419601241783994 0.000296804360934309)
(0.000126364023198688 0.000328748152502823 0.000156027147056137)
(0.000207707687593406 0.000237542968544337 -1.33000514286278e-05)
(0.000306531270196978 0.000155580418115664 -0.000220032181179868)
(-1.1624840421272e-06 0.000799521421683386 0.000684615720741037)
(1.13033895277764e-06 0.000733546514523015 0.000621948712872519)
(1.25737891738569e-05 0.00065801990628064 0.000547093175563899)
(3.75149763682811e-05 0.000571663393667148 0.000450828008980326)
(8.06898912994447e-05 0.000475041341401432 0.000328210247988242)
(0.000149781756189528 0.00036811881422794 0.000176566895501695)
(0.000251989478875822 0.000260632599243698 -2.09173685452849e-06)
(0.000376046456827452 0.000163887737262009 -0.000213602691461284)
(-3.77098013197461e-06 0.000945748364242583 0.000779367437584413)
(-8.31230364101953e-06 0.000887905029019035 0.000730905096236554)
(-6.68742673413641e-06 0.000818571004690841 0.000672198479514844)
(5.56203639640943e-06 0.000734548691799628 0.000594859455652205)
(3.43449023843361e-05 0.000636151572375383 0.000492136717029477)
(8.74977418831447e-05 0.000523648321366007 0.000361705615449207)
(0.000174998533932485 0.000399999604769907 0.000203207036242211)
(0.000301039821985505 0.000276641257367408 1.99029110050263e-05)
(0.000454261792714053 0.00016780110729924 -0.000188794183482781)
(2.25301030122804e-05 0.000696883862390005 0.000534214717202895)
(8.91801320803127e-05 0.000567797123924402 0.000399557045554837)
(0.000197455281873413 0.000427530374155439 0.000238283554101381)
(0.000349319916504703 0.000288543137066611 5.61469571230524e-05)
(0.000530080335474865 0.000166197330048626 -0.0001428684332287)
(1.21377588190836e-06 0.000754048578520749 0.000574149966566844)
(8.30474461515765e-05 0.000609249744900533 0.000439639105115448)
(0.000213155141226363 0.000453310656259741 0.000280824641156325)
(0.000391376482631808 0.000299727989400326 0.000105370334186535)
(1.48854423144181e-05 4.6713744573288e-06 -0.000776462354812373)
(-3.19483503830425e-05 1.01575234705652e-05 -0.000848648512640893)
(-7.56266492879378e-05 -2.52071308590782e-05 -0.000673782341203947)
(-1.93872758212101e-05 -6.49180287864296e-05 -0.000414562282973838)
(-6.13089207774836e-06 -0.000178738177289103 -0.000242194359670628)
(-3.1443858568738e-05 -0.000168598543453801 -0.000382563065212945)
(-2.44008565513764e-05 -0.000111251379983342 -0.000536677565950815)
(-2.53308538181824e-05 -9.92568589826875e-05 -0.000898926469839364)
(-5.26937526804292e-05 -0.000272436423628649 0.000113477665399345)
(6.4444536816186e-05 -0.000284077197053123 -0.000283568838363685)
(4.83556226502293e-05 -0.00024319051333219 -0.00033949460608497)
(0.000887633283787956 7.70195978143237e-05 -0.000460525233170051)
(0.00075108626303475 7.64315459685733e-05 -0.00046380741964217)
(0.00059851100756259 0.000164855671376712 -8.45415783081899e-05)