/*--------------------------------*- C++ -*----------------------------------*\
  =========                 |
  \\      /  F ield         | OpenFOAM: The Open Source CFD Toolbox
   \\    /   O peration     | Website:  https://openfoam.org
    \\  /    A nd           | Version:  12
     \\/     M anipulation  |
\*---------------------------------------------------------------------------*/
/*   Windows 32 and 64 bit porting by blueCAPE: http://www.bluecape.com.pt   *\
|  Based on Windows porting (2.0.x v4) by Symscape: http://www.symscape.com   |
\*---------------------------------------------------------------------------*/
FoamFile
{
    format      ascii;
    class       volScalarField;
    location    "100";
    object      nut;
}
// * * * * * * * * * * * * * * * * * * * * * * * * * * * * * * * * * * * * * //

dimensions      [0 2 -1 0 0 0 0];

internalField   nonuniform List<scalar> 
10063
(
0.000997759252544432
0.00100052783559087
0.000950793289270192
0.000931023029282274
0.00155504033796849
0.000955551527492753
0.000897563983574898
0.00149930858429452
0.000923117616110767
0.00234204482915796
0.00152658521409465
0.00080002212117777
0.000771737071637358
0.00144165964158327
0.000872053738310394
0.00228788230644581
0.00148000886318274
0.000858271423548227
0.00320783807846519
0.00230739479798311
0.00147673424685994
0.000703126364026157
0.000726180676732526
0.00134539343827781
0.000786133198251445
0.00221944587794937
0.00142028569450915
0.000822290333983857
0.00315295900940061
0.00225586855787514
0.001427506956169
0.000697160909729613
0.00409517658259075
0.00316280670107895
0.00221679856742508
0.00134922099932364
0.000567923469538084
0.000596542622325183
0.00125910301094731
0.000697986619839019
0.00212583223487638
0.00133692206410693
0.000752774577410724
0.00307930422463054
0.0021889415159056
0.0013739607304141
0.000673823754033931
0.00404082118422741
0.00310974180686933
0.00216861801122983
0.0013219550002813
0.000568544907122662
0.00497158949974943
0.00404655116811227
0.00303925480213632
0.00200600162448683
0.00105905793658924
0.000323266354813992
0.000517997456354532
0.00112758329304194
0.000631282249920038
0.00200600113858957
0.00124205490789052
0.00065293925998494
0.00297782707216021
0.00209918033097041
0.00130141505475471
0.000636518745292716
0.00396525172183928
0.00303805316166399
0.00210726487768643
0.00128235329533236
0.000556905138294226
0.00491977235010187
0.00399386091710762
0.00299049096487141
0.00197248413681316
0.00104953053870417
0.000319701814566202
0.00581494636386568
0.00492589031543711
0.00391535071906159
0.00277585809626311
0.0015661848917542
0.000544028232772101
3.30564683214238e-05
0.000316814672775055
0.000953239931077859
0.000509731934575996
0.00182605002068876
0.00113292477915221
0.000575556839621299
0.00283397076399361
0.00197952676222498
0.00120955595572628
0.000593412939184283
0.00385907131374227
0.00293874103161968
0.00202507163844141
0.00122793173256711
0.000532366966391777
0.00484646496790275
0.003920317552228
0.00292417664803815
0.00192427567586934
0.00102684796989604
0.000312061799626594
0.00576732427068966
0.00487554257306557
0.00386659121870714
0.00273720246442941
0.00154936156784087
0.000538935008758324
3.20095842688466e-05
0.00660810733738431
0.00577505199988933
0.004805855354697
0.00365432712335532
0.00228323613200845
0.000809109208334795
5.83228876759385e-05
0.000192606837367164
0.000624341603821717
0.000373984535672224
0.00151834797486237
0.000957385516797775
0.000478384485579379
0.00261661740221328
0.00180331491220387
0.00111890540192522
0.000540186081723412
0.00370651290884772
0.00279586466497923
0.00191135277752568
0.00115909790466603
0.000507126554511307
0.00474383231953444
0.00381628883346337
0.00283115477650699
0.00185745272672773
0.000991435447415026
0.000299314865385135
0.00569988126919346
0.00480418170663401
0.00379801730913571
0.00268231801479623
0.00151945728994698
0.000528654829704105
3.0694816745598e-05
0.00656554275235989
0.00572863342891618
0.00475882859170331
0.00361313202843333
0.00225852201778469
0.000802219072037102
5.7559360544762e-05
0.00733914708566286
0.0065743642391374
0.0056723542571159
0.00458056811601024
0.00321877057237035
0.00149180760418268
7.19965341263541e-05
1.85403579723523e-05
0.000302483997831296
0.000291586640542829
0.000985823922913834
0.000627637036513792
0.000551492419200093
0.00227210324579861
0.00149453900565361
0.000900267865360986
0.000680533278165528
0.000438583452213898
0.000261099974994767
0.00348265179814542
0.00257765470981412
0.00173779197071742
0.00105698561200466
0.000460019035116045
0.00460004021269173
0.00366529388010997
0.00269385813085921
0.00176190933432954
0.000945696980397276
0.000283334597559934
0.00560730918682399
0.00470386879433194
0.00369982167793443
0.00260343087765199
0.00147575809922316
0.000512746567075021
2.90733803035382e-05
0.00650584130694373
0.00566288717611281
0.00469192758146866
0.00355419435321028
0.00222096739694463
0.00078973942740104
5.6316462999297e-05
0.00730179786270805
0.00653272628466856
0.00562860977816695
0.00453934632245942
0.00318809267591635
0.00148012775956263
7.13341658276178e-05
0.00800117426481084
0.00731066976121866
0.00648766901004914
0.0054873667726166
0.0042362021625047
0.00263217263898473
0.000760523720518302
6.90042319357051e-05
3.20723568329671e-05
4.8415586709893e-05
0.000331597457222353
0.000474834339043937
0.000474467297585696
0.0017058998108381
0.000950681831848541
0.000669042080260647
0.00315160564676614
0.00222775691929506
0.00139077479689438
0.000844295875298426
0.000478301481007328
0.000550338084415683
0.000243894069594951
0.000363498299151472
0.00440064832967583
0.00344139399294921
0.00247626753158179
0.00160163521628229
0.000865698477875553
0.000256026999565957
0.00548250646465191
0.00456248000307508
0.00355444883678168
0.0024830352721732
0.00141172256345756
0.000492072923832085
2.6829113421471e-05
0.00642592683386194
0.0055725175600721
0.00459721870246088
0.00346845573764391
0.00216501338896902
0.000771312598599757
5.47596029571375e-05
0.00725013393307682
0.00647437043322644
0.00556664943993335
0.00448045497422339
0.00314364905976998
0.00146023919805163
6.97770941373917e-05
0.00796876284040239
0.00727400799978282
0.00644809630476146
0.00544810057144776
0.00420284594623057
0.00261108348826134
0.000757000405039203
6.85904317127391e-05
0.00859136315071574
0.00797663461591186
0.0072363841466531
0.00633485481631473
0.00521714094855718
0.0038056767343345
0.00205254430425376
0.000728584445866352
8.98835012457046e-05
2.36103257202904e-05
5.86294017658405e-05
6.17768144265308e-05
0.000213455072161471
0.000969270466562088
0.00165912314449049
0.00267521988261283
0.000737023246191444
0.00413466440476315
0.00310758282539022
0.0021072911104515
0.00128248585834043
0.000443702801462688
0.000696887001492196
0.000193944009797102
0.000203843020132735
0.00531920338394315
0.00436525045359687
0.00333342499784431
0.00228140215014075
0.00129936606885571
0.000457101314398844
2.33642102866774e-05
0.00632209986203063
0.00545042343822013
0.00446225573938387
0.00333815303764593
0.00207725576342713
0.000746610211197435
5.24495042078075e-05
0.00718257364985334
0.00639626274810889
0.00548132697935549
0.004396553110209
0.00307811812832679
0.00142986528290309
6.84515107614155e-05
0.0079245083782606
0.00722334436084514
0.0063927337017418
0.0053926260611223
0.00415549769459365
0.00258192512477956
0.000747635733495438
6.73466872372252e-05
0.00856340420486369
0.00794472621197197
0.00720126643841956
0.00629869061377593
0.00518385428616824
0.00377996568515004
0.00203954155967332
0.000725352219490799
8.92788302680209e-05
0.00910999376565932
0.00856944580333285
0.00791111819448506
0.00710624583642497
0.00611580383341837
0.00488883156160458
0.00338335721468105
0.00185588573328119
0.00072042823390927
9.24125522954674e-05
1.73168759262746e-05
4.98853417701327e-05
7.48598100732282e-05
3.05948715291768e-05
0.000353177465681229
0.000536320790398338
0.00079443336726917
0.000906895232253896
0.00221913478229197
0.000985515295725082
0.00147795796969121
0.00263458751449418
0.00381652294098843
0.000667811902437948
0.0051173604235254
0.00410179250382814
0.00299601581430998
0.00192714104347193
0.00106459848012769
0.000368888264796477
0.00037690615629085
0.000100648487951798
1.81651583777917e-05
0.00619213349221449
0.00529046067722853
0.00427188011766673
0.00313219522868672
0.00192521635885157
0.000707994804741803
4.91772592600676e-05
0.00709732413500013
0.00629477215833424
0.0053656983003817
0.0042755676713318
0.00297667799174585
0.00138686472096122
6.60710491681142e-05
0.00786767444028749
0.00715712190546736
0.00631870103135053
0.0053163033558535
0.00408822304394298
0.00253947431213223
0.000731483813036081
6.66552576328282e-05
0.00852555984507556
0.00790119385852274
0.00715283484052982
0.00624835649137345
0.00513738851117327
0.0037451225088109
0.00202146618247504
0.000719807343509512
8.82498256723148e-05
0.00908593600607557
0.00854185694438042
0.00788034729686495
0.00707367939412522
0.00608419472529884
0.00486177220518778
0.00336334630608082
0.00184569171925298
0.000717359318131717
9.18498159668701e-05
0.00955966952489383
0.00908962747351133
0.00850963946771047
0.00779591412808443
0.00692003961204283
0.00584958691037232
0.00455725602336521
0.0031166502908123
0.001767284256734
0.000702461646562632
9.02079736629681e-05
5.74809176036155e-06
4.53389495211362e-05
6.364075099971e-05
7.05843413216456e-05
7.31251365095746e-05
0.000568738125514695
0.000811032283768242
9.94593927265388e-05
0.000765189503724107
0.00197722367140676
0.000755425000240018
0.00112764035291118
0.000812271052377621
0.00351111534247437
0.00226577923540301
0.00133430405370209
0.00251169517793052
0.000869449011255189
0.00379447131861383
0.00489031802262137
0.000587205714490408
0.0060380577614295
0.00509332465134762
0.00401689917962925
0.00281430877441721
0.00161971996845468
0.000624377294203441
0.000205459374366082
4.62001449105679e-05
9.5054075804592e-06
0.00699373393836261
0.00616777039658474
0.00521394718111397
0.0041025626825045
0.00281148822179839
0.0013225881252992
6.40097748175719e-05
0.00779737624660696
0.00707358505156108
0.00622256481870265
0.00521282603743618
0.00399126848129288
0.00247729417517375
0.000716027213576108
6.42322560284341e-05
0.00847750657778651
0.00784530454665239
0.0070896248266319
0.00618131356649717
0.00507408505422316
0.00369695517049027
0.00199543260176132
0.000711040094937582
8.77889682762508e-05
0.0090534497669243
0.00850453330620073
0.00783842474611464
0.00702899248875299
0.00604072746712163
0.00482520829336581
0.0033387357602406
0.00183323325998002
0.000713373322780578
9.10970316860713e-05
0.00953897309652833
0.00906584616418205
0.00848288848876338
0.00776703151607137
0.00689091674202115
0.00582294591265965
0.00453543845014458
0.00310097399918236
0.00175884360476991
0.000699714211647552
8.9759513189253e-05
0.00994463632358905
0.00954009022024436
0.00903321855823133
0.0084036150957101
0.00762971853546391
0.00669011828643608
0.00556759881656865
0.0042822007857659
0.00294041373944366
0.00169600741576351
0.000676743810808272
8.66253944841162e-05
1.9946072874924e-05
7.16155017397037e-05
6.59916785411574e-05
6.98088607328386e-05
0.000333676016817968
8.34984479265213e-05
0.000752476644754018
0.000102833517153127
9.68078512242844e-05
0.00076460695740254
0.00185720096897096
0.000725996088481881
0.0032808582675315
0.00200731412326114
0.000968602299989443
0.00070825402952051
0.000400652913827346
0.00075811429047901
0.00466694543285881
0.00351247762317829
0.00219139292741976
0.00113678142154013
0.00238889918374462
0.000835859567218434
0.00372565042559313
0.000726047423332775
0.00104717146090002
0.00487347572587049
0.00586849254649902
0.00043074421510646
0.0068736387917681
0.00601737582990512
0.00502753083974237
0.00387224918941998
0.00252922921669349
0.00119099104927606
6.7052500222738e-05
0.000461767949887529
3.26759244025244e-05
0.000318449037655661
0.00771342706514397
0.00697208790073319
0.00610238216837709
0.00507720222822564
0.00385328035576088
0.00238444509342865
0.000721555964933498
7.40617363312579e-05
0.00841871025479535
0.00777618394469335
0.00700997806129792
0.00609455250396938
0.00498912186690539
0.00363042317639212
0.00196274081329067
0.000701854220964132
8.60665107382519e-05
0.00901237232345963
0.00845714292556101
0.007784659903189
0.0069709019243302
0.00598343186054907
0.00477667283180529
0.00330634013871315
0.00181659528711257
0.000707643952809297
9.04357996679613e-05
0.00951088693979932
0.00903374127932547
0.00844671317491597
0.00772783025777053
0.00685134706838935
0.005787132636733
0.00450758822221207
0.00308291328855808
0.0017494116141824
0.000696673323884111
8.92036709333988e-05
0.00992681053161657
0.00951960369744458
0.00901006052392568
0.0083782609103953
0.0076034271704959
0.00666488460113095
0.00554556416868909
0.00426477363794688
0.00292793097818983
0.00168901036304076
0.000674346294600953
8.62841538909214e-05
0.0102701901509145
0.00992535046013009
0.00948548991536594
0.00893234083491756
0.00824875763740457
0.00741993223995988
0.00643453521872024
0.00529756464981253
0.00405518304145432
0.00279706405011273
0.00162127105658102
0.000645674657485502
8.25061144190287e-05
2.19799461779652e-05
6.56505154123444e-05
7.23726517489941e-05
0.000329891099532223
7.43682651254493e-05
0.000301806179368165
0.000380174722476064
0.000649479668099705
9.76514393818883e-05
9.61095967415941e-05
0.000753711608050186
0.00182624548976319
0.000750609361164295
0.00312291264718262
0.00184568640722873
0.000680810863080252
0.00447483625645681
0.00328040302288273
0.00185004361300636
0.000680480602616134
0.00569799589481113
0.00465829404795083
0.00346565594886933
0.002121207775274
0.00103884789649061
0.00219660812407291
0.000622245428457823
0.00361427189343207
0.00103976467304416
0.000719830735146073
0.000694206905275824
0.0048211883718072
0.00585202713923286
0.00674212390606563
0.000568267552606208
0.000187428022487252
0.00761696836767138
0.00685438910996673
0.0059602411641857
0.0049115061525603
0.00367206265096349
0.00224058728743518
0.00106219608041696
0.000641925920694726
6.46862013169909e-05
5.03987980058298e-05
0.000586453497832131
0.000252570955168703
0.00834897171675106
0.0076936237673868
0.0069132620851969
0.00598642778287395
0.0048793516934598
0.00354187857628702
0.00192666484714437
0.000693899049556871
8.52020453558316e-05
0.00896223731587364
0.00839915323586559
0.00771820825730579
0.00689793269061858
0.00591001758062291
0.00471354345397
0.00326464767094159
0.0017961677581873
0.000700516108658441
8.93828001734452e-05
0.00947527502178367
0.00899313614367108
0.00840079752037028
0.00767769745570249
0.00680032955576777
0.00574084627992732
0.00447207644391792
0.00306035613021414
0.00173761354009754
0.000692803704332
8.86343545369652e-05
0.00990231041592548
0.00949180305973379
0.008978776639985
0.00834404491011142
0.00756798754892643
0.00663112879798784
0.00551688354669595
0.00424345887136247
0.00291410637206241
0.00168170555047079
0.000672003952230729
8.58708509319491e-05
0.010254807657596
0.00990768589639546
0.00946547366201699
0.00891022314411603
0.00822535331664276
0.00739665661451229
0.00641313094543103
0.00527952972209765
0.00404118822389088
0.00278700686719886
0.00161549389758747
0.000643512014356022
8.22493215432733e-05
0.0105421960440614
0.0102509056910895
0.00987156101637042
0.009387112911067
0.00878313767585137
0.00804893831028031
0.00717678899564692
0.00616712229393498
0.00504150256970083
0.0038494638476999
0.00265654661469188
0.0015380562394294
0.000609124894322017
7.80229907730814e-05
5.58234608506658e-05
7.6914013118313e-05
8.18150794984031e-05
7.91760701667549e-05
0.000289336582245738
8.89118709317184e-05
0.000587663807850234
9.30932286866978e-05
9.45591647517576e-05
0.000740990892520343
0.00179691843865445
0.000750567718625942
0.00303083409250811
0.00181508008835894
0.000736360377143282
0.00432339347248316
0.0031148031836989
0.00177987142369011
0.00069953858734267
0.00554062817997713
0.00446813881700684
0.0032261086613354
0.00181822141802571
0.00660673248007703
0.00568540645997707
0.00461866769281724
0.00338066753737185
0.00190124815016851
0.000835735029602521
0.00120915182597447
0.000688602760439492
0.00214606172513592
0.00347198007024588
0.000655850103563203
0.000667576927096796
0.00472808719343092
0.000676137220783158
0.0058038841022446
0.00672535645491746
0.00751067126665561
0.000416530029697839
0.00826870799470917
0.00759869323974348
0.00680104087487827
0.00585871114098975
0.00474648739066537
0.00343615140523253
0.00184119138380286
0.000852800088016798
0.00070014722832195
0.000670137456709442
0.000607686786423892
8.24751018112628e-05
6.12088722138052e-05
0.000460302699730172
0.00890265394019064
0.00833034553772192
0.00763882201672688
0.00680947289362163
0.00581933672985228
0.00463517639278126
0.00321490385272801
0.00177356057901502
0.000698283018800458
8.87155801940163e-05
0.00943161233109546
0.00894356560195515
0.00834461324272658
0.00761584585384202
0.00673667369504365
0.00568269893641578
0.00442783079210096
0.00303277482346041
0.00172376760714584
0.000687648670296786
8.79282519336369e-05
0.00987096284466028
0.00945653590319887
0.0089391952874765
0.00830067755950234
0.00752291113199284
0.00658818234224492
0.00548079642490182
0.00421730412099641
0.00289767268362374
0.00167321469857762
0.000669311748074267
8.54248729379173e-05
0.0102332263278534
0.00988340447312482
0.0094382645933409
0.00888035082054302
0.00819389065714565
0.00736559118080668
0.00638505291589585
0.00525672716905785
0.00402462383622919
0.00277622041849199
0.0016098202781974
0.000641587244274106
8.19374381867482e-05
0.0105288935813841
0.0102356474031617
0.00985425605815696
0.00936787956173168
0.00876249605822887
0.00802786892925341
0.00715661751047132
0.00614920525773587
0.0050267859131887
0.00383812747168698
0.00264838779342643
0.00153318610889453
0.000607086139738626
7.78323124951336e-05
0.0107667250016823
0.0105227572614357
0.0101973574324329
0.00977407370786918
0.00924001757454469
0.00858699349020214
0.00780962450027009
0.00690695803322091
0.00588976215672674
0.0047868886899872
0.00364167061497985
0.00250443502328875
0.00144263343968993
0.000567897564133307
7.32084977288524e-05
7.95177248481465e-05
0.000342604107463386
7.6696218539489e-05
0.000297999991773839
8.68910702109976e-05
8.63687445998841e-05
0.000648281720829512
9.15727889546041e-05
9.15022521402718e-05
9.27282636568382e-05
0.000725052524332038
0.00176461692816717
0.00074069856819679
0.00296715313221521
0.001793804165227
0.000746583404492059
0.00421079852145834
0.00302400544333828
0.00179201722312051
0.000733271258226424
0.00540339780548042
0.00431651148439736
0.00307577308989989
0.00177437994714073
0.000711331938257343
0.00647454850537369
0.00553016173146537
0.00443304979660882
0.0031608442223503
0.00175791427726798
0.00739814260125351
0.00659217756452465
0.00564518004747598
0.00454435949203601
0.00326669115618355
0.00197917216751774
0.000757415427918369
0.000599947913115442
0.00181357593412164
0.00332768367814336
0.00459788172466405
0.00067252384005255
0.000967233246587913
0.000649503168744743
0.00571746244624762
0.00667767087694302
0.00749393779255378
0.00817895506838607
0.00883341658847544
0.00825109112890832
0.00754741423199763
0.00670672009700221
0.00571244397973773
0.00454323627081417
0.00315657955022627
0.00174233961919713
0.000624579881365466
0.000694117381152958
0.000669831432377513
0.000617669629162932
8.7482705499677e-05
7.86346237854129e-05
0.00937926748458058
0.00888462551638828
0.00827790145918107
0.00754197034876254
0.0066598212116744
0.005612157917959
0.0043755722082454
0.00300173832065276
0.00171254839315064
0.000687636586687691
8.73951850119036e-05
0.00983213510672355
0.00941327879769577
0.00889085004826638
0.00824763804096625
0.00746750269984338
0.0065351985967781
0.00543658346571387
0.00418591969857291
0.00287866519624062
0.00166379139043261
0.000666315070491204
8.49473847012901e-05
0.010205210006559
0.0098523148821226
0.00940371230913428
0.00884255786550276
0.0081541266125225
0.0073263978971897
0.00634992334285353
0.00522877598097427
0.00400493971876624
0.0027639623485738
0.00160363757179578
0.000639464988211558
8.15924963767602e-05
0.0105096930205771
0.0102142371876597
0.00983040445116103
0.00934169351696068
0.00873464461473638
0.00799968928904149
0.00712999959995444
0.00612613023869514
0.00500858862782059
0.00382504937208395
0.00263987244885959
0.00152862819514803
0.000605461403423329
7.75980082875205e-05
0.0107551963764806
0.010509550014278
0.0101823769099483
0.00975736442703094
0.0092219120680548
0.0085681649147348
0.00779104754482413
0.00688974567400514
0.00587488617663319
0.00477488468779236
0.00363244890836138
0.00249774048637047
0.00143839375798249
0.000565919486357653
7.30670112107969e-05
0.010949801871215
0.0107470628142488
0.010469165053153
0.01009986813634
0.00962702068048056
0.00904382396267097
0.0083463592829428
0.0075333325177003
0.0066103282575077
0.00559499471857662
0.00451735867376774
0.00341458666229838
0.00233081218546395
0.00133148133406848
0.000529427362811245
7.83738493665304e-05
8.2553467214379e-05
7.77564661975152e-05
0.000678562407968599
8.52892054043185e-05
8.95558471784512e-05
9.04086659592228e-05
9.18965853536129e-05
8.86473006739624e-05
9.09162143640346e-05
0.000708989950347875
0.00172831882384105
0.000726788895737129
0.00290861339534075
0.00176575156338937
0.000740806206484134
0.00412021920515112
0.00296471655756785
0.00178500822203956
0.000742444109575411
0.00528530658608981
0.00420503543352166
0.00300150977409216
0.00177827518424188
0.000730369919908319
0.0063491368633467
0.00539417705154514
0.00428712266215378
0.00303328129024346
0.00176262417597012
0.000702754136878088
0.00728247709018655
0.006461626033716
0.0054950066427279
0.00437216408358026
0.00309176411573526
0.00177781355112663
0.00808096954489476
0.00738281655115354
0.00654956149426363
0.00557185493796262
0.00444079665506556
0.003187344424913
0.00177170407521788
0.00173273707190494
0.00310565621896157
0.00443971919603736
0.00559289074579769
0.000648713513497244
0.0065931100642037
0.00744624471422531
0.00816235960246755
0.00875444875981788
0.00931753888014882
0.00881608548834697
0.00820093427101585
0.00745672502194059
0.00657044341281725
0.00552963087481408
0.004315777204407
0.00296804573889054
0.00170137430834229
0.000688490117829265
0.000697265034711519
0.000684143601412225
8.66991054243934e-05
8.61059924276166e-05
0.00978496675274933
0.00936139456737516
0.00883330817520446
0.00818460576024896
0.00740139624965055
0.0064717104348324
0.00538408238554329
0.00415003253377535
0.00285910975634726
0.00165732110380345
0.000664278557491571
8.4435848168283e-05
0.0101700105537254
0.00981378745111051
0.00936129327506834
0.00879637086432883
0.00810555671281625
0.00727849810754952
0.00630717811257048
0.00519530967654135
0.00398206221571706
0.00275041497674832
0.00159715183125939
0.000637427690622294
8.12236260830584e-05
0.0104842919395406
0.0101864192229425
0.0097998168819085
0.00930840335941496
0.00869943045117967
0.00796421839071603
0.00709673791089815
0.00609772747373334
0.0049867564204707
0.00380993278792208
0.00263052652339714
0.00152384577446122
0.000604062022744744
7.73456906371104e-05
0.0107379445123089
0.0104904863414792
0.0101612807415886
0.00973425978252476
0.00919722026260807
0.0085427859164472
0.0077663281517184
0.00686725930435004
0.00585598766211356
0.00476025503504311
0.00362197104755158
0.00249089403636029
0.00143463570167789
0.000564737379802097
7.29139540616273e-05
0.0109397870020549
0.0107356062675642
0.0104561732298478
0.0100853448994633
0.00961118196040815
0.00902713725850094
0.00832952965408128
0.00751722852494642
0.00659581509097937
0.00558271935017667
0.00450755110415337
0.00340705652098217
0.0023252168630434
0.00132762419382795
0.000526929600022934
7.78546687158616e-05
0.0110972232659009
0.0109298968542196
0.0106933163120982
0.010371251679821
0.00995177917510682
0.00942875197107266
0.00879902102739286
0.00806116721141649
0.00721804332744153
0.00628076272521007
0.0052705751673348
0.00421680686300471
0.00315386789816468
0.00212543600323035
0.0011980842756087
0.000445070443475463
6.00051151319344e-05
8.62281202377081e-05
8.54501857609363e-05
8.4374293353618e-05
8.81696974722109e-05
8.99939326388333e-05
9.11106048010527e-05
9.0712365230762e-05
8.68475467953896e-05
8.87387535829089e-05
0.000690353415071072
0.00168796214146825
0.000710642344761847
0.0028465123966457
0.00173163337964853
0.000728941511450639
0.00403514954024479
0.00290932852725878
0.00176309715575515
0.0007383384638158
0.00517759616906308
0.00411655349570861
0.00295155639802154
0.00177319889641212
0.000735327743693405
0.00622927362562977
0.00527730314203548
0.00418179238142503
0.00297238016574316
0.00176439102313056
0.000721383115194333
0.00716472520250143
0.00633745649484801
0.00536299852843434
0.00423821220616886
0.0029910359646812
0.0017501394085359
0.000696708254343312
0.00797546241572264
0.00726833002158186
0.00642293409080435
0.00543169565983938
0.00429196375989219
0.00303591981493189
0.00171601760115778
0.00866553834426732
0.00806533917491259
0.00733842679622914
0.00647384494478369
0.00546625266016809
0.00432066499707021
0.00303225583030959
0.00172285716130675
0.00169677924819528
0.00293849066718449
0.0042491851757945
0.0054361945508694
0.00647072975653077
0.000693086725646718
0.00736188328000494
0.00811452906293424
0.00873783425107845
0.00924558017616271
0.00972836972451165
0.00930016862117355
0.00876628177950788
0.00811169060837254
0.0073249040322254
0.00639788252760073
0.0053231965308867
0.00410999633472122
0.00283914838008149
0.00165241404358893
0.000665836901774936
0.000690502358053484
0.000701589743242092
8.39832298011805e-05
8.59331666064559e-05
0.0101265680034941
0.00976696043435985
0.00931035385792833
0.00874131072075255
0.0080477862855073
0.00722147834183139
0.00625641824050576
0.00515623682994138
0.00395653294173536
0.00273699448890153
0.001591712005011
0.000635596196062953
8.08296292902022e-05
0.0104518339560264
0.0101514487086765
0.00976186664352774
0.00926747825015088
0.0086563725128976
0.00792097873365531
0.00705636056291976
0.00606361062485998
0.00496108380339548
0.00379275713156477
0.00262043751830079
0.00151910327480171
0.000604147303077448
7.71277365134054e-05
0.0107146056730763
0.0104652412721041
0.0101338163050666
0.0097045693529275
0.00916579255471108
0.00851072553932952
0.00773534749150349
0.00683940920131369
0.0058330255427189
0.00474297216748131
0.00361009461521174
0.00248353138862295
0.00143117372529712
0.000565579389340387
7.30057858776404e-05
0.0109241263106264
0.0107184653466449
0.0104373393198797
0.0100647977031655
0.0095891932011977
0.00900432260340847
0.0083068443581644
0.00749586920096901
0.00657697039169004
0.00556723359112741
0.00449570753538961
0.00339856365351918
0.00231961136520745
0.00132463006941667
0.000525309211237781
7.73768676728794e-05
0.0110885125628836
0.0109199373172931
0.0106820266973593
0.0103586127698622
0.00993793392661495
0.00941403341047203
0.0087839430659461
0.00804639112594734
0.00720428693585393
0.00626865519974005
0.00526050742226191
0.00420880770219021
0.00314768362062481
0.00212062293446551
0.00119421557834288
0.000442328659962468
5.95707520128631e-05
0.0112144858001015
0.0110770824459907
0.0108759840206796
0.0105948430405003
0.0102216773788469
0.00975050617315498
0.00917844847445988
0.00850386361442514
0.00772790748778927
0.0068576055775851
0.00590803071678715
0.00490225334579971
0.00386947567384151
0.00284462895058201
0.00187377488870891
0.001011680057568
0.000334258515153216
3.86350347625633e-05
8.54110521093097e-05
8.6158888114202e-05
8.59765327927216e-05
8.68021625102122e-05
8.84515692248712e-05
8.92309438327018e-05
9.02958885379442e-05
8.89759790053561e-05
8.43818167184591e-05
8.66705703862003e-05
0.000669213734167057
0.00164190954197699
0.000692112163948694
0.00277694032474638
0.00169210114707303
0.000713669683374109
0.00394503225317015
0.00284909017343952
0.00173209409880852
0.000727915814037905
0.00506953556306008
0.00403338043104164
0.00290129025346143
0.00175437415879602
0.000730869484673879
0.00610934705704042
0.00517090594291231
0.00409823019861598
0.00292887256426454
0.00175622877495351
0.000724613405837215
0.00704307428434373
0.00621866617675424
0.00524958669537682
0.00414194381584802
0.00293830375197528
0.00174424808151788
0.00071198562198633
0.00786179202988284
0.00715156437061148
0.00630185019778991
0.00530761263307927
0.00417475222190884
0.00294601062073416
0.00172091587777078
0.000701720622536563
0.00856590774966252
0.0079606991853453
0.00722673350504118
0.00635447695339385
0.00534175819079171
0.00419828752831776
0.00294406032636175
0.0017055376031123
0.00916222094286031
0.00864962561439165
0.00801970872974961
0.00725998234326481
0.00636429903706835
0.0053335497855692
0.00416899712235325
0.00290057409853464
0.00169035850609792
0.00164881031783058
0.00281997042138068
0.00406570388103443
0.00525381422172421
0.00631465606558213
0.00723915002221242
0.000700196492240111
0.00802945136979347
0.00868957972857775
0.00922873711473934
0.00966095372610321
0.0100734967590632
0.00971074019864156
0.00925014854076724
0.00867699413558212
0.00798071309164057
0.00715530584321117
0.00619744426089029
0.00511130947616205
0.00392839162387044
0.00272369256672997
0.00158820650614518
0.000634813454764335
0.000666728646069218
0.000690991405441096
8.04032641117908e-05
8.34532705893097e-05
0.010411096004702
0.0101082679842476
0.00971568480206613
0.00921823569803583
0.0086049335667326
0.0078695046864612
0.00700841975748789
0.00602340436962475
0.00493144524508826
0.00377380254612063
0.00261018435345223
0.00151456271825288
0.000602955329830481
7.68050908248261e-05
0.0106842351863902
0.0104329635378109
0.0100992445517966
0.00966766337730488
0.00912708773142687
0.00847149979640748
0.00769765826457415
0.0068058010309115
0.00580570876024568
0.00472288124582212
0.00359675082706599
0.00247569828980667
0.00142869864840817
0.000584200427742982
8.87003651397818e-05
0.0109024163211223
0.0106952528788734
0.0104123425043726
0.0100379751238925
0.00956086426698168
0.00897523830468115
0.00827819877204929
0.00746918768479605
0.00655377595130123
0.00554856708321034