/*--------------------------------*- C++ -*----------------------------------*\
  =========                 |
  \\      /  F ield         | OpenFOAM: The Open Source CFD Toolbox
   \\    /   O peration     | Website:  https://openfoam.org
    \\  /    A nd           | Version:  12
     \\/     M anipulation  |
\*---------------------------------------------------------------------------*/
/*   Windows 32 and 64 bit porting by blueCAPE: http://www.bluecape.com.pt   *\
|  Based on Windows porting (2.0.x v4) by Symscape: http://www.symscape.com   |
\*---------------------------------------------------------------------------*/
FoamFile
{
    format      ascii;
    class       volScalarField;
    location    "100";
    object      p;
}
// * * * * * * * * * * * * * * * * * * * * * * * * * * * * * * * * * * * * * //

dimensions      [0 2 -2 0 0 0 0];

internalField   nonuniform List<scalar> 
10063
(
83333.3333055772
83333.3333088208
83333.3333028929
83333.333310956
83333.3332355714
83333.3333064005
83333.3333128277
83333.3332439711
83333.3333087386
83333.3331124013
83333.3332301872
83333.3333023382
83333.3333139001
83333.3332515921
83333.3333108677
83333.333131768
83333.3332389583
83333.3333049331
83333.3329495609
83333.3331021076
83333.3332184748
83333.3332959704
83333.3333143146
83333.3332556086
83333.3333121887
83333.33314664
83333.3332466745
83333.3333074542
83333.3329821817
83333.3331220459
83333.3332278588
83333.333299087
83333.3327591737
83333.332936561
83333.3330816983
83333.3331976442
83333.3332863857
83333.3333131723
83333.3332581506
83333.33331248
83333.3331556481
83333.3332516191
83333.3333091502
83333.3330063315
83333.333137317
83333.3332363228
83333.3333019667
83333.3328057572
83333.3329697609
83333.33310262
83333.3332086551
83333.3332900242
83333.3325561169
83333.3327459839
83333.3329129658
83333.3330446976
83333.3331644358
83333.333277792
83333.3333109778
83333.3332539016
83333.3333118322
83333.3331589296
83333.3332536084
83333.3333096392
83333.3330217396
83333.3331472831
83333.3332425063
83333.3333042468
83333.3328401818
83333.3329943933
83333.3331190137
83333.3332183179
83333.3332932863
83333.3326161129
83333.3327929823
83333.3329470935
83333.3330674064
83333.3331770576
83333.3332819149
83333.3323520712
83333.3325446001
83333.3327234073
83333.3328716467
83333.3329852803
83333.3331338604
83333.333278611
83333.3333118836
83333.3332471403
83333.3333102223
83333.3331517333
83333.3332515011
83333.3333093576
83333.3330275409
83333.3331511609
83333.3332450172
83333.3333049646
83333.3328630978
83333.3330107697
83333.3331306117
83333.3332262792
83333.3332961482
83333.3326609475
83333.332827878
83333.3329728656
83333.3330855563
83333.3331881021
83333.3332856528
83333.3324238362
83333.3326047433
83333.3327709597
83333.3329071907
83333.3330103595
83333.3331481739
83333.3332833901
83333.3321564481
83333.3323428561
83333.332524603
83333.3326853055
83333.3328045582
83333.3329123076
83333.3331063374
83333.3333112822
83333.3332397067
83333.3333141142
83333.3331352039
83333.3332453801
83333.3333076029
83333.3330195978
83333.3331460873
83333.3332447351
83333.3333047691
83333.3328733781
83333.3330181611
83333.3331363314
83333.3332294435
83333.3332971742
83333.332691864
83333.3328515525
83333.33299088
83333.3330995111
83333.333197771
83333.3332890056
83333.3324782616
83333.3326498248
83333.332806688
83333.3329346637
83333.3330310291
83333.3331608846
83333.3332875054
83333.3322377587
83333.3324145434
83333.3325848857
83333.3327336402
83333.3328422257
83333.3329400824
83333.3331236367
83333.3319756671
83333.3321492288
83333.3323255042
83333.3324908954
83333.332625376
83333.3327053812
83333.3328324297
83333.3333124679
83333.3332458482
83333.3333136213
83333.3330970419
83333.3332354572
83333.3332634311
83333.3329932604
83333.3331310164
83333.3332420397
83333.3332322693
83333.3333039841
83333.3333107002
83333.3328665557
83333.3330123692
83333.3331338961
83333.3332290406
83333.3332973182
83333.3327083609
83333.3328633512
83333.3330011564
83333.3331073316
83333.3332020055
83333.3332906579
83333.3325169392
83333.3326811547
83333.3328316794
83333.3329549039
83333.3330476478
83333.3331720342
83333.3332913118
83333.3323005109
83333.3324690138
83333.3326304015
83333.3327705675
83333.3328722104
83333.3329640694
83333.3331382359
83333.3320641374
83333.3322303271
83333.3323970147
83333.3325513922
83333.3326749326
83333.3327462157
83333.3328649891
83333.3318134379
83333.3319698908
83333.3321343003
83333.3322955764
83333.3324378233
83333.332535738
83333.3324930353
83333.3324874289
83333.3333111943
83333.3332484166
83333.3331052726
83333.3332393814
83333.3332663696
83333.332928389
83333.3330961429
83333.333184822
83333.3328372671
83333.3329917559
83333.3331245121
83333.3332254857
83333.3332424069
83333.3332375725
83333.3333049572
83333.3332981879
83333.3327055807
83333.3328580781
83333.3329985296
83333.333106157
83333.3332011904
83333.3332908778
83333.3325399535
83333.332698507
83333.332845973
83333.3329682015
83333.3330577072
83333.3331777967
83333.3332930899
83333.3323465213
83333.3325078212
83333.3326625067
83333.3327972611
83333.3328951995
83333.3329838042
83333.3331504127
83333.3321337545
83333.3322930139
83333.3324515968
83333.3325975557
83333.3327135244
83333.3327799941
83333.3328934139
83333.3319067682
83333.3320580862
83333.3322150176
83333.3323668787
83333.3324988091
83333.3325874809
83333.3325427795
83333.332535485
83333.3316714639
83333.3318086838
83333.3319571351
83333.3321079485
83333.3322484139
83333.332359202
83333.3323894617
83333.3322451914
83333.3322362118
83333.3333069014
83333.3332381171
83333.3331073272
83333.3328242681
83333.3326954984
83333.332947623
83333.3327731035
83333.3331061336
83333.3326823345
83333.3328336071
83333.3329855725
83333.3330987204
83333.3332265944
83333.3331983755
83333.3332999259
83333.333291732
83333.3325448563
83333.3326967961
83333.3328432231
83333.3329680613
83333.3330566257
83333.3331773243
83333.333293949
83333.3323764298
83333.3325310423
83333.3326812657
83333.3328141955
83333.3329108462
83333.3329963473
83333.3331561451
83333.3321864231
83333.3323390307
83333.3324907432
83333.3326306856
83333.3327420835
83333.3328068728
83333.3329171596
83333.3319817073
83333.3321275944
83333.3322776155
83333.3324216734
83333.3325459202
83333.3326285759
83333.332583907
83333.3325760584
83333.3317675757
83333.3319017148
83333.3320448316
83333.3321881584
83333.3323196423
83333.3324213545
83333.3324459404
83333.3323042995
83333.3322942609
83333.3315500237
83333.3316674908
83333.3317978655
83333.3319342902
83333.3320665434
83333.3321799102
83333.3322443816
83333.3322012708
83333.3320377069
83333.3320336181
83333.3333031352
83333.3332155179
83333.3330998589
83333.3328088562
83333.3327355774
83333.3327943077
83333.3325049543
83333.3327062121
83333.332628756
83333.3328030365
83333.3329600861
83333.3327772684
83333.332630048
83333.3330880799
83333.332530634
83333.3326761833
83333.3328242617
83333.3329594713
83333.3330493048
83333.3332068987
83333.3331765042
83333.3332951043
83333.3332927979
83333.3323898443
83333.3325367502
83333.3326811749
83333.3328137174
83333.3329108925
83333.3329947263
83333.3331554591
83333.3322232002
83333.3323690055
83333.3325145684
83333.3326509013
83333.3327607329
83333.3328250168
83333.332930248
83333.332040114
83333.3321802321
83333.3323237336
83333.3324613332
83333.3325802029
83333.3326593731
83333.3326158179
83333.3326090151
83333.3318463042
83333.3319765328
83333.3321141436
83333.3322506729
83333.3323748438
83333.3324699775
83333.3324911805
83333.3323522256
83333.3323414586
83333.3316471304
83333.3317632951
83333.3318903357
83333.3320212788
83333.3321462446
83333.3322514741
83333.3323090956
83333.3322639876
83333.3321040986
83333.3320990131
83333.3314484121
83333.3315466999
83333.3316584048
83333.3317783885
83333.3318986218
83333.3320075038
83333.3320859002
83333.3320989093
83333.3320115377
83333.3318585154
83333.3318577939
83333.333302933
83333.3331932765
83333.3330690067
83333.3328459398
83333.3326305811
83333.3327276382
83333.3327608052
83333.3325019889
83333.3323866372
83333.3324899474
83333.3324964933
83333.3326962796
83333.3326319837
83333.332537435
83333.3326254784
83333.3329419133
83333.3327772331
83333.3328346644
83333.3326264407
83333.332494436
83333.3330455279
83333.3323853789
83333.3325234983
83333.3326634273
83333.3327977971
83333.3329022541
83333.3329827766
83333.3331936375
83333.33314567
83333.3332970021
83333.332244513
83333.3323826015
83333.3325212215
83333.3326525446
83333.3327603946
83333.3328222989
83333.3329268508
83333.3320832809
83333.3322170311
83333.3323539688
83333.3324859106
83333.332601493
83333.3326790538
83333.3326371024
83333.3326304736
83333.3319093589
83333.332034907
83333.3321667773
83333.3322970012
83333.3324151647
83333.3325056831
83333.3325249177
83333.3323889772
83333.3323781116
83333.3317282039
83333.3318418986
83333.3319649027
83333.3320903199
83333.3322087744
83333.332307477
83333.3323602599
83333.3323143689
83333.3321579879
83333.3321521948
83333.3315450507
83333.3316434986
83333.331753619
83333.3318700245
83333.3319847778
83333.3320868899
83333.3321585949
83333.3321673608
83333.332080134
83333.3319303601
83333.3319288575
83333.3313652853
83333.3314456514
83333.3315391579
83333.3316420691
83333.3317482122
83333.3318485727
83333.3319295121
83333.3319695767
83333.331941735
83333.3318401892
83333.3317021903
83333.3317033665
83333.3331748423
83333.3330186674
83333.3329333819
83333.332720733
83333.33284078
83333.3325349124
83333.332768342
83333.3323840108
83333.3324749279
83333.3323011196
83333.3323826075
83333.3323791723
83333.3324384333
83333.3324871391
83333.3324960149
83333.3324462213
83333.3324761144
83333.3325751917
83333.3324343085
83333.3325340906
83333.3326267145
83333.3328791714
83333.3327548565
83333.3328396409
83333.3326173782
83333.3327529751
83333.3327070718
83333.3324884339
83333.3323643434
83333.3330299918
83333.3322505595
83333.332378737
83333.3325093373
83333.332636273
83333.3327439233
83333.3328050899
83333.3329089309
83333.3330030455
83333.3331531576
83333.3330897161
83333.332112113
83333.332238447
83333.3323679958
83333.3324934713
83333.3326032283
83333.3326758125
83333.3326353661
83333.3326283595
83333.3319580959
83333.3320780946
83333.3322037194
83333.3323276607
83333.3324404324
83333.3325277729
83333.3325467117
83333.3324143906
83333.3324026072
83333.3317947399
83333.3319049227
83333.3320232276
83333.3321430005
83333.3322554612
83333.332348759
83333.3323981427
83333.3323525451
83333.3321998053
83333.3321934037
83333.3316271801
83333.331724444
83333.3318319406
83333.3319442014
83333.3320535526
83333.3321496954
83333.3322160994
83333.3322220262
83333.3321357522
83333.3319892948
83333.3319872526
83333.3314603163
83333.3315419869
83333.3316353578
83333.3317363771
83333.3318387911
83333.3319339112
83333.332009002
83333.332044158
83333.3320141288
83333.3319135294
83333.3317780604
83333.331778681
83333.3312989363
83333.3313630157
83333.3314394679
83333.3315256672
83333.3316169547
83333.3317064381
83333.33178404
83333.3318351264
83333.3318411636
83333.3317892172
83333.3316884088
83333.3315670482
83333.3315689693
83333.3329977284
83333.332836664
83333.33280994
83333.3328837795
83333.3325055978
83333.3327336931
83333.332528361
83333.3326457043
83333.332298202
83333.332378612
83333.3322288385
83333.3322968594
83333.3322991839
83333.3323510691
83333.3323795904
83333.3323921982
83333.3323644351
83333.3324354377
83333.3324908329
83333.3325104949
83333.3323268567
83333.332429588
83333.3325276712
83333.3326173301
83333.3327914421
83333.3326994834
83333.3327485907
83333.3325931534
83333.3327120108
83333.3327702299
83333.3327515719
83333.3324759779
83333.3323582438
83333.3322424916
83333.332950904
83333.3330108994
83333.3321274641
83333.332244755
83333.3323650196
83333.3324827232
83333.3325862759
83333.3326493077
83333.3327513104
83333.3326158973
83333.3326167598
83333.3329166171
83333.332926967
83333.3329629651
83333.3319936299
83333.3321070151
83333.3322254426
83333.3323423163
83333.3324484189
83333.3325279114
83333.3325442635
83333.3324138203
83333.3324010608
83333.331848034
83333.3319536834
83333.3320665159
83333.3321802356
83333.3322866889
83333.3323748281
83333.3324218895
83333.3323778526
83333.3322291944
83333.3322230679
83333.3316960538
83333.331790946
83333.3318948876
83333.3320024754
83333.3321063915
83333.3321970314
83333.3322590198
83333.3322631622
83333.3321787408
83333.3320357108
83333.3320332022
83333.3315424094
83333.3316239853
83333.3317160015
83333.3318142287
83333.3319124975
83333.3320025525
83333.3320725414
83333.3321038818
83333.332072692
83333.3319738226
83333.331841324
83333.331841556
83333.3313915195
83333.3314577534
83333.331535211
83333.331620929
83333.3317100637
83333.3317958369
83333.3318687259
83333.3319151475
83333.3319179041
83333.3318650078
83333.3317652523
83333.3316457637
83333.3316473177
83333.3312475042
83333.3312970909
83333.3313580075
83333.3314284827
83333.3315050736
83333.3315825594
83333.33165345
83333.3317071914
83333.3317305082
83333.3317117082
83333.3316488699
83333.3315548341
83333.3314515727
83333.3314538413
83333.3328140146
83333.3327198507
83333.3324723383
83333.3324879259
83333.332794459
83333.3323890265
83333.332506215
83333.3322271749
83333.3322970241
83333.3321670769
83333.3322252749
83333.3322265718
83333.3322743011
83333.3322950167
83333.3322978811
83333.3322967276
83333.3323485039
83333.3323820676
83333.3323773756
83333.3322797921
83333.3323607953
83333.3324311741
83333.3324766813
83333.3322217978
83333.332321596
83333.3324191289
83333.3325092876
83333.3325968979
83333.3326762033
83333.332673278
83333.3328899206
83333.3325724973
83333.3325435516
83333.3326728257
83333.3324867211
83333.3324511711
83333.3326559422
83333.3323455074
83333.3322370474
83333.3321305808
83333.3329308348
83333.3320170477
83333.332122544
83333.3322323043
83333.332340307
83333.332438169
83333.3325077124
83333.3325194903
83333.3326450716
83333.3328670112
83333.3323931297
83333.3325381093
83333.3323789899
83333.3325490042
83333.3329088855
83333.3318892307
83333.3319892994
83333.3320956889
83333.3322024982
83333.332302131
83333.3323830588
83333.3324236715
83333.3323780777
83333.3322345189
83333.3322263941
83333.3317528332
83333.3318442591
83333.3319437201
83333.332045982
83333.3321441161
83333.3322291112
83333.3322867606
83333.3322896899
83333.3322082351
83333.3320690049
83333.3320667005
83333.3316125761
83333.3316928178
83333.3317824014
83333.3318770499
83333.3319707732
83333.3320557804
83333.3321210652
83333.3321492741
83333.332117726
83333.3320214323
83333.3318924314
83333.3318923294
83333.3314726973
83333.3315397146
83333.331616896
83333.3317010492
83333.3317872956
83333.3318690905
83333.3319375015
83333.3319799112
83333.3319802655
83333.3319273033
83333.3318293585
83333.3317125782
83333.3317138804
83333.3313370618
83333.3313893949
83333.3314521711
83333.331523287
83333.3315990621
83333.331674249
83333.331741658
83333.331791423
83333.3318112613
83333.3317904081
83333.3317272545
83333.3316341208
83333.3315320965
83333.3315341165
83333.3312091235
83333.3312460205
83333.3312930826
83333.331349177
83333.3314118199
83333.3314771025
83333.3315394243
83333.3315910282
83333.3316220888
83333.3316229445
83333.3315887367
83333.3315235147
83333.3314401865
83333.3313542708
83333.3313569982
83333.3324457535
83333.3327429848
83333.3324009928
83333.3327057437
83333.3323438538
83333.3323738661
83333.3324847915
83333.3322956248
83333.3321661907
83333.3322252365
83333.3321146698
83333.3321639433
83333.3321646231
83333.3322076012
83333.3322229812
83333.3322217966
83333.3322334514
83333.3322718481
83333.3322919581
83333.332285718
83333.3322302505
83333.3322935828
83333.3323442921
83333.3323666735
83333.3323489874
83333.3321923548
83333.3322753155
83333.3323520512
83333.3324141403
83333.3324488213
83333.3321231224
83333.3322168741
83333.3323102269
83333.3323975067
83333.332470129
83333.3324833435
83333.3326526875
83333.3328480684
83333.3324592072
83333.3324597645
83333.3324081921
83333.3325352703
83333.3325662198
83333.3323946173
83333.3323222064
83333.3322253358
83333.3321259245
83333.332029632
83333.3319194585
83333.3320128669
83333.3321116446
83333.3322102125
83333.3323010607
83333.3323730728
83333.3324055991
83333.332358142
83333.3328264386
83333.3322214243
83333.3323442104
83333.3324380609
83333.3322118337
83333.332326827
83333.3317985907
83333.3318855279
83333.3319795471
83333.3320756284
83333.3321671962
83333.3322454861
83333.3322969628
83333.3322961993
83333.3322162168
83333.3320854236
83333.3320821103
83333.3316718101
83333.3317496055
83333.3318357547
83333.3319260303
83333.3320146724
83333.3320943168
83333.332154726
83333.3321798368
83333.3321483279
83333.332055505
83333.3319310425
83333.3319307103
83333.3315432569
83333.3316098323
83333.3316856025
83333.331767259
83333.3318499811
83333.331927511
83333.3319915013
83333.3320302469
83333.3320287659
83333.3319764602
83333.3318811406
83333.3317680441
83333.3317692061
83333.3314166513
83333.3314704423
83333.3315338149
83333.3316044161
83333.3316784577
83333.3317507857
83333.3318145747
83333.3318606347
83333.3318775833
83333.3318554421
83333.3317927924
83333.331701441
83333.3316016729
83333.331603499
83333.3312952949
83333.3313353152
83333.3313848398
83333.3314424249
83333.3315053301
83333.3315695351
83333.3316295657
83333.3316780858
83333.3317059745
83333.3317043646
83333.3316689178
83333.3316036655
83333.3315209602
83333.3314356225
83333.3314382759
83333.3311820255
83333.3312079434
83333.3312428502
83333.3312860701
83333.331335858
83333.3313893324
83333.3314423022
83333.331488984
83333.3315220293
83333.3315336599
83333.3315184439
83333.3314765353
83333.331414543
83333.3313434851
83333.3312741189
83333.3312777769
83333.3322683975
83333.3323151481
83333.3325570796
83333.3322945874
83333.3322579528
83333.3322843573
83333.3322205069
83333.3321141408
83333.3321638511
83333.3320701206
83333.3321115875
83333.3321121221
83333.3321499775
83333.3321615495
83333.3321589864
83333.3321763775
83333.3322051154
83333.3322177459
83333.3322094588
83333.3321812662
83333.3322304357
83333.3322661676
83333.3322781926
83333.3322592206
83333.332158558
83333.3322262981
83333.3322857736
83333.3323281151
83333.3323362106
83333.33229658
83333.3321076982
83333.3321879827
83333.3322653061
83333.3323328623
83333.3323794302
83333.3323732763
83333.332032923
83333.332118828
83333.3322061622
83333.332289071
83333.3323593942
83333.3323949733
83333.3323815827
83333.3323166878
83333.3323647018
83333.3323443096
83333.3322848938
83333.3323213848
83333.3322044487
83333.3321156213
83333.3320256646
83333.3319399423
83333.331834394
83333.331915882
83333.3320034672
83333.3320923316
83333.332176129
83333.3322462571
83333.332289837
83333.3322841843
83333.3322058536
83333.3320830841
83333.3321931613
83333.3322808635
83333.3320789835
83333.3321836737
83333.3317210601
83333.3317954193
83333.3318771905
83333.3319622508
83333.3320450799
83333.3321186297
83333.3321732137
83333.3321941328
83333.3321618286
83333.3320733943
83333.3319561456
83333.3319560126
83333.3316040169
83333.3316690617
83333.3317423962
83333.3318206859
83333.3318992307
83333.3319720681
83333.3320313862
83333.3320663593
83333.3320631488
83333.3320119862
83333.3319202557
83333.3318121411
83333.3318131955
83333.331486865
83333.3315409464
83333.3316037866
83333.3316728785
83333.3317444118
83333.3318133911
83333.3318733793
83333.3319158378
83333.3319302408
83333.3319073614
83333.3318459409
83333.33175733
83333.3316609082
83333.3316626867
83333.3313728103
83333.3314147783
83333.3314655728
83333.331523499
83333.3315856684
83333.3316480615
83333.3317054083
83333.3317508199
83333.3317758474
83333.3317723354
83333.3317363725
83333.3316719325
83333.3315907958
83333.3315071192
83333.3315097057
83333.3312646252
83333.3312938703
83333.3313316311
83333.3313769521
83333.3314278322
83333.3314812323
83333.3315329747
83333.3315775101
83333.3316079602
83333.3316171716
83333.331600267
83333.3315576311
83333.3314956616
83333.3314248806
83333.3313555849
83333.3313592534
83333.3311645963
83333.3311810942
83333.331205465
83333.3312373481
83333.3312755475
83333.3313179749
83333.3313615131
83333.3314018162
83333.331433327
83333.3314499086
83333.3314464469
83333.3314212192
83333.3313773606
83333.3313219921
83333.3312639451
83333.3312119161
83333.3312168838
83333.3321512106
83333.3322114887
83333.3322319391
83333.3322183082
83333.3321864199
83333.3322085724
83333.3321582007
83333.3320699286
83333.3321116509
83333.3320324461
83333.3320672947
83333.3320677642
83333.3321005902
83333.3321092815
83333.3321065357
83333.3321257829
83333.3321475327
83333.3321557318
83333.3321474017
83333.3321352998
83333.3321733868
83333.3321988252
83333.332204518
83333.3321869936
83333.3321232041
83333.3321777022
83333.332223006
83333.332251167
83333.3322512723
83333.332219371
83333.3320872526
83333.3321546646
83333.3322174384
83333.3322685866
83333.3322971512
83333.3322847051
83333.332235018
83333.3320288757
83333.3321038101
83333.3321783554
83333.3322463587
83333.332299321
83333.3323195568
83333.332296416
83333.3319520491
83333.3320292339
83333.3321092969
83333.3321869188
83333.3322549832
83333.3323012078
83333.3323103664
83333.3322624961
83333.3321822221
83333.3322555899
83333.3322663033
83333.3322325113
83333.3321721639
83333.3322166709
83333.3320973399
83333.3320167533
83333.3319365425
83333.3318613607
83333.331761283
83333.3318313249
83333.3319078315
83333.3319868037
83333.3320629369
83333.3321294157
83333.3321770407
83333.3321921528
83333.3321582637
83333.3320736699
83333.3319682016
83333.3320710049
83333.3321574679
83333.3319675576
83333.3320670391
83333.3316557838
83333.3317183501
83333.3317883307
83333.331862424
83333.3319360856
83333.3320036243
83333.3320576754
83333.3320882364
83333.3320827941
83333.3320329174
83333.3319460956
83333.3318448682
83333.3318459575
83333.3315483562
83333.3316016901
83333.3316629893
83333.3317296733
83333.3317979755
83333.3318630923
83333.3319189651
83333.3319576731
83333.3319695497
83333.331946199
83333.3318866638
83333.3318018142
83333.3317099384
83333.3317116665
83333.3314421003
83333.3314849327
83333.3315359166
83333.3315931851
83333.3316537771
83333.3317137418
83333.3317680549
83333.3318102796
83333.3318326139
83333.331827587
83333.3317916921
83333.3317288421
83333.3316502473
83333.3315693626
83333.3315720668
83333.3313397433
83333.3313712652
83333.3314107893
83333.3314571178
83333.331508083
83333.3315605885
83333.3316105512
83333.3316527016
83333.3316806365
83333.3316877879
83333.3316697627
83333.3316271184
83333.331566042
83333.3314965182
83333.3314283088
83333.3314318769
83333.3312435709
83333.3312634686
83333.3312909154
83333.3313253063
83333.3313652058
83333.3314083466
83333.3314515553
83333.3314905917
83333.3315201945
83333.3315346831
83333.3315294397
83333.3315030833
83333.3314587931
83333.3314033843
83333.331345308
83333.3312930556
83333.3312980733
83333.3311554298
83333.3311638657
83333.3311791787
83333.3312012003
83333.3312291311
83333.3312614788
83333.3312959457
83333.3313292669
83333.3313572076
83333.3313749517
83333.3313780668
83333.3313640747
83333.3313339595
83333.3312922655
83333.3312457816
83333.3312021598
83333.3311686841
83333.3311758741
83333.3320509248
83333.3321176724
83333.3321581068
83333.3321677635
83333.332154474
83333.3321280782
83333.332146779
83333.3321060597
83333.3320325532
83333.3320675626
83333.3320007279
83333.3320299342
83333.3320304501
83333.3320585264
83333.332065155
83333.3320627351
83333.3320816249
83333.3320982143
83333.33210373
83333.3320962672
83333.3320933948
83333.3321229409
83333.3321414027
83333.3321437585
83333.3321284692
83333.3320885735
83333.3321320385
83333.3321664207
83333.3321852125
83333.332181617
83333.3321548414
83333.3320640579
83333.3321197332
83333.3321697882
83333.332207679
83333.3322246613
83333.3322111967
83333.3321688595
83333.3320196175
83333.33208376
83333.3321460992
83333.332200628
83333.3322393104
83333.3322499158
83333.3322234046
83333.3321599975
83333.3319573341
83333.3320255044
83333.3320951472
83333.3321609528
83333.3322159362
83333.3322494156
83333.3322499324
83333.3322052386
83333.3318806795
83333.3319488724
83333.3320209391
83333.3320923405
83333.3321571267
83333.3322069082
83333.3322309783
83333.3322158505
83333.3321501682
83333.3320644683
83333.3321427357
83333.3321769497
83333.3321676599
83333.3321280034
83333.3320695258
83333.3321202035
83333.3320009532
83333.3319288891
83333.331858435
83333.3317934655
83333.3316993839
83333.3317586513
83333.3318244602
83333.3318935765
83333.331961624
83333.3320231607
83333.3320712244
83333.3320965894
83333.3320883433
83333.3320398024
83333.3319593395
83333.3318668679
83333.3319683534
83333.3320538027
83333.3318680373
83333.3319676321
83333.3316017877
83333.3316534785
83333.3317123532
83333.3317758173
83333.3318401932
83333.331900883
83333.3319521803
83333.3319867408
83333.3319957984
83333.3319719819
83333.3319149357
83333.3318350276
83333.3317490569
83333.3317508512
83333.3315036692
83333.331546398
83333.3315966057
83333.3316523247
83333.3317105839
83333.3317675451
83333.3318184458
83333.3318572909
83333.3318769115
83333.3318705412
83333.3318351478
83333.331774617
83333.3316995342
83333.3316224533
83333.3316251992
83333.3314076784
83333.3314404939
83333.3314807751
83333.331527148
83333.3315773424
83333.3316282688
83333.3316759886
83333.3317155368
83333.3317409814
83333.3317463182
83333.3317276168
83333.3316855859
83333.3316262047
83333.3315588848
83333.3314928686
83333.331496468
83333.3313161029
83333.3313384735
83333.3313680194
83333.3314039121
83333.3314445435
83333.3314875549
83333.3315297938
83333.3315671822
83333.3315947794
83333.3316073522
83333.3316007361
83333.3315738364
83333.3315298334
83333.3314752578
83333.3314180869
83333.3313663896
83333.3313712383
83333.3312308238
83333.3312426327
83333.3312611152
83333.3312858888
83333.3313159368
83333.3313495874
83333.3313844471
83333.3314172715
83333.3314439949
83333.3314601172
83333.3314616061
83333.3314463411
83333.3314154924
83333.331373502
83333.3313269276
83333.3312830764
83333.3312492002
83333.3312565051
83333.331154864
83333.3311624029
83333.3311759166
83333.331194862
83333.3312181857
83333.3312442062
83333.33127048
83333.3312937778
83333.3313103244
83333.3313164176
83333.3313094685
83333.3312892051
83333.3312583035
83333.3312219149
83333.3311865236
83333.3311589393
83333.3311431377
83333.3311532993
83333.3319634459
83333.3320328631
83333.3320833732
83333.3321103867
83333.3321143567
83333.332102086
83333.3320801859
83333.3320958766
83333.332062501
83333.3320010328
83333.3320304318
83333.331974104
83333.3319984864
83333.331999086
83333.3320228688
83333.3320280755
83333.3320261123
83333.3320435615
83333.3320563686
83333.3320602413
83333.3320539301
83333.3320560662
83333.3320790441
83333.3320926627
83333.3320933166
83333.3320804188
83333.3320559952
83333.3320904678
83333.3321166377
83333.3321294077
83333.3321244969
83333.332102356
83333.3320400679
83333.3320854842
83333.3321249954
83333.3321529194
83333.3321627639
83333.3321493716
83333.3321147263
83333.3320069667
83333.3320609533
83333.3321121578
83333.3321550118
83333.3321825693
83333.332186549
83333.3321616485
83333.3321109791
83333.3319574123
83333.3320165723
83333.3320759942
83333.3321305999
83333.332173914
83333.332197414
83333.3321925249
83333.3321524663
83333.3320843179
83333.3318936195
83333.3319544102
83333.3320179084
83333.3320796997
83333.3321340653
83333.3321734067
83333.3321889591
83333.3321711522
83333.3321143944
83333.3318186285
83333.3318779335
83333.3319417136
83333.3320062161
83333.3320665458
83333.3321164193
83333.332147929
83333.332151656
83333.3321182785
83333.3320489346
83333.3319621245
83333.3320360216
83333.3320825139
83333.3320932859
83333.3320734498
83333.3320319818
83333.3319770993
83333.3320339759
83333.3319153362
83333.3318518861
83333.3317909471
83333.3317356668
83333.3316478536
83333.3316971348
83333.3317528201
83333.3318123399
83333.3318721357
83333.3319278224
83333.331974033
83333.3320039884
83333.3320099026
83333.3319856205
83333.3319316669
83333.3318577984
83333.3317790398
83333.3318796555
83333.331964017
83333.331780928
83333.3318808937
83333.3315580467
83333.3315998365
83333.3316484297
83333.3317018125
83333.3317570531
83333.3318104553
83333.3318575229
83333.331892687
83333.3319094128
83333.3319016999
83333.3318671239
83333.3318096217
83333.3317390569
83333.3316668448
83333.3316695732
83333.3314688079
83333.3315020298
83333.3315421641
83333.3315877217
83333.3316363869
83333.3316851238
83333.3317301674
83333.3317668663
83333.3317897533
83333.3317933855
83333.3317743155
83333.3317334255
83333.3316764631
83333.3316122059
83333.3315492703
83333.331552854
83333.3313823808
83333.331406347
83333.3314370765
83333.3314735691
83333.3315140985
83333.3315562723
83333.3315970107
83333.3316324333
83333.3316579325
83333.3316687137
83333.3316610454
83333.3316340921
83333.3315910225
83333.3315380553
83333.3314827146
83333.33143251
83333.3314372895
83333.3313006871
83333.3313150612
83333.3313358466
83333.3313624649
83333.3313937316
83333.3314278646
83333.3314624432
83333.3314943029
83333.3315195842
83333.3315341122
83333.3315342346
83333.3315181479
83333.3314871552
83333.331445585
83333.3313997184
83333.331356393
83333.3313225253
83333.3313295412
83333.3312300702
83333.3312407701
83333.3312571545
83333.3312784822
83333.3313035269
83333.3313304942
83333.3313569095
83333.3313796232
83333.3313950654
83333.3313998371
83333.3313916715
83333.3313705338
83333.3313391686
83333.3313025892
83333.3312670762
83333.3312391381
83333.3312228436
83333.3312331757
83333.3311537667
83333.3311599472
83333.3311710961
83333.33118645
83333.3312047858
83333.3312242815
83333.33124248
83333.3312564335
83333.3312631085
83333.3312600951
83333.331246511
83333.3312237265
83333.3311954601
83333.3311671808
83333.3311450554
83333.3311336041
83333.3311320985
83333.3311397909
83333.331887219
83333.3319563631
83333.3320127287
83333.3320507278
83333.3320688986
83333.3320699078
83333.332058934
83333.3320406719
83333.3320537424
83333.3320260842
83333.3319745737