/*--------------------------------*- C++ -*----------------------------------*\
  =========                 |
  \\      /  F ield         | OpenFOAM: The Open Source CFD Toolbox
   \\    /   O peration     | Website:  https://openfoam.org
    \\  /    A nd           | Version:  12
     \\/     M anipulation  |
\*---------------------------------------------------------------------------*/
/*   Windows 32 and 64 bit porting by blueCAPE: http://www.bluecape.com.pt   *\
|  Based on Windows porting (2.0.x v4) by Symscape: http://www.symscape.com   |
\*---------------------------------------------------------------------------*/
FoamFile
{
    format      ascii;
    class       volVectorField;
    location    "100";
    object      U;
}
// * * * * * * * * * * * * * * * * * * * * * * * * * * * * * * * * * * * * * //

dimensions      [0 1 -1 0 0 0 0];

internalField   nonuniform List<vector> 
10063
(
(-3.83036647790119e-05 -0.00158038134281742 0.000913685677868995)
(-3.78858131057892e-05 -0.00164423140670294 0.000873979389068061)
(-0.000124781495589305 -0.00147612741167192 0.000885332763727098)
(-3.71561325464712e-05 -0.00168513049484515 0.000842031142070433)
(-2.414465155119e-05 -0.00170370935643992 0.000993681825132793)
(-0.000120500744646743 -0.00156758550310376 0.000845460765087277)
(-3.57694952289246e-05 -0.00170719617584183 0.000811128277093104)
(-2.42183602940399e-05 -0.00174651605301314 0.000941092482328301)
(-0.000121323336602315 -0.00159038717270947 0.000816878809892134)
(-1.38003047626097e-05 -0.00170372473711161 0.00110663497939396)
(-8.07301873655355e-05 -0.0016018603767566 0.000965232225724547)
(-0.000224075283495579 -0.00143534670251473 0.000810131366541418)
(-3.63369385130574e-05 -0.00170404385921299 0.000778235174195558)
(-2.21594510027871e-05 -0.00176734590538428 0.000891996732261497)
(-0.00012115659138664 -0.00161204465302452 0.00079200946901234)
(-1.36260355341163e-05 -0.00174897002450239 0.00103253910602853)
(-8.0340603387498e-05 -0.00164363662204575 0.000914916690018442)
(-0.000229841415541747 -0.00148047851063961 0.000774428113595443)
(-1.27300078683724e-05 -0.00164959979627451 0.00120916005193144)
(-4.3382852998751e-05 -0.00161883129054346 0.00108027437485135)
(-0.000145538156375591 -0.00149902143415148 0.000920378957363419)
(-0.000342826951393985 -0.0012637433626041 0.000732617594911532)
(-3.73249338681415e-05 -0.00168837111721571 0.000744282079885215)
(-2.38619347824335e-05 -0.00176646597212614 0.00084083388872675)
(-0.00012315284499259 -0.00161143429855058 0.000764589100798487)
(-1.2769399359245e-05 -0.00177045752585589 0.000961781758856606)
(-7.67941912508938e-05 -0.00166642093069276 0.000870533783953162)
(-0.000227969108267356 -0.00152135207308306 0.000756140736955305)
(-1.20215404915564e-05 -0.0017000442439385 0.00111485595993733)
(-4.24006354928904e-05 -0.00166392154342105 0.00100822186840742)
(-0.000145130765575273 -0.00154294818894568 0.000872472706624467)
(-0.000341226389005169 -0.00131923741477519 0.000713928468639908)
(-1.36540710135334e-05 -0.00157219413706797 0.00130033272428625)
(-3.41708419975538e-05 -0.00156535406866613 0.00118320464430746)
(-7.85417109686417e-05 -0.00153139709406451 0.00103822698164739)
(-0.000210393518366062 -0.00135931644135699 0.000847309967807621)
(-0.00056641235571472 -0.00084335937595008 0.000584967078833724)
(-4.07916948423343e-05 -0.00164343309449986 0.000714954168790296)
(-2.23327410267428e-05 -0.00175035690247837 0.000783813926068279)
(-0.000125684447356964 -0.00158443768883523 0.000740732418779504)
(-1.2866731129632e-05 -0.00176693907362715 0.000889270548288236)
(-7.8805385017249e-05 -0.00166820571689654 0.000823167191393577)
(-0.000233554928323358 -0.00151759606049629 0.000736322674066773)
(-1.14520998508511e-05 -0.00172120427578887 0.0010251838046059)
(-3.95670205309552e-05 -0.00168806945492328 0.000941073957246881)
(-0.000141770170136057 -0.00157010284312616 0.000833943305205118)
(-0.000340875659910544 -0.00133909855194078 0.000703156244955861)
(-1.25767963301949e-05 -0.00162816119659024 0.00118846201846005)
(-3.22459671951403e-05 -0.00161584077980546 0.00109121688232042)
(-7.70816927838896e-05 -0.00157608415888727 0.000969941961400543)
(-0.000209010798945269 -0.00140300162956954 0.000808274428375062)
(-0.000561460438062358 -0.000864584097425122 0.000588662383241792)
(-1.41510589946247e-05 -0.00147927013922135 0.0013795703357045)
(-3.56591301778289e-05 -0.00148852767259043 0.001272610556756)
(-6.3125169245771e-05 -0.00147498015973927 0.00114232509214465)
(-0.000102580624360806 -0.00142506491814969 0.000972090731972097)
(-0.000340422608575801 -0.00108962526268263 0.000718364601631399)
(-0.00105178724819946 2.98226207210333e-05 0.000301242705196757)
(-4.69032690014414e-05 -0.00158546662771881 0.000702571731318859)
(-2.6605372397005e-05 -0.00172034187424076 0.000724823542061293)
(-0.000136193113257078 -0.00154871689372462 0.000722856929405)
(-1.12195161576529e-05 -0.00174575488695227 0.00081003366470814)
(-7.6356678871347e-05 -0.00164779698841796 0.000773570602404543)
(-0.000240830577801012 -0.00148232296524219 0.000725156803352985)
(-1.056552874048e-05 -0.00171431999503269 0.000936059231689277)
(-3.88801916710034e-05 -0.00168866416991458 0.000872319840678737)
(-0.000145046806151412 -0.00157258509786238 0.000793067196642502)
(-0.000349917381188414 -0.00132905977328813 0.000690964732091105)
(-1.15043720738247e-05 -0.00165039980767851 0.0010826288674155)
(-2.93113861318319e-05 -0.00163965034721101 0.0010048586262606)
(-7.3525092050801e-05 -0.00160313772100766 0.000907278013895148)
(-0.000207782842778501 -0.00142925864051597 0.000779339466749743)
(-0.000560287621673069 -0.00087591649537744 0.000596301520978438)
(-1.29086350599522e-05 -0.00154022200539162 0.00125293355459803)
(-3.28365593468896e-05 -0.00154458974453037 0.00116384259452965)
(-5.99350347948287e-05 -0.00152480491890561 0.00105422753104784)
(-0.000101922776840982 -0.00146875404770652 0.000910339221567646)
(-0.000343028917056548 -0.00112602114130926 0.000695511921830538)
(-0.00104755703196543 -2.78047773514046e-05 0.000339091275679474)
(-1.39301092644388e-05 -0.00137585625417777 0.00144653759821902)
(-3.90852479863498e-05 -0.00139749902981125 0.00134897479440521)
(-6.36377962172351e-05 -0.00139785189001674 0.00123039367865491)
(-8.85275165947177e-05 -0.00136771912554167 0.00107913308578429)
(-0.000136923142667843 -0.00126398208464214 0.000863656732848198)
(-0.000508587115389159 -0.000711104393509657 0.000487428096436148)
(-0.00198571199893273 -0.000701740748453433 -0.00010739537723756)
(-6.66213161694431e-05 -0.00138886090900708 0.000730336884775921)
(-1.8951107567833e-05 -0.00168718070119892 0.000657489285342894)
(-0.000133658569001687 -0.00144950049919544 0.000741072101172644)
(-1.16281887592299e-05 -0.00170610346701832 0.000722411504760021)
(-8.76811726151287e-05 -0.00161286186686591 0.000720772924712481)
(-0.000256114301770404 -0.00139332814078591 0.000722772111983373)
(-9.34497413123538e-06 -0.00168370583470914 0.000842884525821306)
(-3.65093063764875e-05 -0.0016682336962513 0.000798121409142899)
(-0.000147440044294326 -0.0015480723819963 0.000752421832056142)
(-0.000367609997681278 -0.00127459697522855 0.000690633165304709)
(-1.05361916557295e-05 -0.00164135031808105 0.000979241357784998)
(-2.67686631044296e-05 -0.0016368313140243 0.000919569226405939)
(-7.23862307388469e-05 -0.00160804926299484 0.000843435807262576)
(-0.00021324570303151 -0.00143281333326817 0.0007462961409536)
(-0.000574408109069845 -0.000864756579877677 0.000607401107828465)
(-1.1731385772313e-05 -0.00156430045827742 0.00113322790124867)
(-2.95256903252203e-05 -0.00156931517544213 0.00106164357169407)
(-5.54083464315906e-05 -0.00155079804791555 0.000971982959736274)
(-9.85395170577422e-05 -0.00149743673453464 0.000855196855406981)
(-0.000344474217119099 -0.00115150141957497 0.000684972787070549)
(-0.00104608587552163 -7.03261701331076e-05 0.000389808114375092)
(-1.26219416095418e-05 -0.00144139244763629 0.00130789396461923)
(-3.5656611889403e-05 -0.00145856674460989 0.00122632913584712)
(-5.89378712156625e-05 -0.0014532205218587 0.00112606129898704)
(-8.48946560724655e-05 -0.00141577896870344 0.00099728357316444)
(-0.000138447418205823 -0.00130331774357273 0.000815293762679113)
(-0.000527737045363656 -0.000748033136749142 0.000495928929066372)
(-0.00195657544471526 -0.000788798372129296 -4.19558113537709e-05)
(-1.31631768005689e-05 -0.00126297230307996 0.00150143287829824)
(-4.06949310619573e-05 -0.00129737961704417 0.00141322382955678)
(-6.7429114242789e-05 -0.0013081641839564 0.00130433074859564)
(-8.95539835418241e-05 -0.00129527306704263 0.00116754177865784)
(-0.000126956874188764 -0.00121777679068553 0.000981387535364653)
(-0.000104854738789303 -0.00121162249064288 0.000693797811092616)
(-0.00156001055440648 -0.00230246443433441 0.000101454515821266)
(-0.000181720130110756 -0.000944936365831295 0.000882541043369695)
(7.26750716341125e-06 -0.00165205712034779 0.000620497223821587)
(-0.000198529534668958 -0.00108539267709557 0.000744192332858085)
(-3.46279475970436e-06 -0.00166158297051635 0.000602838591234256)
(-0.000101669901471644 -0.00155153132297811 0.000632152010189277)
(-0.000300163580567801 -0.00118311287805808 0.000783832261836433)
(-8.42781261798956e-06 -0.00162921238003387 0.000741609697202768)
(-3.94651762395693e-05 -0.00163148458710541 0.000713212585392582)
(-0.000160535382914894 -0.0014927114571753 0.000715136388370655)
(-0.00040802302703495 -0.00112554120055744 0.000721714748315992)
(-9.73819579967995e-06 -0.00160414933271603 0.000874814165271066)
(-2.47881629787852e-05 -0.00160895548324017 0.00083097223669553)
(-7.2008391547065e-05 -0.00158834915464737 0.000774593537786456)
(-0.000224054172075195 -0.00140320462881479 0.000713815267151031)
(-0.000609646682267224 -0.000795624101415397 0.000635375402438143)
(-1.07247612844294e-05 -0.00155484910122465 0.0010178255031834)
(-2.6434536475254e-05 -0.00156423893514819 0.000962627352732421)
(-5.14544504544711e-05 -0.00155197304501288 0.00089145418662415)
(-9.73235892017195e-05 -0.00150679610644137 0.00079838208325986)
(-0.000352219557319843 -0.00115720529065088 0.000671317927104645)
(-0.00107133247436404 -6.11931927465813e-05 0.000455338506301587)
(-1.14275624106388e-05 -0.00146831817691129 0.00117674074508601)
(-3.21272621838901e-05 -0.00148517200941798 0.00111098400260227)
(-5.35011640139122e-05 -0.00147990601150124 0.00102834350477776)
(-7.9135140514208e-05 -0.00144305307379255 0.000921184830117351)
(-0.000136095632556104 -0.00133279735886987 0.000773300492111375)
(-0.000534288743492872 -0.000785231950368295 0.000520713571739659)
(-0.00192730629226453 -0.000861277746291455 6.67428852364406e-05)
(-1.18244967935815e-05 -0.00133268047274445 0.00135350711465674)
(-3.69441304071046e-05 -0.00136303423509667 0.00127934130126944)
(-6.17528298660051e-05 -0.00136853898962932 0.00118690741292775)
(-8.34537204488037e-05 -0.00134888935982587 0.00106964721327403)
(-0.000123043874179686 -0.00126235236725564 0.000910592018945358)
(-0.000122751578317993 -0.00124138226396977 0.000666318347752534)
(-0.00152287457015889 -0.00235247919496914 0.000144145386463885)
(-1.2001577849292e-05 -0.00114150655303426 0.00154452966276823)
(-3.9881731769192e-05 -0.00118875492671897 0.00146615976998607)
(-6.89309775806514e-05 -0.00121098848266687 0.00136634969860765)
(-9.36433990589309e-05 -0.001208968625824 0.00124057932434851)
(-0.000114928881965975 -0.00116625093105287 0.00107533352225575)
(-1.01392906572277e-05 -0.00115056931904281 0.000831745347848547)
(0.000420624814851487 -0.00395460420970971 0.000325513171668957)
(-0.000260084272120637 -0.00143026256536907 0.00109361949796439)
(3.0158095657733e-06 -0.00153238036867457 0.000784412714712384)
(-0.000292225232401281 -0.000677683633406561 0.000836728849768608)
(-1.17397640678208e-05 -0.00164592061581376 0.00051864377544864)
(-7.78389422535891e-05 -0.00135978591544704 0.000651150407829625)
(-0.000175677503749858 -0.00131558550308357 0.000715016649623217)
(-7.4639093770913e-06 -0.00155367317011559 0.000624521488516966)
(-4.18762927696697e-05 -0.00158376826912476 0.000587614570742551)
(-0.000197747165838163 -0.00138449682079247 0.000702353570639334)
(-0.000124234678564913 -0.00136787885277592 0.000634734763633441)
(-0.000504541627360092 -0.000837880882356806 0.000839410706873324)
(-0.000386260618081208 -0.000754983215823216 0.00099197870616056)
(-8.79925974092781e-06 -0.00153992868109932 0.000765137362533835)
(-2.32250819098399e-05 -0.00155757471792473 0.000736205303473538)
(-7.55369383512259e-05 -0.00155199254678507 0.000696189148178948)
(-0.000249409110876594 -0.00132856585655198 0.000693248633363835)
(-0.000676791787033776 -0.000639876124318703 0.000711782936579134)
(-9.93209653769415e-06 -0.001514744314461 0.000903836553563181)
(-2.43190233073082e-05 -0.00153077301596335 0.00086295585712228)
(-4.95458464803368e-05 -0.00152699226881195 0.0008074244800865)
(-0.000101130580107144 -0.0014877446432525 0.000735354531564964)
(-0.00037847298615055 -0.00112077575675524 0.000658472850497067)
(-0.00113079520424935 2.9678910927888e-05 0.000540558308331193)
(-1.04133494955517e-05 -0.00146048978264298 0.0010513944799)
(-2.89317954360732e-05 -0.00147967307767448 0.00100052571758083)
(-4.84929349206592e-05 -0.00147848840189551 0.000934362697134124)
(-7.41981830337861e-05 -0.0014481215402567 0.000847356483004597)
(-0.000134363294662963 -0.00134604481022527 0.000730936880329877)
(-0.000538474721675385 -0.000797552163575459 0.000552067849397735)
(-0.00192212935857533 -0.000821428662408955 0.000212513434660162)
(-1.06363040718159e-05 -0.00136319885204132 0.00121337188780737)
(-3.33470894950371e-05 -0.00139243173532131 0.0011532016084487)
(-5.59132522479634e-05 -0.00139701485890852 0.00107675374272053)
(-7.61145084424351e-05 -0.00137662057498354 0.000978001164327157)
(-0.000116072562554344 -0.00128998503846792 0.000844976675936291)
(-0.000130259801715124 -0.00127227778319812 0.00064811106383775)
(-0.00147855291250353 -0.00244700837899014 0.000230293211570261)
(-1.06473663302563e-05 -0.00121493648311469 0.00139002758354402)
(-3.59699245744965e-05 -0.00125857991033573 0.00132354929897509)
(-6.27119654953998e-05 -0.00127599419735848 0.00123841217353581)
(-8.60482367774428e-05 -0.00126769155718048 0.00113014589586253)
(-0.000108337229998086 -0.00121653626357784 0.000987397297425712)
(-1.39187139948499e-05 -0.00118353231879904 0.000779901146677983)
(0.000436275702765445 -0.0039826076018466 0.000350456928029038)
(-1.05530973973593e-05 -0.00101260495553227 0.00157592285908447)
(-3.71048381592395e-05 -0.00107233900594241 0.00150817508609922)
(-6.72462586981783e-05 -0.00110640426828314 0.00141778733185465)
(-9.55601384262492e-05 -0.00111527764435841 0.00130159880683251)
(-0.000115874986344783 -0.00108957352887895 0.00115119709269351)
(-0.000118720803755773 -0.0010163427112312 0.000951037658919964)
(0.000234933830880716 -0.000638170930563769 0.000663063487338736)
(0.000914838034081343 -0.00282805807700535 0.000285803229000481)
(-0.000591943515028579 -0.000735946109796641 0.00134562708173616)
(0.000117243158240859 -0.00248369043488779 0.000970318330433115)
(4.1986863878343e-05 -0.00203073013494811 -5.09184796281438e-05)
(-0.000147424996604148 -0.00117058968514445 0.000761036128436703)
(-0.000203716992953028 -0.00115183645170738 0.000702488655009471)
(-4.21890276634281e-05 -0.00144563066705763 0.000403288529255905)
(2.20700988464303e-06 -0.00151311925044318 0.000560984874678566)
(-8.95867884827338e-05 -0.00154707205291387 0.000618747292203439)
(-8.86983347767599e-06 -0.00144532058360162 0.000646834020189208)
(-2.41117298674056e-05 -0.00148035501659814 0.000638366858447862)
(-8.66508093280864e-05 -0.00150311326849533 0.000601384128758975)
(-0.000308095993569865 -0.00117437557331701 0.000739695271655106)
(-0.000350695076579015 -0.00122348130027673 0.000752773974071788)
(-0.000250161355781311 -0.00110192288652961 0.000756210917990283)
(-0.000717946154267143 -0.00017055347916592 0.00117842870773053)
(-0.000807037220302509 -0.000291342874877025 0.000905568715040298)
(-9.12757446536643e-06 -0.00144534299828429 0.000788856008206055)
(-2.2124795618181e-05 -0.00147006993369381 0.000760575186711567)
(-4.86699758369961e-05 -0.00147830898850593 0.000719791325600071)
(-0.000110821592590861 -0.00144730157067377 0.000666412406431411)
(-0.00042262332661213 -0.00104068019618385 0.000672009247707413)
(-0.00125291251750043 0.000254994270481546 0.000675691327356104)
(-9.57731185092132e-06 -0.00142116350315945 0.00093012801420932)
(-2.65112067579184e-05 -0.00144399378680055 0.000891598618194933)
(-4.54394439775126e-05 -0.00144915135023955 0.000839429101311596)
(-7.32123277032878e-05 -0.00142588327627457 0.000769087144744788)
(-0.000146039822078667 -0.00132711411859279 0.000680182246966031)
(-0.000572449335036227 -0.000759634286546424 0.000584300890483871)
(-0.00197062211913575 -0.000692215613592213 0.000404374424592602)
(-9.64410100915495e-06 -0.00135871603955567 0.00108018269990609)
(-3.0180714706004e-05 -0.00138854283908812 0.00103311549377414)
(-5.06658443853549e-05 -0.00139510557606924 0.000971712685852069)
(-6.94098733295456e-05 -0.00137845049253113 0.000890457246210491)
(-0.000110168766739984 -0.00129832746098839 0.000782724042236259)
(-0.000128062607494181 -0.00129709649662331 0.000636942774180831)
(-0.00144135803911335 -0.00246497160186863 0.000337977722269705)
(-9.47220166135869e-06 -0.00124952685911067 0.00124340174066612)
(-3.23843228508403e-05 -0.00129144408120812 0.00118889402573362)
(-5.67438257576861e-05 -0.00130723473169646 0.00111814398673046)
(-7.80994670388763e-05 -0.00129712646061299 0.00102653159445971)
(-9.9484175124228e-05 -0.00124438421576649 0.000905031832371016)
(-7.80894878184594e-06 -0.00120669737123796 0.00073361727261869)
(0.000476396025969235 -0.00404111580622283 0.000387436013394516)
(-9.19410931759553e-06 -0.00108926256869709 0.00141749428035777)
(-3.31116546469274e-05 -0.00114585665241447 0.001359320995223)
(-6.07192058610783e-05 -0.00117564712335465 0.001281682098129)
(-8.71083837185687e-05 -0.00117878295447794 0.00118122390900336)
(-0.000107213341449219 -0.00114546314221807 0.00105069132722077)
(-0.000114095788179412 -0.00106052706116561 0.000877174218230551)
(0.000221688378422193 -0.000665930055218666 0.000623140170187891)
(0.000924221161313995 -0.00282739234808321 0.000302640638352307)
(-8.93624362909153e-06 -0.000877757309866872 0.00159556919479101)
(-3.30151479207436e-05 -0.000949176842927569 0.00153928788758728)
(-6.27719397851289e-05 -0.000995024205191444 0.00145916193450249)
(-9.36516752251837e-05 -0.00101481560392986 0.00135247404969687)
(-0.000118540177322081 -0.0010027096688771 0.00121352513391641)
(-0.000124757479840503 -0.000956423346618528 0.00103709885960648)
(-8.07186693975933e-05 -0.000818905101987836 0.000799892940278826)
(5.20042867304445e-05 -0.000437294320245975 0.000442711451006678)
(0.000942061123437415 -0.00120161946348034 0.000156871977918484)
(-0.00112686305795587 -0.000726307070291548 0.00183515668545518)
(-0.000237336976072809 -0.00189784130165674 0.00112207119827068)
(0.000312507668957784 -0.00375251476298637 -0.000443790975786254)
(-4.19652964063734e-05 -0.00115061873737983 0.000226048190464171)
(-1.99791425927394e-05 -0.00109607525225224 4.39947444644369e-05)
(-3.75193168174698e-05 -0.001390758995945 0.000412781910855928)
(-7.53907985988217e-06 -0.00130853901307637 0.000479744339819797)
(-0.000165007002617166 -0.00156868545974985 0.000603944512125899)
(-8.85290209677469e-06 -0.00134401512077462 0.00067119908746575)
(-2.35664045175118e-05 -0.001378328711158 0.000654563155606986)
(-5.02858731596849e-05 -0.00140035128030977 0.000643219006937461)
(-0.000136276963194176 -0.00138139465214369 0.000615027502680601)
(-0.000490765994565959 -0.000932419318462048 0.000790539232616313)
(-0.000527492787610654 -0.000907552646950734 0.000818026010144266)
(-0.000995716791526538 0.000579230393240844 0.00148370957779207)
(-0.00147708817174713 0.000778384649467223 0.000910437736793743)
(-9.06126758594713e-06 -0.00135204812760734 0.000811933527895672)
(-2.45931322824913e-05 -0.00137884243758632 0.000783054866631742)
(-4.34348336104714e-05 -0.00139214645232814 0.000743556778402624)
(-7.52042287871326e-05 -0.0013786842924846 0.000689369654333092)
(-0.000165504343011244 -0.00128438750116832 0.000628939476087205)
(-0.000628833581775843 -0.00067395564705265 0.000657854937015688)
(-0.0020931970232532 -0.000426280415978674 0.000656873968076035)
(-8.86910048543723e-06 -0.00132291572266316 0.000953338088305472)
(-2.7633306238357e-05 -0.00135388511602485 0.000917312354946545)
(-4.68396679018077e-05 -0.00136399577471659 0.000867959284012178)
(-6.58789017199632e-05 -0.00135325668537745 0.000801121135382229)
(-0.000111866595520493 -0.00127909464486564 0.00071495919141508)
(-0.000139064336635923 -0.00128204863864117 0.000611178961382357)
(-0.00149320676714426 -0.0024252985391967 0.00046560056822052)
(-8.50447553778182e-06 -0.00124963537790117 0.00110452102217304)
(-2.93166056015053e-05 -0.00129074647307291 0.00106126660836496)
(-5.15312587219392e-05 -0.00130691613512042 0.00100390929242329)
(-7.10001804611961e-05 -0.00129824917179786 0.00092788603615609)
(-9.11571633704091e-05 -0.00124898176757373 0.000827101492080411)
(3.15430802187917e-06 -0.00121736943523176 0.000693176886144379)
(0.000514603907237149 -0.00406154060989414 0.000426774537530839)
(-8.03637634871634e-06 -0.00112816793650838 0.00126681351358142)
(-2.95647125973022e-05 -0.00118259356965363 0.00121843881409958)
(-5.47345693996478e-05 -0.00121030019277447 0.00115342878898997)
(-7.89553428083579e-05 -0.00121102607142146 0.00106806983932962)
(-9.76778542401047e-05 -0.00117495719207984 0.000956244864589584)
(-0.000104443426874645 -0.00108726303996917 0.000808426929302001)
(0.000224210837005338 -0.000692463760781804 0.00059203594908643)
(0.000929454846650401 -0.0028509171690638 0.00032845902729768)
(-7.5821264219056e-06 -0.000957094116786976 0.00143577789610213)
(-2.8984548279275e-05 -0.00102585516044848 0.00138664013743609)
(-5.60572462522923e-05 -0.00106800551881038 0.0013171823761038)
(-8.46668220240165e-05 -0.00108271019821255 0.00122441735764203)
(-0.000108575046682237 -0.00106369001838003 0.00110329792494394)
(-0.000116912288051716 -0.00100763456331026 0.000949340758834791)
(-8.13354129432442e-05 -0.000856883323422262 0.000741199347491052)
(2.34923137378343e-05 -0.000458618730065059 0.000418906256975098)
(0.000930260053848246 -0.00120118262773438 0.000165382083650687)
(-7.27578865549257e-06 -0.000738854342184967 0.00160346217918383)
(-2.82178828814524e-05 -0.000820609343327924 0.0015593384958534)
(-5.62476681038669e-05 -0.00087779241273041 0.00149045783306118)
(-8.8139715075114e-05 -0.000908661687874389 0.00139400830182175)
(-0.000117515241793758 -0.000908699459620912 0.00126554964736584)
(-0.000134302774998214 -0.000877816980940203 0.00110436005962608)
(-0.000123386789988815 -0.000799610096541215 0.000903171282149403)
(-7.85423632213915e-05 -0.000596191321575068 0.000634648059812361)
(-0.000122366393094869 -0.000279054397638781 0.000276909263998187)
(0.000682286927007748 -0.000535378117070185 6.41282272930165e-05)
(-0.00143394441688133 -0.000574055465645166 0.00232462203313814)
(-0.000716244010869178 -0.00190193103161392 0.00147820961825532)
(-0.000117125803379615 -0.00423248216603101 -0.000979047225837606)
(-0.000667803143107343 -0.00243417147793775 -0.000958336562699531)
(-4.07416742666322e-05 -0.000835510027373927 0.000361196752294541)
(-3.89018797504682e-05 -0.000907958124001167 0.000332700483838157)
(8.27878864268093e-05 -0.000708998076024955 6.81356683451752e-05)
(-1.08359329815833e-05 -0.000916003668328978 0.000342774156226101)
(5.69976528263217e-06 -0.00103851666507418 0.000316037197873907)
(-6.14430967981316e-05 -0.00109688877548597 0.000168948725867892)
(-8.20599784623576e-05 -0.0013825719461923 0.000334764023181139)
(-2.28226097383938e-05 -0.00126456444251496 0.000479867649291299)
(-8.08309417618324e-06 -0.00120685482730807 0.000542049220890916)
(-0.000187989636939088 -0.00146573088558182 0.000606400196108811)
(-8.80026452361104e-06 -0.00125388428120106 0.000696960403823288)
(-2.49212456049792e-05 -0.00128353447501386 0.000673107435075273)
(-4.48638956738936e-05 -0.00130470376705459 0.00064919104822241)
(-8.68021040863367e-05 -0.0013047630483793 0.000631797547134033)
(-0.000191743827707274 -0.0012463623633839 0.000650203563184925)
(-0.000750693205294287 -0.000768799082873153 0.000980658137818044)
(-0.000695505906497224 -0.000624543356784727 0.000945769579898661)
(-0.00175969335030615 0.00189610939701822 0.00184893934243706)
(-0.00234946837262411 -4.98341575596792e-05 0.0010957133873645)
(-8.32748582718998e-06 -0.00125854944360941 0.000832606182323396)
(-2.61323599555203e-05 -0.00128970342796026 0.000804767074711856)
(-4.46981070823608e-05 -0.00130350477887477 0.000765317636689632)
(-6.53377134664315e-05 -0.00129964885525725 0.00071074902418956)
(-0.000119273187806428 -0.00123346751751453 0.000649124754117732)
(-0.000149486402146694 -0.00125466275865259 0.000582189927462364)
(-0.00161955815973438 -0.00225382886714245 0.000661149117745917)
(-7.75472568483913e-06 -0.00121923974091234 0.000973472833105554)
(-2.69109143407034e-05 -0.00125943490004525 0.000939842147003704)
(-4.75803641921499e-05 -0.00127687644269197 0.000893797327174076)
(-6.61808210450678e-05 -0.00127164907334073 0.000830077504316197)
(-8.76884288564061e-05 -0.00122777282680293 0.000746700376463924)
(7.45701912243019e-06 -0.00120838973265906 0.000643111979007247)
(0.000476781635649406 -0.00408343855969989 0.000460246212119064)
(-7.09475940681496e-06 -0.00113369360587535 0.00112430507558225)
(-2.65924461665712e-05 -0.00118621251896939 0.00108525903951019)
(-4.96351965881668e-05 -0.00121307070662552 0.00103206637414122)
(-7.18830781435524e-05 -0.00121370827180059 0.000960628913472388)
(-8.90827230840304e-05 -0.00117847488090588 0.000866454423398394)
(-9.37202756025678e-05 -0.00109457075887766 0.000744944977963716)
(0.000221730864314014 -0.000705907396448364 0.000572761859896036)
(0.000854968719527175 -0.00276384254681613 0.000350740512445996)
(-6.44523042808691e-06 -0.00100032317722873 0.00128340641272216)
(-2.54866281684828e-05 -0.00106664719191896 0.00124178864728427)
(-5.00922742314419e-05 -0.00110641316445864 0.00118304301350991)
(-7.64329774808745e-05 -0.00111839441823175 0.00110378213244666)
(-9.87736436101608e-05 -0.00109608893892695 0.000999542603338137)
(-0.000106901708574653 -0.001035937305851 0.000866927712180015)
(-7.39506234884024e-05 -0.000880344192486779 0.000687986540211)
(1.56261365041356e-05 -0.000469288184404512 0.000406495379485538)
(0.0009310141521966 -0.001207441193557 0.000178471046619999)
(-5.93578481596639e-06 -0.000820266004348692 0.00144473186371436)
(-2.41810084373116e-05 -0.000899865076123406 0.00140528302837072)
(-4.94212769921154e-05 -0.000953933377841575 0.00134485668203502)
(-7.87836511236977e-05 -0.000980405367813478 0.00126041764989437)
(-0.000106653155580855 -0.000974272587265026 0.00114785045756052)
(-0.000124177185589772 -0.000934974539620356 0.00100652132771121)
(-0.000118482565430105 -0.000845610122788638 0.000829636499341816)
(-8.67635153737283e-05 -0.000628695595381993 0.000590939774143348)
(-0.000160298021267217 -0.000295032254792152 0.00026448674754146)
(0.000656673931406376 -0.000543334467658085 7.0843364068805e-05)
(-5.67852801894493e-06 -0.000598077193645182 0.00159979917875451)
(-2.32047003848595e-05 -0.000688323031429249 0.00156820985979952)
(-4.8501645761474e-05 -0.000755865720491995 0.00151142349748016)
(-7.97630025561132e-05 -0.000797762334868137 0.001426253141775)
(-0.00011194327167437 -0.00080989725590973 0.0013086800280067)
(-0.000137388789650942 -0.000792742492337278 0.00115989597750297)
(-0.000146725145692419 -0.00073898167204757 0.000978801570000702)
(-0.000135442511570932 -0.000625170135286613 0.000756817172923756)
(-0.000143604278520233 -0.000418146044706561 0.000476078845108164)
(-0.000222606332646314 -0.000187166749494967 0.000136860647541456)
(0.000572752965409547 -0.000324824304479168 -6.8114603190869e-06)
(-0.00190682232094893 -0.000901606001023085 0.00301595659894224)
(-0.00116809901542261 -0.00209980704259541 0.00168963734578532)
(0.00035133066204499 -0.00344647474797021 -0.00083085314443487)
(0.000108613086704322 -0.00215760593464565 -0.000182104609253214)
(0.000422722846698644 -0.00146216017048225 -0.00203858423392018)
(-5.13249778300522e-05 -0.000950995563907203 0.00024174918789108)
(-7.80128323653567e-05 -0.00104396400726844 0.000275991156398741)
(0.000270813814332984 -0.00108020437048103 -0.000637563877973587)
(4.58591245559857e-05 -0.000460479017881749 0.000256339278248787)
(1.25309174985945e-05 -0.000750025231464308 0.000283901768810622)
(-5.38886090405769e-06 -0.000590498558266394 0.000335571532877848)
(-2.28987163233064e-05 -0.00106698961656813 0.000302611147319989)
(0.000132059916717374 -0.000876391816040159 4.50826581080288e-05)
(-7.08077812348972e-06 -0.00100406119815996 0.000431631506805554)
(-2.25943975225244e-06 -0.00101280206026655 0.000317851548600924)
(-7.02929242119794e-05 -0.00133026709552555 0.000323496668794263)
(-4.33743301863575e-05 -0.00122197403940057 0.000459653514147126)
(-3.68195146472115e-05 -0.00107162463818604 0.000109285675369439)
(-2.57262068838128e-05 -0.00115589346635227 0.00055131343963841)
(-8.73070920163028e-06 -0.00112663952958317 0.000584673028786735)
(-0.000377808236501006 -0.0015593215157257 0.000700243339223189)
(-8.14335949537317e-06 -0.00116814425278253 0.000718916063390891)
(-2.5761248367288e-05 -0.00119795346045543 0.000695594336190832)
(-4.49623272485001e-05 -0.00121484048059136 0.000662283943373633)
(-7.02409675034037e-05 -0.00121875395552516 0.000623415958810324)
(-0.000111278813851861 -0.00119306704209175 0.000605686550197526)
(-0.000149520475431835 -0.00127155629220999 0.000760012143783388)
(-0.00106203020297531 -9.93033967796346e-05 0.00142318793334745)
(-0.0015968142548381 -0.00194297938733416 0.00125220134533824)
(-0.00281737920316279 4.45040634283102e-05 0.00210333505074313)