/*--------------------------------*- C++ -*----------------------------------*\
  =========                 |
  \\      /  F ield         | OpenFOAM: The Open Source CFD Toolbox
   \\    /   O peration     | Website:  https://openfoam.org
    \\  /    A nd           | Version:  12
     \\/     M anipulation  |
\*---------------------------------------------------------------------------*/
/*   Windows 32 and 64 bit porting by blueCAPE: http://www.bluecape.com.pt   *\
|  Based on Windows porting (2.0.x v4) by Symscape: http://www.symscape.com   |
\*---------------------------------------------------------------------------*/
FoamFile
{
    format      ascii;
    class       surfaceScalarField;
    location    "0";
    object      phi;
}
// * * * * * * * * * * * * * * * * * * * * * * * * * * * * * * * * * * * * * //

dimensions      [0 3 -1 0 0 0 0];

internalField   nonuniform List<scalar> 
28893
(
1.48158697330711e-05
-2.59780565454983e-07
-2.80135563630986e-07
1.54049976337778e-05
-2.53888577026642e-07
-3.35238607705307e-07
1.49808108133461e-05
-5.15115868042264e-07
-2.95433019819886e-07
1.58693105230598e-05
-2.77430823403938e-07
-5.76890632270612e-07
1.60455077683179e-05
-2.39137254694373e-07
-4.01372184023202e-07
1.558361234055e-05
-5.0486303915636e-07
-3.51826352042928e-07
1.64952463337622e-05
-2.70283283379832e-07
-6.90890386327879e-07
1.53883931447934e-05
-7.87131123250346e-07
-3.03991733329922e-07
1.65028484108285e-05
-5.63452171014443e-07
-6.12198566883084e-07
1.74883275493714e-05
-3.04651821435979e-07
-8.95032770949371e-07
1.67378922942741e-05
-2.11622519770524e-07
-4.80761369214231e-07
1.62415514697284e-05
-4.77696376801378e-07
-4.19379337545186e-07
1.71750516077517e-05
-2.53451902495424e-07
-8.27724840324328e-07
1.60227861995887e-05
-7.76530836902003e-07
-3.6272452484657e-07
1.71620799456748e-05
-5.51017444326284e-07
-7.30322996389608e-07
1.81658006996212e-05
-2.95978315013485e-07
-1.07238445482123e-06
1.57909681676732e-05
-1.08826218863029e-06
-3.05713117765415e-07
1.72044081508791e-05
-8.72573555918851e-07
-6.35266712113294e-07
1.85712650276006e-05
-6.37535746597447e-07
-9.4738956612828e-07
1.90854791477309e-05
-3.39282578460725e-07
-1.21726371954788e-06
1.74799186338037e-05
-1.65990521469371e-07
-5.76035244600489e-07
1.69563557648997e-05
-4.26080372928863e-07
-5.00345830321948e-07
1.79090142288083e-05
-2.22734902069747e-07
-9.91988415586842e-07
1.67206864610477e-05
-7.42218233679924e-07
-4.33377713389987e-07
1.78809586332289e-05
-5.19768437802157e-07
-8.71940792818009e-07
1.88998466580235e-05
-2.76560688551778e-07
-1.28520935926785e-06
1.64654127302802e-05
-1.08423544705764e-06
-3.6673912088705e-07
1.7909329275228e-05
-8.5939706253638e-07
-7.59265255742349e-07
1.93004400110952e-05
-6.22827875770452e-07
-1.13264767631358e-06
1.98024448082259e-05
-3.31266742941153e-07
-1.45808257527035e-06
1.5992646296982e-05
-1.41810287756249e-06
-3.0472344271352e-07
1.75910497369814e-05
-1.21433777955408e-06
-6.36731190621558e-07
1.96506217399475e-05
-1.00610699817576e-06
-9.87641463175985e-07
2.03579526870572e-05
-7.15606851695161e-07
-1.28394000078822e-06
2.01470164397654e-05
-3.71684358044891e-07
-1.51610440713626e-06
1.82651795507266e-05
-9.50195246332983e-08
-6.90240919574604e-07
1.77272859032254e-05
-3.39525109827734e-07
-5.97395029921819e-07
1.869443845174e-05
-1.72374084449415e-07
-1.18908479384022e-06
1.74866351378676e-05
-6.73516696208094e-07
-5.1851174825143e-07
1.86611403668939e-05
-4.61453358920186e-07
-1.04180847987189e-06
1.96901551030394e-05
-2.41815067697166e-07
-1.54048108537633e-06
1.7215812067825e-05
-1.05191089749187e-06
-4.40705888120917e-07
1.86843711889105e-05
-8.19629668488326e-07
-9.08557663598718e-07
2.0093801259598e-05
-5.86916227369931e-07
-1.35494577845113e-06
2.05760199920452e-05
-3.12101035876045e-07
-1.74668270881346e-06
1.67056385829434e-05
-1.42969887391403e-06
-3.67527982274911e-07
1.83385149560884e-05
-1.20860885681773e-06
-7.6499168760176e-07
2.04427644096556e-05
-9.91389237120949e-07
-1.18284577597806e-06
2.11332250630895e-05
-7.02274033831931e-07
-1.53691200939273e-06
2.08697389429099e-05
-3.66540332637921e-07
-1.81426390108247e-06
1.59599009055964e-05
-1.77142197551127e-06
-3.01557561749697e-07
1.76540464317438e-05
-1.58734581856793e-06
-6.28941464710609e-07
2.00919044280962e-05
-1.40858022357147e-06
-9.92009086708108e-07
2.16065058457015e-05
-1.13378969797088e-06
-1.34126399587089e-06
2.13808827007896e-05
-7.77332672026133e-07
-1.59688237932418e-06
2.05526444588376e-05
-3.91744748431473e-07
-1.77139782379724e-06
1.908178833456e-05
1.03104297373867e-08
-8.26918861919104e-07
1.85492459972369e-05
-2.03220810592675e-07
-7.13758386565062e-07
1.95241603131824e-05
-9.47141871466221e-08
-1.42524808798305e-06
1.83238350457695e-05
-5.55505660527595e-07
-6.2121885597094e-07
1.95015425311215e-05
-3.64576823592152e-07
-1.24559390782698e-06
2.05332655043149e-05
-1.85536114223436e-07
-1.8466584326054e-06
1.8051073553056e-05
-9.78143926526147e-07
-5.30633568439095e-07
1.95343991510549e-05
-7.41421565581934e-07
-1.08857085599561e-06
2.09525858657883e-05
-5.20640752589835e-07
-1.62176674301268e-06
2.1404994986915e-05
-2.77069706707156e-07
-2.09238561648487e-06
1.75095709469337e-05
-1.41157170491524e-06
-4.44270723524548e-07
1.91698747406544e-05
-1.17111469261517e-06
-9.20579836256773e-07
2.13119292299553e-05
-9.46602959171087e-07
-1.41803500551389e-06
2.19732905247615e-05
-6.66748166115856e-07
-1.84036338950247e-06
2.16445777362031e-05
-3.50753742974755e-07
-2.17076692910547e-06
1.67041300036556e-05
-1.8083012236226e-06
-3.65625936748485e-07
1.84371430076887e-05
-1.59956968391898e-06
-7.59662786609315e-07
2.09323331704376e-05
-1.40362707653621e-06
-1.19318162697189e-06
2.24515398298443e-05
-1.12198819486355e-06
-1.60816474748679e-06
2.2158015365664e-05
-7.69236478121782e-07
-1.91134776500409e-06
2.12447021286655e-05
-3.89708401828091e-07
-2.11661231114238e-06
1.5770364901384e-05
-2.14185758504655e-06
-2.96983008986998e-07
1.75463630738086e-05
-1.98393020297132e-06
-6.21211034836869e-07
2.0030616615958e-05
-1.83852560066634e-06
-9.79000919689051e-07
2.20213197576434e-05
-1.58369138765575e-06
-1.3506970576547e-06
2.25779655477366e-05
-1.22192907524215e-06
-1.67041492582725e-06
2.16796796144525e-05
-8.11746835300713e-07
-1.86568154753175e-06
2.04906168231444e-05
-4.00399759402194e-07
-1.97175729500462e-06
1.99050079303959e-05
1.68220638906321e-07
-9.9144003880375e-07
1.94176174228696e-05
-4.43992343497405e-09
-8.53620800504659e-07
2.03843691565617e-05
1.99300122201594e-08
-1.70705735724622e-06
1.92335116371623e-05
-3.67568280113198e-07
-7.45328765411755e-07
2.03960639825479e-05
-2.12925731700969e-07
-1.49006786420922e-06
2.14209092243575e-05
-9.97132186625791e-08
-2.21317802576285e-06
1.8980262553798e-05
-8.44390715251946e-07
-6.4030340061524e-07
2.04628363452031e-05
-6.08270057839395e-07
-1.30596228553115e-06
2.18748067589909e-05
-4.11307777956428e-07
-1.94204254978532e-06
2.2284485994706e-05
-2.19867667443476e-07
-2.50628106268095e-06
1.84191994457752e-05
-1.34928395688973e-06
-5.38487744756215e-07
2.00949161532473e-05
-1.08723307283393e-06
-1.10986277538224e-06
2.22629636263544e-05
-8.58479697295301e-07
-1.70176564507535e-06
2.2878332132401e-05
-5.99513843709989e-07
-2.20436353373508e-06
2.24687356644259e-05
-3.19817749735879e-07
-2.59672500055901e-06
1.75548718485975e-05
-1.81773907134764e-06
-4.44573702446841e-07
1.93198395035494e-05
-1.57855269289397e-06
-9.19528325271513e-07
2.18653222422566e-05
-1.36295084693669e-06
-1.43722010785672e-06
2.33750241740042e-05
-1.0787062859537e-06
-1.92956039672042e-06
2.29947299900751e-05
-7.39934836639118e-07
-2.28789613504875e-06
2.1980108205265e-05
-3.78023708572491e-07
-2.52814840744964e-06
1.65370013359882e-05
-2.21310968648506e-06
-3.61827313245416e-07
1.83598887349301e-05
-2.02493457960882e-06
-7.53785923193363e-07
2.09051636929976e-05
-1.85504114295286e-06
-1.18279479425656e-06
2.2914975117269e-05
-1.58395998511756e-06
-1.62486408481954e-06
2.34203578879883e-05
-1.21735064699712e-06
-2.00244197638252e-06
2.24188068380043e-05
-8.09585485007663e-07
-2.23059710152852e-06
2.11267131670889e-05
-4.00869948524918e-07
-2.35183781693126e-06
1.5518307193863e-05
-2.52272039343655e-06
-2.92405994847976e-07
1.73672649336841e-05
-2.39620461346821e-06
-6.15358691178481e-07
1.98290814853942e-05
-2.2892322222669e-06
-9.68113793164106e-07
2.18400361712329e-05
-2.05559584573066e-06
-1.33472495483687e-06
2.28864634846864e-05
-1.6932473803713e-06
-1.68516451759988e-06
2.2749900814196e-05
-1.26560757923987e-06
-1.95299911745225e-06
2.15435308547842e-05
-8.26334156121551e-07
-2.07687057068596e-06
2.0191144782214e-05
-4.04314766703201e-07
-2.11004637181495e-06
2.06995279486932e-05
3.9317552399832e-07
-1.18769547760831e-06
2.0303895977623e-05
3.01619199278117e-07
-1.01967698385391e-06
2.12495112553644e-05
1.91646700484788e-07
-2.04822860986326e-06
2.02062714869398e-05
-8.18518204767528e-08
-8.95347761301315e-07
2.13405437454043e-05
5.32455383110851e-09
-1.78349481054295e-06
2.23331319989967e-05
3.04431458760189e-08
-2.64972281484598e-06
2.00118444584439e-05
-6.24570044027107e-07
-7.74579770066734e-07
2.14710212674682e-05
-3.97400399772798e-07
-1.56903863820154e-06
2.28525994203589e-05
-2.41165113997225e-07
-2.32640815332892e-06
2.32054792225884e-05
-1.32654813163459e-07
-3.0015158010749e-06
1.94517655176387e-05
-1.22224364731362e-06
-6.54712562132692e-07
2.11236128897019e-05
-9.36390166961931e-07
-1.34087947775582e-06
2.32988211996549e-05
-7.08601006883067e-07
-2.04452609702142e-06
2.3844774771329e-05
-4.8748554710378e-07
-2.64086672903813e-06
2.33352568540264e-05
-2.67685884973469e-07
-3.1051156486488e-06
1.85334747579725e-05
-1.7854259598462e-06
-5.42460209328494e-07
2.03182552959714e-05
-1.50824402005801e-06
-1.11589179927765e-06
2.29012194388356e-05
-1.27020704999113e-06
-1.7340318051982e-06
2.4380802227367e-05
-9.90117813753223e-07
-2.31693899831892e-06
2.38895242517466e-05
-6.80349295211373e-07
-2.73862557563338e-06
2.27541710897489e-05
-3.52623105052491e-07
-3.01816398239886e-06
1.74245448090672e-05
-2.26292005234369e-06
-4.42361846992534e-07
1.9289348682681e-05
-2.03539389674942e-06
-9.1719171478066e-07
2.18890401868656e-05
-1.83448226478988e-06
-1.43187244173169e-06
2.39030888169344e-05
-1.54702724760838e-06
-1.95701172726887e-06
2.43350412687727e-05
-1.18270861182926e-06
-2.40146905386212e-06
2.32075065065911e-05
-7.88302351673441e-07
-2.66631637804891e-06
2.17947699112764e-05
-3.92827484126002e-07
-2.80337678058364e-06
1.62988723984377e-05
-2.6360848503605e-06
-3.57589525088293e-07
1.82059405172135e-05
-2.47586365627907e-06
-7.49573098387368e-07
2.07333127601229e-05
-2.33884984517762e-06
-1.17420767313389e-06
2.27646151417353e-05
-2.07991271353707e-06
-1.61141986054077e-06
2.37719249672082e-05
-1.70218381029448e-06
-2.02549104027854e-06
2.35453555053474e-05
-1.26906669435131e-06
-2.33841444839589e-06
2.22202773505315e-05
-8.29291605905694e-07
-2.47892114075681e-06
2.07583487269069e-05
-4.07078279594745e-07
-2.51196258809985e-06
1.52592483875107e-05
-2.8813552686308e-07
1.71537294810925e-05
-2.81804292896543e-06
-6.09978291182383e-07
1.96358081773151e-05
-2.75555134861683e-06
-9.62489711714105e-07
2.15699493085316e-05
-2.54527982468323e-06
-1.3221536817815e-06
2.26090209331842e-05
-2.18213874712561e-06
-1.66675646217258e-06
2.29511922018661e-05
-1.74189917996464e-06
-1.9715333136256e-06
2.25155017864823e-05
-1.28302618743895e-06
-2.17419495872291e-06
2.1211416332773e-05
-8.33662244747295e-07
-2.22231540618261e-06
1.97984652039639e-05
-4.07344287492164e-07
-2.18248468744797e-06
2.14099606033455e-05
7.11122368510534e-07
-1.42155503556041e-06
2.11808239121183e-05
7.34670889734494e-07
-1.21842330558756e-06
2.2080546623234e-05
4.35358552418215e-07
-2.45408932652339e-06
2.12400171183896e-05
3.45195645300977e-07
-1.07732206924055e-06
2.23017799353264e-05
3.44961940921729e-07
-2.13422828377171e-06
2.32476427320948e-05
2.14983851896974e-07
-3.17772286317775e-06
2.11517508073104e-05
-2.81884355092086e-07
-9.39873653993704e-07
2.25479438611268e-05
-7.83322432235875e-08
-1.88861335850487e-06
2.38813323974491e-05
6.03657290130977e-09
-2.78782086008229e-06
2.41368970604189e-05
1.3870364146562e-08
-3.59501046895995e-06
2.06271642107869e-05
-1.00112560620512e-06
-7.98842738030551e-07
2.22652063116826e-05
-6.89618906152116e-07
-1.62395432406819e-06
2.44195887395075e-05
-4.71634390358921e-07
-2.45933651708726e-06
2.48620878075159e-05
-3.12605903724717e-07
-3.16376960312492e-06
2.42312894246445e-05
-1.86472142387088e-07
-3.71107558711573e-06
1.9666627381738e-05
-1.69074429629839e-06
-6.64651396940179e-07
2.14512562128028e-05
-1.36584753874152e-06
-1.35825546644032e-06
2.40502686988896e-05
-1.10244408003425e-06
-2.09608500395841e-06
2.54701522777418e-05
-8.37118159981818e-07
-2.78424290702709e-06
2.48368498373835e-05
-5.7810152134644e-07
-3.27777603640045e-06
2.35577971862341e-05
-3.0804870658129e-07
-3.60069225410319e-06
1.84608704535348e-05
-2.27862245085358e-06
-5.43128551020807e-07
2.03578675548889e-05
-1.99944414414856e-06
-1.11977831464242e-06
2.29994825253142e-05
-1.75901198485795e-06
-1.73752834748606e-06
2.49951386119931e-05
-1.45592289740417e-06
-2.36027552005178e-06
2.53238272589812e-05
-1.10483296986842e-06
-2.88124045404848e-06
2.40421652975585e-05
-7.3976003356939e-07
-3.18614668410944e-06
2.24882197439888e-05
-3.72736161397262e-07
-3.33887680653387e-06
1.72122805385e-05
-2.7372577680592e-06
-4.39069879052705e-07
1.91761118943185e-05
-2.53174905288195e-06
-9.16177345943484e-07
2.1764204735489e-05
-2.35463551806727e-06
-1.42792963702231e-06
2.38004918510929e-05
-2.06585756235971e-06
-1.94891766937139e-06
2.47445888377975e-05
-1.67566704633254e-06
-2.43671583382461e-06
2.44012596491071e-05
-1.24549168653925e-06
-2.80018286616354e-06
2.29339452811081e-05
-8.15510184394875e-07
-2.95730079999108e-06
2.13451382141017e-05
-4.02516609748156e-07
-2.98764875146127e-06
1.60452029049245e-05
-3.06878957462608e-06
-3.53249354482865e-07
1.80102447740759e-05
-2.94464065156496e-06
-7.45327331272101e-07
2.05675888844331e-05
-2.84889693597043e-06
-1.1713059474704e-06
2.25228242041627e-05
-2.60539521174076e-06
-1.60159913871917e-06
2.35207267455599e-05
-2.21589824837311e-06
-2.00940988355987e-06
2.37825349578413e-05
-1.75990587036532e-06
-2.36599324181256e-06
2.32402003554623e-05
-1.29368953279866e-06
-2.59871412917557e-06
2.18141483886769e-05
-8.41344139508677e-07
-2.64738654059409e-06
2.02920011855011e-05
-4.12440032899412e-07
-2.59305764675975e-06
1.69213855927418e-05
-6.03465080590063e-07
1.94427778051296e-05
-3.23285259872194e-06
-9.57441486660697e-07
2.13764943474743e-05
-3.05108667469518e-06
-1.31719646612402e-06
2.23062328848599e-05
-2.68749640182355e-06
-1.65212238260654e-06
2.26160876833863e-05
-2.23292026015375e-06
-1.95007520658824e-06
2.2649731535466e-05
-1.75947063040977e-06
-2.1944421253533e-06
2.21292768608523e-05
-1.29209856365709e-06
-2.32579757807775e-06
2.08022068946348e-05
-8.39568852035131e-07
-2.29827407393699e-06
1.93827388333628e-05
-4.1023798678447e-07
-2.18865113322709e-06
2.19560968231538e-05
1.15440016967181e-06
-1.7005363392131e-06
2.1996483544699e-05
1.35112408113756e-06
-1.4556613439062e-06
2.28183939710555e-05
7.78321458385538e-07
-2.93772380639152e-06
2.23051027572421e-05
9.66145558592751e-07
-1.29656040654263e-06
2.32506768328636e-05
8.2167694660253e-07
-2.55363855779837e-06
2.41166873377727e-05
4.8133945936719e-07
-3.80447312839981e-06
2.24061852377777e-05
2.36187315696064e-07
-1.1454261532148e-06
2.3692715088488e-05
3.96490693697361e-07
-2.27362202315434e-06
2.49217731589779e-05
3.80266126832604e-07
-3.33995108012253e-06
2.50660743305802e-05
1.89082982527671e-07
-4.29598263654755e-06
2.19678080402567e-05
-6.44012748293077e-07
-9.7851525971033e-07
2.35258749630849e-05
-3.05954211083788e-07
-1.97292019532788e-06
2.56141389448218e-05
-1.13907217711594e-07
-2.96321956485715e-06
2.59246747606892e-05
-4.88278922178385e-08
-3.78770918294681e-06
2.51307595917511e-05
-6.22868685671135e-08
-4.43219322554803e-06
2.09877621791857e-05
-1.50388982131469e-06
-8.1837014945043e-07
2.27407131989759e-05
-1.11896222875817e-06
-1.65895594553672e-06
2.5321204247666e-05
-8.27320058235138e-07
-2.53920372163579e-06
2.66400360333681e-05
-5.93507756664164e-07
-3.34831796332152e-06
2.58248852496884e-05
-4.16385648479926e-07
-3.92189103058984e-06
2.43754221411615e-05
-2.37047649626016e-07
-4.29165224633856e-06
1.96822483086592e-05
-2.24183538899507e-06
-6.70286238373991e-07
2.15943033768398e-05
-1.89431285912722e-06
-1.37262138283288e-06
2.42565278223838e-05
-1.60339920668499e-06
-2.11434492576887e-06
2.61998925314234e-05
-1.28692777999722e-06
-2.85102841799128e-06
2.63854146619992e-05
-9.6565861761784e-07
-3.45827246116071e-06
2.49148802944022e-05
-6.52974882146129e-07
-3.80556420574237e-06
2.31959779355428e-05
-3.35895087574759e-07
-3.97255457691902e-06
1.82921408638257e-05
-2.81669620472445e-06
-5.41786047833365e-07
2.03078968659401e-05
-2.5498840772578e-06
-1.12447291654654e-06
2.29464532802955e-05
-2.31904368184014e-06
-1.74199445047319e-06
2.49640895165908e-05
-1.99500374812863e-06
-2.36204408931332e-06
2.58114691442187e-05
-1.59758323669893e-06
-2.93440426141219e-06
2.53167611346162e-05
-1.18312544047153e-06
-3.35337557413005e-06
2.36787421085678e-05
-7.779672589027e-07
-3.52571167647177e-06
2.19432614714595e-05
-3.87648063713058e-07
-3.54935113400056e-06
1.69726574889686e-05
-3.22967928009313e-06
-4.35032604760656e-07
1.90115725016836e-05
-3.05779727945653e-06
-9.14348874017254e-07
2.16429254745824e-05
-2.91605890505391e-06
-1.43008978011916e-06
2.3604467173935e-05
-2.63067025086172e-06
-1.94475900285061e-06
2.45353341212374e-05
-2.21315798994708e-06
-2.426032742724e-06
2.46873581050668e-05
-1.74608592597496e-06
-2.84094327388701e-06
2.40107476332316e-05
-1.28080392053557e-06
-3.10543541135774e-06
2.24402502511283e-05
-8.34714790101496e-07
-3.15120367916792e-06
2.07928470254914e-05
-4.11401672241893e-07
-3.07709200473777e-06
1.57863119884569e-05
-3.50236049504104e-06
-3.48095152031636e-07
1.77862385163744e-05
-3.42364887331265e-06
-7.39093514461451e-07
2.03960547507598e-05
-3.37902505373416e-06
-1.16847557846494e-06
2.23582692329289e-05
-3.15795890545224e-06
-1.60051620443196e-06
2.32439271405589e-05
-2.75740390473555e-06
-1.9977866642245e-06
2.34690201259924e-05
-2.275700751909e-06
-2.34654606392092e-06
2.34041479233794e-05
-1.78574690350048e-06
-2.62835089630679e-06
2.27730505371438e-05
-1.30950465065952e-06
-2.77432635839603e-06
2.13265894034613e-05
-8.51896783717936e-07
-2.7323115053126e-06
1.98025162550983e-05
-4.17616974839951e-07
-2.59521720564829e-06
1.92272601943483e-05
-9.49227875857593e-07
2.12059420504694e-05
-3.56987625612966e-06
-1.31220422948222e-06
2.2125404693469e-05
-3.20987554948191e-06
-1.64681936970253e-06
2.23011129374292e-05
-2.7393761747151e-06
-1.93242706264321e-06
2.2288302876205e-05
-2.2483598860103e-06
-2.16954300782609e-06
2.22300979452646e-05
-1.76813715263856e-06
-2.34625949091001e-06
2.16898052451389e-05
-1.29957874570662e-06
-2.40443971568276e-06
2.03689347059618e-05
-8.44964039513857e-07
-2.30454685226045e-06
1.89750403948906e-05
-4.12860156585867e-07
-2.1307232749532e-06
2.22233729649741e-05
1.76312307715856e-06
-2.0303990081744e-06
2.26737988359567e-05
2.21584049968437e-06
-1.73875550305008e-06
2.3376919178766e-05
1.25408710696277e-06
-3.51314858632813e-06
2.33615395302522e-05
1.85789263398547e-06
-1.56320542018927e-06
2.41304642025804e-05
1.49756453439621e-06
-3.05469179056926e-06
2.48752544088335e-05
8.53242461882886e-07
-4.54953312244945e-06
2.37669749334036e-05
1.00021722123385e-06
-1.39486155506193e-06
2.4870642303385e-05
1.0864670040213e-06
-2.73927779150525e-06
2.59408312093307e-05
9.09369289795525e-07
-4.00072630346763e-06
2.59321348273613e-05
4.61135760309022e-07
-5.13166900646671e-06
2.34981395458694e-05
-9.06215595690295e-08
-1.20352265963363e-06
2.49164512904646e-05
2.70088349590786e-07
-2.40960020272643e-06
2.68782261756412e-05
4.11780542834305e-07
-3.56922364137762e-06
2.69862780940263e-05
3.2708145268312e-07
-4.5395526212651e-06
2.60052542267797e-05
1.1403427339585e-07
-5.28451111612433e-06
2.25387100395041e-05
-1.18136729732036e-06
-1.01359303553242e-06
2.42113908575819e-05
-7.2150706444174e-07
-2.03363980773613e-06
2.67166654064397e-05
-3.984867738976e-07
-3.08380151851829e-06
2.78815439049184e-05
-2.24231212155514e-07
-4.02932380760069e-06
2.68368024132826e-05
-1.72288503142867e-07
-4.68962428523675e-06
2.51819936927609e-05
-1.29917988692461e-07
-5.10884617956078e-06
2.11363816813209e-05
-2.12568845481283e-06
-8.32334308232751e-07
2.30347265363482e-05
-1.687143893326e-06
-1.69061127485464e-06
2.56835146691504e-05
-1.33197973180752e-06
-2.58128257750788e-06
2.75235376921249e-05
-1.00672566204472e-06
-3.44963028527348e-06
2.75136012997973e-05
-7.40575142671797e-07
-4.15231449653105e-06
2.58115588259797e-05
-5.13253951293852e-07
-4.5423626611961e-06
2.39006168702925e-05
-2.76102838255979e-07
-4.7201876418861e-06
1.95832053498546e-05
-2.86034184078121e-06
-6.72557564712579e-07
2.16403777922992e-05
-2.51000746964979e-06
-1.38707196080473e-06
2.43106480402e-05
-2.20699578216605e-06
-2.13321897195895e-06
2.62740858132226e-05
-1.84144645628241e-06
-2.86982159775869e-06
2.697816176139e-05
-1.4456283674445e-06
-3.53775014624468e-06
2.62873886866317e-05
-1.06601029978152e-06
-4.01586373309925e-06
2.44444236104735e-05
-7.07299092657956e-07
-4.19984101001936e-06
2.25400143729253e-05
-3.58560871110593e-07
-4.21074578059194e-06
1.8079488081814e-05
-3.38482454241628e-06
-5.38701812209442e-07
2.01940405341866e-05
-3.14697457761572e-06
-1.12716311130692e-06
2.28939905809254e-05
-2.94161567574907e-06
-1.75296530757273e-06
2.48387288925656e-05
-2.6030340919608e-06
-2.36822498518872e-06
2.56662045356776e-05
-2.15644478231169e-06
-2.93405168632949e-06
2.56692543091663e-05
-1.68608977989843e-06
-3.413334770001e-06
2.48235033601237e-05
-1.23426694879242e-06
-3.70983069030466e-06
2.30819404264849e-05
-8.07877086626194e-07
-3.74717207481157e-06
2.12913710419425e-05
-4.0177986288305e-07
-3.64609440044751e-06
1.67140695108043e-05
-3.72798107678289e-06
-4.29455350453958e-07
1.88057065143099e-05
-3.60304859172339e-06
-9.09248729739817e-07
2.15076961535829e-05
-3.51054418619739e-06
-1.4315044085506e-06
2.34861644650626e-05
-3.23802556516528e-06
-1.95062876058662e-06
2.43009988774804e-05
-2.79425309367472e-06
-2.420734559108e-06
2.44093405618311e-05
-2.28576225013982e-06
-2.82667545358921e-06
2.42154426110982e-05
-1.78439326559259e-06
-3.14864723068652e-06
2.34472918841735e-05
-1.30687941472678e-06
-3.30751117625365e-06
2.18609531191952e-05
-8.52285010693156e-07
-3.24468325323736e-06
2.0218055160918e-05
-4.19987340693703e-07
-3.07264265748488e-06
1.5507596890433e-05
-3.92724403815181e-06
-3.41169468530106e-07
1.75335483734208e-05
-3.90400406441214e-06
-7.29392716047793e-07
2.01917317663369e-05
-3.92149776071519e-06
-1.16109177418647e-06
2.22114772108661e-05
-3.73314935106589e-06
-1.59881958237855e-06
2.30914538930262e-05
-3.32679290343468e-06
-1.9971753054257e-06
2.31769280218105e-05
-2.81744420387073e-06
-2.33185717047111e-06
2.30603453031734e-05
-2.29934419714753e-06
-2.60498987711412e-06
2.289861139323e-05
-1.80224601159349e-06
-2.80412168662935e-06
2.22491637031107e-05
-1.3235207038273e-06
-2.86205998447322e-06
2.08149087546233e-05
-8.61733398378491e-07
-2.73416834503226e-06
1.93237728381906e-05
-4.22339596860373e-07
-2.52160917104369e-06
2.10061952675317e-05
-1.30184761866178e-06
2.19754882222239e-05
-3.74645268993484e-06
-1.64094615847361e-06
2.21286634496429e-05
-3.26258179519214e-06
-1.92563606901516e-06
2.19681367056179e-05
-2.75077652356907e-06
-2.14863215246553e-06
2.18585980685024e-05
-2.2542257819394e-06
-2.31817812611279e-06
2.17741665188869e-05
-1.7750583363901e-06
-2.42422009047424e-06
2.12333505363715e-05
-1.30622916169865e-06
-2.41017374364826e-06
1.99386717817797e-05
-8.4965428740162e-07
-2.24349798987599e-06
1.85869272764396e-05
-4.14866131920477e-07
-2.01286757588327e-06
2.20659025814151e-05
2.57798488912588e-06
-2.42051398348883e-06
2.31012387798362e-05
3.41130137923273e-06
-2.07561767680465e-06
2.36372617485144e-05
1.90339613362861e-06
-4.1941374521722e-06
2.43418371490777e-05
3.1239838359565e-06
-1.88844072106042e-06
2.48566344805016e-05
2.44120357546001e-06
-3.65204201162994e-06
2.54295863197388e-05
1.36549233283664e-06
-5.43297247221678e-06
2.52154820108804e-05
2.11777394239005e-06
-1.70838856090778e-06
2.60382503803427e-05
2.07287854778525e-06
-3.30612755470641e-06
2.68744639914062e-05
1.65441210642199e-06
-4.78949398031048e-06
2.66653842825658e-05
8.3860515284205e-07
-6.12138728313199e-06
2.52466139193447e-05
7.46593536493586e-07
-1.49485087608741e-06
2.6421679435151e-05
1.11941517515755e-06
-2.93303809274757e-06
2.81694119602106e-05
1.18391352390399e-06
-4.30500785175448e-06
2.80102479283838e-05
8.71074525707283e-07
-5.43463466823807e-06
2.67987608299033e-05
3.67234450830804e-07
-6.29240969176273e-06
2.43719599252968e-05
-6.5877437486054e-07
-1.26509693869744e-06
2.58860383056577e-05
-1.0925892259954e-07
-2.49882279265148e-06
2.82648317872625e-05
2.116592079739e-07
-3.75764516161368e-06
2.91788400933357e-05
3.12082796319337e-07
-4.85152102815382e-06
2.78345670242489e-05
1.8172814016064e-07
-5.60501083680196e-06
2.59413369941737e-05
2.7447765155085e-08
-6.07130173694388e-06
2.28867436593184e-05
-1.89053785620225e-06
-1.04119107656506e-06
2.47237433741544e-05
-1.33006562350168e-06
-2.09405110851936e-06
2.73090151704937e-05
-8.94719306745941e-07
-3.16290742516598e-06
2.89635035073713e-05
-5.67303796665209e-07
-4.18069422128944e-06
2.86953459290399e-05
-3.9645773665414e-07
-4.98689875114844e-06
2.67099920205929e-05
-3.01225242060583e-07
-5.41674976626026e-06
2.45759853910493e-05
-1.85202343362261e-07
-5.59901175209823e-06
2.11459800262803e-05
-2.84747576828345e-06
-8.40986951466241e-07
2.32248635982375e-05
-2.38258552735301e-06
-1.7213779787717e-06
2.58946721077438e-05
-1.9825028629922e-06
-2.62411174949304e-06
2.77518970005781e-05
-1.56886579726474e-06
-3.49695283561559e-06
2.824735307554e-05
-1.18898601716455e-06
-4.27040970282271e-06
2.73031646264326e-05
-8.72658346763373e-07
-4.8086852954909e-06
2.52144855838566e-05
-5.91148424671103e-07
-4.99737847527854e-06
2.31166328530627e-05
-3.101617752712e-07
-4.98664360248907e-06
1.94169426644713e-05
-3.52624447295446e-06
-6.71551550617575e-07
2.16059219850588e-05
-3.19672711002788e-06
-1.39771897221752e-06
2.43622299507716e-05
-2.9033072370515e-06
-2.15899922944047e-06
2.62546714618514e-05
-2.49683607166662e-06
-2.89377119294179e-06
2.69277043779157e-05
-2.02140945014042e-06
-3.55553919554454e-06
2.67295645892297e-05
-1.56029915581207e-06
-4.10377024926627e-06
2.56708351692615e-05
-1.14054807358839e-06
-4.42994570182092e-06
2.37269770778742e-05
-7.53080866725221e-07
-4.45035696450815e-06
2.17737001328852e-05
-3.8041155058121e-07
-4.31266245981778e-06
1.78282836070507e-05
-3.96608465872628e-06
-5.32953625575078e-07
2.00208668564779e-05
-3.77618548359095e-06
-1.12465070893413e-06
2.2816604289183e-05
-3.61578563171091e-06
-1.76190073343222e-06
2.47915040244701e-05
-3.27541216869234e-06
-2.38592588944228e-06
2.54976223794545e-05
-2.7809111770113e-06
-2.94038109219213e-06
2.54460687547093e-05
-2.24754490911941e-06
-3.40932340473475e-06
2.5083586669821e-05
-1.74310644554483e-06
-3.77263797808767e-06
2.41457879131598e-05
-1.27576644399252e-06
-3.94043646170583e-06
2.23958600393214e-05
-8.35896123123333e-07
-3.84796196771864e-06
2.06186947380383e-05
-4.1537858724124e-07
-3.63135449532894e-06
1.64197478832698e-05
-4.21889376552626e-06
-4.21238041015101e-07
1.85551195642426e-05
-4.15507086150345e-06
-8.99003972593067e-07
2.13256595079179e-05
-4.12737595600744e-06
-1.42634407685889e-06
2.33785763381778e-05
-3.88167576050815e-06
-1.95495260429406e-06
2.41934486354609e-05
-3.41844405583977e-06
-2.42843143227274e-06
2.41548560107473e-05
-2.86597956198437e-06
-2.81844410696894e-06
2.39012331288701e-05
-2.32203075890235e-06
-3.12992443076354e-06
2.36067365663635e-05
-1.81295921840189e-06
-3.35069126633089e-06
2.28239183946126e-05
-1.33082232299695e-06
-3.40372761723838e-06
2.12582836359128e-05
-8.68774970616819e-07
-3.23926970409568e-06
1.9657804954205e-05
-4.27819664104073e-07
-2.97885420325448e-06
1.5190929341032e-05
-4.33343228054292e-06
-3.31820812960551e-07
1.72409777108338e-05
-4.37531357853026e-06
-7.15035392372388e-07
1.99397449215506e-05
-4.46631465821321e-06
-1.14686303708999e-06
2.20246452292075e-05
-4.32291294483602e-06
-1.58977713552392e-06
2.29652795170841e-05
-3.92008090736657e-06
-1.99532208197102e-06
2.30303488162966e-05
-3.38622244351166e-06
-2.33008147050634e-06
2.27595841588451e-05
-2.83594533764822e-06
-2.58670246896645e-06
2.25413600858832e-05
-2.31302169915921e-06
-2.7769749550357e-06
2.23540194079583e-05
-1.81671449662078e-06
-2.89077952548092e-06
2.1708651851042e-05
-1.33632950449871e-06
-2.86276429180612e-06
2.03090527956635e-05
-8.70474883088236e-07
-2.65641328955497e-06
1.8869177502992e-05
-4.26165662711051e-07
-2.37769285578574e-06
2.1788117569858e-05
-1.62793294738546e-06
2.19884536850961e-05
-3.79954173010959e-06
-1.91816495943903e-06
2.17955357552378e-05
-3.26818952631765e-06
-2.13988301427123e-06
2.15353870272963e-05
-2.75135589556983e-06
-2.29434936234895e-06
2.1399339279551e-05
-2.2580840521754e-06
-2.3936547392598e-06
2.13076453573864e-05
-1.78088921033984e-06
-2.42866488066989e-06
2.07804743639179e-05
-1.31181883666945e-06
-2.34552695515857e-06
1.95238733707695e-05
-8.53292385841027e-07
-2.11929800943132e-06
1.82118621677685e-05
-4.15644966970409e-07
-1.84099249103267e-06
2.12797028827948e-05
3.63069669592351e-06
-2.84449610296888e-06
2.31225535091443e-05
5.03058399782443e-06
-2.47391274755869e-06
2.34374677204671e-05
2.76522711914475e-06
-4.98594657050098e-06
2.51380788231957e-05
4.90138379700081e-06
-2.28632328086536e-06
2.5307260625384e-05
3.73807444546205e-06
-4.36092157361622e-06
2.56506403785923e-05
2.05848506102624e-06
-6.47367613685341e-06
2.67079533802692e-05
3.73543183297705e-06
-2.1039192097527e-06
2.71201553028918e-05
3.46697934702132e-06