/*--------------------------------*- C++ -*----------------------------------*\
  =========                 |
  \\      /  F ield         | OpenFOAM: The Open Source CFD Toolbox
   \\    /   O peration     | Website:  https://openfoam.org
    \\  /    A nd           | Version:  12
     \\/     M anipulation  |
\*---------------------------------------------------------------------------*/
/*   Windows 32 and 64 bit porting by blueCAPE: http://www.bluecape.com.pt   *\
|  Based on Windows porting (2.0.x v4) by Symscape: http://www.symscape.com   |
\*---------------------------------------------------------------------------*/
FoamFile
{
    format      ascii;
    class       volVectorField;
    location    "0";
    object      U;
}
// * * * * * * * * * * * * * * * * * * * * * * * * * * * * * * * * * * * * * //

dimensions      [0 1 -1 0 0 0 0];

internalField   nonuniform List<vector> 
10142
(
(-6.17520237788382e-05 0.0091079629227045 7.35921084341086e-05)
(-7.4205903464088e-05 0.00946144094114445 7.22452772152561e-05)
(-5.95085162275426e-05 0.00910939623103751 0.000225770580237804)
(-0.000187769752087809 0.00909117247494294 7.48433700140931e-05)
(-8.91940633497518e-05 0.00984641263916736 6.84968341652638e-05)
(-7.17462877080126e-05 0.00946668801058299 0.000221756436270737)
(-0.000225431840506965 0.00944126981134279 7.337225704558e-05)
(-5.76618263933098e-05 0.00911146918716249 0.000390559140357462)
(-0.000182938672956499 0.00909346673167907 0.000229713856489592)
(-0.000318996777554284 0.00905445490476315 7.62912499581597e-05)
(-0.000107237571107342 0.010263714337373 6.12784490864176e-05)
(-8.65201318201186e-05 0.00985718110155277 0.000210461362026079)
(-0.000270721196665088 0.00982217413538265 6.94398417221878e-05)
(-6.96773086926374e-05 0.00947663767744765 0.000385355113437442)
(-0.000219924422749003 0.00944763567279612 0.00022568787326305)
(-0.000382769674897344 0.00939716457764611 7.47648767781188e-05)
(-5.73119056523052e-05 0.00911211881171486 0.000571289033006284)
(-0.000178913837330856 0.00909617665932269 0.000397202556614556)
(-0.00031442353154697 0.00905746752421555 0.000234051188413459)
(-0.000453402628606555 0.00899359232143269 7.7722166448608e-05)
(-0.00012895554680026 0.0107128016358998 4.91175951350036e-05)
(-0.000104380669526918 0.0102823691321131 0.000188636411153965)
(-0.000325188758368227 0.0102345909534381 6.19647066496949e-05)
(-8.42412306725277e-05 0.00987858838982879 0.000368306575730187)
(-0.000264500232329099 0.00983438440401342 0.000214317005983841)
(-0.000459389713277896 0.00976918742581052 7.07547920646279e-05)
(-6.92287618312622e-05 0.00948904603072991 0.000568047323018669)
(-0.000215509413651696 0.00945856480875312 0.00039222006465944)
(-0.000377626366274978 0.00940443645027081 0.000230191530345803)
(-0.000543528412148655 0.0093241127810951 7.6376856972582e-05)
(-5.79544890205929e-05 0.00910763148189812 0.000766977478615841)
(-0.000177804866287247 0.00909683710847317 0.000579236746619963)
(-0.00031071114969102 0.00906065612890203 0.000404401104811382)
(-0.000450977203729509 0.00899618979687063 0.000238227009498528)
(-0.000584101837592627 0.00890612730671137 7.88038162706636e-05)
(-0.000155076135352831 0.0111909691857581 3.00261278012509e-05)
(-0.000125989017701947 0.0107425612259571 0.000151762873926945)
(-0.0003906733653221 0.0106778336039251 4.94631976795583e-05)
(-0.000101935844091182 0.0103202368530685 0.000334085249910166)
(-0.00031826265329275 0.010255084074691 0.00019234570381474)
(-0.000551432147650182 0.0101709458219455 6.31960905891371e-05)
(-8.37305997385166e-05 0.00990820714159874 0.000549368385704272)
(-0.000259791279041958 0.00985722134514097 0.000375381870157144)
(-0.000453711555879921 0.00978251734948186 0.000219036583582712)
(-0.000651636159372974 0.00968150279307707 7.26305645429721e-05)
(-6.99878506982822e-05 0.00949910892742845 0.000770373787899609)
(-0.000214544891864037 0.00947122436670109 0.000576540513711233)
(-0.000373784390164881 0.00941600706104154 0.000399973236859039)
(-0.000541076927020867 0.00933085483315874 0.000234967172461693)
(-0.000699357162098792 0.00921928590223886 7.7855684626692e-05)
(-5.850122813991e-05 0.00909313488760092 0.000975081359166669)
(-0.000178705914609717 0.00909180650147573 0.000774623171348504)
(-0.000310099454029166 0.0090610112389191 0.000588332429964233)
(-0.000449270639104955 0.00899877359499217 0.000410804881886767)
(-0.000583890531728646 0.00890729314268405 0.000241445385989135)
(-0.000702230772344025 0.00879318044938654 7.95183615751943e-05)
(-0.000186441824211221 0.0116925103895975 1.53763252418137e-06)
(-0.000152161650493844 0.0112359758478013 9.35562865077399e-05)
(-0.000469308408465261 0.0111490493306733 2.9942032435764e-05)
(-0.000123475932594995 0.0108039222885554 0.000275224312092222)
(-0.00038314446782916 0.0107098984491374 0.000155252897928877)
(-0.00066197149468667 0.0106014677920058 5.06169924010515e-05)
(-0.000101434515135356 0.0103746796260232 0.000508134884147419)
(-0.000313467554152907 0.0102949697674867 0.000341355878353449)
(-0.000545351535842798 0.0101927878098096 0.000197384016802181)
(-0.000781294811897535 0.0100657386232691 6.54714661602455e-05)
(-8.47038933809736e-05 0.00993979102426639 0.000756378733053705)
(-0.000259227737514317 0.00988741117359159 0.000558505716766214)
(-0.000450008192496129 0.00980616754000805 0.000383866156121817)
(-0.00064936448179301 0.00969412459351968 0.000224683324395465)
(-0.000837312039576781 0.00955589259660011 7.46949179240994e-05)
(-7.08077453297964e-05 0.00950005312215456 0.000990654686375029)
(-0.000216054541140632 0.00948066906335892 0.000778830525398226)
(-0.000373842180567981 0.00942830937890956 0.000586609915727698)
(-0.000539898505899518 0.00934158997456333 0.000407486924380788)
(-0.00069967598381033 0.00922417680271067 0.000239243748971548)
(-0.000839599648603275 0.00908421782794953 7.90585111038281e-05)
(-5.85443970433991e-05 0.00906361973906623 0.00119332239171652)
(-0.00017978939635159 0.00907664860917925 0.000981439223204241)
(-0.00031143095854104 0.00905505292845888 0.000783603368294949)
(-0.000450047655574528 0.00899798518176146 0.000595819465567326)
(-0.000584413475207579 0.00890811244790058 0.000415691714191317)
(-0.000703255500337606 0.00879278806890774 0.000243708453445282)
(-0.00080011626802875 0.00865910551200728 8.00919563571997e-05)
(-0.000224331813670237 0.0122060398476719 -4.1325676393867e-05)
(-0.000183898998636012 0.0117596732539618 7.86655099447351e-06)
(-0.000563419681829227 0.0116421630675039 9.1133546326786e-07)
(-0.00014975041055078 0.0113310201614334 0.00018131622624339)
(-0.000461494459595405 0.0111968267669473 9.6770049641455e-05)
(-0.000794489188051132 0.0110576913744899 3.1116302797903e-05)
(-0.000123126553890317 0.0108937591258553 0.000434348487451033)
(-0.000378654044588792 0.0107740461667277 0.000282704634242761)
(-0.000655762349995967 0.010635062069204 0.000160812665312504)
(-0.000936694059886384 0.0104753810088843 5.35078021188125e-05)
(-0.000102785353533936 0.0104376035366896 0.000716676080584794)
(-0.000313734204155405 0.0103504107172737 0.00051806348344076)
(-0.000542262379077282 0.0102336448943388 0.000350858201085716)
(-0.000779540863395134 0.0100865811479655 0.000204329245031984)
(-0.00100235358426114 0.0099152982955492 6.83870014575939e-05)
(-8.59649284059148e-05 0.00996393917978165 0.000989011645809146)
(-0.000261755353521843 0.00991825161037339 0.000765881776597122)
(-0.000451291123735251 0.00983588061551663 0.000569884851334013)
(-0.000649239356441217 0.00971656692051507 0.000392990253172482)
(-0.000838522668979967 0.00956608842287891 0.000230534732159097)
(-0.0010035782381121 0.0093944616344103 7.66262215150799e-05)
(-7.11443846912347e-05 0.00948462138581613 0.00122672373085103)
(-0.000217987099372915 0.00948056323750954 0.000997901659266563)
(-0.000376437588328599 0.00943645796209311 0.000789078417011296)
(-0.000542062247397908 0.00935226058011944 0.000595665984136327)
(-0.000701425068054392 0.00923249355790265 0.00041405315567378)
(-0.0008414755002721 0.00908702964503031 0.000242842348565872)
(-0.000955079947616521 0.00892433240359842 8.01307635552327e-05)
(-5.82200686836379e-05 0.0090146517901204 0.00141916860576265)
(-0.000180130296744804 0.00904674123931045 0.0011977995422648)
(-0.000312915218299468 0.00903882978697606 0.000988492618695889)
(-0.000452167067076777 0.00899050155632416 0.000790569271112636)
(-0.000586595298556926 0.00890532117945205 0.000601363182442484)
(-0.00070519435126009 0.00879140888779832 0.00041923960698665)
(-0.00080150652878778 0.00865758502607531 0.000245561325006437)
(-0.000872812897849233 0.0085097753964111 8.06977703414883e-05)
(-0.000269585039742297 0.0127129361158913 -0.000102439873567685)
(-0.000222115936634116 0.0123035448122248 -0.00012322132303564)
(-0.000677342824567587 0.0121458152129178 -4.27897886787845e-05)
(-0.00018183193193888 0.0118991575667149 4.05043917601823e-05)
(-0.000556120628530387 0.0117130346975525 1.13158165057645e-05)
(-0.00095264711095375 0.0115322509049582 1.19075619526254e-06)
(-0.000149811562959053 0.0114706438090499 0.000314050745474871)
(-0.000457999772158939 0.0112957413848961 0.000189063971626456)
(-0.000788806693875758 0.0111069015042118 0.000103271509607561)
(-0.00112275221471956 0.010907144315152 3.50268304026845e-05)
(-0.000125116867606463 0.0110018464638307 0.00063947693931021)
(-0.000380450831412169 0.0108654366004249 0.00044530419664374)
(-0.000654100486432669 0.0107002677094448 0.000293689945726486)
(-0.000936019915835738 0.0105074602242347 0.000169736301834035)
(-0.00119962261710703 0.0102953227756215 5.76695787569975e-05)
(-0.000104747055050352 0.0104959966739849 0.000961446885133811)
(-0.000317926821621533 0.010412397266317 0.000727564740493575)
(-0.000545653328154916 0.0102883744482439 0.000531268806135724)
(-0.000781308596407662 0.0101256257721245 0.000362361682809005)
(-0.00100500038914068 0.00993293103803441 0.000212526833456271)
(-0.00119913424531639 0.00972253313257542 7.13946420153386e-05)
(-8.67803378431871e-05 0.00997024641354505 0.00124536415819817)
(-0.00026505593720532 0.00994077555440477 0.000997459907591335)
(-0.000455934456670033 0.00986485853148091 0.000777888945793851)
(-0.000653681166910273 0.00974389847854008 0.000581237876592261)
(-0.000842266418787157 0.00958516276435355 0.000402075912634458)
(-0.00100675784381058 0.00940185808716718 0.000236146666357639)
(-0.00113947178238912 0.00920399034001446 7.84508629861549e-05)
(-7.10354190935138e-05 0.0094462805554494 0.00147553926906891)
(-0.000219154911065336 0.00946426149382642 0.00123196443131197)
(-0.00037941410448334 0.00943467209847033 0.00100626915164271)
(-0.000546144981485654 0.00935811695119156 0.000797867583240652)
(-0.000705663672681619 0.00924025693434388 0.000603366255527547)
(-0.00084510423718384 0.00909227015922301 0.000419665064185601)
(-0.000957429355604916 0.0089255467000057 0.000246137771364792)
(-0.00103998788144973 0.00874682980905932 8.12296020125687e-05)
(-5.76491454704885e-05 0.00894257581934637 0.00164947371407756)
(-0.000179613822337269 0.00899772212495685 0.00142159592462211)
(-0.000313508535195483 0.00900812493952081 0.00120216705842806)
(-0.000454069843053816 0.00897276841939542 0.000993596991419262)
(-0.000589415532643373 0.00889574526035078 0.00079549442240817)
(-0.000708232058017106 0.00878619834876511 0.000605421874630366)
(-0.000803987725146633 0.00865417758741142 0.000422196897393316)
(-0.000874173569870775 0.00850749229839079 0.000247378926460057)
(-0.000917882563654702 0.00835117718894029 8.13391962496042e-05)
(-0.000323491239700149 0.0131852084519152 -0.000188639204575973)
(-0.000268282949394653 0.0128506093067969 -0.000309070239149824)
(-0.000812970195735068 0.0126414240317886 -0.000104925444967332)
(-0.000221149005488855 0.0125050569619866 -0.000173045439584328)
(-0.00067004740362127 0.0122481190294283 -0.000120779070871333)
(-0.00114405260322386 0.0120141603834165 -4.14547518663052e-05)
(-0.000182821896689188 0.0121096645496919 0.000127982450746221)
(-0.000554822138923148 0.0118574790639824 4.92636264970233e-05)
(-0.000949144078994974 0.0116052250112963 1.75193328238478e-05)
(-0.0013452776489348 0.0113514779785251 3.55472677468676e-06)
(-0.00015284264120634 0.0116433421223179 0.00050808322656033)
(-0.000462449378813765 0.0114375617443805 0.000326393003880707)
(-0.000789963059661618 0.0112067427344859 0.000202295967564614)
(-0.00112399560334112 0.0109535953850381 0.0001153206432449)
(-0.00143515737228537 0.0106915468213905 4.08974935839185e-05)
(-0.000128185757402746 0.0111102009062264 0.000895504233098514)
(-0.000387309152879845 0.0109722998966565 0.000652260892582232)
(-0.000660980907466003 0.0107905199780789 0.00046112276533249)
(-0.000941013068733823 0.0105698473746288 0.000308756489165888)
(-0.00120450790583118 0.0103232081619893 0.000181427114400835)
(-0.00143202814219501 0.010065441163001 6.22536020857964e-05)
(-0.000106329299232888 0.0105350475314535 0.0012410680005584)
(-0.000323402511567014 0.0104683161948731 0.00097155240216407)
(-0.000553558485674032 0.0103476364715187 0.000742077847675893)
(-0.000789402761840035 0.0101768252586868 0.000546027174148237)
(-0.00101190931485013 0.00996721444036462 0.000375232821638292)
(-0.00120428396648182 0.0097363737011246 0.000221153132156963)
(-0.00135856039571523 0.00949595022597908 7.4342710069422e-05)
(-8.70435600267007e-05 0.00994920773265667 0.00152174226375708)
(-0.000267582800541491 0.00994550570627916 0.00125167424842021)
(-0.00046130294063638 0.00988477446055465 0.00100772108402684)
(-0.000660882106652822 0.00976942246879385 0.000789398619257051)
(-0.00084974258662277 0.00960824084549919 0.000592211468552287)
(-0.0010130009728765 0.00941659313419036 0.000410828068531466)
(-0.00114326363740712 0.00920912021107464 0.000241628760605326)
(-0.00123820300937047 0.00899332033121229 8.02946032680846e-05)
(-7.05596007017075e-05 0.00937969553410947 0.00173297773513422)
(-0.000219247964759253 0.00942550146946603 0.00147847305599298)
(-0.000381381384014309 0.00941691377910898 0.00123743590556912)
(-0.000550159579580541 0.0093539012927794 0.00101315493600222)
(-0.000711039978258179 0.00924290814829108 0.000805162024059177)
(-0.000850645526206833 0.00909646261724705 0.000610008349985936)
(-0.000961805059103405 0.00892785067764676 0.000424875543322097)
(-0.00104230717029772 0.00874687785896266 0.00024941958030734)
(-0.00109160543873265 0.00855897142558324 8.23540736929188e-05)
(-0.00017821050053392 0.00892582816302052 0.00165012758543046)
(-0.000312776014141126 0.00895872610601491 0.00142333992157401)
(-0.000454756700234877 0.00894088463177088 0.001204762705372)
(-0.000591603266007236 0.00887608010856576 0.000996831920378073)
(-0.000711428990743738 0.00877417836851753 0.0007990205220703)
(-0.000807310703774497 0.0086465132852718 0.000608820823392066)
(-0.000876688885736829 0.00850234206988642 0.0004250089812177)
(-0.000919108347971556 0.00834825583583688 0.00024918439473747)
(-0.000934625174514291 0.00818886864429008 8.19442725583865e-05)
(-0.000387101520468854 0.0135808572263891 -0.000308215200518666)
(-0.000323887964143767 0.0133767827620957 -0.000572306890684836)
(-0.000974140220477219 0.0131007459490888 -0.000192275175682019)
(-0.000269008769645576 0.0131394975754379 -0.00048001752809445)
(-0.000807101787679018 0.01278474369024 -0.000307176365337803)
(-0.00137126496561666 0.012485274952372 -0.000103280700141693)
(-0.000224061706813074 0.0128145952452761 -0.00015233582343066)
(-0.000672604415567358 0.012456116021267 -0.000163944415163087)
(-0.00114185579741774 0.012119174993476 -0.000110521757881249)
(-0.00161052986270516 0.0117980646766807 -3.39768259577149e-05)
(-0.000187443593402818 0.0123744646216453 0.000298833921271981)
(-0.000563822300910372 0.0120708798658785 0.000142264002072766)
(-0.000955604245257421 0.011750465858727 6.50745839496528e-05)
(-0.0013494349484135 0.0114213755096165 2.91085680163613e-05)
(-0.0017162898795862 0.0110952875788886 1.51872213793204e-05)
(-0.000157666126070798 0.0118240574855472 0.000773310472222769)
(-0.000473464575935395 0.0116086681743183 0.000523523222736102)
(-0.000802449633371008 0.0113466708399804 0.000345996636078566)
(-0.00113436441204278 0.0110488478982239 0.000222752557963756)
(-0.00144331508933778 0.0107332465041601 0.00013214909206876)
(-0.00170886543433966 0.0104178484101655 4.7731316445291e-05)
(-0.000130983841818792 0.0111978633376593 0.00120202631544293)
(-0.000396220498118204 0.0110769132649015 0.000907951580712499)
(-0.000674010965063339 0.0108933816024442 0.000670414954438918)
(-0.000954862882357502 0.0106548338362647 0.000480970552397201)
(-0.00121635959535443 0.0103787464099529 0.00032732362476417)
(-0.00144011240543852 0.0100882027765909 0.000194537346029929)
(-0.00161836435572147 0.0097964341305175 6.6860619402189e-05)
(-0.000107211069087158 0.0105409980153257 0.00155104635146576)
(-0.000328117988600764 0.0105047315815831 0.00124890522996969)
(-0.000562711463913871 0.0103995413909939 0.000984591068976757)
(-0.000801491990348394 0.0102308731743853 0.000757678249495327)
(-0.00102441010126297 0.0100121516874018 0.000561966418707134)
(-0.00121451748318451 0.00976449205752411 0.000388731052570154)
(-0.00136449950212418 0.00950657316336525 0.000229914769825255)
(-0.00147275156017204 0.00924641816847617 7.72980892171388e-05)
(-8.67676356113312e-05 0.00989307748032128 0.00181268801872426)
(-0.000268736554115974 0.0099234855579207 0.00152542342309453)
(-0.000465525100336941 0.00988704393341923 0.00125881040596507)
(-0.000668268243001132 0.00978550604412994 0.00101734360498067)
(-0.000859130875434528 0.0096288785716736 0.000800353775962772)
(-0.00102241119433192 0.00943439762312751 0.000602830007341176)
(-0.00115052112643248 0.00921960345367795 0.000419477548063506)
(-0.00124195868894811 0.00899669470600373 0.000247126223057974)
(-0.00129680537109205 0.0087712601287157 8.21446698547984e-05)
(-6.96777124164769e-05 0.00928084949438219 0.0019941308621017)
(-0.000218116785869609 0.0093588905690866 0.00173383862172465)
(-0.000381642475849782 0.00937724084002743 0.00148092833764738)
(-0.000552725203090998 0.0093340744160415 0.00124147949744422)
(-0.000715841820338314 0.00923557091839177 0.00101863941998547)
(-0.000856792063402592 0.00909533644332143 0.000811476493956856)
(-0.000967838955086083 0.00892835248566406 0.000616226500910683)
(-0.00104674734226595 0.00874657438573462 0.000429995623941522)
(-0.00109374418968544 0.00855801157011691 0.000252657880967214)
(-0.00110934361799195 0.00836742153786658 8.34178036059318e-05)
(-0.00031044387687277 0.00888686046362928 0.00164959445969886)
(-0.000453625319915302 0.00889079352881817 0.00142328740012006)
(-0.000592227909482281 0.00884264605658594 0.00120563771498922)
(-0.000713693026872261 0.00875224508830963 0.000998841745422087)
(-0.000810548761031119 0.00863190064148602 0.000801899287801277)
(-0.000879924985491579 0.00849232316461888 0.000611972674307224)
(-0.000921435235697859 0.00834155413896881 0.000427688842014741)
(-0.000935698180202918 0.00818532934663834 0.000250861493926295)
(-0.000923505120709193 0.00802790971346081 8.24570754214182e-05)
(-0.000461809708521754 0.0138392926191405 -0.000471052038516213)
(-0.000390489264370778 0.0138425175991384 -0.000938845497337564)
(-0.00116446209944628 0.0134818922936389 -0.000313045552674701)
(-0.000327655055026587 0.0137820254133892 -0.000918223185213518)
(-0.000971601493748797 0.0132989795731515 -0.0005706848988247)
(-0.00164058370640273 0.0129163757542307 -0.000189686617502994)
(-0.000274322331478587 0.0135852598629972 -0.000563127860841865)
(-0.000815778730294808 0.0130821930479062 -0.000470084211625052)
(-0.00137321417904431 0.0126308466327097 -0.000293597074811477)
(-0.0019257322824171 0.0122296189112924 -9.26129143271963e-05)
(-0.000230812916518263 0.0132090099295873 -2.20150086304036e-05)
(-0.000690804235820888 0.0127699502465958 -0.000134444711238619)
(-0.00115580726528273 0.0123278070523591 -0.00014078153473394)
(-0.0016205221221592 0.0118991587951506 -8.70460060406835e-05)
(-0.00204822195451242 0.0114944664653594 -2.13362122527939e-05)
(-0.000195094842139036 0.0126595210224725 0.000569102270730564)
(-0.000580939406931338 0.012333779281595 0.000318036713605886)
(-0.000976839009082475 0.0119594299637446 0.000167237362633701)
(-0.00136885155101387 0.0115600709210677 9.13467470025292e-05)
(-0.0017282785933402 0.0111569905110884 5.7127144074382e-05)
(-0.00203713317498807 0.0107709938948722 2.58726657391405e-05)
(-0.000162390605423543 0.011983360995556 0.00111108603431146)
(-0.000487807075591362 0.0117837141430441 0.000789147215403507)
(-0.000823403819858723 0.0115120870917582 0.000547037404423522)
(-0.00115713818554065 0.0111810261619494 0.000373458297779814)
(-0.00146283532971223 0.0108182432038467 0.000249910632029602)
(-0.00172123279805645 0.0104528175613637 0.000151868219960159)
(-0.0019256435276354 0.0100993452075065 5.47650855821277e-05)
(-0.000132875513698622 0.011244916629789 0.00155362397109166)
(-0.000404430444100022 0.0111603513523322 0.0012120842670579)
(-0.000689109845306426 0.0109918297397412 0.00092512905389731)
(-0.000974554778663696 0.0107498305405154 0.000692203153834094)
(-0.00123658033722501 0.0104544832562473 0.000504446927763185)
(-0.00145637569746024 0.0101349174575679 0.000347960908942116)
(-0.00162746840804735 0.00981463494192499 0.00020817397121039)
(-0.00174957696988146 0.00950165393621331 7.1456825112672e-05)
(-0.00010730470288656 0.0105026080864737 0.00188408201213243)
(-0.000331046854886408 0.0105088390628266 0.00155583914894788)
(-0.000570564408916219 0.0104319589406689 0.00125857111274231)
(-0.000814188866863813 0.010276803402844 0.000998423021320859)
(-0.00104002196634781 0.0100587616694925 0.000774265344577479)
(-0.00122983572702363 0.00980163584547706 0.00057865658677887)
(-0.00137608836816704 0.00952853668071473 0.000402573396965255)
(-0.00147863441524596 0.00925443148721665 0.000238723134269893)
(-0.00153856431222314 0.00898461627134073 8.0223236422154e-05)
(-8.58843334560009e-05 0.00979609239701414 0.00211145715619178)
(-0.000268184753919561 0.00986699636501783 0.00181389633936219)
(-0.000467520651464532 0.00986327985217516 0.00152903407821108)
(-0.000673918994904801 0.00978432941541851 0.00126518249037246)
(-0.000868093912011933 0.00964002151569802 0.0010263997366118)
(-0.00103315351040894 0.00944925191615307 0.00081103243599193)
(-0.00116070615938824 0.00923189306298113 0.000613395824930626)
(-0.00124930449197325 0.00900331263522219 0.000428109272324459)
(-0.0013003078034035 0.00877308576515992 0.000252520506980263)
(-0.00131491877350613 0.00854578742856462 8.38922388618902e-05)
(-6.83134264583576e-05 0.00914723177587623 0.00225344252660638)
(-0.000215555754986559 0.00926028274737838 0.00199337788545382)
(-0.000379737558016287 0.00931032466698002 0.00173352428855188)
(-0.000552931137349612 0.00929299050251027 0.00148175877009427)
(-0.000718746998766849 0.00921308005667104 0.00124415161881182)
(-0.000862004244738874 0.00908434885278503 0.00102326990079707)
(-0.000974209844176818 0.00892319739033499 0.000817385810381673)
(-0.00105271633386442 0.00874348959728109 0.000622268833038382)
(-0.00109792189792648 0.0085553483941184 0.000434934957638624)
(-0.00111125927828092 0.00836549738972062 0.00025568615205708)
(-0.00109401278927399 0.00817816608325818 8.43480524331504e-05)
(-0.000450204027705257 0.00881879985551206 0.00164692913650224)
(-0.000590563970938952 0.00879156633375813 0.0014214001109161)
(-0.0007141027294706 0.00871694170393087 0.00120532007463027)
(-0.000812667493833579 0.0086074984719392 0.00100020184808352)
(-0.000882946733143935 0.00847510190956523 0.000804441597771296)
(-0.000924374246374832 0.00832931100415555 0.000614863293431391)
(-0.000937742171315133 0.00817720798118343 0.000430106524289549)
(-0.000924425507396103 0.00802379437167624 0.000252312294609132)
(-0.000885827965278588 0.00787290387551076 8.28506806395726e-05)
(-0.000547432248871239 0.0138764695516618 -0.000686233933306706)
(-0.000469831461311305 0.0141891684588058 -0.00144040363809395)
(-0.00138730012418924 0.0137248634187746 -0.000476783003770311)
(-0.000399403425163971 0.0144008385242405 -0.00153414217043398)
(-0.00116808550505151 0.0137513608662556 -0.000936844471970507)
(-0.00195781455583265 0.0132661484597172 -0.000308515823540686)
(-0.000337541156333366 0.0144144568088182 -0.00115755784646979)
(-0.000990819906803411 0.0137149070350733 -0.000906369786667671)
(-0.00165003256715928 0.0131161825108424 -0.000551183891776842)
(-0.00229801337406133 0.0126153923062615 -0.000173999720110579)
(-0.000286923629340621 0.0141627263724022 -0.000501149268094902)
(-0.000844113683029152 0.0135337821476762 -0.00054121765874978)
(-0.00139943786007394 0.0129277832773152 -0.000439892522497708)
(-0.00194447395366478 0.012368313693766 -0.000259961349830057)
(-0.00244141512639414 0.0118704478324335 -7.37532028814653e-05)
(-0.000243284564119622 0.0136441677301421 0.000245471236765595)
(-0.000714862605789669 0.0131601878598827 3.79734415412044e-06)
(-0.00119385433264763 0.0126358732793184 -9.2343800736015e-05)
(-0.00165195033594992 0.012098218032427 -9.91676482693906e-05)
(-0.0020697385148461 0.0115828320584092 -5.10995051664021e-05)
(-0.00242409005310407 0.0111117196522983 -6.15078548855357e-06)
(-0.000202857276710829 0.0129242225591171 0.000943131259020257)
(-0.000604038755461659 0.0126100358112296 0.000589954974160369)
(-0.00100959016020224 0.0122157130512748 0.000349453685487223)
(-0.00140503802271074 0.0117561330780854 0.000205878267327786)
(-0.00175994767142648 0.0112818193296515 0.000131585638563121)
(-0.00205552190898042 0.0108227487850388 8.72986331801702e-05)
(-0.00228780617492931 0.0103953915211462 3.64358580228806e-05)
(-0.000165921458231846 0.0120922279417898 0.00151506002005596)
(-0.000501587399222243 0.0119364141556865 0.00112443639372838)
(-0.000847833290784917 0.011677559862803 0.000812594272492798)
(-0.00118862148267639 0.0113346997518115 0.000578223815128142)
(-0.00149481090936857 0.0109368670908266 0.000408410650340626)
(-0.001746543712178 0.0105250231960993 0.000281252690251272)
(-0.00193936733697451 0.0101278538456635 0.000172691909953947)
(-0.0020752107039428 0.00975232048687409 6.17592764563267e-05)
(-0.000133614095998497 0.0112349953974758 0.00194048105078592)
(-0.000410273894076854 0.0112042386650605 0.00156009537543532)
(-0.000702755079513163 0.0110688997690443 0.00122562816834312)
(-0.000995550051321339 0.0108390162676653 0.000945452681431736)
(-0.00126178360134446 0.0105381116785701 0.000717440226863551)
(-0.00148063744521209 0.0101991346858312 0.000530360018165656)
(-0.00164550479295781 0.00985244740194349 0.00036958011452807)
(-0.00175857757197358 0.00951601780678887 0.00022187903947513)
(-0.0018224793785791 0.00919402822475133 7.59571139469525e-05)
(-0.000106497726288175 0.0104115732963699 0.00223084080621376)
(-0.000331576756642599 0.0104695624097369 0.00188586322100714)
(-0.000575470624855549 0.0104330253089207 0.00156130458914348)
(-0.000824803428850228 0.0103036398383182 0.00126864817174874)
(-0.00105551174466832 0.010096971096406 0.00101308853692013)
(-0.00124764878376628 0.00983944072466534 0.000791698091346148)
(-0.00139255084239299 0.00955748058614253 0.000595847246736489)
(-0.00149031000308301 0.00927070884189616 0.00041647951852881)
(-0.00154407584052271 0.00899029744029289 0.000247316857390673)
(-0.0015560437315518 0.00872006911391375 8.29752963980402e-05)
(-8.43033230585222e-05 0.00965471074647991 0.00241034404571708)
(-0.00026560865217056 0.00977011938498865 0.00211065508816804)
(-0.000466549010676744 0.00980594311866406 0.00181406223254906)
(-0.000676471840737646 0.00975801716762503 0.00153143138435714)
(-0.000874746140827394 0.00963445042931447 0.00127084679910393)
(-0.00104304372757451 0.00945463845610221 0.00103524119171054)
(-0.00117193140319076 0.00924057165608377 0.000821690862182472)
(-0.0012594322160039 0.0090102074237717 0.000623879677672256)
(-0.00130726343409718 0.00877617207445643 0.000436467298024436)
(-0.0013180869596593 0.0085461482045418 0.000257568685237911)
(-0.00129385936606741 0.0083239573411677 8.54411532602167e-05)
(-6.64208037874034e-05 0.00897810172309188 0.00250486867938446)
(-0.000211389385113003 0.00912710064328613 0.00225147701388817)
(-0.000375285131712452 0.00921199341298627 0.00199059177738251)
(-0.000550057499835598 0.00922548079184096 0.0017310130877931)
(-0.000718683890082161 0.00917009914589435 0.00148092274434945)
(-0.000864955399837723 0.0090586982262358 0.00124590643042455)
(-0.000979426576026356 0.00890825359209313 0.00102746123840025)
(-0.00105887203760315 0.00873427559470943 0.000823023882829658)
(-0.00110348225765449 0.00854886208176629 0.000627981678001423)
(-0.00111501423968774 0.00836067166154481 0.000439476806397936)
(-0.00109568971735018 0.00817535283718865 0.000258364406204169)
(-0.00104740570540919 0.00799657009522092 8.51062485860955e-05)
(-0.000585974252046436 0.00871931804704193 0.00164198439238555)
(-0.000711818118808526 0.00866463981854017 0.00141807662937942)
(-0.000812709855436014 0.00857013603442175 0.00120422111398776)
(-0.000884726285385568 0.00844818130589142 0.00100110774413817)
(-0.000927000888821182 0.00830956717560395 0.00080660808418141)
(-0.000940266397093259 0.00816290270622839 0.000617363240286516)
(-0.000926145140358767 0.00801439041441919 0.000432156713793657)
(-0.000886618791927115 0.00786830535475552 0.000253499203170629)
(-0.000823596793855553 0.00772806048151093 8.3147466470351e-05)
(-0.000646878987958784 0.0135826466313758 -0.000968758670996262)
(-0.000563476756022905 0.0143323742560822 -0.00211236277005191)
(-0.0016444564876972 0.0137468987275925 -0.000693250519639306)
(-0.000486991197346333 0.0149433704803781 -0.00238674735074485)
(-0.00140117625364172 0.0140838040200711 -0.00143659374828759)
(-0.00232791882088836 0.0134758685421783 -0.000468674699308268)
(-0.000416943864312656 0.0152847888551048 -0.00200609405533497)
(-0.00120437374946506 0.014322747377453 -0.00151866450860062)
(-0.00197952243787305 0.0135359222129396 -0.000907495545672953)
(-0.00273443295619149 0.0129152270474663 -0.00028520239154318)