/*--------------------------------*- C++ -*----------------------------------*\
  =========                 |
  \\      /  F ield         | OpenFOAM: The Open Source CFD Toolbox
   \\    /   O peration     | Website:  https://openfoam.org
    \\  /    A nd           | Version:  12
     \\/     M anipulation  |
\*---------------------------------------------------------------------------*/
/*   Windows 32 and 64 bit porting by blueCAPE: http://www.bluecape.com.pt   *\
|  Based on Windows porting (2.0.x v4) by Symscape: http://www.symscape.com   |
\*---------------------------------------------------------------------------*/
FoamFile
{
    format      ascii;
    class       volScalarField;
    location    "300";
    object      k;
}
// * * * * * * * * * * * * * * * * * * * * * * * * * * * * * * * * * * * * * //

dimensions      [0 2 -2 0 0 0 0];

internalField   nonuniform List<scalar> 
10228
(
4.2164270655834e-08
4.38611634683578e-08
5.35806406548263e-07
5.6785496686154e-07
5.94322550317883e-07
4.66875169827435e-08
5.58494853967641e-07
2.23621697381545e-06
9.82865818259575e-06
2.59490957348128e-06
9.87565700553579e-06
6.13016046920833e-07
2.63203385437344e-06
4.4145516030189e-08
5.70909690563961e-07
2.22244458583723e-06
4.56543907690805e-06
2.93703600347473e-05
3.03345613032259e-05
5.70787971716673e-06
3.03727028115962e-05
2.92529510495957e-05
9.92806336283911e-06
6.0483858324638e-07
2.69183153687898e-06
5.96558069806046e-06
4.34563770267392e-08
5.61298044431674e-07
2.22360718262946e-06
4.64408751562798e-06
7.76496542323222e-06
4.93184629148632e-05
6.58944848699119e-05
5.22908465168391e-05
1.00992713750496e-05
6.57443285021818e-05
3.03284531916043e-05
5.23994534940092e-05
2.90738388179909e-05
4.91469765550991e-05
9.73177075441155e-06
5.6525323606851e-07
2.65752070367326e-06
6.15341692288539e-06
1.02772672052546e-05
3.50069910663892e-08
5.23595169101805e-07
2.16880005906319e-06
4.64855171947609e-06
7.62762424132776e-06
1.0916254265949e-05
6.85474420887203e-05
9.78328958399559e-05
9.95330402349999e-05
7.41735051486834e-05
1.47285039356269e-05
6.51119417291636e-05
9.74852237663726e-05
9.93191771842181e-05
5.22481400190963e-05
2.9642384835588e-05
7.41911027685833e-05
2.83349227799988e-05
4.86587495012088e-05
6.80630284417342e-05
9.04945579980999e-06
4.76354418362377e-07
2.44899071898443e-06
6.08404165143108e-06
1.05276667733016e-05
1.51753867592477e-05
2.68523069389419e-08
4.37958143235679e-07
1.99854039284821e-06
4.49773555879388e-06
7.50835870129675e-06
1.08610836474071e-05
1.47230886995267e-05
8.64496218003283e-05
0.000127422248922866
0.000140113593286578
0.000131772132084502
9.53569900472383e-05
2.03465683855351e-05
9.62848063501724e-05
9.83030674238778e-05
6.34060991832181e-05
0.000139699631853697
0.000126834238314561
0.000131497384429494
7.39087202032366e-05
5.10904970930318e-05
2.77967582374501e-05
9.54028010723025e-05
2.65506450607905e-05
4.7283142954354e-05
6.71543710638846e-05
8.58655438111815e-05
7.74562305482876e-06
3.7950535651283e-07
2.07581362453734e-06
5.64254695213871e-06
1.04237160252215e-05
1.5597145115346e-05
2.07586748979275e-05
7.56594739174617e-09
2.92264848318609e-07
1.68677712828063e-06
4.12846556436233e-06
7.20417887568651e-06
1.06997051671246e-05
1.4486519010847e-05
1.84812426639271e-05
0.000103627841586647
0.000155034769805057
0.000177322654906137
0.000179894495099065
0.000162894359291007
0.000116081647526551
2.61263682916287e-05
0.000125074797803624
9.36066946473231e-05
0.000138020208656586
0.000130218434931519
9.58118114169757e-05
5.99365768306594e-05
0.000176691968223866
0.00017945685201111
0.000154213660157777
0.000162566747928761
9.50767878535135e-05
7.24108962099266e-05
4.82840464362776e-05
2.44930043698577e-05
0.000116090198639688
2.33286064729657e-05
4.44375474159387e-05
6.50951950302e-05
8.46024627035384e-05
0.000102841864395733
5.60493614519438e-06
1.10681955780316e-07
1.71271298377339e-06
4.88098973225505e-06
9.76877728986264e-06
1.54914073106895e-05
2.12902110218701e-05
2.67504566612479e-05
7.85015312377481e-10
8.23566832993477e-08
1.11835814430989e-06
3.49184081170869e-06
6.5780512360811e-06
1.02223665371742e-05
1.42072362391334e-05
1.82796698562175e-05
2.24835197412318e-05
0.000119816491069369
0.000180897758631199
0.00021204888059575
0.000223477912225509
0.000218126563421356
0.000192853615836771
0.000136084035703294
3.23461341875535e-05
0.000174419555332511
0.000151936314959056
0.000121473625424412
0.000134418326453425
8.87291495276968e-05
0.000177497312615304
0.000161122487407863
0.000127217140574599
9.10747794364766e-05
5.40437762558008e-05
0.000222848156032524
0.00021116973774214
0.000217643478911026
0.000179887121049319
0.00019249407678448
9.34168660107085e-05
0.000115754685577942
6.90135267287611e-05
4.34471208032954e-05
1.94970544308923e-05
0.000136157774301292
1.76709780689469e-05
3.95183738784223e-05
6.11990519049982e-05
8.19056031884233e-05
0.000101265539019563
0.000118988898904235
1.7860704119134e-06
1.05362285985821e-08
4.16930655047648e-07
4.18245853892645e-06
8.70599163877632e-06
1.46661768528337e-05
2.1214581218687e-05
2.74943637662464e-05
3.30940564331902e-05
6.59620895222918e-09
3.64446273219221e-07
2.37824888833006e-06
5.54150468118843e-06
9.30255785173997e-06
1.35528328372039e-05
1.7963665055032e-05
2.2226069865098e-05
2.64457822655488e-05
0.000135200363968663
0.000205140229295297
0.000244552533267501
0.000264026554900826
0.000267503727898243
0.000254873555854078
0.000221576524348921
0.00015539762329903
3.86573013474676e-05
0.000220298821627433
0.000208320115553264
0.000169828962001085
0.000177169951613928
0.00014748683099538
0.00011528782098524
0.000173341752755986
0.000128181537138077
8.09209285229741e-05
0.00021548469135599
0.000190947228236921
0.000157856898848434
0.000121756932222581
8.32886879385415e-05
4.43593298019187e-05
0.000266825548604479
0.000263138895107141
0.00024345387941435
0.000254337779025288
0.000204002744537625
0.000221217436316638
8.97888008184727e-05
0.000114031944487221
0.000135876512056977
6.34533964427997e-05
3.63911454103916e-05
0.000155535271940551
7.63208314517553e-06
3.08999924015923e-05
5.46804577258155e-05
7.70232336605455e-05
9.80172225752894e-05
0.000117205865782193
0.000134325642707548
1.098871716116e-07
3.27399082183312e-08
1.51504982967041e-06
7.76322254143712e-06
1.33409265949427e-05
2.02341323939275e-05
2.74880340801051e-05
3.40465025291844e-05
3.95900038299855e-05
2.94136783793898e-08
8.05708429137782e-07
3.80097576328409e-06
7.83178364448681e-06
1.2324583255765e-05
1.71435518383897e-05
2.18647633636863e-05
2.61921813692497e-05
3.03806743617174e-05
0.000149701226234191
0.000227887533762066
0.000274992459821499
0.000301988708697954
0.000313178018217966
0.000309718948833244
0.000290065041774508
0.000249028399616659
0.000173907717034904
4.50299629170092e-05
0.000259988895997901
0.000215152024552599
0.000264056236701698
0.000202807196324486
0.000240088853947543
0.000162275728653177
0.000200937870791837
0.000171978047923829
0.000140080685424382
0.000105715396361671
0.000211014456609557
0.000166379436794512
0.0001186926347736
6.88185972251558e-05
0.000252012740586967
0.000219609562754761
0.000187536240767428
0.000152182734444696
0.000113208871719321
7.07076858142429e-05
2.89819620391599e-05
0.00031222264425697
0.000308960986069131
0.000300856711639377
0.000273733158143977
0.00028949677520913
0.000226661346610758
0.000248690940811828
0.000110292130344778
8.42490777772995e-05
0.000134136245485897
0.000155329126868377
5.5782234628657e-05
0.000174125497205131
5.33777592338383e-07
1.47148755419103e-05
4.33897513034026e-05
6.90364304307158e-05
9.22462431172659e-05
0.00011349990231594
0.000132383220303483
0.000148810257090021
4.29305304757761e-07
5.28306084114152e-08
7.76445434299354e-07
6.28799676661666e-06
1.17372882445032e-05
1.86140007705238e-05
2.63712865601885e-05
3.4134635489485e-05
4.07752298175286e-05
4.61337017166243e-05
5.49158425653061e-08
1.34413071395982e-06
5.41007954583965e-06
1.03912761319794e-05
1.56022465528584e-05
2.0890047990542e-05
2.58035160703998e-05
3.01197965394977e-05
3.42176502769301e-05
0.000163340371582359
0.000249229515106199
0.000303524154985222
0.000337580296389514
0.000355880178763293
0.000360122975570099
0.000350132831340501
0.000323664451805451
0.000275192619817076
0.000191577114126423
5.13627964506615e-05
0.00029714970160583
0.000308821158256088
0.000253904968635047
0.000258565022145084
0.000206927331380961
0.000305970795211938
0.000194004605229976
0.000233746392200997
0.000269943978601781
0.00015125196679655
0.00022331488075511
0.000195111231913391
0.000163464149791124
0.000128802120075402
9.085480070778e-05
0.000203792900079013
0.00024732206202893
0.000156293674432436
0.000105484866986143
4.64404469599895e-05
0.000287031200163587
0.000247043357793136
0.000216080770423707
0.000181782214810064
0.000144004279049554
0.000100606964905909
5.78041154190985e-05
2.61159839512953e-06
0.000354656754261074
0.000359058562809174
0.000349307729484124
0.000336265978113885
0.000302150132611299
0.000323085515983221
0.000247931669237138
0.000274882750708702
0.00013027265607535
0.000104740158278709
7.74029232602929e-05
0.000153580548475694
0.00017399888796357
4.85053036714246e-05
0.000191866181484041
9.95559363270698e-07
2.20661357129732e-05
5.53828524446142e-05
8.29152197358502e-05
0.000106932668826099
0.0001282835415717
0.000146739406328781
0.000162428388897358
4.41754587152405e-07
6.86546877276542e-08
7.89851252179823e-07
4.7276830001415e-06
1.00138933582447e-05
1.67165110761182e-05
2.4468315335417e-05
3.29006985571334e-05
4.0965815283641e-05
4.75441430557332e-05
5.26360310031985e-05
9.24395105265633e-08
1.96266841718049e-06
7.23526208310147e-06
1.31835888684133e-05
1.90369728515947e-05
2.46831015371679e-05
2.9704419440147e-05
3.39554833835585e-05
3.79429519993093e-05
0.000176119279565673
0.000269227853966015
0.000330283383766106
0.000370985177748404
0.000395942430346345
0.000407121190604301
0.000405009116620877
0.000388735521070526
0.000355671838505398
0.000300061898328846
0.000208377614565891
5.76151812652395e-05
0.000290206962855966
0.000350663569184251
0.000332095283411336
0.000355386912787714
0.000302365893871448
0.000244476209647073
0.000300188018195096
0.000250051662483116
0.000195527007136006
0.000346107920763832
0.000181356961922741
0.000223784115924921
0.000262881149529203
0.000298012703683312
0.000135802024056874
0.000244341792333239
0.000216935441088126
0.000185604427894959
0.0001506129790104
0.000111413079788398
6.34080038945233e-05
0.000193863486349329
0.000239959362591601
0.000282127856713492
0.000143546307846945
8.59054088718918e-05
4.37541696362345e-06
0.000320498269171234
0.00027319926179617
0.00024338926381404
0.000210176015067836
0.00017382099616482
0.000133993221243462
8.86325121064121e-05
3.73263310202989e-05
2.96340852369649e-06
0.000394518521862715
0.000405765252993092
0.000403845471788034
0.00038786663122803
0.0003695422398053
0.000328818330125096
0.000355091116404445
0.000267863845489809
0.00029977517061058
0.000124524427187616
0.000149564616215521
9.7997290835052e-05
7.0117849171718e-05
0.000172233129511714
0.000191808781786098
4.01326210814575e-05
0.000208727347842141
1.65196454260404e-06
2.95064839443302e-05
6.71040419488327e-05
9.63623456858766e-05
0.000120994814310328
0.000142286754117599
0.00016023975210755
0.000175183574811263
7.47744819543708e-07
5.26446674648496e-08
6.24307330398614e-07
3.46408398187045e-06
1.0937229536826e-05
8.37950885351078e-06
1.47656360566935e-05
2.22523706420103e-05
3.07187517504711e-05
3.96221147173952e-05
4.78323523332013e-05
5.42606787002598e-05
5.90416219118855e-05
1.30954283588003e-07
2.70132930983936e-06
9.24722917784932e-06
1.61247853426204e-05
2.25248508965171e-05
2.84441197050286e-05
3.35145385023689e-05
3.76710175037105e-05
4.1526009304239e-05
0.000188055726016411
0.000287924182693756
0.000355366622643481
0.000402358991160312
0.000433598213319377
0.000451197242377732
0.000456012879470827
0.000447888344807025
0.000425538548757698
0.00038609486342158
0.000323632934941923
0.00022430238934171
6.37346115249241e-05
0.000324401640460821
0.000279642876824333
0.000343325642503774
0.000390034067374944
0.00040146370426336
0.000364993169053916
0.000399906240857407
0.000348583105177075
0.000292649088674316
0.000231630397460172
0.000340022138800819
0.000291441727164914
0.000238719342059393
0.000181190356334738
0.000384475588899328
0.000163668556022901
0.000209595722472092
0.000251868541948944
0.000290319456321964
0.000324380128622987
0.000112201550189747
0.000264050982386049
0.000237465860594001
0.000206529594860937
0.000171313620146038
0.000130931589411363
7.95483667605611e-05
7.0595063089116e-06
0.000181951804151203
0.000230137413170462
0.000274532763739274
0.000315365656632842
0.000129562319621945
6.12892073715488e-05
5.14698420465691e-06
0.000352389562740465
0.000298049242119551
0.000269405046921504
0.000237253374769167
0.00020205550318616
0.000164236654053712
0.000123459762311422
7.68256770765551e-05
3.0960009496701e-05
2.82717795815754e-06
0.000449625932545606
0.000432034763169287
0.000454535450798509
0.000446650450221136
0.000424638708216778
0.000400817167291368
0.000353819541031848
0.000385511356115889
0.000286494956718867
0.000323361363182539
0.000117523286737251
0.000143523326110991
0.000168039123136714
9.06027044276893e-05
6.24534667545917e-05
0.000190010228669712
0.00020872241216993
3.28907297076811e-05
0.00022469968134484
2.39453764782753e-06
3.71243554729461e-05
7.85466615928505e-05
0.000109278985561038
0.00013433600067949
0.00015546270114218
0.00017287944969245
0.000187089567339189
6.10485497851039e-07
4.07679008091091e-08
4.98879344299437e-07
2.62122078750906e-06
9.56400487412748e-06
6.98511282664384e-06
1.286224504715e-05
1.99693779225697e-05
2.81473709232222e-05
3.71619908284273e-05
4.63759295378473e-05
5.46351488544146e-05
6.08622001301892e-05
6.530186920386e-05
1.83148378051227e-07
3.53195775846649e-06
1.13817386941873e-05
1.91225799039309e-05
2.59900229532403e-05
3.21188245314668e-05
3.71999899184287e-05
4.12400226600064e-05
4.49416227460661e-05
0.000199159126665314
0.000305346953218081
0.000378831438617024
0.000431809390408366
0.000469023933803956
0.000492658854268396
0.000503788744818694
0.000502691154141658
0.000488798976960183
0.000460554611466419
0.000414937246853481
0.000345906388012253
0.000239347026105668
6.96779942461233e-05
0.000312800448462995
0.000356643259180735
0.000381927938681777
0.000265387507145588
0.000332486412340156
0.000393738551648343
0.000427152999574655
0.000444807534652068
0.000449924899759258
0.000395944499775295
0.000442461576510486
0.000392725394388774
0.000338573959043218
0.000279934914407426
0.00021550875551862
0.000330938963308362
0.00037806621901619
0.000280042448739994
0.00022522402501081
0.000164903675002575
0.000421068339632162
0.000189838477732334
0.0001366941434461
0.000236254623511225
0.000278350912751826
0.000316119355983805
0.000349107826582558
8.38575911480097e-05
0.000282471230052232
0.000256717028628804
0.000226233911267566
0.000190913500633356
0.000149529501477311
9.51628462465421e-05
9.81667430454974e-06
8.3010766460725e-06
0.000218428561893311
0.000169048714690886
0.000264472741506366
0.00030743870230278
0.000347012303841746
0.000114696957147359
5.30152748631796e-05
5.52486581111682e-06
0.000382694306848678
0.000321582916028755
0.000294099650084014
0.000262990320210062
0.000228786843223771
0.000192218771587708
0.000153616059228207
0.000112482746696134
6.77481858715565e-05
2.78177635866152e-05
2.2876472172411e-06
0.000490939353919261
0.000502083515228421
0.000467355145354784
0.00050111839767467
0.000487502212482674
0.000459626161549448
0.000430181359987672
0.000377206030998373
0.000414345831553636
0.000303852883712774
0.00034564210608326
0.000109745987606875
0.000136110143446606
0.000161660114094093
0.000185616870466235
8.27995919018506e-05
5.51818887207406e-05
0.000206873148858515
0.000224730117392043
2.86635541434692e-05
0.000239781585873924
3.31497619796905e-06
4.47753053151796e-05
8.96022033449133e-05
0.000121559250583156
0.000146899653401577
0.000167797670585813
0.000184669902583905
0.000198158734444021
4.84837944569401e-07
3.08976963018726e-08
3.82171232526493e-07
2.10079368095041e-06
8.01250832867485e-06
5.77406406855499e-06
1.10628545335885e-05
1.76792612469747e-05
2.5465349307617e-05
3.42228627132488e-05
4.36362531373068e-05
5.30590129494701e-05
6.13093968301172e-05
6.73015105546764e-05
7.13747875886332e-05
2.39088791664543e-07
4.44486886740113e-06
1.35746849447232e-05
2.21106562677985e-05
2.93796435418282e-05
3.56724579732815e-05
4.07357247615752e-05
4.4638865805516e-05
4.81649546651246e-05
0.000209435036854415
0.000321515554688368
0.000400710086073231
0.000459397025573898
0.000502332922320398
0.000531715728334127
0.000548733670470509
0.000553942714035365
0.000547237601543643
0.000527762993350382
0.000493786019003124
0.000442198837840139
0.00036688608266652
0.000253510037605976
7.54062475296521e-05
0.000297222791617203
0.000370067972973534
0.000344094771325703
0.000387005533183739
0.000418379935168274
0.000436290372755034
0.000247559096687622
0.000318443591884277
0.000382579257655333
0.000441771044987694
0.000462137144883729
0.000485707191342373
0.000496929890074985
0.000496215837880848
0.000425016812500912
0.000483078446086842
0.000434878684721592
0.00038229316864828
0.00032573550850096
0.000264850137338003
0.00019713362681769
0.000368544560361508
0.000319175609621902
0.00041432274545238
0.000266542399365576
0.000210337811346979
0.000147599540318285
0.000455880587598334
0.000214588048350964
0.000159869283236528
0.000104845001786225
0.000261414917503196
0.000303269044401755
0.000340323459741271
0.000372238054736957
7.32464542108512e-05
0.000274708676404742
0.000299628192660573
0.00024471862734081
0.000209388894193558
0.000167186629434037
0.00011018430324665
1.31584195931532e-05
1.1505067203951e-05
8.83694735355547e-06
0.000252403457479479
0.000205366733140503
0.000155451794831047
0.000296933132147715
0.000338698428089978
0.000377061370623647
0.000101955151442092
4.71421247306807e-05
4.77760462028265e-06
0.000411408905600478
0.000343802096846839
0.000317464966724536
0.000287378361834394
0.000254097032586934
0.000218462714232672
0.000181099006759812
0.000142210824349382
0.000101637120837022
6.14841036322524e-05
2.40418881052029e-05
1.82883407007995e-06
0.000529885442838412
0.000546873976336733
0.000552130784163213
0.000500573712500776
0.000545585865523866
0.000526411897029038
0.000492826557754732
0.000457687921665134
0.000399009040384636
0.000441594416880563
0.000319958119764004
0.000366622993594112
0.000127794148445745
0.000101414200480959
0.000153773842249715
0.000178874669022898
0.000202263840272784
7.48797299058273e-05
4.86904546563617e-05
0.000222814326005775
0.000239833511973703
2.4711791142918e-05
0.000253974356565941
4.33218936769183e-06
5.23331466854516e-05
0.000100153560922503
0.000133137918117394
0.000158664542754963
0.000179299918005071
0.000195625055073766
0.000208399069559041
3.67030212171159e-07
2.19209850327449e-08
1.626953846367e-06
2.77652040366383e-07
6.36498856387789e-06
4.68699678410955e-06
9.34601842516073e-06
1.53979407687696e-05
2.27234938424972e-05
3.11200780482074e-05
4.03277136019129e-05
5.00370620814419e-05
5.96070903477521e-05
6.78091295356552e-05
7.35385337160773e-05
7.72228017547898e-05
3.03673275307522e-07
5.40302273378659e-06
1.57732624349842e-05
2.50401935848637e-05
3.2659855895773e-05
3.90804558003817e-05
4.40996857521758e-05
4.78445227844477e-05
5.11732102200939e-05
0.000218885419992501
0.000336443612079737
0.000421021095596527
0.000485150621165796
0.000533582827320235
0.000568491927556149
0.000591103264246572
0.000602134323633076
0.000601794192316813
0.000589693603461959
0.000564782220053801
0.000525227240292128
0.000467880746813205
0.000386579730957047
0.000266792497761866
8.08866885778535e-05
0.00027778991003439
0.000327279744756645
0.000354778419778517
0.000424099244807109
0.000405590259939446
0.000373580425185932
0.000415534568421519
0.000452768181460949
0.000476508792721363
0.000487950670953212
0.000227265164681553
0.000301838107206727
0.000368403382595856
0.000430131503342395
0.00048760225172934
0.000524305556707876
0.00049505402121589
0.000541290131499746
0.000546657893582963
0.000540406669800439
0.000452251106966548
0.000521760887783594
0.000475082385315694
0.000423915767436096
0.000368991732862078
0.000310609765761702
0.000248138396166184
0.000177624586053337
0.000404309101299672
0.000356218906225676
0.000305178328452773
0.00044879314443746
0.000251412066028413
0.000194425304295957
0.00013211466809688
0.000488906308862349
0.000237969895760054
0.000181883787898585
0.00012493355060463
9.20467326246503e-05
0.00028509858105865
0.000326650438142139
0.000362963870301345
0.000393799126183516
6.519684011763e-05
0.000291463261534506
0.000261995402658866
0.000315543060610484
0.000226728415417797
0.000183853657016441
0.000124554571843593
1.65774218432235e-05
1.5436851420576e-05
1.24943937113865e-05
7.65608631763853e-06
0.000284259358687361
0.000238702843874401
0.000191199439561519
0.000141607452152018
0.000327656684142953
0.00036833421186444
0.00040551337511405
9.13981246787378e-05
4.08827636239472e-05
3.80889783132041e-06
0.000438534186481005
0.000339507058047179
0.000364715411679125
0.000310421308513509
0.000278021174571921
0.000243195899942261
0.000206675122235216
0.000168948290111768
0.000130304405611463
9.14736783782712e-05
5.44748631216119e-05
1.98632513791589e-05
1.3883415776322e-06
0.000589129193650637
0.000566566831604729
0.00060016267770248
0.000599892021015022
0.000531739156130765
0.000587968198303199
0.000563376246045551
0.000524233813263102
0.000483363758159314
0.000419247717105972
0.000467259574143442
0.000334825640279713
0.000386313690720726
0.00014485736554925
0.000118771137718
9.26609510043735e-05
0.000170490667056843
0.000195144926838623
0.000217978515614631
6.69676382912549e-05
4.24658235033484e-05
0.000237840240564446
0.000254038005024204
2.05848834661625e-05
0.000267281663132167
5.46144990259508e-06
5.96414511386999e-05
0.000110123193781438
0.000143987819852974
0.000169635370705956
0.000189983393120918
0.000205755571903744
0.000217814678335851
2.6391501957404e-07
1.47225029052189e-08
3.68757137223396e-06
1.19648623265107e-06
1.89772835127535e-07
4.79438798103802e-06
7.69428913305422e-06
1.31319999194567e-05
1.99250707296574e-05
2.79059874092002e-05
3.6803368021766e-05
4.63600696332095e-05
5.63020028357418e-05
6.59765965954507e-05
7.40968767704272e-05
7.95376891375392e-05
8.28136477837104e-05
3.71146197930561e-07
6.3818887335332e-06
1.79393656903164e-05
2.78797046141746e-05
3.58070367107113e-05
4.23218164407988e-05
4.7270521842553e-05
5.08361255316489e-05
5.39470498972116e-05
0.00022751024782904
0.000350141411036232
0.000439776722775692
0.000509082693708247
0.000562794937150546
0.000603043459179795
0.000631040643703669
0.000647575409346114
0.000653052428368609
0.000647412902264627
0.000630066571721404
0.000599845886540112
0.000554872699259963
0.000491989092019545
0.000404999910295789
0.000279200619741152
8.60914071516409e-05
0.000306332176163834
0.000336732299958564
0.000255700497378809
0.000355601952729957
0.000389132467991875
0.000408684311871063
0.000463385764102599
0.000475242950945516
0.000439119214643971
0.000401289379633162
0.00044226040075307
0.000485136624605763
0.000514502062232631
0.000531607854160962
0.000537179316333983
0.000205719723888932
0.000283427386241996
0.000351761012015224
0.000415430362555385
0.000475362565082358
0.000531321179114971
0.000583186059456241
0.000560675838090544
0.000525938479467696
0.00059424229684735
0.000594114603138943
0.000582521419447751
0.000477670330215953
0.000558501968034818
0.000513349906525273
0.000463536479570033
0.000409948241436085
0.000353264108532342
0.000293627439416763
0.000230152990856106
0.000159696100041595
0.00043826639315207
0.000391333868652677
0.000341489297431847
0.000289280934644511
0.00048147613709584
0.000234871067286115
0.000177843409263624
0.000118624472582193
0.000520139813112045
0.000259985589397024
0.000202724389365063
0.000144119822047987
0.000110055190362226
8.2113792433354e-05
0.00030732266758795
0.000348520583777303
0.000384065432024271
0.000413810430352661
5.67377408546808e-05
0.000307001827674877
0.000278083070236985
0.000242937544046657
0.000330232339332811
0.000199505221157989
0.000138152867428251
2.02567705062676e-05
1.9462062459237e-05
1.66526630762828e-05
1.08932766377905e-05
6.13163620854494e-06
0.000314285259020031
0.000269746804114144
0.000223600917855131
0.000176147599003872
0.000128108481160308
0.000356719529108851
0.000396361994080793
0.000432373952489227
8.10961040613763e-05
3.43143101475974e-05
2.89933501078643e-06
0.000464075280139074
0.000360239722912363
0.000332134398882335
0.000384335787550002
0.000300584097414656
0.000266506530286183
0.000230670533377768
0.0001936553079531
0.000155958274968359
0.000118157543075195
8.13988618576635e-05
4.69329862011395e-05
1.56585250981768e-05
1.00151477063192e-06
0.000628968831009184
0.000645486804342909
0.000601029750279366
0.00065098520329006
0.000645425678546069
0.000560870270020787
0.000628267674101743
0.000598383555249911
0.000553843336913187
0.00050722169510519
0.000437935214946354
0.000491348870823305
0.000348466755411873
0.000404728240501901
0.000135094022783912
0.000160956214983729
0.000109118912182187
8.35484330050022e-05
0.000186255523190459
0.000210478351983594
0.000232773716858845
5.8967753820302e-05
3.61540805390371e-05
0.000251961662589359
0.000267351089696112
1.64144231940221e-05
0.000279710125337689
6.63746858486621e-06
6.66087419541009e-05
0.000119479329506
0.000154109371732181
0.000179824666629222
0.000199859976191174
0.000215067798113846
0.000226407056901279
1.79024015275354e-07
9.17329545652158e-09
6.12216218374968e-06
2.76800210589723e-06
8.22529307437685e-07
1.17974314210539e-07
3.38752404231482e-06
1.08992205838925e-05
1.7091407264942e-05
2.45818655191764e-05
3.31193395132052e-05
4.24187250297587e-05
5.22592362191491e-05
6.23906152594757e-05
7.21331395734235e-05
8.01392797474634e-05
8.52680240022664e-05
8.81197851515151e-05
4.41185733991032e-07
7.36052704750672e-06
2.00477276316276e-05
3.06076035923457e-05
3.88014111694524e-05
4.53766922803299e-05
5.02292652452726e-05
5.35924218682067e-05
5.64687450430185e-05
0.000235310935014599
0.000362617567208304
0.000456986893453553
0.000531199677020597
0.000589972897902376
0.000635384202397816
0.000668605213891922
0.000690435245460755
0.000701378504271722
0.000701591357847791
0.000690818541524671
0.00066834376562668
0.000632941142576525
0.000582722696514252
0.000514536960062187
0.000422163159742026
0.000290740860544785
9.10007186666386e-05
0.00033322061664906
0.000369719199477368
0.000282544293064862
0.000390616990700405
0.000316714408119937
0.000232242583957929
0.000421561693837518
0.00038221406776401
0.000446817986824068
0.000459263053021755
0.000500522246062359
0.000517944709973661
0.000523821590943342
0.00047068383147366
0.000427244818505045
0.000467202067659441
0.000515507709670866
0.000550317047070676
0.000572883194637039
0.000584033124501112
0.000584121959557718
0.000185540505300955
0.000263528024261394
0.000333065709722087
0.000398115984990623
0.000459915119960967
0.000518426756509221
0.000572963847795501
0.000622704955517682
0.000639195059335157
0.000594848975326285
0.000554804580840536
0.000644742053098967
0.0006393528217107
0.000622559086347792
0.000501287207835691
0.000593290104519528
0.000549679797160227
0.000501204427810588
0.000448818316877295
0.000393375612922337
0.000335410750516483
0.000274963429248803
0.000211152548381402
0.000143740280966965
0.000424611222388663
0.000470431926842892
0.000375784497480872
0.000324644311940035
0.000271677417815612
0.000512370654710086
0.000217088689017349
0.000161318945170296
0.000105419128670105
0.000549578730592073
0.000222356059438288
0.000280641068034438
0.000162378944441001
0.000127347817152228
9.83442411086887e-05
7.17143498769314e-05
0.0003281068616771
0.000368901412293004
0.000403647391820072
0.000432286247534855
4.80046224727204e-05
0.000321341834025235
0.000293001656766262
0.000258031482592554
0.00021413895131771
0.000343708688186022
0.00015093904559215
2.39137415729084e-05
2.38015851445418e-05
2.11116982838029e-05
1.45173933481026e-05
8.76451103112939e-06
4.6829474234402e-06
0.000298897393185906
0.000342616549558932
0.000253610693051484
0.000207288763618549
0.000160552668717294
0.000114589741794753
0.000384162282170454
0.000422797723481135
0.000457653230048721
7.04665496248474e-05
2.77091889436718e-05
2.10781556832208e-06
0.000488042535493549
0.000379680724754653
0.000352539086623283
0.000321814346025067
0.000402680034438088
0.000288444441129517
0.000253218293383019
0.000216736134749639
0.000179551911448198
0.000142280237638627
0.00010573047058727
7.10146968857356e-05
3.91078386175213e-05
1.1613504783062e-05
6.79022154709579e-07
0.000666441794912775
0.00068824711286111
0.000699191695488076
0.000633285271848449
0.000699433251440972
0.000688746487761931
0.00058797084208719
0.000666470750242375
0.000631421853897949
0.000581656659519817
0.000529268932943862
0.000455082171131865
0.000513876655786098
0.000360890594230275
0.000421884673891614
0.000124540066859642
0.000150450400713103
0.000176105329936865
9.88832785525508e-05
7.40796607433972e-05
0.000201086043555756
0.00022489538105441
0.000246666098284769
5.07783881413484e-05
2.97251047669513e-05
0.000265190203312116
0.000279781516637255
1.23305190702419e-05
0.00029126774543982
7.83740710359812e-06
7.31886020868352e-05
0.000128217519183868
0.000163512535082546
0.000189244080621342
0.00020893744826254
0.000223564852669274
0.000234176817141334
1.10806481648153e-07
4.66391357297744e-09
8.74118792743563e-06
4.65641331449351e-06
1.94483286266585e-06
5.09034387128789e-07
6.16985760006853e-08
2.1695722924172e-06
1.42660958983248e-05
2.11790841268109e-05
2.92760419133782e-05
3.82730890523092e-05
4.79071815252906e-05
5.79877524687843e-05
6.8271787283651e-05
7.80461352228175e-05
8.59069555255524e-05
9.07007133025356e-05
9.31233081403324e-05
5.11893530654798e-07
8.3263071604354e-06
2.20803526471707e-05
3.32059456533315e-05
4.16244899859353e-05