/*--------------------------------*- C++ -*----------------------------------*\
  =========                 |
  \\      /  F ield         | OpenFOAM: The Open Source CFD Toolbox
   \\    /   O peration     | Website:  https://openfoam.org
    \\  /    A nd           | Version:  12
     \\/     M anipulation  |
\*---------------------------------------------------------------------------*/
/*   Windows 32 and 64 bit porting by blueCAPE: http://www.bluecape.com.pt   *\
|  Based on Windows porting (2.0.x v4) by Symscape: http://www.symscape.com   |
\*---------------------------------------------------------------------------*/
FoamFile
{
    format      ascii;
    class       volScalarField;
    location    "300";
    object      nut;
}
// * * * * * * * * * * * * * * * * * * * * * * * * * * * * * * * * * * * * * //

dimensions      [0 2 -1 0 0 0 0];

internalField   nonuniform List<scalar> 
10228
(
1.43741301355505e-08
1.48147414650566e-08
1.80801395260491e-07
2.29465082999166e-07
2.43327396407142e-07
1.58694114444489e-08
1.86600691509273e-07
7.56333022339264e-07
1.34597492333671e-05
1.05821770003414e-06
1.3492581171968e-05
2.54947707827332e-07
1.08519900689874e-06
1.46061979690182e-08
1.90282042202432e-07
7.3235950863644e-07
1.49992614766273e-06
4.65966099067982e-05
5.22014638682197e-05
2.27746551243012e-06
5.27965924206904e-05
4.6093569573842e-05
1.36630159988696e-05
2.54278444267938e-07
1.13810261967854e-06
2.46636343119664e-06
1.46125470850466e-08
1.87160743921807e-07
7.30290335756786e-07
1.50844480764396e-06
2.57254991432713e-06
7.47585153454092e-05
0.000169478722045909
8.95311625840228e-05
4.08295466188928e-06
0.000170024239490514
5.3714912183936e-05
9.16704103171945e-05
4.60971474851862e-05
7.4450991318572e-05
1.35001753663694e-05
2.39746158531163e-07
1.15011012150049e-06
2.63937733363983e-06
4.27332165547843e-06
1.14547766621251e-08
1.75426052798002e-07
7.17894329947541e-07
1.51261219624746e-06
2.46912588296631e-06
3.57075562567482e-06
9.97030497495249e-05
0.000265544628630465
0.000286074218063033
0.000123597873001304
5.90315600749903e-06
0.000170395632307396
0.000265749670817725
0.00028832920630482
9.39008922165366e-05
5.34288215274082e-05
0.000126300534731704
4.54943890033256e-05
7.43628964959161e-05
9.86622215469373e-05
1.26518820105368e-05
2.0042896946134e-07
1.0677779825744e-06
2.68568960554675e-06
4.54619629422722e-06
6.30704869894173e-06
8.7247221913021e-09
1.46153885002737e-07
6.65615166929128e-07
1.47798355782199e-06
2.42805391300307e-06
3.49859470135133e-06
4.84098817596506e-06
0.000120562853455103
0.000339776850238351
0.000468824824037344
0.000382071718173658
0.000153160461956173
8.21374561305776e-06
0.000265022366566903
0.000289737321624661
0.000168319581486341
0.0004698584040138
0.000339402872538248
0.000385459156685287
0.000129507100602195
9.39463976693024e-05
5.06230396353856e-05
0.000156879771451383
4.32265684762532e-05
7.33089775754295e-05
9.81190768073233e-05
0.000119702586107065
1.08430382753925e-05
1.65479876422776e-07
8.95099166634859e-07
2.51445970191314e-06
4.6404884290497e-06
6.74713846352754e-06
8.64972898901757e-06
2.21708343351056e-09
9.49642086103889e-08
5.61995818676084e-07
1.36568900907747e-06
2.35134103553095e-06
3.44828850543036e-06
4.6713491256824e-06
6.06446452790747e-06
0.000140256052535167
0.000399738122595797
0.000613600409492408
0.000644504797642363
0.000461866256377926
0.000180925948873285
1.0545676790693e-05
0.000337559929687312
0.000260874080419579
0.000468448660332328
0.000388029788088741
0.000286843855546704
0.000161282997046654
0.000613501403174207
0.000646166454028154
0.000399169659457477
0.000466229062809546
0.000161085772709827
0.000130065170173874
8.99095777379934e-05
4.4444425510371e-05
0.000184983640623217
3.85820482770617e-05
6.99295513304286e-05
9.64510579350064e-05
0.000118937080518271
0.000139017239127424
7.77047722003505e-06
4.7122624447187e-08
7.79486891596791e-07
2.1535065634447e-06
4.39878657683156e-06
6.90867051175161e-06
9.22218542196435e-06
1.11676922454571e-05
1.9817977572613e-10
2.43135462138714e-08
3.62009509455636e-07
1.15148308756259e-06
2.1576133979838e-06
3.32109445657048e-06
4.57701562608493e-06
5.90022270746211e-06
7.39173527963101e-06
0.000157813723785926
0.000451010368754279
0.000728757461258752
0.000865142414654137
0.000790773385779033
0.000530835546736665
0.000206185438391838
1.30911865398193e-05
0.000609539962459511
0.000396554441218677
0.000331482747303259
0.000460937186937813
0.000250154897959745
0.000644714746525108
0.000470021799801891
0.000385379028001865
0.00027593755869478
0.000146340605831121
0.000864836408200286
0.000727881335252145
0.000792981377975483
0.000450241437158506
0.000535901988344319
0.000162319767165311
0.000189933721460308
0.000125778630853533
8.06517844843321e-05
3.40569276505037e-05
0.000210950880857822
2.96115858001982e-05
6.30230084029784e-05
9.19162942444612e-05
0.000116691182288587
0.000137981914069016
0.000156721605895983
2.04194965788453e-06
4.25858529348272e-09
1.72190924413424e-07
1.94709967265344e-06
3.90828529690719e-06
6.62121529777617e-06
9.47167240139915e-06
1.19382791851883e-05
1.3849361550505e-05
1.65544831093314e-09
1.07687602833483e-07
7.58915786358433e-07
1.80396009285043e-06
3.03183354148444e-06
4.39828134301064e-06
5.79707618140005e-06
7.18811025148677e-06
8.69695558619324e-06
0.000174164443038068
0.000495647485127448
0.000823541471857402
0.00104409678063942
0.00108107626541361
0.000914126029728654
0.000591604662887393
0.000229802543799941
1.56591675620357e-05
0.000859190321383011
0.000721982168919421
0.000597748941580833
0.000447057624336759
0.000388875699711576
0.000317429718009225
0.000635677884298755
0.000442662347881336
0.000228307664570503
0.000792051380912767
0.000540801790969898
0.000468380498819964
0.000373340377171411
0.000252454857455486
0.000114633313176111
0.00108052925652615
0.00104219691010417
0.000822180648981334
0.00091690401475173
0.000494957488204817
0.000597444901685306
0.000158444619188345
0.000191859955417339
0.000216750419181114
0.000116062252744608
6.54288675178085e-05
0.000235134909050867
1.03943106117525e-05
4.88988294408025e-05
8.28683237800119e-05
0.000111094469831466
0.000135281771098157
0.000155661676839771
0.00017309009960565
4.53507954410613e-08
9.79411621633612e-09
6.31077873220433e-07
3.59051187079099e-06
6.02095851915343e-06
9.14419031321374e-06
1.23026908420745e-05
1.48213180850073e-05
1.65944606569266e-05
7.47329071473898e-09
2.34247029548684e-07
1.19185255128269e-06
2.52838842477247e-06
4.00820087149025e-06
5.57143050972462e-06
7.0712921603997e-06
8.48218116011568e-06
9.99461376585138e-06
0.000189072598021872
0.000535336936116226
0.000903783943903405
0.0011906883855155
0.00132339216459269
0.00126446224078114
0.00102028877470176
0.000646091099498776
0.000251598467627144
1.82513489918683e-05
0.00103309158862453
0.000843536629656813
0.00107408833474547
0.000706684220981682
0.0008148972210829
0.000572700677093982
0.000491520029939735
0.000438145017163179
0.00037196805806658
0.000289613091875496
0.000783287783645434
0.000613997130273463
0.00040682920340816
0.000181826606463855
0.000916820215506107
0.000603467954255846
0.000540405963319438
0.000457475914750819
0.000348133393669392
0.000205452062879501
4.80898227637688e-05
0.00132043144870585
0.00126394867712774
0.00118772509160154
0.000902220333315608
0.00102373550879944
0.00053474356323783
0.000652651031913589
0.000188496249275105
0.000149809884248706
0.000219387059603113
0.000241741188239053
0.000101344876478527
0.00025753138533258
2.27917663592896e-07
1.9408876563626e-05
6.49346054278754e-05
0.000100290340847326
0.000128796815822254
0.000152658733085932
0.000172040605669488
0.000188097657974716
1.28966566393589e-07
1.1609145829388e-08
3.30962739959436e-07
2.92768981122245e-06
5.25269280102027e-06
8.40695486851006e-06
1.19463192031041e-05
1.532155982527e-05
1.77862246155136e-05
1.93559244770347e-05
1.36115220440375e-08
3.84884067933106e-07
1.68086987002327e-06
3.34456411528256e-06
5.07870107616214e-06
6.80372191946402e-06
8.36020627329275e-06
9.76257878615557e-06
1.12567155981873e-05
0.000202730644909713
0.000570840260015934
0.000973253652403441
0.00131325887416095
0.00152410136835999
0.00156473042928548
0.00142164449096714
0.00111331803425292
0.000695267671678189
0.000271753032034738
2.08208260662047e-05
0.00117605402786945
0.0013091322956416
0.0010117274709656
0.00105715010855598
0.000812195327426732
0.00125750808732096
0.000675829841862774
0.000796874162418598
0.000894030605531176
0.000525781969142926
0.000531167899182821
0.000481710667550387
0.000418896818766887
0.000339156499024298
0.000231267567586441
0.000762255710226248
0.000909226798974362
0.000574170377954879
0.000340267321104803
7.81028281532454e-05
0.00102466335271073
0.000659719202782996
0.00060428933676798
0.0005311482083913
0.000436080036995101
0.000303247881121467
0.000141267831552851
8.65149012800422e-07
0.0015194542989191
0.00156116869918591
0.00142146120950484
0.00130967606813745
0.000971607098646754
0.00111744401124899
0.000570354315702172
0.000702496871964892
0.000216432211537852
0.000180636239939295
0.000137917658031324
0.00024506371507149
0.000264914601980955
8.58409438386998e-05
0.00027821662371535
4.09956265038497e-07
2.79682753197224e-05
7.93312066506205e-05
0.000116489237467567
0.000145432458437075
0.000168822107748713
0.000187100123552017
0.000201815366635734
8.8085042721008e-08
2.21318415596343e-08
3.47323009618081e-07
2.19421909690851e-06
4.42792185840656e-06
7.51499648847807e-06
1.10801354159175e-05
1.49509217185096e-05
1.84306317176295e-05
2.07647512637756e-05
2.20940359994434e-05
2.30100390189386e-08
5.56856815495358e-07
2.24067331617863e-06
4.24506108625449e-06
6.20879223861109e-06
8.05421989943003e-06
9.63538444333371e-06
1.10103503641587e-05
1.2481950165654e-05
0.000215201276126989
0.000602760641917757
0.00103427440072727
0.00141785040222788
0.00169203926068439
0.00181738464401353
0.00177305116146413
0.00155819513149698
0.00119586013045146
0.000739863583284359
0.000290364915976175
2.33563329926975e-05
0.00115014941484844
0.00150444328671181
0.00129620445466994
0.0015488479674949
0.00128473582615731
0.000971725118179608
0.00124094267751992
0.00102502296192656
0.000758143294166704
0.00141553323321853
0.00061920693048758
0.000761270920475624
0.000873939266274615
0.000962780583144983
0.000438371737873926
0.000566693561896617
0.000520663454286263
0.00046054507792687
0.000381964786323562
0.000271564180123967
0.000104275058495384
0.000726233135319041
0.000890382208945736
0.00101843100015654
0.000510567897813794
0.000218442767447746
1.32443692952845e-06
0.00111937064336897
0.000710506450767671
0.000661610281666625
0.000596336667770327
0.000513152026393717
0.000405594091048105
0.000252809583668079
4.97935834447707e-05
6.36108302363314e-07
0.00168634649528961
0.00181164170043798
0.00176939772297221
0.00155848383741335
0.00141389134929925
0.00103258609495213
0.00120060810611818
0.000602347866426233
0.000747673928410405
0.000208860780999691
0.000242442235725674
0.000170252220752172
0.000124908933795587
0.000268859371322533
0.000286301658644969
6.96050704820903e-05
0.000297301413998148
6.85142938209489e-07
3.60477923948368e-05
9.28714712165533e-05
0.000131784818548519
0.000160962483766157
0.000183709871456971
0.000200862058951549
0.000214330595731581
2.34907269852583e-07
1.78465862594946e-08
2.64238977186906e-07
1.57724608745824e-06
1.42542621122025e-05
3.69913918758926e-06
6.61570641836322e-06
1.00449225780891e-05
1.39569779025368e-05
1.80526600882069e-05
2.15520509477422e-05
2.37139223462795e-05
2.47875698752105e-05
3.22073053069169e-08
7.65346864399379e-07
2.86438830281827e-06
5.20083368655737e-06
7.35953252847021e-06
9.29323348894702e-06
1.08783385355943e-05
1.22173035933309e-05
1.36601292427968e-05
0.000226604879560682
0.000631523352757695
0.00108839671733763
0.00150856151428605
0.00183470979910509
0.00203033213059499
0.00207330015900655
0.00195419611075358
0.00167823765756651
0.00126970908483423
0.000780415461785875
0.000307577815903323
2.58369239079831e-05
0.0012667976655006
0.00110291492031665
0.00147396777248477
0.00166868170012894
0.00179474252788312
0.00139911347712241
0.00175693679366111
0.00152373396727117
0.00124218146920364
0.000904519744871498
0.00139999019119927
0.0012106832180804
0.000973888425197172
0.000671664992791784
0.00155325764072466
0.00051520878405246
0.000696720860204011
0.000834494836273591
0.00094105904616336
0.00102326147723947
0.000280115763596828
0.000598601947131983
0.000555611614971358
0.000497882831861055
0.000420120934452769
0.000306897659459111
0.00012646607810688
2.17797462217842e-06
0.0006748906103058
0.000859392332810435
0.00100161391287332
0.0011143551548674
0.000421833404205546
8.31060899126986e-05
1.01898196750809e-06
0.00120341975880687
0.000756492892811738
0.000713294339536474
0.000654566889164906
0.000580117843295967
0.000488747294232994
0.000370497673196633
0.000196830759423319
4.70692367586485e-05
8.98903312009194e-07
0.00202322015858789
0.00182834474865698
0.00206714145807886
0.00195074175761866
0.00167899914647037
0.0015043338000512
0.00108666039588961
0.00127498814168159
0.00063115477190257
0.000788722635370362
0.000198877563694634
0.000234894473694154
0.000266493326080935
0.000158842086965808
0.000111974632919404
0.000290793050610881
0.000306004349557566
5.80283571424397e-05
0.000314921543317615
9.8966028722087e-07
4.40318396433382e-05
0.000105719127842193
0.000146111118518632
0.000175296319605214
0.000197324070649864
0.000213405030103394
0.000225750614732603
2.05316912156727e-07
1.40147078573782e-08
2.1188281768814e-07
1.14734571537463e-06
1.3284668799188e-05
3.11096573753883e-06
5.76654212610733e-06
9.00286201889009e-06
1.27506642767772e-05
1.69326223279163e-05
2.11661804388286e-05
2.4637416117786e-05
2.66072310696721e-05
2.74177251959975e-05
4.52740117281621e-08
1.00070706978302e-06
3.53071963449224e-06
6.17798304990481e-06
8.50228746905368e-06
1.05014501907311e-05
1.20783086398893e-05
1.33756025777684e-05
1.47833592175131e-05
0.000237020008120109
0.00065748516625615
0.00113667635775697
0.00158815913778881
0.00195766983437031
0.00221157022931034
0.00232876903473577
0.00229707518102115
0.00211308424865529
0.00178470794841621
0.0013361354321914
0.000817372296336836
0.000323497088173409
2.82460281937605e-05
0.00121369335010413
0.00136694810447887
0.00163346823458515
0.00102468816616748
0.00142247763606949
0.0017625279252904
0.00180873716704286
0.00200303125893642
0.00204954303909279
0.00148852633912725
0.00193857397566221
0.00173225404473486
0.00148229736678735
0.00117669017414486
0.000798240962443969
0.00137195675415926
0.00153878501690216
0.00116513027243577
0.000901405855271337
0.000549208129730513
0.00167444307539826
0.00057966966146542
0.000330178516883364
0.000763448369257406
0.0008984433358389
0.00100018330569144
0.00107690073989361
0.000111774719340312
0.000627311827000291
0.000587009844679843
0.000531430712439592
0.000454444809394737
0.000338648563042864
0.000147211967595969
3.01490698123158e-06
1.66976852494381e-06
0.000817644767432817
0.000611038861446988
0.000973999458236648
0.00109899350989796
0.00119937970403438
0.00031971045516496
7.90313396851019e-05
1.69379980092323e-06
0.00127853043593442
0.000798222165615526
0.00076000781361025
0.000706870386398774
0.000639173386684863
0.000558185291538096
0.000460511713826731
0.000333575884733561
0.000175964810470369
4.51951288613297e-05
7.64117802430858e-07
0.00220356823472227
0.00232104976913824
0.00195080781802839
0.00229091267966827
0.00210990572925579
0.00178587369818666
0.00158370470497063
0.00113488194915274
0.00134185341254585
0.00065713486981785
0.000826099293670825
0.000187854088107989
0.00022479507888063
0.000258866247680259
0.000288611639257622
0.00014712811497894
0.000100935518556425
0.000310960221024654
0.000324161497131683
5.2003931559121e-05
0.000331196104576734
1.3757919464163e-06
5.17732868337416e-05
0.000117803398160774
0.000159363136466588
0.000188418155874084
0.000209729070891547
0.00022483214563532
0.000236165402496864
1.66498613075041e-07
1.06662996809651e-08
1.62661081878096e-07
9.22584616248698e-07
1.13858556716247e-05
2.58702631394737e-06
4.97924353990094e-06
7.97703998820789e-06
1.15208661554009e-05
1.55482413314707e-05
1.99205402171485e-05
2.42395619541674e-05
2.76580615507948e-05
2.94260647825131e-05
2.9968158327647e-05
5.90166251688546e-08
1.26117341779012e-06
4.21732892304394e-06
7.1518243935872e-06
9.61815537414834e-06
1.16675596140508e-05
1.32280293769508e-05
1.44782214784552e-05
1.58434865131863e-05
0.000246509625536587
0.000680924420993892
0.0011798861986331
0.00165854452280799
0.00206484919066959
0.0023675644088882
0.00254726790772422
0.00259158765785744
0.00249375909588031
0.00225347525710206
0.0018797203323556
0.00139609358927107
0.00085109744713617
0.000338210097217538
3.05679745522108e-05
0.00112643181122135
0.00157463111443401
0.00130903659569636
0.00145409623452216
0.00176978705750474
0.00196524047366137
0.000902457706265703
0.00134453797985158
0.00171129224746307
0.00201717329102711
0.00192967287772428
0.00218096749470193
0.00229976708907456
0.00227326111835728
0.00156702690190285
0.00209811880399152
0.00191463978518705
0.00169286107882746
0.00142250820849099
0.00108491965220685
0.000649764629153038
0.00151248261011998
0.00133086395214443
0.00166083659775923
0.00110470156790564
0.000809850754050319
0.000413075062443529
0.00178185642779865
0.000635771725312435
0.000373987330716957
0.000135808859310559
0.000821966149906324
0.000954875463210177
0.00105264737305511
0.00112472287041895
0.000105387542809396
0.000615253006020172
0.000653182575862799
0.000561593968102769
0.00048534712313188
0.000367420270086166
0.000166247699993969
4.07869892122193e-06
2.29999641379607e-06
2.70524724057166e-06
0.000937439257606843
0.000767888248815632
0.000542997606177726
0.00107327002562946
0.00118496559636573
0.00127522097803444
0.000283416023869637
7.4304071430925e-05
1.58643398014188e-06
0.00134597579320896
0.000836166286174042
0.000802312067560575
0.000753987836822721
0.000691811441921852
0.000618095604169951
0.000532689613191488
0.000430615179700001
0.000305731494687201
0.000166401584296101
4.02870497695973e-05
6.20289388448735e-07
0.00235889684776359
0.00253854521797376
0.00258376521581302
0.00205757268637174
0.00248772948048225
0.00225053668323363
0.00188120629920122
0.00165388318457276
0.00117802702785072
0.00140217131315451
0.000680576040218453
0.000860181692510089
0.000213534207170053
0.000176198094848024
0.00024847608062439
0.000280837672271737
0.000308898235030625
0.00013563316676395
9.13435308862342e-05
0.000329505966967149
0.000340904512023901
4.59635540828056e-05
0.000346223019866156
1.80106441498642e-06
5.92196218769732e-05
0.000129015565508847
0.000171511032972923
0.000200378523984392
0.000221022603842359
0.000235238955088128
0.000245644863973622
1.26086740387187e-07
7.51289653773071e-09
7.16093116802745e-07
1.18214458890489e-07
9.15001306756921e-06
2.10436995523245e-06
4.22256104476439e-06
6.96017800902148e-06
1.02834863641809e-05
1.41184481136715e-05
1.8358784132553e-05
2.28671992626319e-05
2.72437366857536e-05
3.05954385405282e-05
3.21545881346584e-05
3.24237257475908e-05
7.51028190032542e-08
1.53481963193524e-06
4.90564617668951e-06
8.1050881410126e-06
1.06959812315913e-05
1.27842868183011e-05
1.43211044689127e-05
1.55180006858927e-05
1.68329527441423e-05
0.000255119942549947
0.000702060385573565
0.00121861021442878
0.00172107246064576
0.00215902163387021
0.00250313602186068
0.00273566474038964
0.00284500557043849
0.00282354337507028
0.00266751171085369
0.00237819620683561
0.00196485530189575
0.00145033230755165
0.000881889354215564
0.000351787197850797
3.2789579075019e-05
0.000991286944255365
0.00121429704915188
0.00148628620113791
0.00190582657412328
0.00170491269370788
0.00139215557682261
0.00153066502324938
0.00188766657570501
0.00213876320565371
0.00226133351827131
0.000733829105781836
0.00123650244819127
0.00163876145955327
0.00196763075160034
0.00224130898830055
0.00233439555082391
0.00203515650379728
0.00251457031610411
0.00256220329857742
0.00247021841395434
0.00163643930443167
0.00223904369043096
0.00207482739943619
0.0018769915097344
0.00163808151183639
0.00134436341945082
0.000969952961400161
0.00048799663006708
0.00163565300127001
0.00147415539576952
0.00127793979530405
0.00176884612948891
0.00103247578866156
0.000713396498439804
0.000364580137603938
0.00187757805561675
0.000685408253569179
0.000413132570693967
0.000158438821904472
0.000128020403961017
0.000873751947545802
0.00100499633989638
0.00109942519778558
0.00116749755756888
9.85560958801162e-05
0.000640691456759545
0.000588733147120907
0.000676508960136939
0.000513162294412519
0.000393405956240207
0.00018397677063688
5.15050260310127e-06
3.11405545756733e-06
3.81757141731691e-06
2.52553881144778e-06
0.00103914502095428
0.000894258492807346
0.000714938002430697
0.00049569305125468
0.0011601749682589
0.00126136427657998
0.00134318496306748
0.000262051368212983
6.63828793851528e-05
1.27861097519945e-06
0.00140674666925809
0.000840704986740467
0.000870724147813751
0.00079653275712975
0.000738981065101406
0.000670858890018932
0.000593354610364913
0.000504983803338462
0.00040222645279791
0.000283249524294779
0.00015289588080272
3.4015905084796e-05
4.70282587505424e-07
0.00272619060479443
0.00249390763293574
0.00283613990745557
0.00281579539514962
0.00215137824471768
0.00266160097950596
0.00237542731317319
0.00196658646225378
0.00171622072113604
0.00121668489901628
0.00145670624284509
0.000701704771764696
0.00089128104334063
0.000236771771598245
0.000201403961208655
0.00016396861174582
0.000270094594084257
0.000300931440589523
0.000327511376459718
0.000124086385137988
8.16829700044538e-05
0.000346577144522355
0.000356343788979354
3.91263531517242e-05
0.000360082223218471
2.27788031560254e-06
6.6214266486213e-05
0.000139312173302081
0.00018259249823428
0.000211267011844722
0.00023130019401936
0.000244701671840954
0.000254240769895884
9.02651614799484e-08
5.01945201730075e-09
1.65826409878986e-06
5.27354020072304e-07
8.08803917584955e-08
6.95494619289625e-06
3.48304547515761e-06
5.94531405018527e-06
9.02400392999263e-06
1.26596685284986e-05
1.67304207501395e-05
2.11294923075243e-05
2.57439735072957e-05
3.01610966079122e-05
3.34346764416982e-05
3.47782210018265e-05
3.47711342436134e-05
9.18134559084399e-08
1.81437645007469e-06
5.58285892574797e-06
9.02744397698548e-06
1.17286455446691e-05
1.38455226665953e-05
1.53510680919877e-05
1.64883907832093e-05
1.77453931837749e-05
0.000262885710371644
0.00072106474029668
0.00125330072770743
0.00177674822463605
0.00224218964346281
0.00262181065940983
0.00289934996447035
0.00306424505596701
0.00310904928582393
0.0030288509177878
0.00282162294345129
0.00248941770871748
0.00204134442637007
0.0014994572242339
0.000909996307002741
0.000364293810964637
3.48994517196442e-05
0.00106848873332004
0.00136477187656522
0.000806478711968831
0.00129110663949072
0.00160789626843445
0.00182238027515441
0.00207256819745404
0.00220320649256201
0.00181774599728102
0.00146527209016661
0.00159839216224237
0.00199056259703797
0.00228857329166194
0.00247132031024649
0.00252391429110806
0.000552244736239036
0.00110250240265937
0.00154496213912186
0.00190024527449554
0.00219337678482679
0.00243868366232704
0.00270008916888996
0.00246780810584181
0.00212784734259287
0.00281173945477736
0.00279422898703522
0.00264418052865483
0.0016980933822172
0.00236409010528167
0.00221613524289641
0.00203830258696737
0.00182549019942107
0.00156891994035576
0.00125164586565498
0.00085040865004495
0.000429948167772939
0.00174425543418076
0.0015987746145583
0.0014251609231118
0.00121569425587713
0.00186491367289941
0.000956251160311116
0.000647837669324635
0.000335488533527291
0.00196321730245533
0.000729561754415447
0.000448480986476839
0.000179263729247741
0.000149013394187267
0.00011979836896964
0.000919828992392982
0.00104970993025452
0.00114126260096832
0.00120581481393193
8.82461421078174e-05
0.000663618433868662
0.000613177645605117
0.000538207989165883
0.000697524172229761
0.000416847613382529
0.000200089974575982
6.32865039561037e-06
3.9382479235756e-06
5.10759135161053e-06
3.58765128635212e-06
2.04438893337491e-06
0.00112696812731905
0.000998594557717089
0.000847097776877463
0.000666591772358298
0.000458816849086592
0.00123690529113909
0.00132959910343586
0.00140430768211815
0.000240708060042884
5.7057736245257e-05
9.7086466039577e-07
0.00146163530734048
0.000875615051172796
0.000835047253540475
0.000902226503668949
0.000781403346996421
0.000717799926001677
0.000645998229520236
0.000565872373849739
0.000476066986159299
0.000374700448276687
0.000260883912224539
0.000136597783434732
2.74037481633879e-05
3.3812432595509e-07
0.002889234239984
0.0030546030258979
0.00261208452848415
0.00310024935053798
0.00302117233597464
0.00223421732235574
0.00281576661724705
0.00248675080671422
0.00204326115498521
0.00177172318369879
0.00125131159730683
0.00150607738325512
0.000720697568116271
0.000919654915095756
0.000224014627239475
0.000257894629847392
0.000188311607719858
0.00015099228313923
0.000289806984735899
0.000319321399322294
0.000344612386549069
0.000111959174567786
7.13206096558655e-05
0.000362300138443444
0.000370572488513634
3.18896733979048e-05
0.000372842045670698
2.77361635962725e-06
7.27024023523136e-05
0.000148718951382991
0.000192685261149443
0.000221174450739494
0.00024063999584741
0.000253277066895988
0.000261991933501242
6.10584741561458e-08
3.13745543977332e-09
2.77388959188405e-06
1.24669673855295e-06
3.63140972128972e-07
5.02909679128927e-08
4.96301371776018e-06
4.93833789329368e-06
7.74481479622917e-06
1.11550135589192e-05
1.50534110017204e-05
1.93062721898857e-05
2.38319815843894e-05
2.85346119627281e-05
3.2978184766832e-05
3.61619903304064e-05
3.72840820462211e-05
3.69989834455262e-05
1.09169568716077e-07
2.09350685961037e-06
6.24099652178953e-06
9.91236585751277e-06
1.2710338652217e-05
1.48452749340457e-05
1.63121751158042e-05
1.73821577921205e-05
1.85748914322119e-05
0.000269839312662693
0.000738074040852747
0.00128431310869056
0.00182634180322775
0.00231584642668969
0.00272619876192657
0.0030424126852874
0.0032549906046041
0.00335703616329173
0.00334345282908618
0.00321101574717031
0.00295871377705607
0.00258885963295478
0.00211018015960831
0.00154396792760637
0.000935622787946675
0.000375775886370941
3.68895948010435e-05
0.00113628714026768
0.00147515876913145
0.000870326416814539
0.00171517009320072
0.00121519450220582
0.000608725851405973
0.00171342577995527
0.0013588062895541
0.0019798882785966
0.00212476767298707
0.00221668515738593
0.00240599933872776
0.0024671909821518
0.00191634563526372
0.00152999596538002
0.00165855988213763
0.00208101417768145
0.00241892026072103
0.00265287099402411
0.00276840472609136
0.00275617676092398
0.000486124218009496
0.000964429751231763
0.00143455020653324
0.00181614369595416
0.0021294556448747
0.00239177746697817
0.00261282201682074
0.00286133218561744
0.00302795855982084
0.00258459288689856
0.00220970329228167
0.00307576171858959
0.00299957436779863
0.00279830458438117
0.00175298600760463
0.00247544194785086
0.00234129335234591
0.0021801247633817
0.00198854600691051
0.00176125980149633
0.00148828357797072
0.00115469670227677
0.000769673091170729
0.000395120977686751
0.00170792213719204
0.00184051501825827
0.0015514776962529
0.00136735953618741
0.0011481358839312
0.00195070109842583
0.000888162215073537
0.000597559244388683
0.000307625362558161
0.00204005191091114
0.000480227890331266
0.00076896938139565
0.000198730925644509
0.000168625639094356
0.000139494029303885
0.000107604976018555
0.0009609781584872
0.00108971450447943
0.00117873796369016
0.00124013201670413
7.64839651867181e-05
0.000684267744828786
0.000635208065398525
0.000560778884255512
0.000437985844189198
0.000716409508847764
0.000214742179692282
7.49059012891487e-06
4.84665524066459e-06
6.5036768500751e-06
4.79434635188373e-06
2.9175121652818e-06
1.55703325568268e-06
0.00108709208372284
0.00120378284451684
0.000953143285047724
0.000798653837263572
0.000621388888878823
0.000423712089246538
0.00130509392446957
0.00139079239386341
0.00145942588196991
0.00021693143964902
4.72825769413075e-05
7.03826939474635e-07
0.00151128553760271
0.000907399288110692
0.000869996972124226
0.000819686963927336
0.000930947851323031
0.000759810343195668
0.000692438300775319
0.000617957943246631
0.000535958957725134
0.000445731116974059
0.000346232514484184
0.000236397747385582
0.000118416728361548
2.08140052348403e-05
2.28989696462684e-07
0.00303171982308155
0.00324467762083778
0.00334746153786184
0.00271602651765617
0.00333471658261213
0.00320333826099898
0.00230758038436097
0.00295284621219482
0.00258624169449801
0.00211223725391133
0.00182116092614782
0.00128226465280723
0.00155079547892808
0.000737693149168884
0.000945518283176967
0.000210058452614574
0.00024449269848023
0.0002771038694317
0.000174122086268707
0.000137042722273851
0.000307802518569508
0.000336183847352024
0.000360341426441078
9.8973277229577e-05
6.02491835229957e-05
0.000376778669596219
0.000383666215737158
2.4518367959882e-05
0.000384554714500238
3.2788573387884e-06
7.86740519225384e-05
0.000157297174274703
0.000201871050907144
0.000230176507768489
0.000249100898983384
0.000261007531424952
0.000268927528357636
3.77426986670692e-08
1.57717155731055e-09
3.96226233541261e-06
2.11290147707153e-06
8.77849997694311e-07
2.24437714106293e-07
2.6081634261921e-08
3.2099428217722e-06
6.46531621629287e-06
9.61198210067059e-06
1.33085944403127e-05
1.74167245194709e-05
2.18176028219989e-05
2.64511474253524e-05
3.12272365995026e-05
3.56825056121846e-05
3.87650059019594e-05
3.96592843655935e-05
3.90998357434089e-05
1.26657369429297e-07
2.36868773626126e-06
6.87476578793774e-06
1.07545753860257e-05
1.36354653184988e-05
1.5777884163828e-05
1.71966741925123e-05
1.8195616891225e-05
1.93167359665354e-05
0.000275999290345553
0.000753192687019012
0.00131192989639181
0.00187045605306311
0.00238113818988352
0.00281828032715412
0.00316796775332912
0.00342170582671197
0.00357328823872319
0.00361782573635257
0.00355175097980157
0.00337294367057846
0.00308091950300005
0.00267792156886416