/*--------------------------------*- C++ -*----------------------------------*\
  =========                 |
  \\      /  F ield         | OpenFOAM: The Open Source CFD Toolbox
   \\    /   O peration     | Website:  https://openfoam.org
    \\  /    A nd           | Version:  12
     \\/     M anipulation  |
\*---------------------------------------------------------------------------*/
/*   Windows 32 and 64 bit porting by blueCAPE: http://www.bluecape.com.pt   *\
|  Based on Windows porting (2.0.x v4) by Symscape: http://www.symscape.com   |
\*---------------------------------------------------------------------------*/
FoamFile
{
    format      ascii;
    class       volScalarField;
    location    "300";
    object      omega;
}
// * * * * * * * * * * * * * * * * * * * * * * * * * * * * * * * * * * * * * //

dimensions      [0 0 -1 0 0 0 0];

internalField   nonuniform List<scalar> 
10228
(
2.93334415774853
2.96064319258036
2.96350813983652
2.47469008983647
2.44248103211299
2.94198163215907
2.99299455672107
2.95665653589876
0.730225950884005
2.45215098310825
0.731932376738506
2.4044775775588
2.42539279675091
3.02238242449047
3.00033405126374
3.03463607644713
3.04377591124882
0.630311091160782
0.581105567840094
2.50624199840298
0.575277710530679
0.634642778158727
0.726637761652369
2.3786467035682
2.36519228612206
2.41877600948943
2.97390843456781
2.99901588693287
3.04482624752959
3.07872551391626
3.01839252174946
0.659703616196704
0.388806831172956
0.584051910057187
2.47352033303656
0.386676209810954
0.564618873205091
0.57160705742124
0.630707980951189
0.660125213710073
0.720862543656627
2.35771550848452
2.31066630402846
2.33138962150574
2.40498329726222
3.05610419993074
2.9847058675185
3.02105751304886
3.07319465690437
3.08920022828655
3.05712723308697
0.687516001375344
0.368423554053889
0.347927334762718
0.600119592251402
2.49502197077574
0.382122128645298
0.366831023596025
0.344464504505375
0.556417929433636
0.554801397226811
0.587417170688824
0.622822361191125
0.654341772497808
0.689859070417891
0.715265585963683
2.37667448793753
2.29353925530468
2.2653554747599
2.31570880181079
2.40609950606438
3.07772629892005
2.99655492036684
3.0025463543276
3.04315669480242
3.09233607255872
3.10441322146061
3.04133952911207
0.717050230007385
0.375017452876736
0.298861293393068
0.344888474641321
0.622595341051691
2.47713641790772
0.363308227895799
0.339283413240163
0.376700670375439
0.297322833135052
0.373698187543384
0.341144793550349
0.570692416551436
0.543826036554097
0.549093030320924
0.608126848921804
0.614220512909237
0.644984345958218
0.684417070043941
0.717324049577182
0.714340654169496
2.29336258109869
2.31908787530369
2.2440395238172
2.24625407100867
2.31166815378968
2.39992200036377
3.41256773533604
3.07763158978861
3.00140512122358
3.02299098617712
3.06385963023852
3.10290312143972
3.10114243681814
3.04746487985544
0.738847555692217
0.387840841394614
0.288987184758928
0.27912049026963
0.352687292136183
0.641597561043334
2.47744822927689
0.370526199361054
0.358819452268965
0.294632518659934
0.335588758721117
0.33402079062968
0.371623654868725
0.288005809456467
0.27772542336791
0.386336126767183
0.348684286108457
0.59022461297548
0.556727801248605
0.537028953433446
0.551092833096521
0.627570082676368
0.604649247894785
0.635461640615482
0.67490389865982
0.71132116523191
0.739777778937674
0.721311701518519
2.34880711927163
2.19723128411419
2.26653116136666
2.22078910154788
2.2423138119467
2.30858631091537
2.39534328787845
3.96112726185701
3.38727566003355
3.08930598533613
3.03247251255776
3.04876269410822
3.07801138174501
3.10403926920519
3.09813218289182
3.0417106255399
0.759227323169306
0.401094456277913
0.290973186373264
0.258313438851395
0.275839535502915
0.363302000068282
0.660007984873683
2.47083288357145
0.286149499745222
0.38314112557189
0.366455347714617
0.291619618166237
0.354696830849081
0.275311389373333
0.342797903152097
0.330109142768357
0.330055755611059
0.369301301910477
0.257676658752455
0.290115610216861
0.274462282414096
0.399534796673969
0.35919642205321
0.575511335693146
0.609447783616099
0.548690395661296
0.53870005581508
0.572484242588568
0.645447763705051
0.596758923624704
0.62704677037529
0.665812872549375
0.701900534231147
0.733904437424398
0.759237363757036
0.874688758861852
2.47411472882944
2.42132770044612
2.14804542246507
2.22757321367142
2.21502793569627
2.23979254345338
2.30304245191035
2.38957271152932
3.98454539997751
3.38429181846274
3.13374544459249
3.07185547127727
3.06829439164569
3.08139288514158
3.09874572852234
3.09206023384252
3.04080916631707
0.776279943312602
0.41388332524788
0.296952298851375
0.252875556937482
0.24744205053461
0.278816648432749
0.374534783528399
0.676222380872836
2.46866898858589
0.25640282035862
0.288539141991627
0.284114199436218
0.396302270600511
0.379264713904132
0.363191643518044
0.272688034360684
0.289569550587661
0.354438072305651
0.272058980703579
0.353081723147529
0.337027052249481
0.326128486677666
0.329915172867004
0.386967178849395
0.246939679784619
0.252484816022761
0.296107527848028
0.277387572672102
0.412162154122632
0.370272531730735
0.566688861246461
0.594349895678726
0.626880042817542
0.546718635407045
0.556194028583585
0.661472482194911
0.734255828043676
0.631916811812442
0.659847517502273
0.693312941475776
0.724541242915654
0.752952609542028
0.776044632324904
2.42304838411072
3.34281394003908
2.40073356072367
2.16214924801986
2.21574796645809
2.21278557213407
2.23431072380504
2.29713054762819
2.38573609883853
3.93584024790839
3.43956732638239
3.18913254764056
3.09753974814673
3.07484171849469
3.07704669536246
3.09204638526071
3.08790638573115
3.03970469229328
0.79176584973394
0.425689913001987
0.304267918982737
0.253625308159204
0.236647931427307
0.244941239717772
0.284297003913717
0.385438523777606
0.691211352259213
2.46721285846169
0.25166103263318
0.255059492366244
0.245842197666425
0.286984186575948
0.294624705712573
0.283351731792256
0.408809119775799
0.392513987805502
0.376593318664229
0.365022850579966
0.269395822347046
0.270977547925037
0.291750527688934
0.378484747438962
0.274876945691964
0.363912551123891
0.347028444348558
0.3326573695745
0.325188200207047
0.344156611636036
0.60266310777496
0.236455019730845
0.244441085037748
0.253305006155674
0.303399455804795
0.282784735628276
0.423869237879818
0.381047341766487
0.585115782244612
0.562373291988091
0.611413661902209
0.64254307675023
0.550419878803408
0.676133112786475
2.34197553591902
0.758151843238948
0.668206898578858
0.688365697508312
0.716215245915478
0.743487778403415
0.76948822511011
0.791132960890054
3.32881084425849
4.55077481046686
2.34602068617911
2.14776741119003
2.23452782965404
2.2141192693024
2.20748216348818
2.22788253146304
2.29251742283539
2.383440882473
4.03451152542943
3.49230021699271
3.21861890817565
3.10691491441224
3.07209389150517
3.07038533288376
3.08646882946308
3.08522954838644
3.03975435627424
0.80570143529659
0.436601151956665
0.311865415799542
0.257055408519661
0.233501646380804
0.230150170809004
0.246287193152141
0.290720568469585
0.395808162851632
0.704967715325929
2.46689522727588
0.252666709661417
0.235897593607785
0.250961821163873
0.244586856731511
0.254775328536506
0.243315170929668
0.287061318120025
0.293329114212402
0.301940422320775
0.287670509209559
0.42042239581622
0.405038221191111
0.390225331078703
0.37977193551044
0.392855780237413
0.267355032366401
0.272013607944594
0.272207833133319
0.310005870218884
0.594606470189131
0.280122441584594
0.3744674351618
0.357578327592883
0.342243863272423
0.330224424034278
0.331764774526521
0.409181020078679
3.01866887263268
0.233410609659907
0.229993442090153
0.245738488780712
0.256755075773892
0.310979749975202
0.289129041572384
0.434697629896787
0.391293914149185
0.601909739542472
0.579840226490037
0.561225620889769
0.626696401916912
0.656811239027432
0.565060232359151
0.689628746556654
2.4284526135421
0.788970197866038
0.698121896576258
0.711784380586536
0.735273748207771
0.759874066746324
0.784282786900382
0.804836577140002
5.01509193282196
3.10207749963617
2.27411150516158
2.15460844671457
2.26153344129887
2.22442034427398
2.2083047198382
2.20057994928845
2.22270272182021
2.28965627624323
2.38236377475462
4.01735566160841
3.52454771597719
3.22905710121138
3.10562995456102
3.06613140204756
3.06461728700934
3.08284735444034
3.08396029740266
3.03982562786664
0.818393286207772
0.446657985347937
0.319338256398748
0.261653258457643
0.234003098832468
0.224014873210996
0.228424946455822
0.249478074480353
0.297419262879116
0.405563816233296
0.717640469287922
2.46679053956172
0.252321097684692
0.233085269668543
0.256205942060198
0.22945241898888
0.235352581997994
0.251589883881015
0.241903210867914
0.243947376567191
0.257902442243343
0.244507096436639
0.292885872223581
0.293961203437413
0.300800249712774
0.309533354640197
0.309787361556438
0.431170933926746
0.416651945325231
0.403010338815154
0.394311162712304
0.41026426879104
0.608084088462345
0.266943873697202
0.269501524379881
0.277022063026485
0.281150280817885
0.393262774847609
3.30360537831067
0.28632005946362
0.384513415044986
0.367874065077907
0.352445231740778
0.338731968743032
0.330362853406486
0.350590000665403
0.749621305357546
4.65865405731481
0.233948671263412
0.22397654729133
0.228238946249834
0.248874336657722
0.261365372939337
0.318441563112798
0.295759386093543
0.444699583778826
0.400943725893877
0.596207802113888
0.616908253497362
0.575600661196086
0.561351754762918
0.640606755362443
0.669953442442163
0.576576114405111
0.702073175620487
2.4111239428683
0.818537890507728
0.722547420319881
0.731209761087914
0.751695745985799
0.774518826828128
0.797760179020184
0.817352157368402
3.1831489081328
2.94984523647159
2.3626617732365
2.19628630523527
0.767295385108931
2.26525913964641
2.23190618249149
2.21528543092499
2.20096011937425
2.19480755322473
2.21938749352354
2.28813596957624
2.3819044064877
4.06598075623168
3.52954906525851
3.22834343679974
3.10042318490173
3.06063609466772
3.06073442993323
3.08085084801398
3.08341502819609
3.03994263642391
0.82988383295626
0.455920088206505
0.326504680676324
0.266716993208418
0.236330679397293
0.222228292395445
0.219945422513898
0.22919314102734
0.253562745919276
0.30408135850425
0.414693135629749
0.72925411958908
2.46680339160775
0.256080074423431
0.253548910866168
0.232926152737388
0.233737846675495
0.223688745336013
0.260874600253731
0.227615610476277
0.228769006049885
0.235592862983162
0.256081084767341
0.242874657935672
0.240725007840622
0.245119806215032
0.269762989405802
0.24752853539478
0.317674234386181
0.300831702399033
0.301821570369033
0.308502912230193
0.317006098478457
0.400554216403328
0.441112802340801
0.427395421901398
0.414815658714205
0.407772158198171
0.426629481769663
0.629009517424369
3.2413170644985
0.269601919737421
0.267790861500769
0.274090405705053
0.283002824777499
0.307140966860968
0.737481542398782
5.05110430682481
0.292823480885707
0.393988158978943
0.377691272717198
0.362458564122994
0.348300790125971
0.33603593511746
0.33322682230692
0.390313370235634
0.657754653117726
3.14514132987044
0.222232825546491
0.236298303964086
0.21988599233114
0.228964417497464
0.252911807078321
0.266441641660732
0.325602683570876
0.302364660119456
0.453921873798481
0.409981086736147
0.590932856145108
0.611011931672205
0.630556590695557
0.570394825190079
0.557746563898484
0.653420803112557
0.682089690789393
0.566804426789916
0.71351003484134
2.41955515316451
0.843125242407691
0.742974929854669
0.74791697352658
0.766336686258038
0.787854723603573
0.810100163096862
0.828744442449438
2.97338144938118
2.90893689857734
2.35450589973612
2.2845954383097
0.719927987569555
2.24531975468491
2.23049528918166
2.2181144041383
2.2075219229548
2.19469790967696
2.19103912828657
2.21756813268145
2.28743081047476
2.38173913908047
4.0453313293927
3.52946218240698
3.2236314044868
3.0952787907415
3.05682712421073
3.05851324799081
3.07990059101268
3.08322727295677
3.04001425419102
0.840262930732797
0.464416490119141
0.333279949065344
0.271893023900346
0.239582755768833
0.22276428201967
0.216332636386096
0.218839661102511
0.231320155488945
0.258056009598168
0.310550290678948
0.423193188174445
0.739873819134247
2.46682449539986
0.257726095670011
0.260904754183555
0.233814120529117
0.258993434205634
0.233737532253134
0.223394220311981
0.236160901295027
0.222067195740247
0.21952449457144
0.265997644359752
0.228240749161684
0.226713509824065
0.228411630911162
0.237900273630536
0.269979574662265
0.241216760153028
0.245691383047973
0.24035290762341
0.249858622166387
0.300257163133201
0.251467694434469
0.327494244312212
0.414000719175764
0.309457237744873
0.30981465569214
0.316061420126652
0.324178277207838
0.750237546047378
0.450288385925969
0.437330022580487
0.425707257732649
0.420102720256897
0.441547721725855
0.646434171083979
3.25604549847162
4.9713936525135
0.267143594129658
0.276657877848498
0.271532739848925
0.279745694159127
0.289326476573259
0.358752600343267
0.670813313736265
3.26181748758348
0.299323579707342
0.402873948984836
0.386969245338359
0.372048858277815
0.357941754130905
0.34436373459079
0.333576876800154
0.337202873001381
0.385009853336357
0.615503579422624
2.99384101504179
0.222792898437809
0.216317427529714
0.239570059662322
0.218741815051298
0.231054025648163
0.257367675001957
0.271629779615796
0.332374685560891
0.308786211429394
0.462390443223624
0.41840261664839
0.584208673402873
0.605485423098975
0.624492824162107
0.643137161563149
0.562772056949839
0.546704366410847
0.665272066558356
0.693265916466175
0.551180522012703
0.723986733419956
2.40950399993545
0.864834126891836
0.760607968393469
0.762781489360572
0.779647018197901
0.80006872615472
0.821367878966208
0.839067587161301
2.9119638633319
2.89675869102122
2.34949397922304
2.27707425850259
0.70372474056941
2.23193093840036
2.22179422334675
2.21626834930114
2.21036760293226
2.20107612067863
2.19051555136757
2.18894273129998
2.21669174889646
2.28713934575008
2.38168748337086
4.05121084068223
3.52439149501707
3.21878733967125
3.09161062282575
3.05460271735625
3.0574052461084
3.07950062709683
3.08317329389817
3.04004769562796
0.849601861990296
0.472175097228966
0.339617572048435
0.276988057454205
0.243278261962318
0.22458342689136
0.215420478076356
0.213746470182425
0.219442849330426
0.234199595352593
0.262691215551373
0.316740110575983
0.431074119539476
0.749563776160464
2.46683820679242
0.263862213989621
0.235018836844561
0.262861078488533
0.266148501038458
0.236401285337772
0.22200355559653
0.2743165635008
0.236842392447277
0.223561614459771
0.219005004157452
0.239489889824612
0.222702627399201
0.216078355254207
0.218283695556904
0.271224962369703
0.230243609259791
0.227133421172017
0.225826663173727
0.228986733824547
0.244119586919886
0.303392363900527
0.243668626598142
0.239825873341607
0.249466290670241
0.241280004581603
0.259724165588553
0.357318932411862
0.255845858558615
0.337523736598241
0.427472457235513
0.772004141102992
0.318036110772918
0.317600625512149
0.32330243579438
0.330959798655379
0.695020039923741
0.446497089354709
0.458720430906763
0.435757221836877
0.431420903130937
0.455028323273589
0.662771895494776
3.22613162856628
5.00221093169546
3.26659509009907
0.269247799717532
0.267443515976777
0.286284493821814
0.276662093468572
0.285829756685562
0.295683161678244
0.359736722186844
0.634448743155417
3.01153699434461
0.305658472965277
0.411164743821397
0.395687637716564
0.38114455936769
0.367292324453397
0.353444859919443
0.339970974231689
0.3302503744723
0.332439158553189
0.369492297157734
0.596764673578707
2.94835620943578
0.224632731753736
0.215428101285996
0.213692320333168
0.243283610740126
0.219310769038321
0.233905050715581
0.261973691010918
0.27673533773993
0.338709580469149
0.314936137073788
0.470128392503066
0.42621575974754
0.598471552354013
0.57556922263224
0.61886778744779
0.636932600872078
0.65479118147998
0.552075363956847
0.533047651913131
0.676207256750494
0.703521084393531
0.537638823542637
0.733557106237834
2.40534948758315
0.883712948964314
0.77629052376347
0.77626445255223
0.791824091724129
0.811228873825745
0.831601445434405
0.848375440006836
2.91093425878155
2.91778076839671
2.27198643331627
2.34871472552772
0.695626171992868
2.22726843844899
2.21335306371686
2.21229123002479
2.20970719829482
2.20421379160452
2.19664403212877
2.18815874680418
2.18791904485415
2.21631500544867
2.28703080904378
2.3816757628641
4.04343377968761
3.52029816492115
3.21532818855446
3.08944124347738
3.05346982091834
3.05691325263735
3.07934949066984
3.08316282186678
3.04006141987784
0.857970638456256
0.47922318221227
0.345492833238624
0.281888550458685
0.247141028579573
0.227111879894392
0.216072991518099
0.211646096545348
0.213134389090741
0.221065047648183
0.23748344162288
0.267310900596788
0.322602443851677
0.438354005646102
0.758391719175127
2.46684132153064
0.280231583442331
0.269521979803238
0.238701280753932
0.222527721339075
0.237895032066046
0.26834675046777
0.271473223801377
0.239856014450989
0.222796423401027
0.215780055003221
0.309697670603321
0.24410635631838
0.224805984085251
0.218603771562604
0.217552445590761
0.224600135363874
0.243251081817147
0.215261481467888
0.213354613151297
0.21876878042349
0.276362897017811
0.233028453180013
0.228974412736593
0.225848526878037
0.225258468638973
0.231045981516358
0.255825185386297
0.36398732103728
0.2471851309451
0.241642710970595
0.238804933983737
0.253720850533863
0.243504079019933
0.272534705063965
0.362374837436708
0.260392002026117
0.347194383086073
0.440255261387554
0.788528651645467
0.719000485677884
0.326292355467059
0.325026495296311
0.330139668467134
0.337301884385556
0.661520117405377
0.454919850201614
0.445015545566115
0.466428501621931
0.441825944514028
0.467338264965624
0.677012491372781
3.21860275019408
4.9571536637421
3.27286443279374
3.03146650644804
0.273551191561614
0.266928238081409
0.26743499284059
0.285675685373411
0.282420059997222
0.292012560291566
0.301904343976547
0.348779421767619
0.615863065938219
2.97893409739132
0.311736431345017
0.403836141573867
0.418864473432679
0.38971568430166
0.376222325173879
0.362514238926457
0.348316367017205
0.334561799794065
0.323957822030496
0.322943802310059
0.356287316804173
0.583940110652448
2.95214327410365
0.216099781363255
0.227180359096855
0.211612507593433
0.213045316448906
0.247162095943079
0.220907717885021
0.237168379314865
0.266570437316196
0.281644285147283
0.344582001013528
0.320764448177855
0.477160272742153
0.43343644926271
0.61180167116815
0.589715996672739
0.565113956981074
0.631225766050163
0.648469719402983
0.665560134035348
0.539685624791026
0.519885889323477
0.686254833371174
0.712901453261818
0.526113011001521
0.74227952922297
2.3976017814397
0.900734151470489
0.790477897022325
0.788574674454734
0.80294301142781
0.821371525114315
0.840842526149463
0.856726001990356
2.92377496751797
2.93308967880842
2.22375396954262
2.26884822549948
2.34633921772024
0.689349399415194
2.20906938710183
2.20879835928053
2.20800776287713
2.2043221231567
2.19978735570407
2.1940929274813
2.18699738872036
2.18747340168471
2.21616850097634
2.28699705868687
2.3816780667407
4.04239437736319
3.51740055558508
3.21329374947674
3.08832762465776
3.0529558229327
3.05671497276932
3.07929855820425
3.08314657264292
3.04005943055333
0.865434060708006
0.485589422791866
0.350894811638818
0.2865249485827
0.251002380102591
0.230010301093039
0.217649008031684
0.21133277447412
0.210048914742612
0.213748685503967
0.223299350887307
0.240958311029749
0.271817284771801
0.328111455310712
0.44505665262504
0.766416039300362
2.46684125135358
0.286696683466178
0.246731564256755
0.317057962701304
0.275424153089497
0.242013415685552
0.224258524657503
0.223580466337285
0.215705133654031
0.241573473577059
0.273866800798433
0.276690796664461
0.243718346425108
0.224813452165653
0.215110866833745
0.21283579962541
0.372515499722006
0.257076434081536
0.227682609889173
0.218619337267222
0.216726359269776
0.217872119833687
0.215987703730538
0.227195881544967
0.247169272409749
0.211343300616878
0.212622016984128
0.220303195313255
0.281298034147133
0.2362439429813
0.231641957850164
0.227412986930312
0.224568853651525
0.225163884686325
0.234593064599074
0.270638111270318
0.371431051488821
0.251262736273437
0.244771129769779
0.239614552920953
0.237955335600227
0.258176099029442
0.245616504360319
0.274518475359768
0.353587263728473
0.264942557536307
0.3563585780416
0.452024490397281
0.803954166594482
0.738559046738566
0.685433308813776
0.334108481173695
0.332016087237356
0.336526783317358
0.343179089833293
0.642948683075117
0.46261799251893
0.453511428914794
0.451382270306249
0.473434975417646
0.478604686108419
0.690453720737463
3.20080415886425
4.94180733080082
3.26037498497836
3.03632537510818
2.99925132074685
0.278876794650515
0.270126451250464
0.263961167126846
0.264251084859163
0.279214857552299
0.288396801003528
0.298106393917189
0.307891182249367
0.336906475200409
0.601396276923794
2.98634313211537
0.317504152922717
0.411413351597668
0.39774323845044
0.425985920372635
0.384672139644716
0.371282471106803
0.357076107699366
0.342224354646658
0.327597332943758
0.315338675516995
0.312011810784271
0.343585269255593
0.571400853810828
2.96197195455537
0.217693955825703
0.21131610191906
0.230095827192912
0.209978337122172
0.213634181294677
0.251036577511363
0.223124910372009
0.240628676437654
0.271058516216542
0.286287214488142
0.34998094470547
0.32624410690063
0.483513155625987
0.440087073812638
0.6030589361448
0.624116194582934
0.579459298889943
0.553329158735631
0.642688178686216
0.659142645717759
0.675465322618928
0.526689787129501
0.506923324316589
0.695450086416928
0.721454230907581
0.514725346641542
0.750210789221811
2.39307377959013
0.916183506994955
0.803390075003341
0.799798442355467
0.813044481530214
0.830535154754178
0.84914043245047
0.864175678524106
2.93200931974705
2.92380103322977
2.20706772240039
2.22026898787758
2.26504132159882
2.34583502975879
0.682553834214186
2.20706254197263
2.20681936426209
2.20366074763948
2.20012191983731
2.19714736291666
2.19281959555475
2.18648900293336
2.18729866678326
2.21611916311142
2.2869819859467
2.3816812502769
4.04128860432204
3.51588389296065
3.21226386870012
3.08782020683262
3.05274408740355
3.05664209534203
3.07925000122194
3.08318578792908
3.04005787862063
0.87204096650196
0.491302426500935
0.355822026857206
0.290854469892652
0.254754758822972
0.233065985969709
0.219761512672224
0.212115895045642
0.2089278965598
0.209840363753404
0.215140191116612
0.225889969759658
0.244486465978892
0.276148315517484
0.333256248955818
0.451210856747631
0.773708135858895
2.46683974593466
0.293253883495118
0.250630106544431
0.324641752342753
0.22774242172767
0.260628572253279
0.381522459447909
0.246034405907284
0.281286648952322
0.225678383802942
0.216147421132451
0.225797625970758
0.215272174699574
0.21231497469502
0.245615312192305
0.279245715787836
0.281691407522344
0.247719460635879
0.227505245214919
0.215948380425405
0.210963779608083
0.211931965989691
0.381673034231203
0.273247506026041
0.232174313736275
0.219209518430458
0.215977788064249
0.21675375893737
0.219289275774199
0.217627634654838
0.211097690641109
0.230151904519124
0.251076505510232
0.209620286643862
0.213147848099501
0.22247724204957
0.285961899103048
0.239670376853157
0.234776132008175
0.229897130764729
0.225701751590147
0.223348998590743
0.225367500845381
0.238126105934696
0.274340561991355
0.363788027172074
0.24861275180071
0.255597983268875
0.242210699121527
0.237424249693125
0.236624794693633
0.262659745833719
0.244424594216018
0.269963098529802
0.34268672710682
0.269394483372052
0.463021960854678
0.364957402497724
0.817079394736302
0.755210286147346
0.705006813549328
0.666459419725771
0.341430092639791
0.338530331363474
0.342440308409524
0.348580829873041
0.627642962227809
0.469614177277405
0.461268791639846
0.460130525305203
0.488917516761587
0.479765670250281
0.702884947002217
3.19250435030447
4.91093010801365
3.24611735337975
3.02802348486956
3.00410436515963
3.00760912225152
0.274951310621549
0.284616574425804
0.266078245558626
0.259547696319576
0.258377115508101
0.270442464831534
0.294356042096043
0.303997724855733
0.31358442775524
0.324833273309103
0.586033814909613
2.99479239867607
0.322932049139907
0.41842739985524
0.405218751236003
0.392606397548608
0.432548433154245
0.379626894675263
0.365690767104436
0.350729587859894
0.335010561648791
0.319206427867381
0.305374181118682
0.300403441534937
0.330256030196323
0.557965881723826
2.96529566700496
0.219823015912921
0.212115714806639
0.208872211847631
0.233166085725463
0.209742937402223
0.21500897864815
0.254799722719092
0.225704524499091
0.244146498465801
0.275374680776383
0.290621726693526
0.354905026926825
0.331363266638675
0.489215054575021
0.446194094178771
0.592882910968381
0.61535743868142
0.635521006249504
0.567896242639508
0.540558882035082
0.653295640627928
0.668965456924284
0.684534389290106
0.513051497967108
0.493369420609757
0.703835500019975
0.72923156942473
0.502909455083535
0.75741561462417
2.39028609475708
0.930276251169776
0.815129195899918
0.809985059015507
0.822169397111906
0.838766335710723
0.856545600231294
0.870780386714118
2.93583886583162
2.95713776434728
2.20611034491874
2.20380049189387
2.2154500971396
2.26804300318133
2.36559470856337
0.675891258156237
2.20655810498079
2.20340444925853
2.1997846613087
2.19749063663045
2.19580409067606
2.19225848831062
2.18628974953034
2.18723808442888
2.21609551002829
2.28699823391728
2.38168029020506
4.0415613632379
3.51515610646832
3.21179707473268
3.0876110363668
3.05266369820651
3.05660239668989
3.07930793832664
3.08316840323303
3.04005788247027
0.877848057766108
0.496391688339337
0.360279130089995
0.294851665247622
0.258328072215405
0.236139885893755
0.222163301327387
0.213572522303494
0.209043482951921
0.208039707956969
0.210540771474408
0.217021479840363
0.228667769151293
0.24797624396807
0.280265405624792
0.338036729245404
0.456847887533001
0.780352589935187
0.332136984185817
0.255119540811951
0.299670418928902
0.229628387244852
0.265242596971078
0.390365721096243
0.217255684846454
0.232939191421558
0.277799858041721
0.391855328746145
0.250354430566314
0.228182698609097
0.286953963803163
0.216037960410096
0.211956707607028
0.216291337309753
0.228649429902183
0.210663084223852
0.211106076125282
0.249763935421448
0.284381322310248
0.251695207150991
0.286409310405046
0.230540254856679
0.217677904846711
0.210822591136247
0.209063750569628
0.212337872906265
0.374789078312951
0.278176966374733
0.236720739785739
0.220193647031787
0.215366758341172
0.215543435816447
0.217980445598521
0.221385104728732
0.211940225655311
0.219795733130099
0.208561911117863
0.233256054001514
0.254866522028755
0.209319874560403
0.214480284346369
0.225028471585398
0.290313142515193
0.243164290096077
0.238147384390828
0.23291308719661
0.227928589173773
0.223884929721203
0.222068959141795
0.225189360459722
0.238304388369341
0.271060557305314
0.353466262910255
0.245765793205332
0.252803714320116
0.259999663986833
0.239399772455507
0.234781618643043
0.23390715876531
0.267061611817282
0.240335198604788
0.262631069781954
0.331115908540599
0.273681761441316
0.473272511808745
0.82970994767621
0.372966945097943
0.769794367686498
0.72142537449446
0.685618978129037
0.650502721346989
0.348229151703349
0.344550754357589
0.347871405820505
0.353506254518537
0.610857431748982
0.47593453015073
0.468313469703942
0.468103613636108
0.498327967028261
0.714389301568777
0.485447879216871
3.1868734284807
4.89532847186856
3.23124748330002
3.01425699106073
2.99546181130858
3.01213344477139
3.01563607774666
0.270465479339446
0.280449100508026
0.290438786681012
0.261150145427923
0.253726927270275
0.250921461639394
0.260735742832377
0.300155574523857
0.309616963257723
0.318950036086211
0.312038609038635
0.568754655925631
2.9947625174394
0.328006304363911
0.42489447754184
0.412144989368724
0.400006471185298
0.38748533965032
0.438576582558836
0.373943125287459
0.359228261016712
0.343423208661726
0.326722436879243
0.309725832611935
0.294543599676382
0.288130353065568
0.316198137798709
0.545258943054236
2.96780581388503
0.222239235986189
0.213587817123795
0.209002789497588
0.20795571980463
0.236252199556445
0.21042586918008
0.216880117766731
0.258381851690648
0.228475559686495
0.24762881669926
0.279479278207717
0.294622754367563
0.359359006068158
0.336120662458409
0.494293821192565
0.451787221101081
0.581409581555405
0.605175944060499
0.626709820281243
0.646065647656079
0.555123899567325
0.52651993042605
0.663060551554142
0.677960544127725
0.692805655543669
0.498261733393103
0.479259570287671
0.711459588963027
0.736300883596698
0.492527126205212
0.763995141600133
2.38919053843879
0.943075988378204
0.825760916343237
0.819181127242698
0.830365293545598
0.846114359007496
0.863115238600541
0.876578946902092
2.9510659589547
2.91143612923146
2.20623425346863
2.20312084357587
2.19825999168993
2.21803832303274
2.29446168428478
2.39560718893061
0.67345143787488
2.20370316187432
2.19980729744495
2.19720843720386
2.19611674667654
2.19520613584776
2.19203835150045
2.18621991745766
2.18721997174059
2.21611171255147
2.28699767400933
4.04174786257808
3.51485085449415
3.21161791127631
3.08753132328139
3.05263844675118
3.05662068956516
3.07929230522201
3.08316912669374
3.04005785227368
0.882888188843825
0.500879272817306
0.36427423652116
0.298502517295616
0.261676487782059
0.239138736206799
0.224689768186073
0.215428683656656
0.209945447801319
0.207589902424311
0.208166071574262
0.21183921640115
0.219199171480575
0.231517035077396
0.251365799290043
0.284145844561948
0.342459267824446
0.462000107654021
0.339372961702324
0.398954894648208
0.270313250848072
0.232501975650651
0.259826840612671
0.305817487573943
0.217548127678197
0.23537118988483
0.283190323827887
0.401625630651232
0.218837117850497
0.211814033065899
0.2382472977576
0.283633079938406
0.385479309478721
0.25473434858926
0.231265792422367
0.217310618829673
0.292335959312232
0.210602603258768
0.210265332439476
0.210691405048652
0.218166148815354
0.231815427286836
0.208448260354046
0.211315199660848
0.253862590703394
0.289213110106779