/*--------------------------------*- C++ -*----------------------------------*\
  =========                 |
  \\      /  F ield         | OpenFOAM: The Open Source CFD Toolbox
   \\    /   O peration     | Website:  https://openfoam.org
    \\  /    A nd           | Version:  12
     \\/     M anipulation  |
\*---------------------------------------------------------------------------*/
/*   Windows 32 and 64 bit porting by blueCAPE: http://www.bluecape.com.pt   *\
|  Based on Windows porting (2.0.x v4) by Symscape: http://www.symscape.com   |
\*---------------------------------------------------------------------------*/
FoamFile
{
    format      ascii;
    class       volScalarField;
    location    "300";
    object      p;
}
// * * * * * * * * * * * * * * * * * * * * * * * * * * * * * * * * * * * * * //

dimensions      [0 2 -2 0 0 0 0];

internalField   nonuniform List<scalar> 
10228
(
83333.3319855359
83333.3319855475
83333.3319853489
83333.331985634
83333.3319856423
83333.3319855615
83333.3319853576
83333.3319849999
83333.331985456
83333.3319858506
83333.3319854606
83333.3319856539
83333.3319858545
83333.331985581
83333.3319853698
83333.3319850066
83333.331984485
83333.331985105
83333.3319856974
83333.331986212
83333.3319856963
83333.3319851095
83333.3319854692
83333.3319856717
83333.3319858636
83333.331986214
83333.3319856045
83333.3319853866
83333.3319850177
83333.3319844906
83333.3319838214
83333.3319845631
83333.3319853479
83333.3319861141
83333.3319867126
83333.3319853484
83333.3319857012
83333.3319861087
83333.3319851177
83333.3319845702
83333.3319854833
83333.331985695
83333.3319858786
83333.3319862196
83333.331986711
83333.331985632
83333.3319854074
83333.3319850325
83333.3319845002
83333.3319838278
83333.3319830477
83333.3319838776
83333.3319847824
83333.3319858091
83333.3319866407
83333.3319873386
83333.3319853522
83333.331984789
83333.3319858022
83333.3319861096
83333.3319857115
83333.3319866354
83333.3319851302
83333.3319845807
83333.3319838839
83333.3319855027
83333.3319857228
83333.3319859001
83333.3319862308
83333.3319867124
83333.3319873364
83333.3319856583
83333.3319854313
83333.3319850514
83333.3319845149
83333.3319838362
83333.3319830527
83333.3319821795
83333.3319830913
83333.3319840665
83333.3319852358
83333.3319863808
83333.3319872808
83333.3319880815
83333.3319847989
83333.3319857981
83333.3319853601
83333.3319852385
83333.331984076
83333.3319863712
83333.3319866324
83333.331986115
83333.3319857279
83333.3319872751
83333.3319851473
83333.3319845949
83333.331983897
83333.3319830979
83333.331985527
83333.3319857509
83333.3319859283
83333.3319862484
83333.3319867195
83333.3319873337
83333.3319880769
83333.3319856837
83333.3319854525
83333.3319850749
83333.3319845339
83333.3319838499
83333.3319830609
83333.3319821857
83333.3319812309
83333.3319822188
83333.331983257
83333.3319844853
83333.3319858381
83333.3319870537
83333.3319880296
83333.3319889286
83333.3319840903
83333.3319848113
83333.3319852414
83333.3319863612
83333.3319857973
83333.3319853727
83333.3319844947
83333.3319858355
83333.3319832675
83333.3319870433
83333.33198727
83333.3319866329
83333.3319861253
83333.3319857506
83333.331988024
83333.3319851736
83333.3319846146
83333.3319839145
83333.3319831111
83333.3319822245
83333.3319855482
83333.3319857786
83333.33198597
83333.3319862733
83333.3319867314
83333.331987334
83333.3319880716
83333.3319889239
83333.3319856897
83333.3319854666
83333.3319850984
83333.33198456
83333.3319838699
83333.3319830747
83333.3319821942
83333.3319812374
83333.3319802069
83333.3319812669
83333.3319823682
83333.3319836347
83333.3319850836
83333.3319865529
83333.3319878274
83333.331988883
83333.3319898761
83333.3319845048
83333.3319832837
83333.3319841062
83333.3319852436
83333.3319848268
83333.3319858293
83333.3319870307
83333.3319863523
83333.3319857995
83333.3319853953
83333.33198509
83333.3319836478
83333.331986546
83333.3319823783
83333.3319878174
83333.3319872646
83333.3319880173
83333.3319866371
83333.3319861382
83333.3319857779
83333.3319888777
83333.3319852034
83333.3319846435
83333.331983936
83333.3319831287
83333.3319822373
83333.3319812723
83333.3319855309
83333.3319857814
83333.3319860363
83333.331986313
83333.3319867509
83333.3319873435
83333.3319880677
83333.3319889173
83333.3319898713
83333.3319854861
83333.3319851176
83333.331984592
83333.3319838995
83333.3319830959
83333.3319822085
83333.3319812464
83333.3319802136
83333.3319791128
83333.3319802403
83333.3319814031
83333.3319827101
83333.3319842061
83333.3319858196
83333.3319873649
83333.3319887011
83333.3319898367
83333.3319909197
83333.3319850924
83333.3319836622
83333.3319845112
83333.3319823951
83333.3319833007
83333.3319841232
83333.3319858191
83333.3319852457
83333.3319848478
83333.3319865331
83333.3319878036
83333.3319870158
83333.3319863442
83333.3319858024
83333.3319854214
83333.3319858211
83333.3319842157
83333.3319827243
83333.331987356
83333.3319814128
83333.3319886912
83333.3319872646
83333.3319880093
83333.3319888696
83333.3319866459
83333.3319861476
83333.3319898313
83333.3319851956
83333.3319846757
83333.3319839655
83333.331983151
83333.3319822551
83333.3319812839
83333.3319802465
83333.3319855607
83333.3319860028
83333.3319864104
83333.3319867856
83333.3319873611
83333.3319880708
83333.3319889111
83333.331989865
83333.3319909155
83333.3319851434
83333.331984626
83333.3319839402
83333.3319831279
83333.3319822307
83333.331981261
83333.3319802231
83333.3319791187
83333.3319779503
83333.3319791428
83333.3319803649
83333.3319817149
83333.3319832448
83333.3319849331
83333.3319866613
83333.331988271
83333.3319896717
83333.331990888
83333.3319920587
83333.3319842249
83333.3319850859
83333.3319858149
83333.3319836719
83333.3319827407
83333.331984514
83333.3319814295
83333.3319824136
83333.3319833185
83333.3319841417
83333.3319865127
83333.3319858058
83333.3319852434
83333.3319848605
83333.331987339
83333.3319886764
83333.3319877859
83333.3319870015
83333.3319863358
83333.3319857883
83333.3319853734
83333.3319849404
83333.3319866592
83333.3319832567
83333.3319817287
83333.3319882613
83333.3319803741
83333.331989662
83333.3319880058
83333.3319872748
83333.3319888592
83333.331989823
83333.3319866633
83333.3319908824
83333.3319852187
83333.3319846939
83333.3319840054
83333.331983183
83333.3319822779
83333.3319813013
83333.3319802567
83333.331979149
83333.3319857518
83333.3319863759
83333.3319865684
83333.3319868598
83333.3319873985
83333.3319880839
83333.3319889087
83333.3319898568
83333.3319909096
83333.3319920552
83333.3319846596
83333.3319839874
83333.3319831733
83333.3319822641
83333.3319812833
83333.3319802373
83333.3319791273
83333.3319779551
83333.3319767212
83333.3319779761
83333.3319792561
83333.33198065
83333.3319822115
83333.3319839465
83333.3319857814
83333.3319875976
83333.3319892695
83333.3319907382
83333.331992035
83333.331993293
83333.3319832673
83333.3319849416
83333.3319842235
83333.3319857959
83333.3319850701
83333.3319866471
83333.3319836754
83333.3319827534
83333.3319817458
83333.3319845088
83333.33198039
83333.331981449
83333.3319824333
83333.3319833398
83333.3319841629
83333.3319864897
83333.3319873137
83333.3319857856
83333.3319852201
83333.3319848597
83333.3319882424
83333.3319896467
83333.3319886577
83333.3319877697
83333.33198699
83333.3319863222
83333.3319857307
83333.3319853989
83333.3319839538
83333.3319857858
83333.3319875937
83333.3319822234
83333.331980663
83333.3319892601
83333.3319792649
83333.3319907293
83333.3319888506
83333.3319880115
83333.3319873009
83333.3319898115
83333.331990874
83333.3319867671
83333.3319920293
83333.3319847183
83333.3319840472
83333.331983229
83333.3319823118
83333.3319813249
83333.3319802728
83333.3319791597
83333.3319779821
83333.3319860575
83333.3319865796
83333.3319867203
83333.3319869293
83333.3319874498
83333.331988107
83333.3319889125
83333.3319898518
83333.3319909021
83333.3319920492
83333.3319932899
83333.3319840255
83333.3319832275
83333.3319823109
83333.3319813168
83333.3319802593
83333.3319791407
83333.3319779629
83333.3319767249
83333.3319754273
83333.3319767423
83333.331978078
83333.3319795152
83333.3319811072
83333.3319828776
83333.3319847799
83333.3319867323
83333.3319886245
83333.3319903605
83333.3319919004
83333.3319932774
83333.3319946222
83333.3319832712
83333.3319839602
83333.3319822348
83333.33198578
83333.3319849263
83333.3319842082
83333.33198662
83333.331985767
83333.331985041
83333.3319875784
83333.3319836725
83333.3319827597
83333.3319817606
83333.3319806797
83333.331984491
83333.3319792798
83333.3319804098
83333.3319814705
83333.331982457
83333.3319833683
83333.3319841952
83333.3319864622
83333.3319872867
83333.3319882151
83333.3319857475
83333.3319851909
83333.3319848634
83333.3319892405
83333.3319907132
83333.3319896272
83333.3319886405
83333.3319877569
83333.3319869871
83333.3319863238
83333.3319858167
83333.3319856721
83333.331982885
83333.3319847868
83333.3319867346
83333.3319886205
83333.3319811221
83333.3319795291
83333.3319903519
83333.3319780864
83333.331991892
83333.3319888493
83333.3319898014
83333.3319880266
83333.3319873525
83333.3319908621
83333.3319920206
83333.3319868069
83333.3319932715
83333.3319840796
83333.3319832797
83333.3319823603
83333.3319813591
83333.3319802964
83333.3319791758
83333.3319779922
83333.3319767481
83333.3319863212
83333.3319867167
83333.3319868399
83333.3319870143
83333.331986487
83333.3319874888
83333.3319881349
83333.3319889231
83333.3319898496
83333.3319908944
83333.331992041
83333.3319932835
83333.3319946193
83333.3319832704
83333.3319823651
83333.3319813629
83333.3319802918
83333.3319791616
83333.3319779754
83333.3319767319
83333.3319754302
83333.3319740712
83333.331975444
83333.3319768326
83333.3319783131
83333.3319799371
83333.3319817343
83333.3319836839
83333.331985727
83333.3319877771
83333.3319897416
83333.3319915448
83333.3319931579
83333.3319946147
83333.3319960463
83333.331982242
83333.3319832592
83333.3319839491
83333.331982893
83333.331984785
83333.331981133
83333.3319867248
83333.3319857547
83333.3319848965
83333.3319841779
83333.3319875473
83333.3319865853
83333.3319857274
83333.3319849926
83333.331988604
83333.3319836651
83333.3319827608
83333.33198177
83333.3319806955
83333.3319795447
83333.331984488
83333.3319781006
83333.3319792995
83333.3319804322
83333.3319814961
83333.3319824896
83333.3319834111
83333.3319842068
83333.3319864279
83333.3319872581
83333.3319881869
83333.3319892123
83333.3319857052
83333.3319852569
83333.331985102
83333.3319903322
83333.3319918753
83333.3319906926
83333.3319896094
83333.3319886273
83333.3319877531
83333.331986999
83333.3319863113
83333.3319860491
83333.3319858963
83333.3319836905
83333.3319817449
83333.3319857317
83333.3319877788
83333.3319897382
83333.3319799514
83333.3319783264
83333.331991537
83333.3319768412
83333.3319931493
83333.3319888544
83333.3319897935
83333.3319908499
83333.33198805
83333.331987378
83333.331992008
83333.3319932623
83333.3319868124
83333.3319946085
83333.3319833192
83333.3319824144
83333.3319814076
83333.3319803303
83333.3319791988
83333.3319780079
83333.3319767576
83333.3319754494
83333.3319864768
83333.3319868179
83333.3319869316
83333.3319871154
83333.331986611
83333.3319875276
83333.3319881575
83333.3319889367
83333.331989851
83333.3319908866
83333.3319920308
83333.3319932739
83333.3319946124
83333.3319960431
83333.3319824063
83333.3319814143
83333.3319803352
83333.3319791925
83333.331977995
83333.3319767433
83333.3319754364
83333.3319740736
83333.331972656
83333.3319740841
83333.3319755231
83333.3319770459
83333.3319787027
83333.3319805259
83333.3319825083
83333.3319846122
83333.3319867738
83333.3319889125
83333.3319909493
83333.3319928226
83333.3319945103
83333.3319960468
83333.3319975647
83333.3319822344
83333.3319811409
83333.331982886
83333.3319832323
83333.3319839225
83333.3319847635
83333.3319817507
83333.33198369
83333.3319857249
83333.3319799642
83333.3319877672
83333.3319866938
83333.3319857179
83333.3319848523
83333.3319841319
83333.3319875107
83333.3319885711
83333.3319865437
83333.331985675
83333.3319849461
83333.3319897215
83333.3319827606
83333.3319836721
83333.3319817752
83333.3319807076
83333.3319795609
83333.3319783422
83333.3319845403
83333.3319768544
83333.3319781199
83333.3319793222
83333.3319804594
83333.3319815301
83333.3319825338
83333.331983434
83333.3319844047
83333.3319872289
83333.3319863977
83333.3319881587
83333.3319891837
83333.331990303
83333.331985691
83333.3319854425
83333.3319852974
83333.3319915172
83333.3319931324
83333.3319918535
83333.331990673
83333.3319895936
83333.331988618
83333.3319877581
83333.3319869957
83333.3319863902
83333.3319861929
83333.3319860541
83333.3319825123
83333.3319846164
83333.3319805353
83333.3319867779
83333.3319889146
83333.3319909466
83333.3319787152
83333.3319770588
83333.3319928152
83333.3319755315
83333.3319945009
83333.3319888628
83333.33198979
83333.3319908377
83333.3319919935
83333.3319880661
83333.3319873937
83333.3319932486
83333.3319945987
83333.3319869126
83333.3319960401
83333.3319824538
83333.3319814618
83333.3319803795
83333.3319792317
83333.3319780299
83333.3319767726
83333.3319754584
83333.3319740891
83333.3319865909
83333.3319869
83333.3319870073
83333.3319871892
83333.3319867107
83333.3319875772
83333.3319881785
83333.3319889472
83333.3319898528
83333.3319908799
83333.3319920187
83333.3319932611
83333.3319946011
83333.3319960353
83333.331997561
83333.3319814536
83333.3319803839
83333.331979234
83333.3319780241
83333.3319767616
83333.3319754468
83333.331974079
83333.331972658
83333.3319711851
83333.3319726654
83333.3319741527
83333.3319757158
83333.331977405
83333.3319792528
83333.3319812593
83333.3319834067
83333.3319856468
83333.3319879145
83333.3319901375
83333.3319922478
83333.3319941935
83333.3319959574
83333.331997574
83333.3319991771
83333.3319822126
83333.3319828642
83333.3319811379
83333.3319799725
83333.3319817481
83333.3319836738
83333.3319831929
83333.3319838795
83333.331984729
83333.3319856976
83333.3319805405
83333.3319825127
83333.3319846104
83333.3319867688
83333.331978729
83333.3319889025
83333.3319877336
83333.3319866542
83333.3319856697
83333.3319847942
83333.3319840918
83333.3319885338
83333.3319874699
83333.3319896875
83333.3319864954
83333.3319856236
83333.3319849348
83333.33199093
83333.3319817795
83333.3319827713
83333.3319837147
83333.3319807162
83333.3319795747
83333.3319783593
83333.3319770743
83333.3319846992
83333.3319768735
83333.3319755443
83333.3319781426
83333.3319793503
83333.3319804945
83333.3319815731
83333.3319825587
83333.3319835999
83333.3319845743
83333.3319881303
83333.3319872044
83333.3319863828
83333.3319891552
83333.3319902734
83333.331991487
83333.3319857834
83333.3319855893
83333.3319854614
83333.3319927952
83333.3319944836
83333.3319931095
83333.3319918315
83333.3319906541
83333.3319895792
83333.3319886122
83333.331987758
83333.3319870261
83333.3319865046
83333.3319863095
83333.3319861833
83333.3319812626
83333.3319834084
83333.33198565
83333.3319792606
83333.3319879188
83333.3319901402
83333.3319922457
83333.3319774165
83333.3319757286
83333.3319941862
83333.3319741608
83333.3319959467
83333.331989787
83333.3319888687
83333.3319908258
83333.331991977
83333.3319932317
83333.3319880817
83333.3319874417
83333.331994584
83333.3319960295
83333.3319869944
83333.3319975664
83333.3319814993
83333.3319804308
83333.3319792775
83333.3319780612
83333.3319767933
83333.3319754724
83333.3319740974
83333.3319726701
83333.3319866826
83333.3319869691
83333.3319872495
83333.3319870707
83333.3319867932
83333.3319876242
83333.3319882007
83333.3319889557
83333.3319898522
83333.331990871
83333.3319920044
83333.3319932447
83333.3319945853
83333.3319960223
83333.331997552
83333.3319991726
83333.3319804206
83333.3319792799
83333.331978063
83333.3319767886
83333.3319754636
83333.3319740884
83333.3319726628
83333.3319711867
83333.331969662
83333.3319711916
83333.3319727247
83333.3319743264
83333.3319760461
83333.331977917
83333.3319799437
83333.33198212
83333.3319844169
83333.3319867793
83333.3319891456
83333.3319914514
83333.3319936369
83333.3319956574
83333.3319975
83333.3319991965
83333.3320008804
83333.3319821804
83333.3319811215
83333.3319828255
83333.3319836431
83333.331981731
83333.3319799727
83333.3319787387
83333.3319805412
83333.3319825015
83333.3319845882
83333.3319831615
83333.3319838229
83333.33198468
83333.331985659
83333.3319867383
83333.3319812633
83333.3319792666
83333.3319834032
83333.331985641
83333.3319879089
83333.3319774302
83333.3319901279
83333.3319888674
83333.3319876928
83333.3319866061
83333.331985612
83333.3319847381
83333.3319840821
83333.3319896494
83333.3319884936
83333.3319874252
83333.3319908946
83333.3319864496
83333.3319856012
83333.3319850196
83333.331992229
83333.3319807241
83333.3319817927
83333.3319828074
83333.3319838621
83333.3319795863
83333.3319783738
83333.3319770918
83333.3319757437
83333.3319848405
83333.3319755625
83333.3319768956
83333.3319741731
83333.3319781707
83333.3319793862
83333.331980536
83333.3319815991
83333.3319827056
83333.3319837548
83333.3319847309
83333.3319891255
83333.3319881044
83333.3319871869
83333.3319864229
83333.3319902434
83333.3319914555
83333.3319927639
83333.3319858988
83333.3319857163
83333.331985601
83333.3319941658
83333.3319944602
83333.3319959291
83333.3319930849
83333.3319918086
83333.3319906342
83333.3319895647
83333.3319886059
83333.3319877743
83333.3319870871
83333.3319865994
83333.3319864062
83333.3319862892
83333.3319821207
83333.3319799465
83333.3319844181
83333.3319867825
83333.331977924
83333.3319891505
83333.3319914546
83333.331993635
83333.3319760571
83333.3319743388
83333.3319956499
83333.3319727324
83333.3319974877
83333.3319908121
83333.3319897818
83333.3319888732
83333.3319919576
83333.3319932107
83333.3319945642
83333.3319881015
83333.3319874927
83333.3319960136
83333.3319975548
83333.3319870591
83333.3319991882
83333.3319804649
83333.331979326
83333.3319781046
83333.3319768228
83333.3319754918
83333.3319741102
83333.3319726777
83333.331971196
83333.3319867598
83333.3319870264
83333.3319876618
83333.3319872986
83333.3319871227
83333.3319868622
83333.3319882236
83333.331988964
83333.3319898486
83333.3319908585
83333.3319919864
83333.3319932238
83333.3319945644
83333.3319960034
83333.331997537
83333.3319991623
83333.3320008748
83333.3319793143
83333.3319781061
83333.331976825
83333.3319754886
83333.3319741037
83333.3319726711
83333.3319711909
83333.3319696634
83333.3319680908
83333.3319696663
83333.3319712426
83333.3319728809
83333.3319746292
83333.3319765214
83333.3319785652
83333.3319807623
83333.331983097
83333.3319855296
83333.3319880045
83333.3319904653
83333.3319928537
83333.3319951166
83333.3319972148
83333.3319991391
83333.3320009127
83333.3320026744
83333.331981096
83333.331982774
83333.3319821578
83333.3319799613
83333.3319816976
83333.3319835969
83333.331982475
83333.3319845526
83333.3319805283
83333.331978741
83333.3319774413
83333.3319792684
83333.331981256
83333.3319833858
83333.3319856151
83333.3319831555
83333.3319837716
83333.3319846207
83333.3319856088
83333.3319866977
83333.3319878764
83333.3319821178
83333.3319799476
83333.3319779305
83333.3319844086
83333.3319867721
83333.3319891402
83333.3319760708
83333.331991442
83333.3319900916
83333.3319888257
83333.3319876452
83333.3319865515
83333.3319855567
83333.3319847144
83333.3319841627
83333.3319908553
83333.3319896087
83333.33198845
83333.331987382
83333.3319921919
83333.3319864186
83333.3319856403
83333.3319851336
83333.3319936177
83333.3319795976
83333.33198074
83333.3319818256
83333.3319829488
83333.3319840001
83333.3319783874
83333.3319771068
83333.3319757609
83333.3319743533
83333.3319849734
83333.3319741902
83333.3319755838
83333.3319769231
83333.3319727441
83333.3319782068
83333.3319794271
83333.3319805611
83333.3319817345
83333.331982854
83333.3319839051
83333.331984874
83333.3319902111
83333.3319890952
83333.331988083
83333.3319872034
83333.3319864877
83333.3319914225
83333.33199273
83333.3319941335
83333.3319860022
83333.3319858281
83333.3319857208
83333.3319956288
83333.3319959051
83333.3319944328
83333.3319974698
83333.3319930572
83333.3319917824
83333.3319906119
83333.3319895488
83333.3319886039
83333.3319877966
83333.3319871466
83333.3319866769
83333.3319864881
83333.3319863795
83333.3319807628
83333.3319830965
83333.3319785679
83333.3319855303
83333.331988008
83333.3319765279
83333.3319904706
83333.3319928571
83333.3319951147
83333.3319746399
83333.3319728927
83333.331997207
83333.3319712498
83333.3319991265
83333.3319907951
83333.3319919347
83333.3319897725
83333.33198888
83333.3319931846
83333.3319945386
83333.3319959909
83333.331988126
83333.3319875323
83333.3319975374
83333.3319991757
83333.3319871125
83333.3320009035
83333.3319793569
83333.3319781508
83333.3319768637
83333.3319755193
83333.3319741283
83333.3319726895
83333.3319712029
83333.3319696703
83333.3319868251
83333.3319870709
83333.3319882457
83333.331987693
83333.3319873373
83333.331987164
83333.3319869195
83333.3319889693
83333.3319898403
83333.3319908411
83333.3319919632
83333.3319931974
83333.3319945373
83333.3319959778
83333.331997515
83333.3319991451
83333.3320008631
83333.33200267
83333.3319781386
83333.3319768653
83333.3319755224
83333.3319741267
83333.331972685
83333.3319711984
83333.331969667
83333.331968092
83333.3319664757
83333.3319680933
83333.3319697099
83333.3319713826
83333.3319731575
83333.331975069
83333.3319771274
83333.3319793396
83333.3319816987
83333.3319841803
83333.3319867373
83333.3319893189
83333.3319918721
83333.3319943439
83333.3319966868
83333.3319988671
83333.3320008761
83333.3320027136
83333.3320045724
83333.3319799417
83333.3319816528
83333.3319810818
83333.3319835407
83333.3319827307
83333.3319821566
83333.3319805004
83333.3319787339
83333.3319824333
83333.3319845038
83333.3319812337
83333.3319833538
83333.3319855768
83333.3319792595
83333.3319774448
83333.3319760826
83333.3319779335
83333.3319799431
83333.3319821037
83333.3319843872
83333.3319867438
83333.3319832345
83333.3319837523
83333.331984565
83333.3319855508
83333.3319866472
83333.3319878344
83333.3319891062
83333.3319807611
83333.3319830895
83333.3319785695
83333.3319765351
83333.3319855184
83333.3319879969
83333.3319904598
83333.3319746536
83333.3319928438
83333.331991404
83333.3319900484
83333.3319887777
83333.331987592
83333.3319864982
83333.3319855198
83333.3319847531
83333.3319842766
83333.3319908125
83333.3319921507
83333.3319895639
83333.3319884056
83333.3319873477
83333.3319935792
83333.3319864312
83333.3319857057
83333.331985244
83333.3319950963
83333.3319796159
83333.3319784015
83333.3319807718
83333.331981963
83333.3319830848
83333.3319841351
83333.3319771218
83333.3319757764
83333.33197437
83333.3319729066
83333.3319850967
83333.33197276
83333.3319742104
83333.3319756104
83333.3319769587
83333.3319712609
83333.3319782478
83333.3319794502
83333.3319806897
83333.3319818777
83333.3319830001
83333.3319840483
83333.3319850033
83333.3319901757
83333.3319913857
83333.331989066
83333.3319880749
83333.3319872288
83333.3319865553
83333.3319926931
83333.3319940971
83333.3319955955
83333.3319860938
83333.3319859279
83333.3319858265
83333.3319971851
83333.3319974445
83333.3319958749
83333.3319944002
83333.3319991079
83333.3319930241
83333.331991752
83333.3319905866
83333.3319895327
83333.3319886065
83333.3319878209
83333.331987196
83333.3319867415
83333.331986558
83333.331986458
83333.3319793403
83333.3319816981
83333.331984178
83333.3319771302
83333.3319867381
83333.3319893226
83333.3319750754
83333.3319918776
83333.3319943474
83333.331996685
83333.3319731679
83333.3319713937
83333.3319988598
83333.3319697167
83333.3320008629
83333.3319907734
83333.3319919069
83333.3319931529
83333.3319897604
83333.3319888799
83333.331994506
83333.3319959606
83333.3319975117
83333.3319881476
83333.3319875626
83333.3319991564
83333.3320008903
83333.3319871549
83333.3320027048
83333.3319781793
83333.3319769077
83333.3319755578
83333.3319741539
83333.3319727061
83333.3319712136
83333.3319696765
83333.331968097
83333.3319868788
83333.3319871032
83333.3319889607
83333.3319882523
83333.3319877165
83333.33198737
83333.3319871949
83333.3319869665
83333.3319898226
83333.3319908174
83333.3319919336
83333.3319931641
83333.3319945029
83333.3319959445
83333.3319974848
83333.3319991196
83333.3320008436
83333.332002658
83333.3320045689
83333.3319768959
83333.3319755599
83333.331974158
83333.331972706
83333.3319712108
83333.3319696736
83333.3319680951
83333.3319664766
83333.3319648209
83333.3319664769
83333.3319681307
83333.3319698353
83333.3319716345
83333.3319735628
83333.3319756335
83333.331977856
83333.3319802309
83333.331982743
83333.3319853602
83333.3319880353
83333.3319907201
83333.3319933652
83333.3319959223
83333.3319983492
83333.3320006177
83333.332002692
83333.3320046212
83333.3319799354
83333.3319804625
83333.3319787208
83333.3319823825
83333.3319816174
83333.3319810847
83333.3319844469
83333.3319834896
83333.331982718
83333.3319822356
83333.3319792365
83333.331981197
83333.3319774407
83333.3319833084
83333.3319855267
83333.3319820754
83333.3319799247
83333.331984352
83333.3319867036
83333.3319779276
83333.3319760869
83333.3319765388
83333.3319746655
83333.331978567
83333.33198075
83333.331983071
83333.3319854942
83333.3319879667
83333.3319833481
83333.3319837915
83333.3319845295
83333.3319854945
83333.3319865897
83333.3319877832
83333.3319890626
83333.3319904242
83333.331981693
83333.3319793389
83333.331984168
83333.3319771324
83333.331975083
83333.3319867244
83333.3319893108
83333.331991866
83333.3319731815
83333.3319943329
83333.331992804
83333.3319913589
83333.3319899988
83333.3319887238
83333.3319875381
83333.3319864567
83333.3319855309
83333.3319848203
83333.3319843916
83333.3319907645
83333.3319921047
83333.3319935354
83333.3319895158
83333.3319883646
83333.3319873332
83333.3319950563
83333.3319864576
83333.3319857813
83333.3319853476
83333.3319966655
83333.3319784221
83333.3319796486
83333.3319771381
83333.3319809064
83333.3319820977
83333.3319832204
83333.3319842651
83333.3319757922
83333.3319743858
83333.3319729226
83333.331971407
83333.3319852123
83333.3319712755
83333.3319727791
83333.3319742359
83333.3319756452
83333.3319770001
83333.331969727
83333.3319782695
83333.3319795743
83333.3319808293
83333.3319820208
83333.3319831424
83333.3319841832
83333.3319851226
83333.331990138
83333.3319913441
83333.3319926503
83333.3319890412
83333.3319880749
83333.3319872608
83333.3319866186
83333.3319940555
83333.3319955562
83333.3319971504
83333.3319861761
83333.3319860183
83333.3319859219
83333.3319988374
83333.3319990808
83333.3319974112
83333.3319958372
83333.3319943601
83333.3320008438
83333.3319929849
83333.3319917168
83333.3319905579
83333.3319895157
83333.3319886074
83333.3319878493
83333.331987233
83333.331986796
83333.3319866164
83333.3319865261
83333.331977857
83333.3319802303
83333.3319827411
83333.3319853572
83333.3319756364
83333.331988036
83333.3319907239
83333.3319735693
83333.3319933706
83333.3319959259
83333.3319983479
83333.3319716445
83333.3319698456
83333.3320006108
83333.331968137
83333.3320026783
83333.3319907455
83333.3319918729
83333.3319931148
83333.3319944658
83333.3319897407
83333.3319888718
83333.3319959216
83333.3319974767
83333.3319991278
83333.3319881509
83333.331987582
83333.3320008689
83333.3320026911
83333.3319871869
83333.3320046123
83333.3319769346
83333.3319755997
83333.3319741899
83333.3319727298
83333.3319712288
83333.3319696861
83333.3319681026
83333.3319664803
83333.3319869214
83333.3319871219
83333.3319897962
83333.331988944
83333.3319882485
83333.3319877268
83333.3319873918
83333.3319872144
83333.3319870045
83333.3319907844
83333.3319918958
83333.3319931229
83333.3319944601
83333.3319959023
83333.3319974452
83333.3319990845
83333.3320008144
83333.3320026373
83333.3320045567
83333.3319755887
83333.3319741927
83333.3319727348
83333.3319712299
83333.3319696847
83333.3319681009
83333.3319664793
83333.3319648217
83333.3319631311
83333.3319648214
83333.3319665091
83333.3319682426
83333.3319700637
83333.3319720064
83333.3319740866
83333.3319763157
83333.3319786994
83333.3319812301
83333.3319838863
83333.3319866311
83333.3319894203
83333.3319922066
83333.3319949444
83333.3319975901
83333.3320001083
83333.3320024526
83333.3320046057
83333.3319787191
83333.3319799418
83333.3319804357
83333.3319811526
83333.3319792059
83333.3319774346
83333.3319832553
83333.3319823375
83333.3319816125
83333.3319811647
83333.3319843926
83333.3319854689
83333.3319834602
83333.3319827588
83333.3319823496
83333.3319779088
83333.3319798932
83333.3319820342
83333.3319760866
83333.3319843043
83333.331986652
83333.331983039
83333.3319807254
83333.3319785522
83333.3319854566
83333.3319879245
83333.3319765354
83333.331974671
83333.3319750873
83333.331977131
83333.3319731931
83333.3319793305
83333.3319816773
83333.3319841466
83333.3319866982
83333.3319892788
83333.331983466
83333.3319838619
83333.3319845414
83333.3319854518
83333.3319865316
83333.3319877244
83333.3319890095
83333.3319903784
83333.3319918285
83333.3319802268
83333.331982733
83333.3319778562
83333.3319853451
83333.3319756393
83333.3319735773
83333.3319880211
83333.3319907109
83333.3319933578
83333.3319716577
83333.33199591
83333.3319942913
83333.3319927563
83333.3319913064
83333.3319899421
83333.3319886664
83333.3319874895
83333.3319864392
83333.3319855587
83333.3319849028
83333.331984504
83333.3319920517
83333.3319907109
83333.3319934853
83333.3319950094
83333.3319894667
83333.3319883319
83333.3319873315
83333.3319966237
83333.3319864948
83333.3319858567
83333.3319854459
83333.3319983278
83333.3319771608
83333.331978457
83333.3319797802
83333.33197581
83333.3319810398
83333.3319822333
83333.3319833542
83333.3319843912
83333.331974402
83333.3319729385
83333.3319714221
83333.3319698581
83333.331985322
83333.3319697405
83333.3319712933
83333.3319728034
83333.3319742698
83333.3319756869
83333.3319770215
83333.3319681465
83333.3319783899
83333.3319797102
83333.3319809697
83333.331982162
83333.3319832802
83333.3319843121
83333.3319852343