/*--------------------------------*- C++ -*----------------------------------*\
  =========                 |
  \\      /  F ield         | OpenFOAM: The Open Source CFD Toolbox
   \\    /   O peration     | Website:  https://openfoam.org
    \\  /    A nd           | Version:  12
     \\/     M anipulation  |
\*---------------------------------------------------------------------------*/
/*   Windows 32 and 64 bit porting by blueCAPE: http://www.bluecape.com.pt   *\
|  Based on Windows porting (2.0.x v4) by Symscape: http://www.symscape.com   |
\*---------------------------------------------------------------------------*/
FoamFile
{
    format      ascii;
    class       surfaceScalarField;
    location    "300";
    object      phi;
}
// * * * * * * * * * * * * * * * * * * * * * * * * * * * * * * * * * * * * * //

dimensions      [0 3 -1 0 0 0 0];

internalField   nonuniform List<scalar> 
29052
(
-1.59361746929384e-08
2.5208892581821e-07
-2.36166073682129e-07
-2.89129519202703e-07
-2.75681742728395e-08
3.00708851206718e-07
-1.60967032884622e-08
4.46541389731347e-07
-1.78397229001086e-07
-1.74003917694684e-08
2.07479373657408e-07
-4.26297412226085e-07
2.54245081081496e-07
-3.47593117861233e-08
-5.26125579156598e-07
-3.17314285579627e-07
-3.74447791762851e-08
3.27162181018229e-07
-2.2099482055696e-07
-2.54705203726312e-08
5.30987566922589e-07
-1.70490768055807e-08
5.78629517944552e-07
-1.15077983871461e-07
-8.55887934650155e-09
2.17499950720199e-07
-1.79904022153698e-07
-1.06951829811458e-08
1.36401152757415e-07
-5.52041997355355e-07
-2.39770098422079e-07
2.83200229311061e-07
-1.87983411176274e-08
2.83053878610321e-07
-4.69808763712706e-08
-5.88244737202999e-07
1.70124405502542e-07
-2.53073050258304e-08
-6.81710041609778e-07
-3.55601604528642e-07
-4.4317657214467e-08
3.62441600715562e-07
-2.44361850316295e-07
-3.48698279750504e-08
5.80837936815021e-07
-1.48874295109609e-07
-2.2357238178906e-08
6.85084342537051e-07
-1.25426602123983e-08
6.52159547048873e-07
-6.10139551228544e-08
-2.1349510776541e-09
1.65825017225945e-07
-6.12996416915906e-08
-4.11357506058529e-10
8.23005685506302e-08
-1.2543026835227e-07
-6.45139575686684e-09
7.52124306025827e-08
-6.20824447048627e-07
1.1413712675788e-07
-7.53465611675024e-09
-1.76710629695316e-07
-9.16792861135993e-08
-4.6127084191384e-09
2.28440230405623e-07
-2.71948575208833e-07
3.20193814462738e-07
-2.84434766386224e-08
3.18676969205248e-07
-5.95936128582759e-08
-6.61758110657873e-07
1.93624537955608e-07
-4.00536306043921e-08
-7.67157142520839e-07
9.76814284442234e-08
-1.35063406242108e-08
-7.72415506362148e-07
-3.78056540882469e-07
-4.98659520441131e-08
3.83554550673639e-07
-2.73077129719822e-07
-4.1914219689788e-08
6.42473210428012e-07
-1.69009132360421e-07
-2.83386110912047e-08
7.55752895524742e-07
-8.65483315769122e-08
-2.1218731275799e-08
7.8024802593408e-07
-1.42090119178602e-08
6.96846543646743e-07
-3.0492737320205e-08
3.56607047562477e-10
1.27967357837846e-07
-2.35483121096522e-08
1.01188438720059e-09
4.6786545772766e-08
-2.68053793628625e-08
-4.64962627727684e-10
4.14689562205046e-08
-9.12373283172475e-08
-3.90410424611053e-10
4.12880178226294e-08
-6.61765284326922e-07
-3.21931040813708e-10
7.10967811040104e-08
-4.73228999149998e-08
1.31047445864779e-07
-2.01884354085688e-07
-1.50601913850123e-08
6.06987988589414e-08
-5.46481417240717e-09
-1.34765887101258e-07
-1.06239145450136e-07
-1.06412468196497e-08
2.63410623807298e-07
-4.24842909463791e-08
1.24962913127587e-12
1.84690503336936e-07
-3.10867398721124e-07
3.64167053329835e-07
-3.62484669412611e-08
3.46051266041877e-07
-6.45766843305658e-08
-7.19231254159924e-07
2.22007907234978e-07
-5.7467698129831e-08
-8.6643937163487e-07
1.1392469418767e-07
-2.47410311990588e-08
-8.69910854816756e-07
5.49519434052986e-08
-1.84764592681342e-09
-8.25954676316663e-07
-3.94353297955574e-07
-4.90021578888748e-08
3.93449447813516e-07
-2.95081042909718e-07
-4.84014067190387e-08
6.85038053396832e-07
-1.91230086245477e-07
-3.58220957734798e-08
8.41120035529399e-07
-1.04911919108858e-07
-2.72115447696116e-08
8.6659796592158e-07
-5.13562078707338e-08
-1.9168397338208e-08
8.36495022048703e-07
-9.43913560215443e-09
7.23608119575899e-07
-1.73359991878694e-08
1.27436866491875e-09
1.04696683594643e-07
-8.52596286837287e-09
1.12558882138295e-09
2.78483235940211e-08
-5.74291797438256e-09
-8.70975147045754e-11
2.34125435204198e-08
-8.66713793750184e-09
-5.66597136658073e-10
2.29051228924307e-08
-7.23076955051982e-08
7.73209886706056e-10
2.46214222219732e-08
-6.87174993491656e-07
8.19518060085386e-08
-5.34262608734756e-08
-4.06341603376537e-09
1.40692289114318e-09
-1.87528245814218e-08
4.70763040518804e-08
-2.01491030856766e-09
3.87028587343507e-08
-2.34073296324814e-08
6.98379810428358e-08
-1.52981588658137e-07
-1.03297376735787e-08
1.51655686593482e-07
-2.33713074520358e-07
-2.19136122030726e-08
3.57806462026371e-08
-5.15078861361034e-09
-1.11026314252505e-07
-1.22697520862048e-07
-1.90240431247702e-08
3.03966228982217e-07
-5.03434209240597e-08
-5.1599431331251e-09
2.1397005183939e-07
-2.13622294503125e-08
-1.19285342549972e-09
1.57124029927783e-07
-3.47397701979146e-07
4.03151736413055e-07
-4.11320615390034e-08
3.67770517347454e-07
-6.76478449699455e-08
-7.59136783993963e-07
2.47691126482894e-07
-7.82924195029098e-08
-9.46160140029474e-07
1.34585172494044e-07
-4.05014963206929e-08
-9.85357609552109e-07
6.44991743246338e-08
-6.34020122640533e-09
-9.29989558289638e-07
3.42414576157507e-08
1.22459629726595e-09
-8.60701514578849e-07
-3.85808391324315e-07
-4.19071420131383e-08
3.78702776243818e-07
-3.08521133180612e-07
-3.93419029083436e-08
6.92799224490374e-07
-2.0690416255279e-07
-4.3052300678128e-08
8.99104018656311e-07
-1.19880930652901e-07
-3.51657977758948e-08
9.6890925313652e-07
-5.70302847282325e-08
-2.65705102424476e-08
9.30967068344661e-07
-3.01606341140213e-08
-1.66354804447797e-08
8.73807825393852e-07
-1.12417407209767e-08
7.45809460593593e-07
-1.0990068389926e-08
4.5197153431876e-10
8.97658473868532e-08
-2.88616901898261e-09
1.42002623775635e-09
1.68443000899946e-08
1.05574879002067e-09
3.84880400116641e-10
1.18157970383157e-08
5.46673249050123e-09
-1.31506620026934e-09
1.39172121482678e-08
1.63488869849621e-09
-1.27401793523369e-09
1.41016694247826e-08
-6.05310180949364e-08
1.57494745536643e-09
1.65075511209688e-08
-7.05264011162567e-07
5.38719625047318e-08
-5.05718936289782e-10
-2.03635686216029e-08
4.36122426303295e-08
-2.47410231463883e-08
-4.48455828894816e-09
9.50700031928239e-08
-6.10434406628978e-08
-9.15115138129351e-09
-2.59782340434681e-11
2.4059872224621e-08
-3.70650596319551e-09
1.76048289684069e-09
-7.92228549033132e-09
3.32869540995407e-08
-3.6382545682201e-09
2.4967871129377e-08
-1.02829619301597e-08
4.09336138439983e-08
-1.2538844973864e-07
-9.20928268008879e-09
8.12226554076927e-08
-1.77125422948679e-07
-1.35874334060206e-08
1.71864444335872e-07
-2.66134832857398e-07
-2.74205102433334e-08
2.3202030041905e-08
-4.32701994750977e-09
-9.69505637505746e-08
-1.37744120502258e-07
-2.44916602168691e-08
3.39430006362635e-07
-5.7863931076256e-08
-1.23962456763944e-08
2.49130221536266e-07
-2.485287303019e-08
-4.34469688006146e-09
1.84903410182876e-07
-1.16427852954819e-08
-1.00023902595605e-09
1.4003961618817e-07
-3.85391681983693e-07
4.33557165540724e-07
-3.01554315988504e-08
4.34879517173133e-07
-3.62798488539297e-08
-8.52208983691073e-07
2.74648179254178e-07
-1.08579427209359e-07
-1.00358935306569e-06
1.56909746838312e-07
-6.14382914840554e-08
-1.08219588623476e-06
7.90593678433789e-08
-1.88612196788407e-08
-1.05195828664491e-06
3.92527473825681e-08
2.58841070180475e-10
-9.68294143323374e-07
2.37091877977432e-08
2.56841353869648e-09
-8.85431056638637e-07
-3.61264850057e-07
-3.21226707246191e-08
3.5144973685154e-07
-2.91574168131272e-07
-2.22111979370125e-08
6.53053983755885e-07
-2.19216633232321e-07
-3.63484879112972e-08
9.05247988717209e-07
-1.2771049140478e-07
-4.61504633710884e-08
1.03771623440868e-06
-6.35059367462626e-08
-3.63238998046545e-08
1.04212303240462e-06
-3.48989236217228e-08
-2.49287317353592e-08
9.74110667109723e-07
-2.22755823173721e-08
-1.58106883012261e-08
9.00593381353442e-07
-8.46285711691285e-09
7.62724926445991e-07
-8.45921576436775e-09
3.68062100637451e-10
7.95821159151372e-08
-1.19201100382353e-09
1.19334550438631e-09
9.87260934437265e-09
2.88845402835626e-09
2.56475401137769e-10
4.4651901055755e-09
8.14697788142857e-09
-6.63125877801927e-10
7.27444020552874e-09
1.27697873401901e-08
-1.41840146760804e-09
9.26226104159619e-09
7.89145606304082e-09
-1.14089793451601e-09
9.79192377813218e-09
-5.26923726934775e-08
1.38073322173569e-09
1.24817695318656e-08
-7.19146920664195e-07
-7.7138670175002e-09
3.77640426900318e-08
7.2358315449828e-10
6.23562654177793e-08
-2.16422620938483e-08
-4.028791308812e-09
2.64188713424346e-08
-1.32421595813133e-09
-1.87900455221463e-09
2.75504679169923e-08
-9.06126524695215e-09
-5.93970379065238e-09
4.96459272831781e-08
-2.72198219460463e-08
-6.74070254612295e-09
1.06466361800494e-07
-6.80988194384817e-08
-1.34112341111324e-08
3.15830568997521e-10
1.41554994444374e-09
1.46566605872161e-08
-1.95635992297407e-09
1.67508428849398e-08
5.79853663622438e-09
1.5299122215896e-09
-3.43866763405329e-09
2.47360481465154e-08
-3.62410849073134e-09
1.77954427371254e-08
-2.67566970520532e-09
2.62439818898556e-08
-8.14834415914591e-09
-1.08589332044421e-07
4.74458519902519e-08
-1.45028080485901e-07
-9.74339060216668e-09
9.33318442388385e-08
-2.02928409239683e-07
-1.32519892130329e-08
1.94474963196279e-07
-3.08802182170219e-07
-2.39080848122126e-08
1.69864026824624e-08
-3.81496836922122e-09
-8.75696965197634e-08
-1.55188348932337e-07
-2.90577954633893e-08
3.74025275724507e-07
-6.3124531087203e-08
-1.69668964212727e-08
2.79375371961782e-07
-2.75482990844152e-08
-9.30805262881183e-09
2.18100477299646e-07
-1.31882442155103e-08
-3.60648959701186e-09
1.65768225637909e-07
-7.76604464586462e-09
-1.24735315842878e-09
1.27118948915858e-07
-4.14196602202229e-07
4.78260884752344e-07
4.8995917104163e-08
4.65657883903906e-07
-2.23347342648433e-08
-8.40985922271429e-07
3.47669749444293e-07
-1.27841636679971e-07
-1.18066786508322e-06
1.88187326873459e-07
-1.0510885639571e-07
-1.14819431986358e-06
9.65584868613737e-08
-3.55408725158159e-08
-1.16215454677035e-06
4.77794347535348e-08
-4.98008833659705e-09
-1.09455507229438e-06
2.64761782353287e-08
2.36136098900397e-09
-9.94603552006886e-07
1.81755410581936e-08
2.27160707534735e-09
-9.0452631418925e-07
-3.07346999998821e-07
2.75178757808795e-07
-1.9311240266156e-07
-4.92209592221947e-08
5.71488786947178e-07
-2.10982753869484e-07
-2.41748453245608e-08
8.51806199048114e-07
-1.38586198578677e-07
-4.80893073436302e-08
1.04570610910811e-06
-6.70454091559841e-08
-4.99191858235626e-08
1.11832305648591e-06
-3.96486822276666e-08
-3.50565801882816e-08
1.09185404596695e-06
-2.53354208504289e-08
-2.26195097780553e-08
1.00621332002022e-06
-1.7636629491456e-08
-1.360337329848e-08
9.23338462599789e-07
-6.4389975358886e-09
7.76738536383105e-07
-7.58121821216884e-09
1.27717567778175e-10
7.22726475407608e-08
-1.29572202962034e-09
8.59638489715851e-10
5.18467769913415e-09
2.63450763624866e-09
4.5934053073618e-11
-2.50481312629918e-10
7.55582079685723e-09
-3.8900118859298e-10
2.52900272740133e-09
1.32794657211622e-08
-1.14250440419932e-09
5.69619491757703e-09
1.74766168703321e-08
-1.64557981493175e-09
7.29500717058514e-09
1.20333994476391e-08
-9.11151039551097e-10
7.98849225042649e-09
-4.72982452664072e-08
1.42520145119683e-09
1.01643723993914e-08
-7.3075286518207e-07
3.79287419924749e-09
1.53185426830832e-08
-9.55422535509551e-11
-2.47027947543617e-09
2.76877141054703e-08
8.83502008430205e-10
-6.6903281616099e-09
4.36917521402441e-08
-1.48219045481568e-09
2.93098446775714e-08
2.59674411933443e-10
-2.89745362606428e-09
6.84726748696321e-08
-2.14467585892294e-08
-7.73079245811196e-09
1.7804596773514e-08
-3.67398057782167e-09
9.57955961315818e-09
1.9483148779373e-08
1.24507789269609e-10
-6.0554898325093e-09
3.08695681538521e-08
-8.81481776486571e-09
-7.7786711180873e-09
5.50061732878745e-08
-2.92442103599061e-08
-7.29412315828995e-09
1.22151769636137e-07
-7.82658200932861e-08
-1.8046277643597e-08
-9.88759876288184e-10
8.02485311859333e-09
1.07370309289261e-08
2.04531663523534e-10
2.46458544272881e-09
8.59103071003926e-09
-2.83088199110987e-09
1.35720910904438e-08
1.17059235596031e-08
1.02905891060982e-09
-2.05451184585609e-09
1.88488442077495e-08
-3.79644085251254e-09
1.42793155758132e-08
2.17650874502905e-09
3.00323148651742e-08
-1.0166877779495e-08
-1.25283675598314e-07
1.89957229953036e-08
-7.58507696702132e-09
-9.73589519157948e-08
5.5258171146839e-08
-1.65671556406547e-07
-5.73333334365125e-09
1.14978418740464e-07
-2.39783555015489e-07
-9.09498808874033e-09
2.49112073247141e-07
-3.39369126390369e-07
1.41158891726416e-08
-3.57317666767935e-09
-8.0857331948893e-08
-1.77942993450537e-07
3.79719868601878e-09
4.1230014165604e-07
-6.87154020983778e-08
-2.04576984480441e-08
3.07580244255133e-07
-2.84807108078568e-08
-1.42104671415375e-08
2.45677769050709e-07
-1.38978517561185e-08
-8.10740420476564e-09
1.96824201107385e-07
-8.39827646396311e-09
-3.47103147717052e-09
1.5102854981504e-07
-6.33849365339909e-09
-1.31532772068248e-09
1.17245665082518e-07
4.60944978383806e-07
-9.85632641758246e-08
3.39209947192488e-07
-6.68952036663355e-07
1.7132466664363e-07
-1.22072070194639e-06
2.42107596796417e-07
-3.08010025666446e-07
-1.21996860019407e-06
1.21095159311092e-07
-6.78002157930296e-08
-1.23709056028962e-06
6.06449134727877e-08
-2.59989762817866e-08
-1.20185170738756e-06
3.14316425617816e-08
-9.05640666618704e-10
-1.12276540382212e-06
1.99383145754508e-08
2.2246132048823e-09
-1.01455531223093e-06
1.49296757382875e-08
2.80063233480289e-09
-9.20863530940711e-07
-2.49531018428816e-07
4.75447649646289e-07
-1.64219027919059e-07
-4.67393006929172e-08
7.5822026339664e-07
-1.38190267437065e-07
-4.68216249157881e-08
9.8867419288369e-07
-7.14548393308945e-08
-6.3590367924875e-08
1.1307743502217e-06
-4.12083805174061e-08
-4.99830475540837e-08
1.17441176256594e-06
-2.87788734943758e-08
-3.22571518412902e-08
1.13022666676617e-06
-2.02008200330632e-08
-1.9960301190135e-08
1.03271707335152e-06
-1.34618243814943e-08
-1.20512513006157e-08
9.42367144271192e-07
-4.97395587204981e-09
7.88846620562497e-07
-7.145331883988e-09
-3.65420048132592e-10
6.69859938646956e-08
-1.9472248829408e-09
5.1322135582594e-10
1.86275160020981e-09
1.51093506625944e-09
-1.17164629231086e-10
-3.35857558155743e-09
5.85784684500229e-09
-4.9210406315398e-10
-5.93042295316949e-10
1.11687736995865e-08
-8.04517715641215e-10
2.9789798398446e-09
1.67999482080845e-08
-1.33932607834305e-09
5.56391460427613e-09
2.05459419996536e-08
-1.88973485687504e-09
6.99908931206697e-09
1.49105419533934e-08
-1.2716020970449e-09
7.67913416973915e-09
-4.35504478121177e-08
1.76667428628524e-09
9.13760057812581e-09
-7.41666591634864e-07
1.07636171014938e-08
-1.9694682349074e-09
1.18102436895754e-08
4.75524556419509e-09
2.10132311610161e-10
8.08232309936984e-09
6.87638719637927e-09
1.62538981570363e-08
-6.11067265103332e-10
-8.83123375241225e-10
2.06444687742989e-08
5.49601043075912e-10
-6.50928627516194e-10
3.19372867678206e-08
-6.16871300952722e-10
-4.00892388279721e-09
4.7065518199453e-08
-4.56013583543162e-09
1.89894043802953e-08
1.35911723335169e-08
-5.13174425103256e-09
3.08104546874837e-08
3.4196903732722e-09
-3.57862356787882e-09
7.6922733177114e-08
-2.1745563480276e-08
-9.48395438762497e-09
1.43559049213844e-08
-4.7716814475323e-09
1.66437032374949e-08
1.5725459313355e-08
5.98524735396086e-09
-6.39003299764368e-09
2.16663453714708e-08
1.90685828422964e-09
-8.41829062582138e-09
3.36289901444224e-08
-8.5762120100527e-09
-6.82500210912776e-09
6.52534177228167e-08
-3.69716176780504e-08
1.11396407423706e-09
1.48255442321785e-07
-1.29525269111601e-07
3.43606130103165e-08
-1.84908163418784e-09
1.0153529521731e-08
1.24841822766099e-08
-7.04549512619709e-10
6.87182398396553e-09
6.53782310639735e-09
2.09085672399182e-11
1.87499274546393e-09
4.51902040738825e-09
-3.19711597439814e-09
1.24120705256938e-08
1.54272391460391e-08
6.05076106412442e-10
-2.15686689515861e-09
1.45717837048113e-08
-4.01295344347072e-09
1.29700761723483e-08
5.44038277389267e-09
3.45222323209637e-08
-1.40787065262117e-07
-8.960419362203e-09
2.13742746899467e-08
-1.08831929215277e-08
-1.1195038331866e-07
1.56755940989882e-08
-7.38984430903e-09
-8.92873754225293e-08
7.11960059873666e-08
-1.92574371049889e-07
-3.06569085321997e-09
1.90243676677033e-07
-2.84413629727362e-07
1.29353752892244e-08
-3.82808982610059e-09
-7.63214792631737e-08
-1.60806853980019e-07
-7.19278003638361e-08
5.33151039806846e-07
-7.89237123506339e-08
-2.6944738603046e-08
3.59473511038921e-07
-2.88610449962891e-08
-2.01749320104903e-08
2.70906972223541e-07
-1.31630780625608e-08
-1.31098565097621e-08
2.22592761898259e-07
-8.29410264015659e-09
-7.35883203864264e-09
1.80199043442381e-07
-6.64231686677345e-09
-3.22304077319547e-09
1.39346327200259e-07
-5.84982442192662e-09
-8.23944239035508e-10
1.10079045100918e-07
4.84779479408028e-07
-4.93730239914895e-07
3.11445693071301e-07
-8.09123394703335e-07
-4.13907914087535e-07
-1.10487495263779e-06
1.43137439113762e-07
-1.95399914691108e-07
-1.23557778411339e-06
7.58314895127991e-08
-6.67811431542795e-08
-1.27218335711216e-06
3.86151338496769e-08
-1.0533152938913e-08
-1.23088325514456e-06
2.28754402506904e-08
4.08570129583611e-10
-1.14387131809022e-06
1.66742249419078e-08
1.41004896643917e-09
-1.02987014612181e-06
1.3161286152873e-08
4.1691286650795e-09
-9.36452616830798e-07
-2.2780942135381e-07
6.56451039092452e-07
-1.4794320978478e-07
-4.65816085276919e-08
9.05868667725679e-07
-8.73497204263007e-08
-6.96317869201435e-08
1.08200489198574e-06
-4.41080837976079e-08
-6.74438879395241e-08
1.19231123922149e-06
-2.96849055865106e-08
-4.70239138984126e-08
1.21881130914526e-06
-2.2431460790949e-08
-2.92624230977837e-08
1.16194013526573e-06
-1.71742704169237e-08
-1.77467908521127e-08
1.05554951034748e-06
-1.130211548124e-08
-1.03564272191829e-08
9.59033815291432e-07
-3.88476439778174e-09
7.99536902915556e-07
-6.82654027475115e-09
-5.87980807490956e-10
6.3165467479564e-08
-2.75060472051533e-09
2.84987253652194e-10
-5.05513081495262e-10
1.33714651659479e-10
-1.90834917258162e-10
-5.4829744507859e-09
3.82435030717502e-09
-5.26800116612319e-10
-2.60174892973074e-09
8.39207851389034e-09
-7.11189676355976e-10
1.17322126193805e-09
1.36845517276639e-08
-9.8794513766853e-10
4.27515189634773e-09
1.90757491934929e-08
-1.416789660201e-09
6.42198069010458e-09
2.25386609166716e-08
-2.01872523814919e-09
7.75634166036448e-09
1.68504906178946e-08
-1.49353885883518e-09
8.29103455731932e-09
-4.12206161624261e-08
2.13565365699067e-09
8.84268382504885e-09
-7.52651143012749e-07
5.8263836123816e-09
1.01089574852378e-08
-1.12388868489908e-09
1.06116994774731e-08
1.61790468812972e-08
-2.89711293123447e-09
1.03596925458397e-08
-3.12375870459589e-09
1.70772370456635e-08
7.76911657977325e-09
3.32394715392342e-10
7.70717185367399e-09
3.9242240263139e-09
1.53119423186775e-10
3.13937647148226e-09
1.11708805059907e-08
1.55619229071829e-08
-5.50091428126564e-10
-1.06383757333138e-09
1.54194043195399e-08
2.46665148999593e-10
1.07282097384837e-09
2.37305582663958e-08
-6.1884157786961e-10
2.71080872816866e-09
3.36724500145419e-08
-3.10219156437169e-09
-1.64155599023129e-09
5.14651381040435e-08
-6.33760293085251e-09
1.50949271898104e-08
-6.10715177737611e-09
2.14927340861538e-08
1.90485330613255e-08
1.7707499054254e-08
-4.84727850246185e-09
3.42479413479279e-08
4.22284502543184e-09
1.44780341920236e-09
1.03094423909685e-07
-3.19785690475282e-08
-1.12885784169765e-08
1.33073481820385e-08
-5.16779768000848e-09
2.10287799901051e-08
1.4400997781637e-08
9.9541689621698e-09
-6.71133007887593e-09
1.73399219006665e-08
8.80564324956776e-09
-9.25901343574289e-09
2.27980178401761e-08
3.88617920470536e-09
-9.16443951380202e-09
3.98065018636634e-08
-1.21013695613314e-08
-3.13717262332882e-10
8.65316993677465e-08
-8.05648044436145e-08
5.58458061293712e-08
2.60133488254441e-07
-2.51445643954304e-07
-1.25703389669447e-07
-1.37633687676675e-09
7.64351737109114e-09
1.00433465438667e-08
-2.25715040543338e-09
1.08280545101333e-08
1.53341342746474e-08
-6.41353595721386e-10
4.82204493293251e-09
3.70212409049867e-09
-8.17781211950864e-11
5.60623984657375e-10
1.6880766754454e-09
-3.3889562030196e-09
1.26041829717517e-08
1.77608212762708e-08
4.00700341684055e-10
-2.90663862730824e-09
1.15084784721305e-08
-4.20831559781887e-09
1.30742459638303e-08
7.48831454273412e-09
2.34129814469217e-08
-1.24312508314272e-07
-1.21734956022122e-08
4.3832091430364e-08
-1.56295448149099e-07
-1.32734443065884e-08
1.74538921582724e-08
-1.16701892732736e-08
-1.0226347161004e-07
1.44234863067825e-08
-7.28608836725764e-09
-8.35911541239812e-08
1.28276178301745e-07
-2.14544587177114e-07
-5.81325929879162e-08
1.29461056606209e-08
-4.00325867591268e-09
-7.3604748739081e-08
-4.53595396801793e-07
6.38544332704373e-07
-1.53991523891796e-07
-3.94489390797759e-08
5.51638697360474e-07
-3.92058379193053e-08
-3.1818202327557e-08
3.22938199886328e-07
-1.23592638165154e-08
-2.06070657611048e-08
2.46624046385811e-07
-7.0450507907456e-09
-1.16791611408341e-08
2.04244239618596e-07
-6.29902050527118e-09
-5.96378574403019e-09
1.66784458067902e-07
-6.17190459049165e-09
-2.74511650298305e-09
1.30246206418356e-07
-5.88786702289974e-09
-8.93024341209216e-10
1.04949244483362e-07
3.91793978818235e-07
-5.81852854287073e-07
-7.28540628275656e-07
3.65255707818003e-07
-4.45861307373646e-07
-2.68996378975863e-07
-9.28686043829209e-07
8.92767617992817e-08
-2.29447238473784e-07
-1.16015788882064e-06
9.47331012320097e-08
-1.05279498099071e-07
-1.29188399186733e-06
4.74724401422415e-08
-2.88623695742306e-08
-1.30137173692866e-06
2.70776513469288e-08
-2.76841170997287e-09
-1.2548254992e-06
1.85723864478573e-08
-4.2078805306439e-10
-1.16063249772494e-06
1.47342151445589e-08
4.23972141987641e-09
-1.04470756441285e-06
1.23701924600359e-08
5.53029927005114e-09
-9.5224288977104e-07
-2.01086870556653e-07
8.10893738973419e-07
-1.31835149948337e-07
-4.79143378793165e-08
1.01596791810831e-06
-5.87578592668336e-08
-7.78148177449252e-08
1.15109090880566e-06
-3.26872190386921e-08
-6.4390842633263e-08
1.24233026458719e-06
-2.36443313289638e-08
-4.29466234791169e-08
1.25609267188887e-06
-1.8574223969352e-08
-2.65258427663435e-08
1.18922937128422e-06
-1.35718229256486e-08
-1.61159504102986e-08
1.07484478739371e-06
-1.0000054963236e-08
-8.86462230698714e-09
9.73966198725855e-07
-3.10673843659331e-09
8.09091521963535e-07
-6.46914829791664e-09
-5.62685720998187e-10
6.04512669328285e-08
-3.55983893102734e-09
1.45752930651318e-10
-2.16149373241632e-09
-1.24259806864828e-09
-2.06635747728407e-10
-6.94525489804878e-09
1.80184430264562e-09
-4.7886990753615e-10
-3.87550244092129e-09
5.57621630967251e-09
-6.71483626177946e-10
1.0464429507456e-10
1.01313892805815e-08
-8.51054851967168e-10
3.54413097414234e-09
1.52656749471015e-08
-1.08306619294286e-09
6.1508838036603e-09
2.04288258404763e-08
-1.4633513043838e-09
8.02764085985621e-09
2.37294787903587e-08
-2.01921813925821e-09
9.20362568442794e-09
1.79562027042222e-08
-1.63379520594622e-09
9.43328831336222e-09
-4.0185824811754e-08
2.47966832608661e-09
9.00287859992722e-09
-7.64134621071337e-07
-6.7181946097571e-10
7.42259945946686e-09
2.35469551564787e-09
7.39934672004789e-09
1.38558919648581e-08
-2.16631679213114e-09
4.76266508114274e-09
1.40366353052456e-08
-1.54729237509751e-09
1.02559208732311e-08
2.20429970319421e-08
-4.15348728268573e-09
9.03764718247663e-09
2.08693180378893e-08
-2.59154409077505e-09
1.14907529088813e-08
-3.77946421862428e-09
2.04130111571142e-08
1.19421773174149e-08
1.02935449739114e-09
5.62843097531659e-09
6.58344147750116e-09
4.63909792785885e-10
1.88093360210483e-09
2.27336140223581e-09
9.09882858467548e-11
-3.74542077951722e-10
1.45428159282269e-08
1.5906824386701e-08
1.59772838255264e-09
-2.03544368748379e-09
1.15576296501595e-08
1.19730809121512e-10
7.40687650088684e-10
1.76288276938455e-08
-7.00426669945689e-10
4.36242344408343e-09
2.4417457442834e-08
-2.78048200355247e-09
5.94642874881112e-09
3.64395060800768e-08
-6.38909339347633e-09
-4.85672825387374e-09
7.51533553180297e-08
-1.27638879231223e-08
1.46308892940081e-08
-6.63709724624641e-09
2.64007089593411e-08
1.41547768327501e-08
-7.03261674482088e-09
2.65388531496803e-08
2.04622864657502e-08
1.96031596672219e-08
-8.90104786251292e-10
4.82385412740666e-08
-4.66195834648624e-09
1.24085661944975e-08
2.81198873956773e-07
-1.36547066147915e-07
-4.9832915413195e-08
1.37817004464382e-08
-5.55351266121734e-09
2.38094455334025e-08
1.46179410956252e-08
1.24960639720747e-08
-6.94939877761194e-09
1.58505307468916e-08
1.35131559557964e-08
-9.81821934607821e-09
1.76878049122757e-08
1.21353281659026e-08
-1.1790127728553e-08
2.51609286879974e-08
4.03508126674484e-09
-6.64122328851964e-09
5.67766233971963e-08
-2.48027301971691e-08
1.54073898106821e-08
1.37078949392094e-07
-2.0391333786922e-07
-1.1937636449874e-07
4.80776240915938e-07
-6.68336546464745e-07
-1.07348611096002e-09
5.92496102993062e-09
6.93989539110011e-09
-1.74268120985838e-09
9.67338605610799e-09
1.20875595463054e-08
-2.49423142948265e-09
1.23328000804304e-08
1.70144518955462e-08
-4.9884539510627e-10
2.5060548898919e-09
1.77439916168151e-09
-7.16583881795072e-11
-1.08094916701444e-09
-2.75645401760093e-10
-3.51068999348979e-09
1.38093272952952e-08
1.90710292765278e-08
2.80439961993993e-10
-3.92221776953073e-09
9.40488461613805e-09
-4.30678289221344e-09
1.4171159463086e-08
8.54750169279456e-09
1.83881196737649e-08
-1.4112169802429e-08
-1.13200942024053e-07
2.75411187275362e-08
-1.34497311030909e-07
-1.40624393082323e-08
6.16715436139174e-08
-1.69452488537291e-07
-2.53204253926738e-08
1.58613351003324e-08
-1.13621399471537e-08
-9.5491703877131e-08
1.44929255483145e-08
-7.32325950156798e-09
-8.0033820578379e-08
2.4596570538148e-07
-1.8535711542133e-07
-2.67348072528533e-08
1.3741298068286e-08
-4.08251597957607e-09
-7.25317293883763e-08
-3.74878997633944e-07
7.72848954507404e-07
-1.19947441324444e-07
-3.40350171479218e-08
5.41901256407406e-07
-2.08246217122777e-08
-3.32327670248688e-08
2.97591753069e-07
-5.80868809287719e-09
-1.91384370741835e-08
2.27162283640146e-07
-4.79968691399887e-09
-1.0049924673402e-08
1.89473515857845e-07
-5.79805494233487e-09
-4.79749114381427e-09
1.56044085472306e-07
-6.16536800338797e-09
-1.92779288093979e-09
1.23858502813456e-07
-6.16195993552786e-09
-8.05670238440748e-10
1.0133515276027e-07
3.59445410103193e-07
-5.18766020814831e-07
-5.49679562586328e-07
3.84168741027067e-07
-2.80393660563298e-07
-2.68047071267922e-07
-9.2357065297842e-07
3.72831834266652e-07
1.52369924047186e-07
-1.50514717936179e-07
-1.16007487435718e-06
1.09202329783371e-07
-8.86835156262857e-08
-1.28599352994311e-06
5.72191575743907e-08
-3.91235204630413e-08
-1.33887665742934e-06
3.10559924415353e-08
-5.02713473131765e-09
-1.330211909237e-06
2.07297601301733e-08
-2.31323265219194e-09
-1.27370876378189e-06
1.65249540368221e-08
1.85480556733213e-09
-1.1748064524438e-06
1.38258438233175e-08
7.28175972646182e-09
-1.06030716043166e-06
1.21865988442681e-08
6.72651306923225e-09
-9.68693457791389e-07
-1.77918576526327e-07
9.40842729169916e-07
-1.11020317595999e-07
-5.19479315379573e-08
1.10104918477928e-06
-4.68499081050469e-08
-7.42333846722331e-08
1.20773594504129e-06
-2.65957486109261e-08
-5.88520484324624e-08
1.28479135929779e-06
-1.98768226001518e-08
-3.88925630518635e-08
1.28828936797838e-06
-1.51390582282706e-08
-2.42398148452788e-08
1.21244656179728e-06
-1.1591645391579e-08
-1.44395283723771e-08
1.09197181746659e-06
-9.11091160049557e-09
-7.65844158419273e-09
9.87579092634773e-07
-2.49343255007977e-09
8.17741230253981e-07
-6.16066384685467e-09
-3.42264458241012e-10
5.85949290782687e-08
-4.28365298864673e-09
7.89647143667001e-11
-3.25635027939895e-09
-2.54571244711057e-09
-7.20208421014067e-11
-7.93694605293926e-09
-1.80064573386732e-10
-2.21520699773714e-10
-4.74993658932284e-09
2.89696266359878e-09
-5.4609563143767e-10
-4.72108192940229e-10
6.69814851669369e-09
-7.32552437960237e-10
3.28233261199486e-09
1.11250463432749e-08
-9.39534027207412e-10
6.26948481669525e-09
1.60856913154347e-08
-1.15422965872781e-09
8.54820808426509e-09
2.10610427581781e-08
-1.50741877938209e-09
1.02111431962881e-08
2.42283016610527e-08
-2.02842058555687e-09
1.11384552581882e-08
1.82772820734824e-08
-1.74449314141718e-09
1.09135965253996e-08
-4.0362943526222e-08
2.81366854874629e-09
9.45443391825065e-09
-7.76410073881897e-07
6.64059279649119e-10
-7.38444205884349e-10
1.07453131481712e-08
-1.55212366294348e-09
5.30504853012803e-09
9.99253962129319e-09
-3.31927848188035e-10
4.54446118847713e-09
-8.4919626410525e-11
1.01437594828493e-08
1.62358529854427e-08
-2.7787040490661e-09
6.68624792721199e-09
1.81578169360376e-08
-2.7212023355291e-09
2.18971514735043e-09
1.83204624268452e-08
-1.08273421653653e-09
1.17688690622011e-08
2.57459201351907e-08
-5.10000920037648e-09
8.61782734281042e-09
2.69747401473485e-08
-4.25135740404887e-09
7.96157672324819e-09
2.39379747329173e-08
5.06577009355281e-10
1.35148756218782e-08
-4.22409253765502e-09
2.24070564868174e-08
1.58461252023862e-08
2.67891170299421e-09
4.34969320092903e-09
1.03563858328633e-08
1.11710792745076e-09
-1.02468811997791e-09
4.51516977444297e-09
4.48132806726149e-10
-2.25582953922663e-09
2.58041167848239e-10
1.28237785945414e-10
-2.8708546005809e-09
1.34048657294139e-08
2.5585054774678e-08
5.97758307744472e-09
-3.29779480667889e-09
8.86224260586612e-09
9.99898310822538e-11
-4.86104101765783e-10
1.30800734242755e-08
-6.50633763359087e-10
3.7070672120962e-09
1.75659046362691e-08
-2.3620238105102e-09
7.54585180295445e-09
2.60898439476721e-08
-5.79487003530683e-09
4.25635617433041e-09
5.81879451845771e-08
-1.45117392466481e-08
-7.17665932433382e-08
2.62615997585752e-07
-4.24002216484802e-08
1.4325018146132e-08
-5.70015408895392e-09
2.94978001273816e-08
1.34926843209776e-08
-8.52343182949509e-09
3.20811332220391e-08
1.48530242242864e-08