/*--------------------------------*- C++ -*----------------------------------*\
  =========                 |
  \\      /  F ield         | OpenFOAM: The Open Source CFD Toolbox
   \\    /   O peration     | Website:  https://openfoam.org
    \\  /    A nd           | Version:  12
     \\/     M anipulation  |
\*---------------------------------------------------------------------------*/
/*   Windows 32 and 64 bit porting by blueCAPE: http://www.bluecape.com.pt   *\
|  Based on Windows porting (2.0.x v4) by Symscape: http://www.symscape.com   |
\*---------------------------------------------------------------------------*/
FoamFile
{
    format      ascii;
    class       surfaceScalarField;
    location    "0";
    object      phi;
}
// * * * * * * * * * * * * * * * * * * * * * * * * * * * * * * * * * * * * * //

dimensions      [0 3 -1 0 0 0 0];

internalField   nonuniform List<scalar> 
29005
(
3.17319234769354e-06
1.36107908754059e-08
-1.00137828654995e-07
3.25691526808108e-06
1.18772239649852e-08
-9.56004159685962e-08
3.40452763460399e-06
2.80845318614498e-08
-1.07457726491831e-07
3.21122886475137e-06
1.28176067933797e-08
-1.9955272356543e-07
3.33858784541299e-06
1.03297770893197e-08
-9.200260736342e-08
3.49449074730344e-06
2.4457076138589e-08
-1.02543267602537e-07
3.29508348678841e-06
1.1138639241326e-08
-1.9059400358321e-07
3.76571273878752e-06
4.42718474183833e-08
-1.19396764193272e-07
3.54322220964579e-06
2.4524919959421e-08
-2.148415760476e-07
3.30500127381569e-06
1.29866061629909e-08
-2.99503251260827e-07
3.41889653377038e-06
8.94623991757997e-09
-8.92551656433463e-08
3.58224226976105e-06
2.12149551710967e-08
-9.86370429196768e-08
3.376939852226e-06
9.64024017096593e-09
-1.83499593331165e-07
3.86554959039586e-06
3.8484467698812e-08
-1.1386461688702e-07
3.63586026809805e-06
2.10478468292353e-08
-2.05090962967611e-07
3.38936633067594e-06
1.0946933871341e-08
-2.85906424682289e-07
4.13487701821757e-06
6.09755184465097e-08
-1.3067970043537e-07
4.00190099894972e-06
4.09737070785245e-08
-2.44280078736214e-07
3.70089048471855e-06
2.81030357200755e-08
-3.27401375920641e-07
3.40328668424535e-06
9.16534352804535e-09
-3.94716630001944e-07
3.49847658776526e-06
7.70184488264767e-09
-8.72820780006851e-08
3.66851908610752e-06
1.83125042205349e-08
-9.56433285972934e-08
3.4574754881189e-06
8.30000068457913e-09
-1.78091090746605e-07
3.96290998366043e-06
3.32992228599063e-08
-1.09445036739005e-07
3.72628197244976e-06
1.79382434887838e-08
-1.97357143908272e-07
3.47184619660392e-06
9.12910540020984e-09
-2.75108984298367e-07
4.24509917665197e-06
5.29292531336285e-08
-1.24667354110755e-07
4.10685273950921e-06
3.51545165229129e-08
-2.32923465994862e-07
3.79544700188645e-06
2.38281383357648e-08
-3.12529086843683e-07
3.48696210129742e-06
7.18124337500437e-09
-3.76763382630118e-07
4.40371996376914e-06
7.64057297357434e-08
-1.37812814264557e-07
4.41417484111621e-06
6.03535087281379e-08
-2.70339934639175e-07
4.24283647048743e-06
4.389038396326e-08
-3.72261884444112e-07
3.7972636830555e-06
2.50614952513493e-08
-4.39393797316112e-07
3.46547044398377e-06
8.11559838449579e-09
-4.85570124332836e-07
3.5779199534513e-06
6.5766394923976e-09
-8.60201863998753e-08
3.75399744646532e-06
1.57031340555392e-08
-9.3479897052806e-08
3.53732841937178e-06
7.09500256483938e-09
-1.7423030804212e-07
4.05860825891727e-06
2.86510266871358e-08
-1.06037093954125e-07
3.81523941322281e-06
1.51446568838956e-08
-1.91445805617379e-07
3.55309948509896e-06
7.50622195308013e-09
-2.66851019420696e-07
4.35254869640019e-06
4.57082804348374e-08
-1.19858988468061e-07
4.20926467892091e-06
2.99298407799908e-08
-2.23849063170429e-07
3.88788307076043e-06
2.00520340675298e-08
-3.00716628281973e-07
3.56896910780025e-06
5.39993470479063e-09
-3.62516305267531e-07
4.52202879416264e-06
6.62406513618258e-08
-1.31620769132089e-07
4.53056118400249e-06
5.19887875007698e-08
-2.57888555000372e-07
4.35152035261767e-06
3.76601596386423e-08
-3.55439841564317e-07
3.89070094362486e-06
2.06128420092522e-08
-4.19398230620952e-07
3.5462255481148e-06
6.06781948915901e-09
-4.63586363572514e-07
4.5446069039032e-06
8.95589444073164e-08
-1.40793366081924e-07
4.67793769985793e-06
7.90052025938602e-08
-2.85004522917924e-07
4.6946084759777e-06
6.3885645667954e-08
-4.15123059920562e-07
4.35336847362639e-06
4.67211995026757e-08
-5.04356659591102e-07
3.83177694858782e-06
2.45921237418177e-08
-5.47455269154038e-07
3.48539771726662e-06
1.17965112443617e-08
-5.7445486577731e-07
3.65778828009941e-06
5.54940815604379e-09
-8.54178385227692e-08
3.83931145775326e-06
1.33444660941833e-08
-9.20820042890733e-08
3.61708654466776e-06
6.00151845560315e-09
-1.71780049556577e-07
4.1533906114195e-06
2.44729263109926e-08
-1.03552399045376e-07
3.9034256996866e-06
1.26215190088982e-08
-1.87192989946948e-07
3.63376252544744e-06
6.01337394796934e-09
-2.60907052701118e-07
4.45811869640304e-06
3.92279127894536e-08
-1.16147194141221e-07
4.30999064722572e-06
2.52321721299967e-08
-2.16850955311504e-07
3.97895187314231e-06
1.66721903413119e-08
-2.91680955237524e-07
3.64995299893626e-06
3.79131054034262e-09
-3.51626545456452e-07
4.63730367972223e-06
5.71093620303462e-08
-1.26676271362704e-07
4.64408750381771e-06
4.44764689039619e-08
-2.47932423001225e-07
4.45772479929047e-06
3.20962732032553e-08
-3.42098233653268e-07
3.98226631749567e-06
1.66412995468572e-08
-4.03523747634277e-07
3.62566669410222e-06
4.23221170975062e-09
-4.46189827601119e-07
4.66794277510905e-06
7.75587581498609e-08
-1.34653815096795e-07
4.80227096633728e-06
6.82420751153785e-08
-2.72207442226598e-07
4.81550211145223e-06
5.48339847195618e-08
-3.95956266626018e-07
4.46075908913367e-06
3.92616276433338e-08
-4.81479448162524e-07
3.9211526103408e-06
1.99707943372334e-08
-5.22676850055196e-07
3.56106693693371e-06
9.44277185768413e-09
-5.48698219126015e-07
4.59429104792525e-06
1.0013131278175e-07
-1.41248188613408e-07
4.79915220114521e-06
9.45792111149641e-08
-2.89698777780444e-07
4.95095755399443e-06
8.38323878537795e-08
-4.37703000789161e-07
4.80298182845973e-06
6.78960035630578e-08
-5.58972142270753e-07
4.36434347344557e-06
4.66229085565569e-08
-6.31020694868908e-07
3.83840124074899e-06
2.96493309273714e-08
-6.50333050762795e-07
3.48068703799958e-06
1.72493175368431e-08
-6.61535515425406e-07
3.7386286731702e-06
4.59051261477505e-09
-8.54309696410881e-08
3.92506854457043e-06
1.11920807598909e-08
-9.13999124238361e-08
3.69730931938805e-06
4.99031720510931e-09
-1.70631140404471e-07
4.24795574675335e-06
2.06987565375159e-08
-1.01919619545165e-07
3.99149023795667e-06
1.03237719878756e-08
-1.84469086498321e-07
3.71443978298798e-06
4.61867542536384e-09
-2.57076323652288e-07
4.56262800382173e-06
3.34015431654827e-08
-1.13438204401884e-07
4.40981368289698e-06
2.0992855487585e-08
-2.1174714425255e-07
4.06934228365788e-06
1.36122650963218e-08
-2.85182683828876e-07
3.73053381973066e-06
2.30415956742678e-09
-3.43792348940307e-07
4.75049348261095e-06
4.89074310365163e-08
-1.22869701369192e-07
4.75569539301355e-06
3.77278400443227e-08
-2.40251257956124e-07
4.56232855732897e-06
2.7118325354174e-08
-3.31901311781981e-07
4.07268452691928e-06
1.30770011149263e-08
-3.91385190954722e-07
3.70440158233815e-06
2.57436135207994e-09
-4.32935977328533e-07
4.78803820285173e-06
6.67736704049446e-08
-1.29760309661758e-07
4.92348590005393e-06
5.85795490595742e-08
-2.61995085031986e-07
4.93358681383323e-06
4.67268038862393e-08
-3.80648165172622e-07
4.56596966594789e-06
3.26483760297728e-08
-4.63316083095954e-07
4.00906030286935e-06
1.58627049349533e-08
-5.03062019330431e-07
3.63590354005148e-06
7.35505441632835e-09
-5.28381439749408e-07
4.7204908000297e-06
8.66440730708269e-08
-1.35284635214176e-07
4.92805596216503e-06
8.17666247799649e-08
-2.77082391299922e-07
5.07952961223316e-06
7.21852592308805e-08
-4.18130818265797e-07
4.9220569666251e-06
5.79753046465316e-08
-5.33744802627061e-07
4.46642728643151e-06
3.90107319067976e-08
-6.02603112037588e-07
3.92184528736123e-06
2.4491311387476e-08
-6.21169358426807e-07
3.54979056530411e-06
1.45843281224697e-08
-6.32385800018579e-07
4.5988324413143e-06
-1.40468902218968e-07
4.83621182102633e-06
1.06554530735598e-07
-2.89365543548522e-07
5.04837915119059e-06
1.00755723746926e-07
-4.43601615611449e-07
5.03853130353687e-06
8.81232744322876e-08
-5.87822697881765e-07
4.79091265423364e-06
7.06448773958574e-08
-6.98559310960216e-07
4.35484520697944e-06
5.24604269952236e-08
-7.50676511945624e-07
3.83983052103645e-06
3.68552696576015e-08
-7.47133848575356e-07
3.47252132361115e-06
2.15221870493531e-08
-7.44735591536114e-07
3.82097644151844e-06
3.67112062341344e-09
-8.60188435461623e-08
4.01185740912118e-06
9.18876798209937e-09
-9.13871546509788e-08
3.77854727764778e-06
4.02855382174787e-09
-1.70697570947664e-07
4.34297502573054e-06
1.72593965564515e-08
-1.01086740009577e-07
4.0800524825436e-06
8.20285514785332e-09
-1.83174880067472e-07
3.79567325963399e-06
3.25410263445889e-09
-2.55118952021923e-07
4.66684490721923e-06
2.81373837301281e-08
-1.11655726419229e-07
4.50946371753347e-06
1.71443555828423e-08
-2.08390512468848e-07
4.15970172395366e-06
1.08100790169671e-08
-2.81020220095309e-07
3.81135979948093e-06
8.10656988268913e-10
-3.38713217619956e-07
4.86247322003997e-06
4.15269962109291e-08
-1.20105355364881e-07
4.86625016617941e-06
3.16506777119242e-08
-2.34651163802462e-07
4.66612569542816e-06
2.26450126779006e-08
-3.24577423425924e-07
4.16261628710644e-06
9.84176205492187e-09
-3.82652371329345e-07
3.78304432152075e-06
1.01668353156113e-09
-4.23451925384086e-07
4.90587119986855e-06
5.70803372069966e-08
-1.26005705876675e-07
5.04257902934197e-06
4.99049850953613e-08
-2.54140075483638e-07
5.04983470530416e-06
3.94656936054404e-08
-3.68846818201859e-07
4.66983053300915e-06
2.67401372019078e-08
-4.49425587134416e-07
4.09616759401852e-06
1.2194122942492e-08
-4.8811233413595e-07
3.71044985580061e-06
5.48734989626821e-09
-5.12969635269302e-07
4.84328355913826e-06
7.45181888037134e-08
-1.30537429681045e-07
5.0536427552342e-06
7.02665995773963e-08
-2.67034441180494e-07
5.20504419117406e-06
6.17586450361756e-08
-4.02541884056976e-07
5.03864291241377e-06
4.91306295780662e-08
-5.13716576903439e-07
4.56680296610393e-06
3.22835048546104e-08
-5.80112591291788e-07
4.00435641067059e-06
1.99479373848916e-08
-5.98166063234585e-07
3.61864502899395e-06
1.22217726658265e-08
-6.09457503374689e-07
4.72688628246407e-06
9.33396714111285e-08
-1.3474931067244e-07
4.9677526333855e-06
9.21138741614017e-08
-2.77173183496702e-07
5.18097132713564e-06
8.68877741573962e-08
-4.24377361657505e-07
5.16461241641555e-06
7.56370472494025e-08
-5.61873439882962e-07
4.90358759592544e-06
6.0117816694835e-08
-6.67526438858061e-07
4.44985316765471e-06
4.39167234556604e-08
-7.17036299337572e-07
3.91619536259307e-06
3.1326620342254e-08
-7.14276137736196e-07
3.5342908657123e-06
1.84239160975753e-08
-7.12578927973551e-07
4.83733895734395e-06
-2.87165077801759e-07
5.06762356886196e-06
1.13874745506423e-07
-4.41964768733777e-07
5.11426342688225e-06
1.05343448871483e-07
-5.94428856233544e-07
5.00702802433791e-06
9.15014983265221e-08
-7.30858827377121e-07
4.76981186205672e-06
7.53253344091933e-08
-8.28314841341331e-07
4.35887268733307e-06
5.96662871789564e-08
-8.6155204658984e-07
3.84514053862176e-06
4.32926501866956e-08
-8.37396094817617e-07
3.47402087117054e-06
2.38011985149405e-08
-8.21531402281988e-07
3.90534765954596e-06
2.77395340527533e-09
-8.71450856682409e-08
4.10025399730506e-06
7.26141155897404e-09
-9.19868753356965e-08
3.86134129930157e-06
3.07322248264142e-09
-1.71886136881382e-07
4.43909363116628e-06
1.40798657602904e-08
-1.010097607638e-07
4.16972894357036e-06
6.19099610937359e-09
-1.83226207646887e-07
3.87803587461235e-06
1.82141041714062e-09
-2.54881794524253e-07
4.77150329817584e-06
2.33396870138853e-08
-1.10738843494623e-07
4.60963123603531e-06
1.36191409369741e-08
-2.06670802235453e-07
4.2506612263078e-06
8.1919672339607e-09
-2.7907252907941e-07
3.89291402646206e-06
-4.77254032765387e-10
-3.36196142606834e-07
4.9740631949845e-06
3.48513003855695e-08
-1.18304168841908e-07
4.97655938304112e-06
2.61509109026499e-08
-2.30971896738606e-07
4.76985120229827e-06
1.86021830799973e-08
-3.19908493880615e-07
4.25263709778652e-06
6.8495623056331e-09
-3.77080201703919e-07
3.86213101951005e-06
-3.3165360599531e-10
-4.17468404504944e-07
5.02234733593119e-06
4.83489389739514e-08
-1.23298608728663e-07
5.16046825258996e-06
4.20995461908185e-08
-2.48444161121332e-07
5.16513065740188e-06
3.29474575425486e-08
-3.60250005885724e-07
4.77309607869206e-06
2.1430397974383e-08
-4.39431763069965e-07
4.18304335051215e-06
8.88232980155301e-09
-4.77393856745064e-07
3.78518940207558e-06
3.80205141770427e-09
-5.01993510808598e-07
4.96365546072066e-06
6.36150087012593e-08
-1.26906381704855e-07
5.17693205983134e-06
5.99429278649719e-08
-2.59333291367691e-07
5.32852366875133e-06
5.2423664038824e-08
-3.90577654372483e-07
5.15367734613741e-06
4.12461900390154e-08
-4.98387134430404e-07
4.66622990044556e-06
2.63228446037375e-08
-5.62981270367529e-07
4.08653144124272e-06
1.59258403504647e-08
-5.80725899979741e-07
3.68771266005696e-06
1.00771040124224e-08
-5.92114231319961e-07
4.85138041447271e-06
8.02252027490585e-08
-1.30200290190636e-07
5.09580721496696e-06
7.91520355726305e-08
-2.6747709957329e-07
5.31031252344062e-06
7.44786298820211e-08
-4.09095477850886e-07
5.28797509767635e-06
6.45115969508011e-08
-5.41285036121956e-07
5.01431697360813e-06
5.07999452237002e-08
-6.42962193829042e-07
4.54375816370015e-06
3.64692852945736e-08
-6.90538880191151e-07
3.99225725459909e-06
2.64127393839621e-08
-6.88418664547047e-07
3.59648656240438e-06
1.57465191226145e-08
-6.87399477382671e-07
4.71615275926412e-06
9.74284869720686e-08
-1.33680222385647e-07
4.97077776944552e-06
9.94292724870008e-08
-2.75502727558788e-07
5.20253774791671e-06
9.8238197041286e-08
-4.23437588863256e-07
5.24386268093572e-06
9.05759205575564e-08
-5.68914831502405e-07
5.12605621932444e-06
7.82774192969025e-08
-6.9906059360927e-07
4.87461426277971e-06
6.40104670874841e-08
-7.92422348713047e-07
4.44589767072197e-06
5.12223505209097e-08
-8.23956704685798e-07
3.91371552614216e-06
3.68327040535983e-08
-8.0125971300844e-07
3.52802051983973e-06
2.04979433942402e-08
-7.87076222443135e-07
5.06055118652483e-06
-4.38019334055262e-07
5.12004783495e-06
1.18946599378826e-07
-5.91498084925863e-07
5.07046244870321e-06
1.09098131183049e-07
-7.37706724955543e-07
4.98036085485331e-06
9.62222127723567e-08
-8.64966316490541e-07
4.77738379830547e-06
8.15752975161373e-08
-9.4784429729892e-07
4.375746910991e-06
6.50821991015668e-08
-9.61815046351675e-07
3.8590636321798e-06
4.6747234603642e-08
-9.19428015891317e-07
3.48847476990845e-06
2.42821313973965e-08
-8.89744221459233e-07
3.99221161822494e-06
1.86791875665985e-09
-8.87317057807949e-08
4.19079997850022e-06
5.31688786372811e-09
-9.30887936167545e-08
3.94624608019621e-06
1.92082274093477e-09
-1.73970614572741e-07
4.53692856652713e-06
1.10755125004251e-08
-1.01649025191814e-07
4.26117793936845e-06
4.18040031170218e-09
-1.84543065627377e-07
3.96220386503e-06
2.52946880922017e-10
-2.56307127966263e-07
4.87729917998755e-06
1.89122484594792e-08
-1.10628319277079e-07
4.71098795182014e-06
1.03558714083244e-08
-2.06531480052884e-07
4.34285846508392e-06
5.57619477229418e-09
-2.79178367394783e-07
3.97569137117338e-06
-1.5157929986023e-09
-3.36143452518551e-07
5.08603745217529e-06
2.87636555223358e-08
-1.17398273515518e-07
5.08738984104694e-06
2.11330344501812e-08
-2.29083436942021e-07
4.87417965938419e-06
1.49300384754951e-08
-3.17737607967112e-07
4.34343732038498e-06
4.07602134684694e-09
-3.74426247594744e-07
3.94206089819888e-06
-1.35010113804574e-09
-4.14775987806404e-07
5.13831251232797e-06
4.04456809023227e-08
-1.21559311462771e-07
5.27801185505318e-06
3.50402333362576e-08
-2.44737096888567e-07
5.28029997248189e-06
2.70754139262287e-08
-3.54614657398189e-07
4.87645295535208e-06
1.66219892196397e-08
-4.33038008910832e-07
4.27025817659936e-06
5.88629491951453e-09
-4.70513028754834e-07
3.86059428374121e-06
2.21131910155576e-09
-4.95084589755049e-07
5.0825221772671e-06
5.37885425346571e-08
-1.24306581295324e-07
5.29886601218715e-06
5.06534918186174e-08
-2.53786800283723e-07
5.45090903746551e-06
4.40456586456092e-08
-3.81928089737728e-07
5.26799910036879e-06
3.42063654600447e-08
-4.87347936961596e-07
4.76537575536594e-06
2.10086634477103e-08
-5.50703990616919e-07
4.16889018369792e-06
1.23514749277441e-08
-5.6830209525182e-07
3.7573754583331e-06
8.18751894594853e-09
-5.79843724008628e-07
4.97329721326656e-06
6.8430280376396e-08
-1.26732610081376e-07
5.22139948583743e-06
6.75136729365654e-08
-2.60070106580547e-07
5.43744207901133e-06
6.33701520779479e-08
-3.97409725951091e-07
5.40960404936537e-06
5.45959881693325e-08
-5.25556345754441e-07
5.12393474705149e-06
4.25465684893076e-08
-6.24228435503518e-07
4.63724726885882e-06
3.00126917842595e-08
-6.70557222814222e-07
4.06855965376183e-06
2.18801810223797e-08
-6.68831172775559e-07
3.65942906516291e-06
1.34302564885246e-08
-6.68486804876024e-07
4.84203052896826e-06
8.37101821288554e-08
-1.29362443590221e-07
5.10056410541819e-06
8.54052396425284e-08
-2.66240198007885e-07
5.33402201839789e-06
8.42482410256021e-08
-4.087310199926e-07
5.37054942782104e-06
7.74241688538745e-08
-5.48694419564001e-07
5.24291980052009e-06
6.65678891793058e-08
-6.73916247494929e-07
4.97814612472317e-06
5.4060138064846e-08
-7.64084808301865e-07
4.5324699889006e-06
4.36390430557957e-08
-7.94337273936275e-07
3.98274149735601e-06
3.12601832239686e-08
-7.72958181263806e-07
3.58317746373643e-06
1.76731840175904e-08
-7.60229381086616e-07
4.70142857880185e-06
9.87178798841138e-08
-1.32392770174423e-07
4.96055410637e-06
1.03777819896216e-07
-2.73166502173364e-07
5.19733863486139e-06
1.06275556092983e-07
-4.2032665742038e-07
5.25177439421055e-06
1.02329241943938e-07
-5.66916151675936e-07
5.19276690600329e-06
9.34983960968341e-08
-7.06439694941658e-07
5.09121753845073e-06
8.20911749644096e-08
-8.27997600373911e-07
4.87391710051405e-06
6.952575069842e-08
-9.07258587551231e-07
4.45425297926579e-06
5.55067953280904e-08
-9.21136604125503e-07
3.91924650493438e-06
4.02713280806509e-08
-8.81215591032896e-07
3.53441446682625e-06
2.09330852138783e-08
-8.53948703929186e-07
5.10665763763438e-06
-5.85887055296545e-07
5.07015087382537e-06
1.23146149376193e-07
-7.33604859477207e-07
5.04145484497863e-06
1.14359983810687e-07
-8.72629813229053e-07
4.9931172868167e-06
1.02836571839278e-07
-9.90070264791861e-07
4.8044649303837e-06
8.81339968348096e-08
-1.05836832999488e-06
4.40175657858793e-06
7.00201027338023e-08
-1.05319726539443e-06
3.88232360345387e-06
4.83274667288377e-08
-9.92655773320381e-07
3.51323637204932e-06
2.44339074105002e-08
-9.48744745894974e-07
4.08208354008699e-06
9.78505933554591e-10
-9.08502392186584e-08
4.28398118074014e-06
3.28585198766917e-09
-9.45989976114232e-08
4.03360910859838e-06
9.3778884274575e-10
-1.77032429682211e-07
4.63709508770206e-06
8.13193102532184e-09
-1.02981466391364e-07
4.35494841106218e-06
2.18885541343663e-09
-1.87127278637727e-07
4.04846680638668e-06
-7.73655948415887e-10
-2.59459912706698e-07
4.98489542667292e-06
1.47559190360326e-08
-1.11276657183427e-07
4.81419643422713e-06
7.27624078962836e-09
-2.07953437302778e-07
4.4368990877935e-06
2.64943733003716e-09
-2.80980276739294e-07
4.06024933086363e-06
-2.49114271044412e-09
-3.38373971029527e-07
5.1991300865995e-06
2.31484945038446e-08
-1.17329016437568e-07
5.19946792575692e-06
1.64959104071772e-08
-2.28846692514092e-07
4.9797829652377e-06
1.13424756667422e-08
-3.1790128203295e-07
4.43587142669015e-06
1.29338171491631e-09
-3.74421758400241e-07
4.02343973979764e-06
-2.4987046768409e-09
-4.15023586966212e-07
5.25456319744193e-06
3.32343626815375e-08
-1.20721857102806e-07
5.39601509254855e-06
2.86019987984394e-08
-2.42871087740278e-07
5.39616385281973e-06
2.17638183465502e-08
-3.51781431821594e-07
4.98059644488157e-06
1.22080476072076e-08
-4.30013179644714e-07
4.35853889528581e-06
3.08784163194175e-09
-4.67144905503012e-07
3.93721931986122e-06
5.59217015381742e-10
-4.91960165649319e-07
5.20073968047072e-06
4.48896268485297e-08
-1.2266129965236e-07
5.42032345954969e-06
4.22528239395784e-08
-2.502296702e-07
5.57308227963829e-06
3.64886027046581e-08
-3.76323599516719e-07
5.38236041787862e-06
2.79275809945077e-08
-4.80281343852348e-07
4.86485375514173e-06
1.62263036195852e-08
-5.42856015674357e-07
4.25192461947468e-06
9.12559761185675e-09
-5.60461780315159e-07
3.82799885318769e-06
6.5120418543422e-09
-5.72219911508643e-07
5.09355631293774e-06
5.77973175297739e-08
-1.24267228792075e-07
5.34547875241993e-06
5.7039607713593e-08
-2.54771708350168e-07
5.56332074600014e-06
5.34007539490251e-08
-3.89020442547672e-07
5.53041003786789e-06
4.57368433681613e-08
-5.14264077688263e-07
5.23317804537018e-06
3.52346187469097e-08
-6.10817026858775e-07
4.73089877312275e-06
2.43338279340462e-08
-6.56337843913306e-07
4.1454970452398e-06
1.79134418603897e-08
-6.54965221544514e-07
3.72341379226576e-06
1.14373460204543e-08
-6.55265642917596e-07
4.96517298297501e-06
7.13710581558961e-08
-1.26083079769235e-07
5.22772108701241e-06
7.28118708725466e-08
-2.59187512910833e-07
5.46311919206602e-06
7.17246513623383e-08
-3.97521765167042e-07
5.49532290754132e-06
6.57030136511628e-08
-5.33289753407134e-07
5.35851076756682e-06
5.61900700826677e-08
-6.54790359647827e-07
5.08109867542409e-06
4.52915472462007e-08
-7.42459752852067e-07
4.61939936652848e-06
3.61838864680292e-08
-7.71790113481717e-07
4.05257251678067e-06
2.64745378271376e-08
-7.51706400993643e-07
3.63966355335511e-06
1.52182517937612e-08
-7.40190976167656e-07
4.82866006546773e-06
8.48016414151291e-08
-1.28322512612364e-07
5.09186980967544e-06
8.9111663952252e-08
-2.64384228118971e-07
5.3305102572964e-06
9.11378530790561e-08
-4.0630151392746e-07
5.38039238819146e-06
8.75322637812481e-08
-5.47457046968e-07
5.31269644080809e-06
7.96875277095029e-08
-6.81743030742026e-07
5.20058124949259e-06
6.9656672032051e-08
-7.98876260733164e-07
4.97003947080573e-06
5.89347259804885e-08
-8.75502524746718e-07
4.53322575755151e-06
4.72850346543583e-08
-8.89334745570092e-07
3.98067671652075e-06
3.47568515370336e-08
-8.51471746134973e-07
3.58232012200445e-06
1.8099196259793e-08
-8.26233998956075e-07
4.68749418651539e-06
9.71048137996822e-08
-1.3104850997973e-07
4.94620326741424e-06
1.05101159224419e-07
-2.70532753513524e-07
5.18436894070104e-06
1.1104703103534e-07
-4.16562717391044e-07
5.24028640748916e-06
1.10798647591639e-07
-5.62424986016493e-07
5.19460102719226e-06
1.0560872908654e-07
-7.03476014165477e-07
5.15562385887711e-06
9.7701424955779e-08
-8.36218512387091e-07
5.09554483287032e-06
8.75901128061447e-08
-9.48488994893757e-07
4.89184399130878e-06
7.49782996414102e-08
-1.01410893955013e-06
4.47104152517605e-06
5.96622861621337e-08
-1.00981219800247e-06
3.93371201446699e-06
4.12165456010614e-08
-9.52887319674299e-07
3.55088009413064e-06
2.07432787305234e-08
-9.12335442357247e-07
5.05392573093477e-06
-7.26483823775248e-07
5.03969474403222e-06
1.29039859585873e-07
-8.67683478535916e-07
5.05678612626682e-06
1.21767111406835e-07
-9.99194177478136e-07
5.02752010238334e-06
1.10581728589905e-07
-1.10613874911727e-06
4.84090017304699e-06
9.48200529849956e-08
-1.15955852502014e-06
4.43567868106668e-06
7.44064471257733e-08
-1.1363010112196e-06
3.91345373410225e-06
5.05326647327684e-08
-1.05759983499634e-06
3.54433443273256e-06
2.55343660226585e-08
-9.99249275631461e-07
4.1752598940352e-06
3.17145768043362e-10
-9.34932256371073e-08
4.38032133952417e-06
1.422957460293e-09
-9.6784371798099e-08
4.12401847886664e-06
-1.68949331930252e-10
-1.81090462939772e-07
4.7401645527287e-06
5.11941130488407e-09
-1.04902874935685e-07
4.45122249637839e-06
7.64347474232403e-10
-1.9069950611633e-07
4.13723202190975e-06
-1.5223293859178e-09
-2.64275197619818e-07
5.09495860609334e-06
1.07662977911881e-08
-1.12697441381618e-07
4.91998049375589e-06
4.21412114687504e-09
-2.10790748035113e-07
4.5336306581292e-06
-2.46223664509206e-10
-2.84386224273298e-07
4.14703065578596e-06
-3.41376368424503e-09
-3.428273727665e-07
5.31405410465442e-06
1.78916181152767e-08
-1.18059598829293e-07
5.31345880272162e-06
1.21267942689591e-08
-2.30118157229429e-07
5.08748932571252e-06
7.30782951520774e-09
-3.20318280813888e-07
4.53028294315931e-06
-1.022307625243e-09
-3.76860653887474e-07
4.10668326075795e-06
-3.49678417982295e-09
-4.18120583606673e-07
5.37186116455591e-06
2.65835666687273e-08
-1.20732666604164e-07
5.51523826683492e-06
2.26587202010105e-08
-2.42714853579041e-07
5.51349691521325e-06
1.68904821309312e-08
-3.51727821613966e-07
5.08612324880353e-06
7.95043921722227e-09
-4.3008520395825e-07
4.44867153413586e-06
1.72431173550895e-10
-4.67225441192758e-07
4.01539981457891e-06
-7.16695577283441e-10
-4.92487245562199e-07
5.3191141804765e-06
3.67677596070304e-08
-1.21908138104975e-07
5.54213208088513e-06
3.45936302789125e-08
-2.4852233833752e-07
5.69587658908167e-06
2.96104959870545e-08
-3.73512342813197e-07
5.49745291971167e-06
2.24176580624968e-08
-4.77083666420912e-07
4.96540024549188e-06
1.16006167863973e-08
-5.39072405652434e-07
4.33608201679382e-06
6.1139029130765e-09
-5.56856999574562e-07
3.89997379866475e-06
4.97292641282802e-09
-5.68907900008279e-07
5.21301480943446e-06
4.81644381097386e-08
-1.22733947857319e-07
5.46893164803961e-06
4.75660949592144e-08
-2.51428232618402e-07
5.68884410715609e-06
4.44058875911064e-08
-3.83670712496462e-07
5.65126817093111e-06
3.7778167158487e-08
-5.07032241318087e-07
5.34257000541757e-06
2.88265757058099e-08
-6.02273364032106e-07
4.82525559682989e-06
1.92894814231486e-08
-6.47376721733572e-07
4.22346722286807e-06
1.44208255329767e-08
-6.46340561929308e-07
3.78869955540087e-06
9.71038128130801e-09
-6.47215915912394e-07
5.08649784535376e-06
6.02439571599202e-08
-1.23771497272953e-07
5.35319735750044e-06
6.14753430298962e-08
-2.5417984359259e-07
5.59079366182238e-06
6.04847573854886e-08
-3.89530369990599e-07
5.61910708501117e-06
5.52270456520081e-08
-5.2229453499834e-07
5.47368005407852e-06
4.69669900086694e-08
-6.41165472539144e-07
5.1841466235231e-06
3.75650425574493e-08
-7.2709613953898e-07
4.70700569774796e-06
2.97609343513957e-08
-7.55791501010951e-07
4.12352901727734e-06
2.24126910679654e-08
-7.36897024354868e-07
3.69772483629199e-06
1.2998436136991e-08
-7.26325228936379e-07
4.95299463621761e-06
7.22815994126564e-08
-1.25245115975032e-07
5.2203807712248e-06
7.59395816135518e-08
-2.57722064196745e-07
5.46110820638248e-06
7.75864256307094e-08
-3.95646929737955e-07
5.50690479952544e-06
7.43462362551304e-08
-5.32676437897499e-07
5.43116197163369e-06
6.74464318917271e-08
-6.63011296345245e-07
5.3092134668497e-06
5.86963872950719e-08
-7.76827216804729e-07
5.06604029001793e-06
4.95010320928371e-08
-8.51777420006449e-07
4.61308350574056e-06
4.02622624448075e-08
-8.65435476910459e-07
4.04352604633591e-06
2.99103689316569e-08
-8.29247583889579e-07
3.63218792113762e-06
1.56595507203582e-08
-8.05718152305292e-07
4.81612482492647e-06
8.34013258516919e-08
-1.27229818475359e-07
5.07902255419039e-06
9.02264919980249e-08
-2.62256395301702e-07
5.31918190950174e-06
9.52166154417591e-08
-4.03275460115609e-07
5.37059532071546e-06
9.47976809212195e-08
-5.43874375911575e-07
5.31645108964775e-06
9.00855228185055e-08
-6.79704380657756e-07
5.26806094116872e-06
8.30474213929708e-08
-8.07570592447774e-07
5.19726526337051e-06
7.42510840821674e-08
-9.15912682419272e-07
4.97961602431992e-06
6.35715790293712e-08
-9.79560964768128e-07
4.5417734766124e-06
5.07679536390901e-08
-9.7607751822248e-07
3.98730035029089e-06
3.51554090652148e-08
-9.22116200562129e-07
3.59137416587087e-06
1.7609239307524e-08
-8.84337105551304e-07
4.67470512083704e-06
9.25900100853223e-08
-1.29706358164134e-07
4.93131055567196e-06
1.03336852722358e-07
-2.6779335658785e-07
5.16887902065803e-06
1.12523899339914e-07
-4.12505108743808e-07
5.22476361216363e-06
1.15896697978768e-07
-5.57270738438973e-07
5.18042076726069e-06
1.14422101824726e-07
-6.97732235311076e-07
5.15619462186993e-06
1.10310960002261e-07
-8.32584950061304e-07
5.16268689068676e-06
1.03742500369726e-07
-9.58271158800486e-07
5.1207809418371e-06
9.39749481623147e-08
-1.06074620215752e-06
4.91839627375031e-06
8.04855368853596e-08
-1.11242781230142e-06
4.49511841506235e-06
6.31199734613468e-08
-1.0911551214979e-06
3.95568330628281e-06
4.27741996349542e-08
-1.01714743346983e-06
3.57347734329265e-06
2.15322266183773e-08
-9.63010324374549e-07
5.02218292350805e-06
-8.59232291655515e-07
5.05490981115614e-06
1.37243801216564e-07
-9.93743089046657e-07
5.09399490181554e-06
1.30633009564038e-07
-1.11690518308569e-06
5.06991015527132e-06
1.18913466399681e-07
-1.21259850934693e-06
4.88339750931607e-06
1.01551692525943e-07
-1.2511600452296e-06
4.4754258205798e-06
7.90071612405605e-08
-1.21013953368627e-06
3.9495092191184e-06
5.33425469321322e-08
-1.11360943873239e-06
3.5782929303452e-06
2.69351184360548e-08
-1.04144158275322e-06
4.27271607323138e-06
-9.00189673587743e-10
-9.65556807654725e-08
4.48030157477814e-06
1.85146551113278e-10
-9.98479795594376e-08
4.21785534205055e-06
-1.12347075407618e-09
-1.86206406306559e-07
4.84674888709078e-06
2.06743593486285e-09
-1.07228588833418e-07
4.55060722540092e-06
-1.16086277650992e-09
-1.95177032923476e-07
4.22906289022398e-06
-2.26516453091361e-09
-2.7065602805043e-07
5.20822895202429e-06
6.84630643290986e-09
-1.14997095166703e-07
5.02900981550668e-06
1.85815322826134e-09
-2.15025933578221e-07
4.63305368412123e-06
-1.98148470289874e-09
-2.89663293607377e-07
4.23647263447496e-06
-4.28555711205382e-09
-3.49431447304831e-07
5.4315244980109e-06
1.28837916554371e-08
-1.19587851053763e-07
5.4299811735888e-06
7.93026091866195e-09
-2.32936025274342e-07
5.19793655665961e-06
3.31150480207024e-09
-3.24795726376417e-07
4.62717415642487e-06
-2.91801513759884e-09
-3.81773085075638e-07
4.19225575132184e-06
-4.4601796048021e-09
-4.23939468115664e-07
5.49094702695814e-06
2.03634319245683e-08
-1.21557994498475e-07
5.63640593673181e-06
1.70894022757809e-08
-2.44190326813858e-07
5.63281868938756e-06
1.2256656918018e-08
-3.54388911331611e-07
5.19399903691378e-06