/*--------------------------------*- C++ -*----------------------------------*\
  =========                 |
  \\      /  F ield         | OpenFOAM: The Open Source CFD Toolbox
   \\    /   O peration     | Website:  https://openfoam.org
    \\  /    A nd           | Version:  12
     \\/     M anipulation  |
\*---------------------------------------------------------------------------*/
/*   Windows 32 and 64 bit porting by blueCAPE: http://www.bluecape.com.pt   *\
|  Based on Windows porting (2.0.x v4) by Symscape: http://www.symscape.com   |
\*---------------------------------------------------------------------------*/
FoamFile
{
    format      ascii;
    class       volVectorField;
    location    "0";
    object      U;
}
// * * * * * * * * * * * * * * * * * * * * * * * * * * * * * * * * * * * * * //

dimensions      [0 1 -1 0 0 0 0];

internalField   nonuniform List<vector> 
10152
(
(3.6054692744698e-06 0.00195981264259959 2.77267142713118e-05)
(3.19042870066599e-06 0.00201311360759602 2.64767099451706e-05)
(1.03305233359367e-05 0.00195918707589666 2.80943750694056e-05)
(4.36748687734785e-06 0.00196239992698701 8.59133100864499e-05)
(2.82207807699577e-06 0.00206489558517631 2.54861257051627e-05)
(9.09030467881954e-06 0.00201255581774101 2.68179213712626e-05)
(3.9338324873539e-06 0.00201519329610352 8.20574670110938e-05)
(1.69110554191418e-05 0.00195781160831535 2.86424158978458e-05)
(1.10875076379041e-05 0.0019618698034255 8.54442793805203e-05)
(4.25036089846927e-06 0.00196797527152019 0.00014754447284925)
(2.49514083824445e-06 0.00211560901347044 2.47303164755333e-05)
(7.98653882557214e-06 0.00206439844975028 2.58044052837339e-05)
(3.55374278189011e-06 0.00206651826320567 7.90041205318744e-05)
(1.48021695206609e-05 0.00201132799124584 2.73268498631027e-05)
(9.85462968491796e-06 0.00201471786327824 8.15801800121775e-05)
(3.76229818109462e-06 0.00201966392678168 0.000140900745445108)
(2.33099314656554e-05 0.00195550189074317 2.89757959525051e-05)
(1.71846029213813e-05 0.00196060574007166 8.65400520057848e-05)
(1.13803526977285e-05 0.00196756374703541 0.000145818020477049)
(2.63560819081372e-06 0.00197701465545824 0.000209138193406478)
(2.20446160935312e-06 0.00216566662576161 2.41890746344501e-05)
(7.00366192295327e-06 0.00211516523691296 2.50290410570222e-05)
(3.22102202870904e-06 0.00211681630447428 7.66763430989325e-05)
(1.2919027903998e-05 0.00206330232687832 2.62773990947969e-05)
(8.76698732513831e-06 0.00206609155476324 7.85163505623346e-05)
(3.33403340265363e-06 0.0020699990241648 0.000135634141979278)
(2.03004770005519e-05 0.00200925830951207 2.76517681830632e-05)
(1.50882768188943e-05 0.00201359455498247 8.25566820824573e-05)
(9.97652646417114e-06 0.00201928257298573 0.0001392434868325)
(2.21021225313476e-06 0.00202694304563248 0.000199663774354369)
(2.95146096349868e-05 0.00195213044033206 2.89388514124631e-05)
(2.34830558994732e-05 0.00195833789928603 8.74984111374119e-05)
(1.76182744096821e-05 0.00196652752740785 0.000146196231657278)
(8.43892367831732e-06 0.00197662515253539 0.000207925080104966)
(1.70352104769375e-06 0.0019894558395931 0.000267374864229608)
(1.94451511090555e-06 0.00221545223461816 2.38448589702869e-05)
(6.1264235927217e-06 0.00216526866387206 2.44709511055811e-05)
(2.93068755843184e-06 0.00216649347892347 7.50136606954186e-05)
(1.12369039140947e-05 0.00211418492789136 2.54703591678689e-05)
(7.80629933581999e-06 0.00211643229892403 7.61762810189512e-05)
(2.95874931352635e-06 0.00211939649649506 0.00013161481339766)
(1.76044320859488e-05 0.00206144927388759 2.65939092552782e-05)
(1.32249109178954e-05 0.00206508800442183 7.93788799946275e-05)
(8.74570428278691e-06 0.00206965280044849 0.000134030619098238)
(1.83203014794676e-06 0.00207568138954019 0.00019214761921459)
(2.56141920121771e-05 0.00200623059792534 2.76412666900702e-05)
(2.04478741636612e-05 0.00201156128094772 8.35001176900686e-05)
(1.53915439780581e-05 0.00201840120713467 0.000139572758526946)
(7.1100728709773e-06 0.00202658730644969 0.000198533070259441)
(1.30509455283489e-06 0.00203695210552701 0.000255273604305151)
(3.532553148219e-05 0.00194770519134605 2.86752520378713e-05)
(2.97952738121562e-05 0.00195490948543213 8.76936748779228e-05)
(2.37091329112239e-05 0.00196432957464903 0.000147807588580727)
(1.56428764404803e-05 0.00197562740235554 0.000207647248799839)
(6.83263373638657e-06 0.00198905362419733 0.000268295118766919)
(2.03257145908204e-06 0.00200497612906709 0.000322650908558675)
(1.70941361300144e-06 0.00226532801476743 2.36829410524979e-05)
(5.33909243036964e-06 0.00221509196901298 2.4112869243453e-05)
(2.675588705985e-06 0.00221592855763974 7.39602575107187e-05)
(9.73081374110477e-06 0.00216438819567069 2.4884823917524e-05)
(6.9568180890388e-06 0.00216614542183867 7.44957214176239e-05)
(2.62305492000538e-06 0.00216824796325451 0.000128734671201176)
(1.5189188353574e-05 0.00211252368405652 2.57793885261891e-05)
(1.15670382046796e-05 0.00211553213071231 7.69344503316946e-05)
(7.65938873160362e-06 0.00211908348091447 0.00013005193077465)
(1.49447970229273e-06 0.00212362849067628 0.000186406298233135)
(2.21131373514981e-05 0.00205873290785313 2.66053506622197e-05)
(1.77344685105193e-05 0.00206326587997375 8.03070213663107e-05)
(1.3426318832074e-05 0.0020688682975416 0.000134311706326606)
(5.92947808951259e-06 0.00207535507826995 0.00019108402132979)
(9.48475046527304e-07 0.0020834898015581 0.000245689545217425)
(3.0597700932707e-05 0.00200225211505116 2.74235761105744e-05)
(2.58321603392853e-05 0.00200848324997707 8.37673337443579e-05)
(2.05954697138242e-05 0.00201642122285723 0.000141036680032531)
(1.32605095281411e-05 0.00202568885163408 0.000198321068398076)
(5.52246982093424e-06 0.00203658977255393 0.000256187451227266)
(1.59233181162493e-06 0.0020494051612124 0.000308142501973738)
(4.03903530166747e-05 0.00194235894064106 2.83679147800962e-05)
(3.57353451115719e-05 0.00195037343785163 8.72121543306207e-05)
(3.02462134011206e-05 0.00196080531521482 0.000148276562554084)
(2.33918185926321e-05 0.00197368778351091 0.000208905055853262)
(1.41978810598144e-05 0.00198800484739461 0.000268823609029991)
(7.82869073718094e-06 0.00200450657250302 0.000325654426703319)
(2.99959551344752e-06 0.00202318133273441 0.000376077504950326)
(1.49291143362698e-06 0.00231564197324947 2.36915690507718e-05)
(4.6249803527634e-06 0.00226499674436837 2.39410854445003e-05)
(2.44824172270514e-06 0.0022654784938745 7.34685177826838e-05)
(8.37556288816407e-06 0.00221429467364524 2.45034526069569e-05)
(6.20151060243161e-06 0.00221560761332921 7.34231597466317e-05)
(2.31856317839251e-06 0.00221692500816881 0.000126898784880247)
(1.30205434401653e-05 0.00216289339933389 2.51871102677275e-05)
(1.00885722669507e-05 0.00216533321793224 7.51597831166534e-05)
(6.68811968236586e-06 0.00216796297931848 0.000127199864879777)
(1.18745020673363e-06 0.00217115709967677 0.000182280147744494)
(1.89701167042908e-05 0.00211008414075781 2.58087551627486e-05)
(1.53085799766095e-05 0.002113895911366 7.78485386658718e-05)
(1.16835911667677e-05 0.00211837714989456 0.000130285725755085)
(4.87627465200994e-06 0.00212332678719857 0.000185397302900893)
(6.26910451024409e-07 0.00212944030156996 0.000238382669503333)
(2.63495107709172e-05 0.0020551591178255 2.64259198867261e-05)
(2.2280055183317e-05 0.00206050525373772 8.06349670454022e-05)
(1.78214376424041e-05 0.00206709166347112 0.00013563301205027)
(1.11503756376165e-05 0.00207454960811026 0.000190930137843408)
(4.35687578571891e-06 0.00208315979832248 0.00024659921236231)
(1.20076285563011e-06 0.00209317845272586 0.000296684109615324)
(3.49507202217042e-05 0.00199744291271871 2.71688278405023e-05)
(3.09207409075546e-05 0.00200441011047785 8.34118352269414e-05)
(2.61407936880628e-05 0.00201325658422794 0.000141657959451214)
(1.9972877175378e-05 0.00202400143173994 0.000199443888816967)
(1.18046585528084e-05 0.00203565722407396 0.000256752045702137)
(6.38069773246642e-06 0.00204898890655698 0.000311044886082651)
(2.49893611863689e-06 0.00206396983736419 0.000359384456602851)
(4.43928111491836e-05 0.00193628742323794 2.80760314930268e-05)
(4.08890369371002e-05 0.00194490752089636 8.64282780832412e-05)
(3.64976990156221e-05 0.00195607546783207 0.000147658808426295)
(3.08172336664601e-05 0.00196994397765916 0.000209338971468682)
(2.30583832881112e-05 0.00198603457779546 0.000269316876679293)
(1.57895012016268e-05 0.0020033181594618 0.000327081348952883)
(1.00985625143471e-05 0.00202263822324743 0.000379841274882909)
(3.91485380637296e-06 0.00204361980937931 0.000427447890361351)
(1.28866172513232e-06 0.0023667330053273 2.38596919827613e-05)
(3.96544741506295e-06 0.0023153306677558 2.39442698417146e-05)
(2.2412791057944e-06 0.00231548777827189 7.35018725115116e-05)
(7.14495770162449e-06 0.00226426446274239 2.43124090845906e-05)
(5.52122402870387e-06 0.00226517523631433 7.29184015688177e-05)
(2.02990361738235e-06 0.00226577276720439 0.000126001709682412)
(1.10642604095796e-05 0.0022129405089941 2.48000833412299e-05)
(8.76375296643835e-06 0.00221486696630097 7.4002858607875e-05)
(5.81080587485558e-06 0.00221665142860454 0.00012538648897622)
(8.85312472702824e-07 0.00221863967962894 0.000179621758633326)
(1.61427844654445e-05 0.00216069504685144 2.52310351997838e-05)
(1.31351831298897e-05 0.0021638575999726 7.60624267539809e-05)
(1.01300460084707e-05 0.00216732048911454 0.000127388149988055)
(3.92465663202275e-06 0.00217086781955879 0.000181319212840609)
(3.25776861875884e-07 0.00217515932087939 0.000233146607647498)
(2.25317348973958e-05 0.00210687045362462 2.56602420186264e-05)
(1.90964220202863e-05 0.00211141714169155 7.82273222938964e-05)
(1.5349800260516e-05 0.00211677711103496 0.000131473822078159)
(9.27008654692981e-06 0.00212259907819998 0.000185291760344614)
(3.3145747902052e-06 0.00212913373556949 0.000239290974454997)
(8.49305000249501e-07 0.00213662402506475 0.00028797902059733)
(3.00605487800941e-05 0.00205083624014635 2.62143409776589e-05)
(2.66010201643047e-05 0.00205685095922561 8.03843427805021e-05)
(2.24709567706546e-05 0.00206425525287623 0.000136385517284661)
(1.69372100355542e-05 0.00207304790268565 0.000191921031851226)
(9.68637202029152e-06 0.00208232800074609 0.000247194084058241)
(5.10143936325643e-06 0.00209280717669109 0.000299509495452617)
(2.0536713724774e-06 0.00210447106893987 0.000346238854920027)
(3.83953007117889e-05 0.00199197977773959 2.69323319327954e-05)
(3.53486140551222e-05 0.00199950108395527 8.27813978681861e-05)
(3.15002199212653e-05 0.00200901873157717 0.000141251242866)
(2.64494640951546e-05 0.00202063743184351 0.000200074777336321)
(1.95051314004461e-05 0.00203391997269223 0.000257322303425989)
(1.31153541515443e-05 0.00204794267712169 0.000312452599351686)
(8.51640715377744e-06 0.0020634931535163 0.00036302196239188)
(3.32129145736683e-06 0.00208027092062053 0.000408820028929025)
(4.49507716466762e-05 0.00193871874710542 8.554946623925e-05)
(4.18934049558671e-05 0.00195037410759622 0.000146479646221663)
(3.76748761403387e-05 0.00196492055959382 0.000208415523087494)
(3.18374026420537e-05 0.00198201181478938 0.000268860435460839)
(2.49730651010935e-05 0.00200107305819281 0.000327090971388327)
(1.85794666606007e-05 0.00202134568199329 0.00038177630851516)
(1.22930429537553e-05 0.00204297701012365 0.000430682841455735)
(4.49356387802301e-06 0.00206595085855574 0.000475606068244957)
(1.09270379392993e-06 0.002418929639106 2.41772173736955e-05)
(3.33843684834662e-06 0.00236643407690571 2.41091858111325e-05)
(2.04503085804249e-06 0.00236629384682275 7.40226918974324e-05)
(6.01112387535732e-06 0.00231464136409686 2.43032613191836e-05)
(4.89427901972378e-06 0.00231519584546796 7.29480532402507e-05)
(1.73659771526764e-06 0.00231512927881571 0.000125974887651779)
(9.28550862487176e-06 0.0022630240620365 2.46035009985671e-05)
(7.56641138204273e-06 0.00226448634217965 7.34241524363456e-05)
(4.99713839649986e-06 0.00226549316345183 0.000124553824054891)
(6.28630306821578e-07 0.00226640845518064 0.000178297008752191)
(1.35871217157669e-05 0.00221094700063849 2.48553256781551e-05)
(1.11794385014739e-05 0.00221352708121121 7.48967354083886e-05)
(8.73672294560694e-06 0.0022160574588946 0.000125532946527245)
(3.03216741197331e-06 0.00221830445904052 0.000178731490689004)
(6.56959644057688e-08 0.00222098096168364 0.000229807852509131)
(1.9093140946992e-05 0.00215779539279981 2.51080656997869e-05)
(1.62369985399606e-05 0.00216162436638423 7.64836091635259e-05)
(1.31425572876528e-05 0.00216587116610439 0.000128452684490723)
(7.58284330308022e-06 0.00217020144969918 0.00018125353387519)
(2.36452014300049e-06 0.00217483655188461 0.000234056173836267)
(5.31013321232865e-07 0.00218004116531245 0.000281770162072075)
(2.56636228573651e-05 0.00210298019714576 2.54839982609889e-05)
(2.27248342323484e-05 0.00210813498244639 7.80632153097182e-05)
(1.91910732260732e-05 0.00211423181844942 0.000132339380013898)
(1.42339736844639e-05 0.00212125340626192 0.000186154554762079)
(7.80536254286721e-06 0.00212838624596807 0.000239911915590463)
(3.96411270017486e-06 0.00213629015378733 0.000290751517927777)
(1.64794437201568e-06 0.0021449613635865 0.000336284422953286)
(3.30026067655184e-05 0.00204592383088078 2.60229959509628e-05)
(3.03757916639144e-05 0.0020524451214736 7.98800624829051e-05)
(2.70297339024007e-05 0.0020604617514381 0.000136154451835721)
(2.25592107582648e-05 0.00207003744891629 0.000192716123325801)
(1.63625905478083e-05 0.00208079055809041 0.000247822302084256)
(1.07737646170939e-05 0.00209188322661534 0.000300912113835461)
(7.10932491644676e-06 0.00210404629583525 0.000349777115410053)
(2.80738180220412e-06 0.00211707563026102 0.000394203774379462)
(4.07543217935517e-05 0.0019860527506939 2.6696345795583e-05)
(3.88438643151526e-05 0.00199394184778275 8.20708514353091e-05)
(3.61413638128355e-05 0.00200391408014013 0.000140325526927995)
(3.23849130941591e-05 0.00201615244859782 0.000199440066779455)
(2.71734932709027e-05 0.00203034232915264 0.0002571122035516)
(2.10573585941324e-05 0.00204598211885843 0.000312796582102004)
(1.58389622873699e-05 0.00206235738472042 0.000364946662433109)
(1.04290023870638e-05 0.00207971716158955 0.000411955834979037)
(3.84950990428652e-06 0.0020980099886371 0.000455380929532055)
(4.61219765292432e-05 0.00194393198319869 0.000145050339944606)
(4.34670734379221e-05 0.00195886994245807 0.000206772929760453)
(3.94108787406801e-05 0.00197660382682399 0.000267298205502843)
(3.39125784176325e-05 0.00199664242365341 0.000325474402727099)
(2.77472347343602e-05 0.0020183877375966 0.000380797857942149)
(2.10844458117392e-05 0.00204145034979376 0.000432024199050324)
(1.36218095927573e-05 0.00206525629206619 0.000477570695466342)
(4.70117849829226e-06 0.00208971441439108 0.000519260926668435)
(8.97296280674281e-07 0.0024725395307502 2.46224069864287e-05)
(2.71773435929659e-06 0.00241863454517417 2.44052823835614e-05)
(1.81370495154544e-06 0.00241823516293541 7.49575454782236e-05)
(4.93819032753571e-06 0.00236575864446782 2.44677678307419e-05)
(4.28832372360917e-06 0.00236602679910452 7.3478200180909e-05)
(1.42459769503478e-06 0.00236537116538639 0.000126774824640099)
(7.6465880902202e-06 0.00231348470453092 2.45863787602009e-05)
(6.46909130487084e-06 0.002314529821555 7.34013360201498e-05)
(4.19035615681072e-06 0.00231483005870186 0.000124638382592809)
(4.25882894526215e-07 0.00231475098219608 0.000178229315450099)
(1.12588983455549e-05 0.00226119766004656 2.46671563929899e-05)
(9.40713129845096e-06 0.0022632586636129 7.43090007138666e-05)
(7.47562873280937e-06 0.00226491927895274 0.000124657348042266)
(2.23380816474488e-06 0.00226597008731244 0.000177533365086648)
(-1.30556476338019e-07 0.00226717671048211 0.000228241986151497)
(1.59812664185724e-05 0.00220831423396464 2.4752883785881e-05)
(1.36570840118485e-05 0.0022115030589176 7.53516299986617e-05)
(1.11647664678345e-05 0.00221473641068581 0.000126482835003456)
(6.05221666462729e-06 0.00221768800836165 0.000178694793797716)
(1.51976767895525e-06 0.00222056778217287 0.000230719946911833)
(2.29417385990254e-07 0.00222370889664083 0.000277864208550808)
(2.17007718395652e-05 0.00215428237615997 2.49605042512866e-05)
(1.92385487733014e-05 0.0021586662261162 7.63908472137584e-05)
(1.62536520839828e-05 0.00216358024030408 0.00012941549355326)
(1.18193405042929e-05 0.00216898762692603 0.000181992690976893)
(6.12209712487798e-06 0.0021741609487098 0.000234697892312875)
(2.94738427354303e-06 0.00217973282124791 0.000284504674489656)
(1.28887680800067e-06 0.0021856884158979 0.000329224122558406)
(2.81522516900891e-05 0.00209855758206495 2.53295918928418e-05)
(2.59110181303999e-05 0.00210417586152345 7.76623486824677e-05)
(2.3029752628348e-05 0.00211083195126671 0.000132254204634884)
(1.90942682311967e-05 0.00211855576425473 0.00018708781955198)
(1.35791777664377e-05 0.00212701972985051 0.000240573742467965)
(8.72592904471474e-06 0.00213547044819667 0.000292177912350198)
(5.81569135646087e-06 0.00214458267853708 0.0003397480237936)
(2.36180218436341e-06 0.00215422814733638 0.000383189082708252)
(3.50185701757539e-05 0.0020405933458087 2.58345657942998e-05)
(3.33616406527546e-05 0.00204745422523532 7.93070360288177e-05)
(3.0995072248432e-05 0.00205589371628392 0.000135436744285195)
(2.76734459353331e-05 0.00206603709497397 0.000192318525827698)
(2.30444154613716e-05 0.00207760742104766 0.000247811683358323)
(1.76257377982132e-05 0.00209017846224357 0.00030150253054649)
(1.33856667467102e-05 0.00210301937224542 0.000351694853274088)
(8.81857472155278e-06 0.00211660012994653 0.000397258213473163)
(3.29820775812386e-06 0.00213071682609598 0.000439585050074183)
(4.19306768594689e-05 0.00197985032618924 2.64439465234198e-05)
(4.12391802955197e-05 0.00198791703789625 8.13180132623687e-05)
(3.9782949212858e-05 0.00199814681455483 0.000139178011279543)
(3.73849678405273e-05 0.00201076002843706 0.000198148174866339)
(3.37439267348008e-05 0.00202554651565496 0.000255911885879887)
(2.88635068904971e-05 0.0020420737117568 0.000311467974406665)
(2.3684808503549e-05 0.00205982522209575 0.000364427487054784)
(1.79180664889825e-05 0.00207840029032011 0.000413504495355753)
(1.16967116904672e-05 0.00209741723531978 0.000457373153076111)
(4.04026323146145e-06 0.00211680338964036 0.000497943698464441)
(4.79571859762163e-05 0.00195203966086134 0.000204768162882392)
(4.56490596111044e-05 0.00197009639652913 0.000265071420876862)
(4.1844952888815e-05 0.00199075726288601 0.00032316975013374)
(3.66495109534196e-05 0.00201356892549338 0.00037857461503484)
(3.02872216783141e-05 0.00203795657537324 0.000430440971071404)
(2.29479051312623e-05 0.00206320470245229 0.00047769095450425)
(1.42203191983982e-05 0.00208877265459946 0.000519827537988705)
(4.80679842311972e-06 0.00211432626565589 0.000557614244629452)
(7.08300645269679e-07 0.00252787090865628 2.52151903352396e-05)
(2.08055960446598e-06 0.00247223124772631 2.48086061983657e-05)
(1.62658668226287e-06 0.00247159127137022 7.6303151596561e-05)
(3.88185331164928e-06 0.00241794386682881 2.47986533746511e-05)
(3.66311834566119e-06 0.0024180063241965 7.44796212963032e-05)
(1.23254018209617e-06 0.00241678960169537 0.000128342383050455)
(6.10679669671898e-06 0.00236464844460281 2.47381669404362e-05)
(5.43271901883156e-06 0.00236532831934607 7.39234818376503e-05)
(3.31154367518549e-06 0.00236499705402301 0.000125526761826925)
(2.40355486141371e-07 0.00236397699680644 0.000179350160361985)
(9.11211700233968e-06 0.00231178574357285 2.46546537089958e-05)
(7.78336376560226e-06 0.00231338847966249 7.42572994458027e-05)
(6.25329500739195e-06 0.0023142222964788 0.000124713020294508)
(1.4930149074697e-06 0.00231427171173956 0.00017761018532193)
(-3.5063298785453e-07 0.00231403839027381 0.00022832090322533)
(1.31428738356813e-05 0.00225878387058552 2.45813759664929e-05)
(1.13115865474607e-05 0.00226140593611936 7.47863416715981e-05)
(9.38688535175253e-06 0.00226372213009785 0.00012550205999365)
(4.65192565144559e-06 0.00226537639075799 0.000177524540132324)
(7.80232326019218e-07 0.00226666820451915 0.000229127997678022)
(-8.52163826462861e-08 0.00226792573957945 0.000276113523741415)
(1.81124241582406e-05 0.00220512212145275 2.46289392159725e-05)
(1.60878974666471e-05 0.00220881991769586 7.53174931249973e-05)
(1.36125326227909e-05 0.0022126663730179 0.000127523616727691)
(9.65766598596635e-06 0.00221658171800493 0.000179315691971359)
(4.60617769853205e-06 0.0022199474634019 0.000231382045280768)
(2.01508551287341e-06 0.00222340256801494 0.000280545504977247)
(9.68790397867483e-07 0.00222687210640303 0.000324813693002455)
(2.37796739317953e-05 0.00215028690762673 2.48359802120199e-05)
(2.18928762870406e-05 0.00215509586427739 7.60745567102635e-05)
(1.94421168961317e-05 0.00216052208047553 0.000129451469908008)
(1.60020956605385e-05 0.00216656771928717 0.00018304045024896)
(1.11072758120933e-05 0.00217293709690949 0.000235380931352227)
(6.91607852861253e-06 0.00217899869775701 0.000285953189376635)
(4.6789264030939e-06 0.00218535198766342 0.000332635136948765)
(1.97710770292384e-06 0.00219191124751079 0.000375448023244189)
(2.98588298114691e-05 0.00209375756584013 2.51795329252044e-05)
(2.84382872957349e-05 0.00209968930770239 7.72015558197542e-05)
(2.63884362063112e-05 0.00210673830894333 0.000131706993190981)
(2.34751575357159e-05 0.00211498242930608 0.000186885530856595)
(1.93858440901398e-05 0.0021241837988412 0.000240727447045689)
(1.46215127180881e-05 0.00213398237085042 0.000292892164327156)
(1.10293162212673e-05 0.0021436589555285 0.000341662071313625)
(7.43060051573047e-06 0.00215381974548508 0.000386179003436347)
(2.81847797054267e-06 0.00216416815519255 0.000427758975605033)
(3.60222572794244e-05 0.00203501438641332 2.56313774779571e-05)
(3.54095578763631e-05 0.00204204443471184 7.86999862433744e-05)
(3.41111491085412e-05 0.00205073243751493 0.000134519415179662)
(3.1968765499119e-05 0.00206123237385213 0.000191312771283139)
(2.87262834502379e-05 0.00207335370963257 0.000246905591637132)
(2.44211279577623e-05 0.00208672474072651 0.000300417565119273)
(2.0080479354573e-05 0.00210094267845963 0.000351568027018507)
(1.51928024190643e-05 0.00211546747354432 0.000398974880156054)
(1.00541380519595e-05 0.00213020988906585 0.000441605702170756)
(3.4807946304572e-06 0.0021450903815695 0.00048138771308412)
(4.18782845624874e-05 0.00197355858614231 2.61760435972316e-05)
(4.2437702881376e-05 0.0019816125744352 8.05261668695259e-05)
(4.22726308358228e-05 0.00199190449375534 0.000137910159026822)
(4.12566969961742e-05 0.00200467551432787 0.000196537612589438)
(3.91317848456927e-05 0.0020197826507284 0.00025412805757709)
(3.57194489157677e-05 0.00203689122728346 0.0003095928220955)
(3.12073849490025e-05 0.00205559737602045 0.00036255574582314)
(2.57646539692234e-05 0.00207538153924659 0.000412253092611813)
(1.96070642225692e-05 0.00209565575583646 0.000457776737468456)
(1.21462757942642e-05 0.00211599982820085 0.000498633794423507)
(4.0730440400194e-06 0.00213616308352647 0.000535712756711952)
(5.04394225833306e-05 0.00196275328698976 0.000262459470257312)
(4.84392972595678e-05 0.00198369404514568 0.000320337935783343)
(4.48414666521621e-05 0.00200714675489315 0.000375735083535635)
(3.96012613364208e-05 0.00203261313982107 0.00042799662416375)
(3.27444849145864e-05 0.00205932579322965 0.000476112478236783)
(2.43015850001389e-05 0.00208641865356514 0.000519255967971864)
(1.48293633459864e-05 0.00211323490356542 0.000557418151814286)
(5.06973115238993e-06 0.0021393479476607 0.000590688131676158)
(5.73215680617693e-07 0.00258517857873497 2.59523238165108e-05)
(1.49066926537518e-06 0.00252751785036648 2.53885962556673e-05)
(1.4208415355634e-06 0.00252665222136981 7.80889662257283e-05)
(2.79764406231787e-06 0.00247150984571052 2.5271802002744e-05)
(3.20729399992168e-06 0.00247133988510441 7.58464471377206e-05)
(1.10613831522239e-06 0.0024695948194477 0.000130686833763424)
(4.61985394959278e-06 0.00241683511379172 2.50619596278791e-05)
(4.42483143914157e-06 0.00241722599163084 7.49494049528299e-05)
(2.56341936143141e-06 0.00241638533076457 0.000127184479725033)
(6.98988640036813e-08 0.00241438080143038 0.000181661066049162)
(7.10022772685115e-06 0.00236303638855722 2.48102380349244e-05)
(6.26680278996662e-06 0.00236422892524332 7.4701704248194e-05)
(4.90266003583081e-06 0.00236431869874308 0.000125683319506267)
(8.64867857762149e-07 0.00236352527942199 0.000178805015208616)
(-5.41082472371389e-07 0.00236186258847399 0.000229957203673694)
(1.05245015800065e-05 0.0023095429625657 2.45826328719096e-05)
(9.15315074020225e-06 0.00231166502688664 7.47490579911891e-05)
(7.72829442755812e-06 0.00231316683640352 0.000125477737785295)
(3.29098781849601e-06 0.00231356350481419 0.000177643525756924)
(-3.88228224930379e-09 0.00231353504356012 0.000229199650558261)
(-3.29736604676509e-07 0.00231295022224462 0.000276364816446494)
(1.48378087482987e-05 0.00225585607317565 2.44767412486696e-05)
(1.32176387208716e-05 0.00225894772791442 7.48014695527935e-05)
(1.12226057897589e-05 0.00226183461093931 0.000126581799199204)
(7.72943053328866e-06 0.00226433624240619 0.000178067490271847)
(3.16156850397581e-06 0.00226605687853142 0.000229826997904562)
(1.110835958544e-06 0.00226754738780693 0.000278693861535841)
(6.72798158098367e-07 0.00226873505701441 0.000322866741991699)
(1.98191487991535e-05 0.00220149037226537 2.45290742767313e-05)
(1.82589643769235e-05 0.00220557965360094 7.50708468060579e-05)
(1.62081039497587e-05 0.00220989670168907 0.00012766120457026)
(1.32359472846059e-05 0.00221442698373421 0.000180442421427676)
(8.91709618887327e-06 0.00221880708095087 0.000232078793720451)
(5.29684058694276e-06 0.00222272881340359 0.000282019106272376)
(3.67320611232087e-06 0.00222656512044936 0.000328190480279543)
(1.64224880658799e-06 0.00223028993145708 0.000370690147340304)
(2.52068126634577e-05 0.00214594963826197 2.47174862670509e-05)
(2.40062573279435e-05 0.00215104830221542 7.57051072217283e-05)
(2.22543065773039e-05 0.00215683952883042 0.000129044044086111)
(1.97242596235432e-05 0.0021633627757635 0.000182999408368244)
(1.6138864694333e-05 0.00217042068253765 0.000235667963933326)
(1.19749945938832e-05 0.00217768362224691 0.000286760778412335)
(8.98504127040897e-06 0.00218454078372215 0.000334541119917475)
(6.24526207116988e-06 0.00219155699772703 0.000378404347481921)
(2.38359291368096e-06 0.00219848910585696 0.00041953829604482)
(3.07068209787869e-05 0.00208873323815082 2.50165359606048e-05)
(3.0173618793212e-05 0.00209482521571916 7.67129056079533e-05)
(2.90334509869047e-05 0.0021021123220324 0.000130976983222817)
(2.71419702120346e-05 0.00211069384847182 0.000186113134814987)
(2.42789299495328e-05 0.00212040324797775 0.000240062040716268)
(2.05050917253115e-05 0.00213092474482481 0.000292035770870091)
(1.67288189597322e-05 0.00214194649940563 0.000341869287753706)
(1.28583935200961e-05 0.00215285284606929 0.000387990997289412)
(8.61475639042686e-06 0.00216372156440732 0.000429798304338821)
(2.99893135592893e-06 0.00217456079905964 0.000469081557775061)
(3.59724458166418e-05 0.00202935434355494 2.5413452759846e-05)
(3.64335257880706e-05 0.00203638285742467 7.80591998208328e-05)
(3.62429501637006e-05 0.00204514560463304 0.00013349741728605)
(3.52905949372411e-05 0.00205581227538529 0.00019002276741425)
(3.33623266530772e-05 0.00206824683700732 0.000245481072387744)
(3.03299957003158e-05 0.00208215634612874 0.000298892034075585)
(2.6435701556745e-05 0.00209719318113853 0.000349975083070048)
(2.18584794172364e-05 0.00211287054859661 0.000398041604903035)
(1.67465664167134e-05 0.00212872603434708 0.000442252935248576)
(1.03820520275456e-05 0.00214441947351185 0.000482187274557554)
(3.44989766081276e-06 0.00215979251436479 0.000518813822684642)
(4.05920126057656e-05 0.00196736238845599 2.59026981391329e-05)
(4.23920406643964e-05 0.00197521709586009 7.97106334026577e-05)
(4.35226462997138e-05 0.00198537518954738 0.000136564982104159)
(4.3890514479194e-05 0.00199809389320891 0.000194745500198458)
(4.3260146227797e-05 0.00201328139865786 0.000252017409188813)
(4.13942139359804e-05 0.00203067734278572 0.000307289847194684)
(3.81941151734382e-05 0.00204998113477769 0.000360214595365235)
(3.36578306390284e-05 0.00207074630360761 0.00041024505148015)
(2.7820129951695e-05 0.00209231806998039 0.000456502975735891)
(2.06369969456902e-05 0.00211398679731711 0.000498267818626454)
(1.25487255447798e-05 0.00213523421290284 0.000535610807662779)
(4.27109914532578e-06 0.00215573715129219 0.00056865879421262)
(5.35198812605699e-05 0.00197572622227778 0.000317137817993885)
(5.17676324266378e-05 0.00199943966355246 0.000372398438356311)
(4.82096289908935e-05 0.00202556863021733 0.000424836929228349)
(4.2664972535721e-05 0.00205344421652699 0.000473567022955276)
(3.50651706712668e-05 0.00208212427823969 0.000517662493812301)
(2.57755538998109e-05 0.00211060815930345 0.000556603731287792)
(1.56959974208377e-05 0.00213814040665002 0.00059031259959628)
(5.37156888644574e-06 0.00216427798104149 0.000618728096833712)
(3.15041567403368e-07 0.002644861131093 2.68088437299739e-05)
(1.09833397550922e-06 0.00258478780516397 2.61967214822063e-05)
(1.25630174557796e-06 0.00258371833127854 8.03274113655805e-05)
(1.74484305262535e-06 0.00252676783059983 2.58418632757302e-05)
(2.63487126253496e-06 0.00252624895259994 7.76380866305024e-05)
(9.89355651522317e-07 0.0025240798052647 0.000133789642319625)
(3.13773545724234e-06 0.00247038300295308 2.5581733555992e-05)
(3.701527918497e-06 0.00247056922000466 7.6442335717586e-05)
(2.11966450326613e-06 0.00246922329594978 0.000129597667467935)
(-8.60139218285275e-08 0.00246622128508321 0.000185120742356782)
(5.17756943043284e-06 0.00241527050695033 2.51337533389962e-05)
(4.80473131330622e-06 0.00241606836151723 7.56536337113317e-05)
(3.5850227749396e-06 0.00241555260227067 0.000127480747058657)
(3.38195063413999e-07 0.00241395369233677 0.000181101749963744)
(-7.24030203280666e-07 0.00241090495840694 0.000233095618264919)
(8.07351235167619e-06 0.00236091812512368 2.47495356924938e-05)