/*--------------------------------*- C++ -*----------------------------------*\
  =========                 |
  \\      /  F ield         | OpenFOAM: The Open Source CFD Toolbox
   \\    /   O peration     | Website:  https://openfoam.org
    \\  /    A nd           | Version:  12
     \\/     M anipulation  |
\*---------------------------------------------------------------------------*/
/*   Windows 32 and 64 bit porting by blueCAPE: http://www.bluecape.com.pt   *\
|  Based on Windows porting (2.0.x v4) by Symscape: http://www.symscape.com   |
\*---------------------------------------------------------------------------*/
FoamFile
{
    format      ascii;
    class       volScalarField;
    location    "600";
    object      k;
}
// * * * * * * * * * * * * * * * * * * * * * * * * * * * * * * * * * * * * * //

dimensions      [0 2 -2 0 0 0 0];

internalField   nonuniform List<scalar> 
10140
(
8.57269672695507e-06
8.66741400582916e-06
8.82309211438505e-06
6.58000246886557e-05
8.73611036381835e-06
8.92398835131926e-06
6.6018067828093e-05
9.17544682579128e-06
6.59975054259137e-05
0.000113480224038753
8.7596217474025e-06
8.99509331994591e-06
6.61407359237892e-05
9.28524088339169e-06
6.62192758863477e-05
0.000113678427409206
9.29574586040258e-06
6.62234230313266e-05
0.000113405781238344
0.000149419474821067
8.76374055752072e-06
9.01610875932429e-06
6.61565789206133e-05
9.35826357278871e-06
6.63434363608856e-05
0.000113739577503821
9.41053592629593e-06
6.64490535882726e-05
0.000113606656232401
0.000149585606267956
9.03509201738624e-06
6.5841795927483e-05
0.000112897152190461
0.000149195250194431
0.000179250672542238
8.75351752351551e-06
9.01908414574072e-06
6.60765568451094e-05
9.37919711117939e-06
6.63592014772267e-05
0.00011365719877623
9.48570994619209e-06
6.65746372005162e-05
0.000113668960693919
0.000149575368372717
9.15079777748875e-06
6.60702424143347e-05
0.000113099696599284
0.000149364232444824
0.00017938087670805
8.49579673205408e-06
6.44597918170042e-05
0.000111604791622996
0.000148215398466962
0.000178873527703278
0.000205382477865855
8.72842345025215e-06
9.00643592203014e-06
6.59050693637929e-05
9.38167173645836e-06
6.62790714873365e-05
0.000113430178580008
9.50744253238163e-06
6.65905562225353e-05
0.0001135872284403
0.000149385628680002
9.22809367916771e-06
6.61979727391658e-05
0.000113163241279123
0.000149354945619271
0.000179298705232024
8.61036181332508e-06
6.46905580466387e-05
0.000111808034902668
0.00014838594967573
0.000179007106365682
0.000205474046673345
7.83561534260975e-06
6.21647375123117e-05
0.000109263342594679
0.000146231221209765
0.0001775199831062
0.000204833794976861
0.000228951542784383
8.68821972004847e-06
8.97908781051573e-06
6.56447392529661e-05
9.3678040849767e-06
6.61068403142525e-05
0.000113058553210354
9.51053497047275e-06
6.65102309035643e-05
0.000113360745553724
0.000149012085577014
9.24980539728926e-06
6.62156467174378e-05
0.000113082781592711
0.000149165837888201
0.00017900291647509
8.68750342685573e-06
6.4821762726597e-05
0.000111873425496358
0.000148378033805809
0.000178926104200493
0.000205320360315925
7.94855143562398e-06
6.23980569981728e-05
0.000109467012333264
0.000146401958070288
0.000177655533561739
0.00020492942430246
0.000229002344158064
7.12631594163013e-06
5.9236020908745e-05
0.000105894810081267
0.000143093255213102
0.000174969143208982
0.000203135087824423
0.000228257687763282
0.000250591742200221
8.63321493444893e-06
8.93627753591861e-06
6.52953274964158e-05
9.33874759051628e-06
6.58453572497335e-05
0.000112542421117674
9.49641729526954e-06
6.63373155818115e-05
0.000112989627034961
0.000148452247831891
9.25426060845865e-06
6.61372508847499e-05
0.000112857899608106
0.000148792982980949
0.000178488301478661
8.71036761048238e-06
6.48434135801258e-05
0.000111795882829555
0.000148190879510452
0.000178631239841
0.000204921118012703
8.02534157365311e-06
6.25342283636532e-05
0.00010953549215003
0.000146396131684221
0.000177576414303235
0.000204777381845566
0.000228777372370144
7.23732302486261e-06
5.94730149739256e-05
0.000106099114478156
0.000143263657289904
0.000175105000933977
0.000203233324289215
0.000228313269705232
0.000250600239403936
6.37499259572985e-06
5.58556210720996e-05
0.000101668514442024
0.000138843753457195
0.000171144232251871
0.000200091293089557
0.000226267620165351
0.000249799242729778
0.000270705686036411
8.56180243735866e-06
8.87749628487939e-06
6.48571036240188e-05
9.29381423119294e-06
6.54951023945999e-05
0.000111881129326044
9.4674280420447e-06
6.60749640863864e-05
0.00011247404368532
0.0001477044043465
9.24162142344791e-06
6.59665128400676e-05
0.000112488824538784
0.000148233999833741
0.000177751171439724
8.71673227240966e-06
6.47702142503657e-05
0.000111575115931466
0.000147820869477145
0.000178117762848701
0.000204270735406302
8.04935913835512e-06
6.25622877610431e-05
0.000109463346376498
0.000146213027002038
0.000177284357044553
0.000204379647417626
0.0002282768259164
7.31385864747912e-06
5.9615886858478e-05
0.000106172184267023
0.00014326112898568
0.000175028680068427
0.000203083941111405
0.00022809045707974
0.000250303899115664
6.48354530013148e-06
5.60975139204836e-05
0.00010187378695917
0.000139013843134418
0.000171279728079373
0.000200190309566763
0.000226326532203599
0.000249813157733068
0.000270671126280589
5.5804471309365e-06
5.20728000822492e-05
9.6716006652556e-05
0.000133609860184637
0.000166125688406427
0.000195671553982001
0.00022281299783956
0.000247587999572608
0.0002698502590359
0.000289553174520073
8.47431183928504e-06
8.80170505978111e-06
6.43285782827156e-05
9.23229046453032e-06
6.50556308499044e-05
0.000111073725105442
9.42260665219918e-06
6.57235068185584e-05
0.000111813405200914
0.000146766958942456
9.21485563565367e-06
6.57069893946532e-05
0.000111975848987729
0.000147487219606315
0.000176788781513434
8.70686156699535e-06
6.46060554184665e-05
0.000111211486387584
0.00014726573755467
0.00017738211016294
0.000203364975744866
8.05811455134183e-06
6.24975512561776e-05
0.000109250331637476
0.000145849139366307
0.000176775003736989
0.000203731162740764
0.000227494871219708
7.33920480534438e-06
5.96524017123364e-05
0.000106108077594295
0.00014308476053375
0.000174742026868106
0.000202690101148335
0.000227591996769001
0.000249703239925747
6.56011018683213e-06
5.62488719101794e-05
0.000101952851705987
0.000139016028757645
0.000171207509103217
0.000200044713471472
0.000226107202505939
0.000249519389601697
0.00027030286671894
5.68501115184179e-06
5.2320738534651e-05
9.69226196957643e-05
0.000133779760966246
0.000166260788623448
0.000195770626755411
0.00022287332087102
0.000247605930933994
0.000269821661355852
0.000289476708867807
4.75441210927408e-06
4.78859648046078e-05
9.10956802865021e-05
0.000127488114925801
0.000160033567489854
0.000189984155570019
0.000217891087233605
0.0002438053025075
0.000267473493343007
0.000288653616619427
0.000307290198864951
8.37070821639753e-06
8.70812472305209e-06
6.37085515973245e-05
9.1530073093468e-06
6.45249626913685e-05
0.000110119822339894
9.3610313414161e-06
6.52827398457089e-05
0.000111006729380224
0.000145638901637011
9.17293277548331e-06
6.53589834905943e-05
0.000111318419553096
0.000146551056545283
0.000175599210618976
8.68377017830702e-06
6.43548527962265e-05
0.000110705438042725
0.000146523888224032
0.000176421574587719
0.00020220080829702
8.05153348987489e-06
6.23441722878091e-05
0.000108896934563877
0.000145302289291224
0.000176044922614704
0.000202827822879747
0.000226427188854022
7.35039213475426e-06
5.95986593213442e-05
0.0001059065612061
0.000142731041377691
0.000174240843200107
0.000202047213595547
0.000226812666241926
0.000248792539304122
6.58690458875592e-06
5.62954129298333e-05
0.000101899097658283
0.000138849139809402
0.00017092925602857
0.000199657811258375
0.000225613710133061
0.000248921259608103
0.0002696020962615
5.76166098190464e-06
5.24826909959159e-05
9.70089724201922e-05
0.000133787961781696
0.000166194145095358
0.000195630274614482
0.00022265882546871
0.00024731636488327
0.000269456286519569
0.000289035092308738
4.85290533467622e-06
4.813935588212e-05
9.13040044026782e-05
0.000127657879010326
0.000160168382800655
0.000190083273372073
0.000217952102024434
0.00024382529867007
0.000267449522384803
0.000288583572854935
0.000307179296704656
3.91767457941658e-06
4.32965964267358e-05
8.48286650521397e-05
0.000120530359978922
0.000152948879008979
0.000183150787923592
0.000211627637886892
0.000238464319496533
0.000263425839180279
0.000286144650921483
0.000306354203859541
0.000323995715841996
8.25021314540426e-06
8.59704885817369e-06
6.29956864847118e-05
9.05483665784353e-06
6.39022120916078e-05
0.000109017462834411
9.28167758379308e-06
6.47507681545159e-05
0.000110053412991577
0.00014431867892835
9.11479680862315e-06
6.49223656153354e-05
0.000110515561370904
0.000145424460193463
0.000174180522847367
8.64658987245759e-06
6.4017097979191e-05
0.000110056477352846
0.000145593752253156
0.000175234225399029
0.00020077556419103
8.03275931849996e-06
6.21064067713831e-05
0.000108403771358962
0.000144570956326189
0.000175091464247756
0.000201666638305423
0.000225070308747034
7.34825340989178e-06
5.94591897834989e-05
0.000105568240157286
0.000142197840079624
0.000173521772673172
0.000201151323943912
0.000225748302241834
0.000247567365977228
6.60089218453983e-06
5.62544460747121e-05
0.000101712280085366
0.000138509622177427
0.000170440787032663
0.000199025210251185
0.000224841377902507
0.000248013717945752
0.000268563641678467
5.79030080247563e-06
5.25407958242616e-05
9.69675156426024e-05
0.000133632996082218
0.000165927230238554
0.000195253629232056
0.000222173766085366
0.000246724106548915
0.000268758360692657
0.000288232297360962
4.92725255080994e-06
4.83144586055817e-05
9.1398802294705e-05
0.000127673220341386
0.000160108695461141
0.000189949777444627
0.00021774409673151
0.000243541541921945
0.000267088950923165
0.000288145106942042
0.000306659693133862
4.00694801916583e-06
4.35533908171961e-05
8.50388964358612e-05
0.000120699918848546
0.000153083445513582
0.000183250133639031
0.000211689410739566
0.000238485717074126
0.0002634045530483
0.000286079749124216
0.000306250098817605
0.000323881533791771
3.09687238980631e-06
3.83207764558467e-05
7.79262808444395e-05
0.000112766446550304
0.000144917090912623
0.000175246561806902
0.000204149942646978
0.000231703888637703
0.000257728970402458
0.000281872707651819
0.000303730298100078
0.000323026191759285
8.11324006929836e-06
8.46924061369558e-06
6.21885837525979e-05
8.93820588784781e-06
6.31861276254993e-05
0.000107765128335336
9.18304475607728e-06
6.41257659872166e-05
0.000108951562074243
0.000142804622057001
9.03944926402716e-06
6.43949713091711e-05
0.000109566205273702
0.000144105846982732
0.000172530858668608
8.59428820737815e-06
6.35924443017855e-05
0.000109263586387088
0.000144474062194978
0.000173818128878512
0.000199086898996739
8.0010930441048e-06
6.17850047955489e-05
0.000107770439124077
0.000143653592847081
0.000173912577719637
0.000200244978459143
0.000223421237248193
7.33381602063393e-06
5.92385881751889e-05
0.000105093897369686
0.000141483697913961
0.000172582227579774
0.00019999940874149
0.000224395501924526
0.000246024123127229
6.60220076477823e-06
5.61311817428149e-05
0.000101393117054796
0.000137995358231294
0.000169738772562467
0.000198143049732584
0.000223786155848041
0.000246792536155875
0.000267183423916904
5.80646567806892e-06
5.25140678242886e-05
9.67980119589979e-05
0.00013331123541639
0.000165455842715378
0.000194636339083598
0.000221413704520994
0.000245824683468206
0.000267723460520282
0.000287065303624442
4.95622315968038e-06
4.83856373024153e-05
9.1371330627515e-05
0.000127532298411539
0.000159855762991575
0.000189586582212347
0.000217271145278472
0.000242959052958067
0.000266397624934781
0.000287345435655704
0.000305749837576462
4.07498416285045e-06
4.374030957899e-05
8.51429811000802e-05
0.000120723323538194
0.000153031926599038
0.000183125039456289
0.00021148971101875
0.00023820968066672
0.000263050674453283
0.000285646624281177
0.000305733918404144
0.000323265035709539
3.17473215637769e-06
3.8576094785511e-05
7.81378596714055e-05
0.00011293557734355
0.000145051312172644
0.000175346265191641
0.00020421277434716
0.000231726877151891
0.000257709798485563
0.000281811029228265
0.000303631856317023
0.000322918375903703
0.000339659061837341
2.32130736172118e-06
3.2990453400741e-05
7.03991045726569e-05
0.000104217236755981
0.000135969624044042
0.000166313359450496
0.000195533385249788
0.00022366029303353
0.000250533438452306
0.000275863976064866
0.000299258746934791
0.000320296740407488
7.95731137749964e-06
6.12842409626863e-05
8.3240804729798e-06
8.8038172767857e-06
6.23752128929529e-05
0.000106360831374841
9.06523714994091e-06
6.34068026657902e-05
0.000107699558436255
0.00014109537869714
8.94506466603506e-06
6.37749735548205e-05
0.000108468859312122
0.000142593506354658
0.000170648648908895
8.52560662997781e-06
6.30786985630429e-05
0.000108325231459301
0.000143163466820702
0.000172171384316138
0.000197132808253392
7.95580901041262e-06
6.13795113872953e-05
0.00010699581926782
0.000142548660659668
0.000172506502840607
0.000198560477192436
0.000221477341907666
7.3079109588344e-06
5.89377961147021e-05
0.000104483232131753
0.000140587092247667
0.000171419971068491
0.000198588984656678
0.000222751290146958
0.000244159598330412
6.59265263887245e-06
5.59303623369053e-05
0.000100942556131318
0.000137304939601138
0.000168820649530337
0.000197008225640596
0.000222444784562734
0.000245254183337023
0.000265457838713062
5.81059615556759e-06
5.24086174562016e-05
9.65013507944505e-05
0.000132820556145434
0.00016477665361582
0.000193774572011672
0.000220374615569927
0.000244614107332429
0.000266347714166744
0.000285530776221712
4.97399279559433e-06
4.83740800577635e-05
9.12213446910179e-05
0.000127231382311657
0.000159405359087303
0.000188989344977241
0.000216528868117782
0.000242073586462061
0.000265371811581951
0.000286182319102763
0.000304451616023565
4.1019228654821e-06
4.38242440000329e-05
8.51308470914001e-05
0.000120598285711346
0.000152795332856982
0.000182778204578832
0.000211032385545528
0.000237641048972605
0.000262370291721443
0.000284854245490685
0.00030482748202731
0.000322237041406706
3.23374683747913e-06
3.87677122626364e-05
7.82513872581329e-05
0.00011296772191745
0.000145008993818345
0.00017523097400955
0.00020402314787774
0.00023146064128118
0.000257364825067172
0.000281385428579822
0.000303121525387185
0.000322305973395667
0.000338883744297323
2.38743005066073e-06
3.32394821252208e-05
7.06102679192795e-05
0.00010438542214355
0.00013610326607635
0.000166413433073022
0.000195597547521772
0.000223685328334114
0.000250516726026734
0.000275805064297387
0.000299164065919322
0.000320194321113605
0.000338657600452875
0.000354304935179891
1.6147489816677e-06
2.73462258708388e-05
6.2258607130185e-05
9.48976881337965e-05
0.000126132006707375
0.000156382453849827
0.000185819084638462
0.000214413288091303
0.000241986011639667
0.000268279746184939
0.000292968525510056
0.000315641718293261
7.7740861119351e-06
6.02766836670968e-05
8.16019257159971e-06
0.0001048026980236
6.14661905045227e-05
8.65112745634456e-06
8.92903269280512e-06
6.25922516853691e-05
0.000106295549226251
0.00013918962900221
8.83156342712172e-06
6.30609039625455e-05
0.000107221598946964
0.00014088602081774
0.000168532685491753
8.4391305075083e-06
6.24737695008987e-05
0.000107240340862624
0.000141660087259855
0.000170292424181261
0.000194911602547306
7.89507871819153e-06
6.08875236035394e-05
0.000106078020042216
0.000141255050983292
0.000170871226491583
0.000196611109025601
0.000219236365207854
7.26941019182686e-06
5.85564279807804e-05
0.000103734987897889
0.000139506344766486
0.000170033451469328
0.000196917623395601
0.00022081303561434
0.000241970873664245
6.57236753468105e-06
5.5653205950135e-05
0.000100360379918776
0.00013643685910085
0.000167684133326405
0.000195618413152968
0.000220814283797431
0.000243395463951921
0.000263383449057886
5.80519141302218e-06
5.22297453315867e-05
9.60786440309413e-05
0.000132159586706451
0.000163887102767011
0.00019266521016595
0.000219053385667925
0.00024308890536637
0.000264627587633909
0.000283625039715812
4.98089665338605e-06
4.82877404747844e-05
9.09500361085536e-05
0.000126768336122522
0.000158754139363644
0.000188154236869161
0.000215513252438142
0.000240881333306641
0.000264007837088125
0.000284652638630157
0.000302762205501167
4.11965152865384e-06
4.38284942136393e-05
8.50022072459974e-05
0.000120320937259583
0.000152369408183872
0.000182205298100658
0.000210313073535168
0.000236775628991305
0.00026136000328807
0.000283701061512596
0.000303533454930177
0.000320803256406
3.25619319171366e-06
3.8860490007733e-05
7.82552204957952e-05
0.000112860115277745
0.000144790854376657
0.000174903151198063
0.000203584681096559
0.000230909779688474
0.000256699946685343
0.000280605158833534
0.000302223058104284
0.000321281859349788
0.000337723967362345
2.43604066634099e-06
3.34285588079896e-05
7.07322620579125e-05
0.000104426746024269
0.000136070999072576
0.0001663091890562
0.000195419631396797
0.000223430927093781
0.000250183047359505
0.000275389528976988
0.000298662095275133
0.000319588525607666
0.000337891730838192
0.000353468537121522
1.6692359018269e-06
2.75852096739815e-05
6.24653759761521e-05
9.50639970948831e-05
0.00012626467648215
0.000156482784656195
0.000185884740135508
0.000214440808696198
0.000241972392176357
0.000268224117740182
0.000292877181681884
0.000315542889087728
0.000335829056770352
0.000353272050492591
0.000367938143492606
9.99347913601412e-07
2.14236073836189e-05
5.35101452453829e-05
8.48148778673964e-05
0.000115423219157987
0.00014548117980786
0.000175038156416592
0.000204005237330281
0.000232172354051415
0.000259276975983702
0.000285030472680658
0.000309092341573995
7.51224148063328e-06
5.91577206095048e-05
7.97372430021704e-06
0.000103088094204607
6.04532859741714e-05
8.47911137842569e-06
0.000137086471908289
0.000104737275986471
6.16785723907975e-05
8.77420075266125e-06
8.70045349641827e-06
6.22510216152477e-05
0.000105822485691126
0.000138982117677521
0.00016618221635112
8.33468741794754e-06
6.17756562873615e-05
0.000106006575435881
0.000139962349873781
0.000168180001869834
0.000192422210919055
7.81721507613094e-06
6.03066804369985e-05
0.000105016145611724
0.000139770714008576
0.000169005113184785
0.000194395205025375
0.000216696567987828
7.21634082793622e-06
5.80916697287962e-05
0.000102847252149838
0.000138240133212117
0.000168420553615527
0.000194983265584972
0.000218578475178376
0.000239455413855659
6.54073338834191e-06
5.52992443655539e-05
9.9645218007203e-05
0.00013538932397094
0.000166327499865489
0.000193971125595756
0.000218892020837384
0.000241213458702147
0.000260956948620931
5.7907114000646e-06
5.19788375328775e-05
9.55297428998056e-05
0.000131326824932173
0.000162784866276247
0.000191305835175367
0.000217447020722213
0.000241245906964914
0.00026255964284297
0.000281344223190895
4.97998504270099e-06
4.81329769788998e-05
9.05587482125386e-05
0.00012614181914946
0.000157899533685758
0.000187078129389535
0.00021422116110699
0.000239378853516528
0.000262302242026253
0.000282752789041846
0.000300677277813502
4.12858271484899e-06
4.37630376120352e-05
8.47587473106371e-05
0.000119889143385835
0.000151750781774476
0.000181402494138945
0.000209327772699564
0.000235609640337939
0.000260016246026087
0.000282184164204371
0.000301849241000118
0.000318957886461019
3.27116465713842e-06
3.88798649229416e-05
7.81492385935922e-05
0.00011260871968652
0.000144392590928318
0.00017435848589663
0.000202893044446835
0.000230070118789171
0.000255711830041591
0.00027946895383302
0.000300939786335642
0.000319852638965457
0.000336152067626772
2.45236573970923e-06
3.35238420392435e-05
7.07516425953852e-05
0.000104337764304629
0.000135873194851661
0.000166002815346029
0.000195003009702972
0.000222901444330117
0.000249538038874685
0.000274626400542204
0.00029777689514524
0.000318573190342172
0.000336737073081674
0.000352202976906963
1.70740701055418e-06
2.77660041545519e-05
6.25931358494806e-05
9.5114573208902e-05
0.000126243148337449
0.000156390673619346
0.000185720024477871
0.000214200143761901
0.000241652339978008
0.000267821372045657
0.000292386486581606
0.00031494649185077
0.000335074032290937
0.000352445653416181
0.000367035644216008
1.0408023297718e-06
2.16507954621453e-05
5.37088265697152e-05
8.49778029026311e-05
0.000115554321659896
0.000145581515034053
0.000175105339319071
0.0002040355698295
0.000232162445445288
0.000259225449628767
0.000284943065272671
0.000308996719940733
0.000331003021217085
0.000350348505572851
0.000366875840601591
0.000380560586426783
5.10784396479924e-07
1.526247047284e-05
4.41476616633044e-05
7.3962209505881e-05
0.000103850488084725
0.000133629800729329
0.000163217923710243
0.000192467128843353
0.000221136729222328
0.000248946940849447
0.000275610488173575
0.000300827811869941
7.22907811030847e-06
5.79106502824147e-05
7.6838194355807e-06
0.000101215210894164
5.93280687018938e-05
8.28289977823485e-06
0.000134785505482579
0.000103022270496998
6.06599217552388e-05
8.59942375544421e-06
0.000163597192698049
0.000136880772144918
0.0001042690500623
6.13416570386751e-05
8.5504859773246e-06
8.2124274175542e-06
6.09830537311877e-05
0.000104621815302959
0.000138068949313476
0.00016583333463533
0.000189664338716157
7.72254373873508e-06
5.9635086241191e-05
0.000103807576003986
0.000138093869979616
0.000166906844815567
0.000191911648341883
0.000213856922450307
7.14753290283111e-06
5.75409443759302e-05
0.000101818575291291
0.00013678659662991
0.000166579486527055
0.000192784213363209
0.000216045847927342
0.000236611352153095
6.49570852465868e-06
5.48653497738651e-05
9.87950960771625e-05
0.000134160705019542
0.000164748797769915
0.000192064239644445
0.000216675713330346
0.000238705644147515
0.00025817551317269
5.76600151169484e-06
5.16551539213127e-05
9.48531753931376e-05
0.000130320357182669
0.0001614679688129
0.00018969408358712
0.000215552873524802
0.000239082199159736
0.000260140610113841
0.000278684560542576
4.97141757450245e-06
4.79111816078834e-05
9.00473665471203e-05
0.000125350322721425
0.00015683919368973
0.000185758423915964
0.00021264969147462
0.000237563002061057
0.000260251615326574
0.000280478923300885
0.000298192139714364
4.13181581692288e-06
4.36350971570392e-05
8.44021735434103e-05
0.000119301593512374
0.00015093686354002
0.000180366650682027
0.000208073237723748
0.000234139720218849
0.000258335619782845
0.000280300027854453
0.000299770592580317
0.000316694296334629
3.27903300847643e-06
3.88363841803308e-05
7.79357770472666e-05
0.000112211423409645
0.000143810799786282
0.000173593150775292
0.000201944253028954
0.000228937826028491
0.000254396983394445
0.000277974022033621
0.000299269315167831
0.000318012829597464
0.000334150861227987
2.46223621184711e-06
3.35525240784836e-05
7.06687151368662e-05
0.000104114302579483
0.000135505486346265
0.000165490020540416
0.000194343398387788
0.000222092740904435
0.000248578337420059
0.00027351446351113
0.000296512038211583
0.00031715559365856
0.000335170251224377
0.000350500718542911
1.71777450305887e-06
2.78567837144114e-05
6.26263529375191e-05
9.50449785245601e-05
0.000126067325119888
0.000156107979754282
0.000185328027982306
0.000213695390040286
0.000241031223774942
0.000267080197001371
0.000291520123828899
0.000313945710145379
0.000333929867059191
0.000351185741759587
0.000365670328364217
1.06874101686229e-06
2.1819995856654e-05
5.38378897634163e-05
8.50370394165288e-05
0.000115544020661252
0.000145502462488254
0.000174955152167873
0.000203810389620366
0.000231858206308714
0.000258838143323414
0.000284466734992907
0.000308413106492434
0.000330260330507827
0.000349533871837977
0.000365983693372578
0.000379582294277719
5.36257788615638e-07
1.54826736464067e-05
4.43371003323536e-05
7.41193770490243e-05
0.000103979134251639
0.000133729714435174
0.000163286516080484
0.000192500458286134
0.000221131027946026
0.000248900316457732
0.000275527957157079
0.00030073600705608
0.000324213407855991
0.000345360961463119
0.0003638634735272
0.000379470674305805
0.000392153809214443
1.8617767211627e-07
9.16073097521701e-06
3.4180905134766e-05
6.23149937424787e-05
9.13984417962459e-05
0.000120832664496263
0.000150376709743589
0.000179824711247468
0.000208909593808734
0.000237335408650175
0.000264804367668765
0.000291021549757375
5.65628837516676e-05
7.37326075091586e-06
9.91852370156677e-05
5.80676390779678e-05
7.97711600524018e-06
0.000132287859170063
0.000101148709490042
5.95279294327074e-05
8.39817007656237e-06
0.000160778597201146
0.000134581567573863
0.000102558734358839
6.03268536737492e-05
8.38001273854397e-06
0.000186638597422021
0.000163252316252633
0.000135978722321888
0.000103083419130852
6.00912250531225e-05
8.071542534071e-06
7.61091763649915e-06
5.88699729741873e-05
0.000102449910789228
0.000136223018989314
0.000164575568515333
0.000189160065374557
0.00021071736298147
7.06322324845606e-06
5.69021945143287e-05
0.00010064657905904
0.000135143631258249
0.000164508830964644
0.000190319280361146
0.000213214091897882
0.00023343760074934
6.43609271192243e-06
5.43488163329749e-05
9.78080681748237e-05
0.000132749321849391
0.000162946005122256
0.000189895978697447
0.000214163559307976
0.000235870100838125
0.000255036957537466
5.72880246990524e-06
5.12552540832641e-05
9.40468057066559e-05
0.000129138269690871
0.000159934633197728
0.000187827688751708
0.000213368624700825
0.000236595244386447
0.000257367640935367
0.000275642720652993
4.95310507618088e-06
4.76206003109936e-05
8.94142718783107e-05
0.000124391838954267
0.000155570847963717
0.000184192907655275
0.000210796135501942
0.000235430864221035
0.000257852704802782
0.000277827286391987
0.000295302269965569
4.12864921053563e-06
4.34453364501052e-05
8.39323067054592e-05
0.000118556760038857
0.000149925267057301
0.000179094971691187
0.000206546690081806
0.000232362718160067
0.000256314744182717
0.000278044842704326
0.000297292849190732
0.000314006291477966
3.28284455341553e-06
3.87375261800176e-05
7.76168938728981e-05
0.000111666963524235
0.000143042866946063
0.000172603980171792
0.000200734936851053
0.000227509646040273
0.00025275203111371
0.000276116901740321
0.000297207482857195
0.000315755912615861
0.000331709600972079
2.46684267527455e-06
3.35254270298788e-05
7.04865533641255e-05
0.000103754326603375
0.000134964432703197
0.000164766975208967
0.000193436829514353
0.000221000927717758
0.000247300529758851
0.000272050956987255
0.000294865226743477
0.000315330490888041
0.000333175001767151
0.000348346810521835
1.7225699059047e-06
2.78871471785032e-05
6.2565411960795e-05
9.48509111641372e-05
0.000125732754699801
0.00015563042292631
0.000184704522943447
0.000212922460252824
0.000240105651494998
0.000265999376632102
0.000290281625938764
0.000312548008973471
0.000332375728381947
0.00034948895979519
0.000363842081875674
1.07408753584414e-06
2.19012692114251e-05
5.38805820728023e-05
8.4986886339033e-05
0.000115391550919348
0.000145245467978034
0.000174590357988318
0.000203333503687207
0.000231264721692672
0.000258123374735136
0.000283624545769132
0.000307433024316278
0.000329132640804112
0.000348285448460217
0.000364624362861648
0.000378116216683567
5.52127334918925e-07
1.56414592571079e-05
4.44647585119612e-05
7.41859635282741e-05
0.000103980219612795
0.000133664459223484
0.000163152009233176
0.00019229233653296
0.000220844620095162
0.000248530939208623
0.000275068989725232
0.000300168773500599
0.000323486357173857
0.000344559581672592
0.000362983685615142
0.000378503137671067
0.000391094039398517
1.97360886270076e-07
9.35054411028138e-06
3.43639357060192e-05
6.24645690700576e-05
9.15233123139762e-05
0.000120931475487048
0.000150446397231789
0.000179861049001517
0.000208908435451264
0.000237294350376419
0.000264727651520305
0.000290934507916956
0.000315647039133012
0.00033834616412035
0.000358725034974441
0.00037637539097418
0.000391038249427985
0.000402696560580762
3.74634667203785e-08
3.85466618298532e-06
2.36995298207923e-05
4.98452413360956e-05
7.80157612167351e-05
0.000107060850196258
0.000136511317530723
0.00016609146998862
0.000195513711637876
0.00022447157639302
0.000252658527186861
0.000279772687350406
9.70131205858965e-05
5.67108364937484e-05
7.64922041865811e-06
0.000129597680474987
9.91173467949223e-05
5.82588873921307e-05
8.0883047228967e-06
0.00015772907980136
0.000132085599842011
0.000100689973917434
5.91983762588766e-05
8.18304076928603e-06
0.000183347015334518
0.000160437872798708
0.000133691183163238
0.000101388617425271
5.90944451686653e-05
7.91057701984808e-06
0.000207279115596375
0.000186141045642656
0.00016201107334388
0.000134156896852075
0.000100940235809996
5.80073810504791e-05
7.48110860181035e-06
6.96234536504447e-06
5.61721640437253e-05
9.93282711083881e-05
0.000133309422605151
0.000162207586352908
0.00018758799533587
0.000210083096408667
0.000229934238750889
6.36194333093102e-06
5.37471223976778e-05
9.6681829800115e-05
0.000131152728976901
0.000160917528146618
0.00018746505336001
0.000211354431960071
0.000232705730326558
0.000251540062814758
5.67842302116455e-06
5.07760959544007e-05
9.31083113989477e-05
0.000127778964199526
0.000158182607528267
0.000185704760178709
0.000210892399568166
0.000233783072041083
0.00025423853848354
0.000272216122866607
4.92340380889888e-06
4.72574253750928e-05
8.86570947533769e-05
0.000123264146830221
0.000154092865659959
0.000182379148277148
0.000208658105688145
0.000232979870281322
0.000255102646018665
0.000274794545495157
0.000292003669358897
4.11667197612859e-06
4.31904157105065e-05
8.33472248146792e-05
0.000117652527434613
0.000148713565035026
0.00017758535138225
0.000204745327859241
0.000230275699135841
0.000253950372365547
0.000275414871414187
0.000294411503016211
0.000310888278701151
3.2822762597878e-06
3.85823480928945e-05
7.71922150520739e-05
0.000110973781186292
0.000142086359195356
0.000171388099252806
0.000199262415329574
0.000225782389573206
0.000250773611674909
0.000273893823240578
0.000294749677982866
0.000313075742356997
0.000328820181660445
2.46864201335184e-06
3.34503902825912e-05
7.02074877199526e-05
0.000103256649211674