/*--------------------------------*- C++ -*----------------------------------*\
  =========                 |
  \\      /  F ield         | OpenFOAM: The Open Source CFD Toolbox
   \\    /   O peration     | Website:  https://openfoam.org
    \\  /    A nd           | Version:  12
     \\/     M anipulation  |
\*---------------------------------------------------------------------------*/
/*   Windows 32 and 64 bit porting by blueCAPE: http://www.bluecape.com.pt   *\
|  Based on Windows porting (2.0.x v4) by Symscape: http://www.symscape.com   |
\*---------------------------------------------------------------------------*/
FoamFile
{
    format      ascii;
    class       volScalarField;
    location    "600";
    object      nut;
}
// * * * * * * * * * * * * * * * * * * * * * * * * * * * * * * * * * * * * * //

dimensions      [0 2 -1 0 0 0 0];

internalField   nonuniform List<scalar> 
10140
(
3.47517321897587e-06
3.51356941805275e-06
3.70456937334601e-06
0.000118464755720872
3.54141731442704e-06
3.74693278230155e-06
0.000118872353160322
4.0120109670008e-06
0.000121896243069978
0.000402960787957744
3.55094826856145e-06
3.77678769387024e-06
0.000119127194459369
4.06001874084829e-06
0.000122319397151404
0.000403790334297646
4.1946266628274e-06
0.000126267232898876
0.000408137628947463
0.000759087066745213
3.55261791882396e-06
3.78561150633612e-06
0.000119215268297595
4.09194812581591e-06
0.000122582220593573
0.00040426427020479
4.24642431274067e-06
0.000126711284721307
0.000408986292382134
0.000760263012569521
4.13086086487728e-06
0.000128873020778192
0.000414256692333965
0.000762938052872556
0.00112706329473635
3.54847364290443e-06
3.78686088082548e-06
0.00011916370233128
4.10110148903184e-06
0.000122672376303732
0.000404377045469768
4.2803456528556e-06
0.000126985399778196
0.000409470758364107
0.000760857997146524
4.18376117205189e-06
0.000129334662898339
0.000415129738489111
0.000764132579327492
0.00112843405832428
3.88611692022009e-06
0.000128113037149789
0.000417296719479568
0.000766293686265626
0.00112818212223756
0.00147939319608898
3.53830083053109e-06
3.7815503087171e-06
0.000118980607341875
4.10218378478587e-06
0.000122619979042807
0.000404142542295418
4.29015237334246e-06
0.00012707958374695
0.000409588194190316
0.000760874692962355
4.21910034557698e-06
0.000129620469447166
0.000415629632807888
0.000764736954017184
0.00112898374622115
3.93852009974153e-06
0.000128586551401003
0.000418192347792438
0.000767510467021419
0.00112956898820871
0.00148079217661757
3.57476386554818e-06
0.00012454791967045
0.000414630118372965
0.000765641328388164
0.00112666276349774
0.0014775543445046
0.00180481920125729
3.52200287687552e-06
3.7700675436366e-06
0.000118671425552134
4.09612032582826e-06
0.000122431472832543
0.000403565930980116
4.29154821306053e-06
0.000127026667131811
0.000409354048924536
0.000760311851472311
4.22902690552899e-06
0.00012972075797173
0.000415754913377673
0.000764757781448519
0.00112872374636039
3.97380461387481e-06
0.000128883149456989
0.0004187098599179
0.000768129127206833
0.00113012561094121
0.00148112464563889
3.62628331559554e-06
0.00012503029265329
0.000415544060934817
0.000766878028250763
0.00112806683657014
0.0014789686196938
0.00180609753170266
3.24684029022214e-06
0.000119502494319658
0.000406616576297658
0.000758439685848591
0.00111983682094314
0.00147080758715494
0.00180070059316011
0.00210024781562753
3.49970551566563e-06
3.75209255395428e-06
0.000118235312982927
4.08341528504799e-06
0.000122112970390124
0.000402650510652993
4.28517812580878e-06
0.000126832525161247
0.000408773361116309
0.000759166851761555
4.23106439600697e-06
0.000129670472463611
0.000415522844356272
0.000764195403551664
0.00112764071641003
3.98426262880756e-06
0.00012899132978628
0.000418846833511514
0.000768158265887905
0.00112986880664639
0.00148040955023689
3.66131100315523e-06
0.00012533730809227
0.000416080219740586
0.000767514314930692
0.00112863466791287
0.00147930742963616
0.00180606733085894
3.29740935235504e-06
0.000119995357080895
0.00040754732342851
0.000759693135751151
0.0011212531298386
0.0014722356662013
0.00180199583814466
0.00210128681300454
2.90416627424894e-06
0.000113702479586462
0.00039494173559627
0.000744577167736189
0.00110579445283532
0.00145717031718106
0.0017895649197423
0.00209469647899875
0.00236640846018286
3.47076044469183e-06
3.72741224749964e-06
0.000117671928591216
4.06376775380131e-06
0.000121665163278772
0.000401394160073661
4.27209708379293e-06
0.000126504127675465
0.000407849772255348
0.000757435572089608
4.22528631062844e-06
0.000129475730925978
0.000414938831530504
0.000763047736447518
0.00112572113411182
3.98717476006192e-06
0.000128948348975015
0.000418621979006701
0.000767599978624037
0.00112878700792425
0.00147862451071539
3.67227080541309e-06
0.000125455950869413
0.000416233351959437
0.000767557515266826
0.00112838618538913
0.00147859678612311
0.00180475331901981
3.33227421377767e-06
0.000120315098273924
0.000408104601949659
0.000760350154921332
0.00112183525186725
0.00147258451569129
0.00180197344870763
0.00210078284461911
2.95361141424104e-06
0.00011420916357166
0.000395892831697568
0.000745846456890601
0.00110721881698664
0.00145860376116809
0.00179087366157254
0.00209575490652146
0.00236712096039887
2.54257891281825e-06
0.000107230545764383
0.000380709530158503
0.000725196013483347
0.00108422210019101
0.00143531786107823
0.00176976613828178
0.00208031454751539
0.00235995349892474
0.00260537763631938
3.43529195866207e-06
3.69559093837165e-06
0.000116977377628998
4.03686644007958e-06
0.000121086440645752
0.000399791568330395
4.25187157449522e-06
0.000126042226069798
0.000406581594173566
0.00075510980408275
4.21304907558201e-06
0.000129144394185822
0.000414007103470509
0.000761310991560606
0.00112295028023407
3.98266065299725e-06
0.000128760731943631
0.00041804172149635
0.000766453125467407
0.0011268673637963
0.00147574486645853
3.67626664904621e-06
0.000125424965118556
0.000416023395800347
0.000767010829782698
0.00112731172374199
0.00147681626255549
0.00180212504434396
3.34382140832039e-06
0.000120446977908355
0.000408279423943384
0.000760414503619232
0.00112160214425526
0.00147188453295414
0.00180066637656135
0.00209876406466706
2.9884883881123e-06
0.000114545758704112
0.000396476713125721
0.000746528735820382
0.00110781838778868
0.00145896471862331
0.00179086265596194
0.00209526065288981
0.00236606239244207
2.59021433173283e-06
0.000107755279518516
0.00038168826053203
0.000726483852156513
0.00108565220649892
0.0014367499730104
0.00177107653034245
0.00208138806334967
0.00236068797793623
0.00260570825293065
2.16622334535364e-06
9.99689553140596e-05
0.000364169607400222
0.000701130406461968
0.0010556153559741
0.00140490772921184
0.00174026882171993
0.00205538457420996
0.00234313697808998
0.00259823027917171
0.00281944123879798
3.39329024082865e-06
3.65629821378396e-06
0.000116148609947288
4.00220103271299e-06
0.000120371334635893
0.00039783523229878
4.22408639962953e-06
0.000125444976186929
0.000404963218596421
0.000752177437031871
4.19388164881441e-06
0.000128677297875362
0.000412726324715395
0.000758977080737508
0.0011193101171682
3.97209834885763e-06
0.000128437125845776
0.000417111156521272
0.000764714558885725
0.00112409546184262
0.00147174386095758
3.67326891146639e-06
0.000125251481664173
0.00041545809189729
0.000765874437691952
0.00112539948004245
0.00147394174801836
0.00179814704886615
3.34892388919821e-06
0.000120431735563087
0.000408092701286467
0.000759889858650948
0.00112054506297987
0.00147011749060276
0.00179804678404149
0.00209519354345749
3.00068895656169e-06
0.000114693737754473
0.00039667943890532
0.000746622281128269
0.00110760889476555
0.00145828322941449
0.00178957037710681
0.00209325136793083
0.00236326456423019
2.62513524167648e-06
0.000108113920247646
0.00038230703639582
0.00072719797229428
0.00108627312388736
0.00143712489489012
0.00177107804749466
0.00208090770324905
0.0023596409096488
0.00260403747294595
2.2110932948219e-06
0.000100512856429631
0.000365186155014465
0.000702442225194461
0.00105705040238239
0.00140633361050289
0.00174157125640306
0.00205645873820551
0.0023438889376358
0.00259858519073173
0.00281937879321907
1.78472117989138e-06
9.18242351124105e-05
0.000345163816841084
0.000672556879665482
0.00102029258245752
0.00136597352215264
0.00170074854364136
0.0020188731713266
0.00231389186072216
0.0025793930526091
0.00281165339061518
0.0030107318803848
3.34444784597503e-06
3.60963881299963e-06
0.000115181295262336
3.9592748541014e-06
0.000119517773960758
0.000395514801156712
4.18828011720304e-06
0.000124708246084271
0.000402986436664462
0.000748622012748219
4.16730174738073e-06
0.000128072630238644
0.000411090585395936
0.000756033754207859
0.00111477784126721
3.9550912623316e-06
0.000127978742142333
0.000415829294303391
0.000762376468559923
0.00112045339459069
0.00146659081369459
3.66470029817338e-06
0.000124944858672627
0.000414543707290968
0.000764146186350123
0.00112263573216201
0.00146994702359185
0.00179278063307115
3.34795743865591e-06
0.000120277161257292
0.000407553728050981
0.000758777940875382
0.00111865338879968
0.00146726034437576
0.00179408007637801
0.00209002608599386
3.00706949160723e-06
0.000114696979216325
0.000396523436500898
0.000746130824164613
0.00110658159494519
0.00145654207910371
0.00178697179852704
0.00208969319583487
0.00235868638305349
2.63818696251363e-06
0.000108281354934435
0.00038254449715382
0.00072732907617832
0.00108609574446436
0.00143647020959871
0.00176980939619959
0.00207891775404065
0.0023568546928444
0.00260040820261207
2.24495875518875e-06
0.000100899353503019
0.000365849903395557
0.00070319638933227
0.00105769709377043
0.00140672450244894
0.00174158585838153
0.00205599334155913
0.00234285869834457
0.00259692766653119
0.00281704772690147
1.82538521825327e-06
9.23863035055143e-05
0.000346227802567177
0.000673899262071081
0.00102173212834804
0.00136738856185746
0.00170203546376448
0.00201993612434106
0.00231464537867778
0.00257976803751222
0.00281161751520238
0.00301035123827467
1.41097342345782e-06
8.27529522573629e-05
0.000323419036223049
0.000639216264409516
0.000978118397946234
0.00131835669141348
0.00165101279898747
0.00197047699010313
0.00227100477420617
0.00254634354001672
0.00279097817922695
0.00300231409751854
3.28892564901655e-06
3.55599753122743e-06
0.000114071885328735
3.90825379017622e-06
0.000118521496298928
0.000392818264260817
4.14377690930963e-06
0.000123826693333333
0.000400640804938327
0.000744423689298262
4.13285582832023e-06
0.000127325748998896
0.000409091513634738
0.000752464332385887
0.00110932565078008
3.93116767601554e-06
0.000127383545671005
0.000414190118192839
0.000759426405828488
0.001115918351045
0.00146025029965618
3.65025303362446e-06
0.000124506890500903
0.000413279823459278
0.000761818810441756
0.00111900287142289
0.00146480181552703
0.00178598203206961
3.34137266750966e-06
0.000119993252371945
0.00040667022386617
0.000757078024445947
0.00111591445281046
0.0014632875894078
0.00178872800056842
0.00208321089940956
3.00767320346781e-06
0.000114564604332129
0.000396019981600574
0.000745057904387155
0.00110472710166992
0.00145371933873175
0.00178303353941214
0.00208454199159337
0.00235227392972589
2.64555725313776e-06
0.000108305574577075
0.00038242557286157
0.000726880981593674
0.00108511070798347
0.00143476872316803
0.00176724696994812
0.00207538771128548
0.00235229175649458
0.00259478046113533
2.25816065035482e-06
0.000101089650616784
0.000366129663843086
0.000703373399382683
0.00105755978011796
0.00140610446728936
0.00174034953598844
0.00205403340896772
0.00234009623051039
0.00259331205716332
0.00281254577028017
1.85637391885726e-06
9.27989739886862e-05
0.000346944942419433
0.000674702173580453
0.00102240881458681
0.00136779700053086
0.00170206361489777
0.00201948604681484
0.00231363407287556
0.00257813072043752
0.00280930156341726
0.00300728663912218
1.44644484773715e-06
8.33268527028598e-05
0.00032453505381779
0.000640592848245171
0.000979560579399577
0.00131975504278749
0.00165227661086081
0.00197151939495632
0.00227174693640839
0.00254672223056344
0.00279096652534903
0.00300195443466607
0.00318060278828096
1.05902541160693e-06
7.27558470626334e-05
0.000298613504938631
0.000600582471342221
0.000928562266598008
0.00126154033645202
0.00159058772682557
0.00190995578084359
0.00221417913214264
0.00249760627814773
0.00275444331494239
0.0029799065082247
3.2257074060846e-06
0.00011281145706773
3.49507193256953e-06
3.84951472750624e-06
0.000117378346330067
0.000389728318377666
4.09060452015647e-06
0.000122797285742741
0.00039791362866439
0.000739558682696907
4.08970368386628e-06
0.000126431621777107
0.000406717926449406
0.000748248596061867
0.00110292047511945
3.89975369667899e-06
0.00012664674966308
0.000412184732993241
0.000755847769313359
0.0011104623752576
0.00145268069401166
3.62959093685242e-06
0.000123935470477939
0.000411660423524573
0.000758879728607803
0.00111447829712947
0.00145847056127487
0.00177770090473571
3.32956586081883e-06
0.000119582452852308
0.000405442665406505
0.000754783644567255
0.00111231112094301
0.00145816958504111
0.00178194705572561
0.00207469013553079
3.00331647198496e-06
0.000114306824490665
0.000395178474246923
0.00074340463542323
0.00110203404417878
0.00144979036371049
0.00177771822183224
0.0020777474804247
0.00234396400665951
2.64744574520038e-06
0.00010819750110611
0.000381964712402052
0.000725859614755028
0.00108330994842956
0.00143199943765435
0.00176335847262402
0.00207027499458089
0.00234589938145113
0.00258709240371005
2.26625914895658e-06
0.000101136357771819
0.000366053680731849
0.000702977502069962
0.00105662813368214
0.00140445573625813
0.00173783900651234
0.00205055023711033
0.00233556793844938
0.00258770223984815
0.00280584232355942
1.86864960663062e-06
9.30114956421225e-05
0.000347273399795814
0.00067493302643672
0.001022318460743
0.00136721832713589
0.00170086740890928
0.00201756656430238
0.00231090897611486
0.0025745436221291
0.00280481571180022
0.00300187073539315
1.47333003765036e-06
8.37542213181157e-05
0.00032530611689211
0.00064144992288856
0.00098026993231459
0.00132018124835718
0.00165231801288241
0.00197108492333576
0.00227075618284858
0.00254510927138282
0.00278867435194393
0.00299891171356309
0.00317671616947749
1.08919055218452e-06
7.33304219454073e-05
0.000299776785451423
0.000601988785824056
0.000930000600694122
0.00126291328028434
0.00159181906042735
0.00191096845070095
0.00221490014107091
0.00249797603457144
0.00275444000486197
0.00297956671994871
0.00317156602158105
0.00333154582618557
7.38612293026896e-07
6.18307221262687e-05
0.000270367152995889
0.000555883709742202
0.000870737351907025
0.00119464876406679
0.00151863617564762
0.00183668612145518
0.00214321787255119
0.00243287247216849
0.00270029734665305
0.00294013369812664
3.15143018825841e-06
0.000111384297768862
3.42621731349164e-06
0.000386225506938444
0.000116078698699412
3.78279609313994e-06
4.02915007430556e-06
0.000121615375405526
0.00039478875116957
0.000733996606778395
4.0377988898541e-06
0.000125385649285259
0.00040395664920768
0.00074336218398307
0.00109552355885553
3.86019377939189e-06
0.000125762783189683
0.000409802093296257
0.000751619512140899
0.00110405228995556
0.00144383233537639
3.60189084043149e-06
0.000123225357725164
0.000409676051101785
0.000755312481624376
0.00110903379458312
0.00145091141829067
0.00176787906664674
3.3120258378044e-06
0.00011904284421215
0.000403864995527978
0.000751882369623734
0.00110782125433506
0.00145187082404141
0.00177368707088958
0.00206439741735573
2.99406842911179e-06
0.000113926985989702
0.000394000449404676
0.000741165594758383
0.00109848613115245
0.00144472640227614
0.00177098285211202
0.0020692521295282
0.00233368393489587
2.64497654867164e-06
0.000107968702697464
0.000381173418069426
0.000724268308004055
0.00108068363498991
0.00142813882586066
0.00175810764043055
0.00206353020536966
0.00233761500713937
0.00257726737698715
2.26941005019535e-06
0.000101054573021286
0.000365641515506346
0.000702018142639082
0.00105489564234189
0.00140175815616913
0.00173402290649911
0.00204550272024918
0.00232922287800674
0.00258003770914719
0.00279686558624736
1.87672772276877e-06
9.30817642290201e-05
0.000347245626504084
0.000674596945036947
0.00102144957580981
0.00136563379686132
0.00169842337777071
0.00201414971784643
0.00230643884874926
0.00256897500814993
0.00279813324607282
0.00299407745665863
1.48355846374794e-06
8.39822922012845e-05
0.000325684090659418
0.000641739710035469
0.000980231549779857
0.00131964895551438
0.0016511683081898
0.00196921529711473
0.00226808236513835
0.00254156831097183
0.00278422246702938
0.00299351610230831
0.00317036822624341
1.11136797237131e-06
7.37589305405669e-05
0.000300593233476703
0.000602895386316385
0.000930740714340069
0.00126335481974929
0.00159187169435429
0.00191054911553598
0.00221393173416693
0.0024963917441819
0.00275217886683994
0.00297655555266613
0.00316772421072763
0.00332704727035525
7.63534770382077e-07
6.23957743660765e-05
0.000271545157225093
0.00055730304894795
0.000872156950596096
0.00119598263507303
0.00151982251818977
0.00183765820076077
0.00214390848513051
0.00243322443258758
0.00270029048298051
0.00293980139362792
0.00314751737870475
0.00332192716999409
0.00346518248869956
4.56903436577174e-07
4.98605213918838e-05
0.000238086979670386
0.000504023675914783
0.000803354136257661
0.00111642027407737
0.00143397704141837
0.00174962356619988
0.00205746131540425
0.00235202033693721
0.00262820669975966
0.00288098869090525
3.04528617767917e-06
0.000109770744220005
3.34793872585481e-06
0.000382280154989173
0.000114606761827692
3.7075175214448e-06
0.000727702971776772
0.000391244133261853
0.000120270503572149
3.95931498330625e-06
3.97786153248473e-06
0.00012418279148289
0.00040079129443573
0.00073777522351381
0.00108708918441297
3.81241554786076e-06
0.000124725733874304
0.000407027809705707
0.000746716752295229
0.00109664899004754
0.00143364918973793
3.56636251543454e-06
0.000122370668682028
0.000407315581969079
0.000751095327722283
0.00110263593515416
0.00144207526019419
0.00175644969815687
3.28785635503317e-06
0.00011836846185278
0.000401927447111409
0.000748357461104904
0.00110241650936864
0.00144434951337144
0.00176389000655192
0.0020522563872896
2.97966440179379e-06
0.000113423168652345
0.000392479855782344
0.000738328597330773
0.00109406156270313
0.00143849229356221
0.00176277765045644
0.00205898977896014
0.00232134926301627
2.63837255668495e-06
0.00010762300153918
0.000380054338240723
0.000722102822543425
0.00107721654927279
0.00142315897117421
0.00175145227068072
0.00205509646645933
0.00232736607902064
0.00256521556095817
2.26898877007025e-06
0.000100858263215303
0.000364907842691699
0.000700501464296645
0.00105235430871198
0.00139798945919592
0.00172886600738793
0.00203884258491556
0.00232099954010232
0.00257024250434602
0.00278552225635688
1.88080062642887e-06
9.30296256214979e-05
0.000346888678853742
0.000673708653542621
0.00101979773509978
0.00136302413698578
0.00169470098468046
0.00200919550753759
0.00230017445713807
0.00256136643534112
0.00278918384443761
0.00298381278061922
1.49038073573033e-06
8.40745475727855e-05
0.000325707694590379
0.00064146906107537
0.000979432671610258
0.00131813811389555
0.00164880358399766
0.00196588290515589
0.00226369535867257
0.00253607027550471
0.00277758857871733
0.00298574769847554
0.00316149098464289
1.11881681758322e-06
7.39904759797371e-05
0.000301012583942136
0.000603241596630013
0.000930755181391283
0.00126287134851921
0.00159077303589157
0.00190873725854489
0.00221132218584846
0.00249291575576568
0.00274778345095635
0.00297120168418423
0.00316140423416995
0.0033198451482102
7.80995386385094e-07
6.28108540739909e-05
0.000272382005320267
0.000558241050180596
0.000872916786506158
0.00119643241731301
0.00151988162610004
0.00183725191385356
0.00214296362281541
0.0024316737005274
0.00269806885192831
0.00293683117606217
0.00314373127808728
0.00331747460250275
0.0034600467959478
4.75856465563642e-07
5.04090809571169e-05
0.000239243900064876
0.000505421064578951
0.00080472939933559
0.00111769448668629
0.00143510159718072
0.00175054145209993
0.00205811100826926
0.00235234662892674
0.00262818888019785
0.00288065637074711
0.00310473593576296
0.00329635513873569
0.00345502585686091
0.00358307159905097
2.30487008205225e-07
3.65555479268031e-05
0.000200714243455566
0.000443373463195687
0.000724601675352931
0.00102513197352209
0.00133505641092658
0.00164738019573355
0.00195576426840943
0.00225441688424509
0.00253813098681227
0.00280211147245463
2.93050246877479e-06
0.0001079286178769
3.22621876785445e-06
0.000377861742380775
0.000112944194504981
3.62173496617388e-06
0.000720636184914023
0.00038725036673567
0.000118746144864904
3.88041908496606e-06
0.00107756516060899
0.000731451955963871
0.000397198453685378
0.000122812183626232
3.90930521057096e-06
3.75649649543683e-06
0.00012353232962147
0.000403844847272749
0.000741109495461843
0.00108820664255789
0.00142206769737051
3.5231644091501e-06
0.000121366003971898
0.000404563646989163
0.000746202742801556
0.00109524531636916
0.00143190577265254
0.00174333684498096
3.2564981917785e-06
0.00011755286544669
0.000399618178635821
0.000744187029319634
0.00109606313984495
0.00143555674392973
0.00175248917846018
0.00203818106540961
2.95915969905676e-06
0.000112788758437411
0.000390606556592247
0.000734876472897015
0.00108873232266762
0.00143104648909547
0.00175304491580834
0.00204688458213757
0.00230686473730722
2.62712055027841e-06
0.000107158445551272
0.000378601349572914
0.000719351165946464
0.00107288729529975
0.00141702560291577
0.00174334327293138
0.00204490821682607
0.00231506894436043
0.00255083368756784
2.26507952004283e-06
0.000100551123390162
0.000363856075817644
0.000698424415736444
0.00104899012148607
0.00139312269114071
0.00172232733563264
0.00203051399912189
0.00231082613031549
0.00255822728238752
0.00277170297947112
1.88226862049625e-06
9.28707900154488e-05
0.000346221297927487
0.000672278053108418
0.00101735718827371
0.00135936850974113
0.00168966607175481
0.00200265706458553
0.00229205570853216
0.00255164321920136
0.0027778750413522
0.00297096052568733
1.49396743002749e-06
8.40531866783252e-05
0.000325412328168691
0.000640659865653649
0.000977871829227226
0.00131563050282638
0.00164519412391879
0.00196104869595667
0.00225754751427778
0.00252855880935988
0.00276870457927673
0.00297551485020547
0.0031499528323733
1.12331961727306e-06
7.40935257984202e-05
0.000301082904889974
0.000603037326204734
0.00093003016989908
0.00126144123508337
0.00158849851625142
0.00190550550089415
0.00220704206397968
0.00248752048227646
0.00274123428397672
0.00296349071007358
0.00315255691019945
0.00330992026114119
7.85738552634588e-07
6.30288467572029e-05
0.000272823884678738
0.000558628654675356
0.000872977268094262
0.00119599602599271
0.00151883609309998
0.00183550400401293
0.00214042978972552
0.00242828091857015
0.00269375505926389
0.00293154684436364
0.00313746587479803
0.00331030502736247
0.00345201178371655
4.88630265889624e-07
5.08020770957505e-05
0.000240052317765741
0.00050635598417448
0.000805486281227015
0.00111813847286113
0.00143515860457453
0.00175014384642946
0.00205718954488463
0.0023508339336814
0.00262601623711282
0.00287773992679083
0.00310100916740856
0.00329196438423777
0.00344993925896002
0.00357728081024092
2.41981694245375e-07
3.70947513537649e-05
0.00020182467506421
0.000444697764794599
0.000725895737542038
0.00102631868486867
0.00133609754444536
0.00164822708737915
0.00195636040882526
0.00225470877678378
0.00253809639601443
0.00280177568491427
0.00304099616520447
0.00325081365529634
0.00342806160151065
0.00357242777838307
0.00368658033771695
8.14071045464424e-08
2.21454608436944e-05
0.000156549167140361
0.000371517326927039
0.000631972336962018
0.000918508004092812
0.00121989135791395
0.00152823648601015
0.00183663908735741
0.00213889502960069
0.00242949596179609
0.00270354259566568
0.000105900238449723
3.09582843321204e-06
0.00037294470606648
0.000111026435984729
3.48803227245868e-06
0.000712755301091469
0.00038277721786877
0.00011702494515872
3.78959828732096e-06
0.00106689362276287
0.000724350586530535
0.000393148310707655
0.000121257234678309
3.83135862982581e-06
0.00140901488773484
0.00107867267131912
0.000734761163554985
0.000400228893021141
0.000122168292227806
3.69205979204517e-06
3.47224572168528e-06
0.000120203504422392
0.000401402723739895
0.000740604193412776
0.00108681589214757
0.0014203387936516
0.00172845503482826
3.21807740912922e-06
0.000116590513314743
0.00039692168550209
0.000739344772283464
0.00108872153577954
0.00142543612481529
0.00173940872677205
0.00202207350954931
2.93199340574759e-06
0.00011201695526598
0.000388367779894604
0.000730787438643065
0.00108246434773249
0.00142234030779337
0.00174171829031251
0.0020328503892642
0.00229012217034586
2.61017797961101e-06
0.000106567535476393
0.000376803638900238
0.000715995718912961
0.00106766828212824
0.00140969749429808
0.00173372357621428
0.002032890221447
0.00230062846486362
0.00253400460031696
2.2567414733365e-06
0.00010012947346219
0.000362479689358876
0.000695774923982275
0.00104478198652298
0.0013871246846824
0.00171435873795993
0.0020204523986234
0.00229861991031182
0.00254388931681163
0.00275528286513108
1.88082141049932e-06
9.26071500147456e-05
0.000345246457361353
0.000670303000986398
0.00101411508476359
0.00135464097403355
0.00168327916530802
0.00199447991914374
0.00228201212419163
0.00253971705948885
0.00276409810943803
0.00295538836076141
1.49570043577833e-06
8.39347794742302e-05
0.000324820115280118
0.000639326508751706
0.000975546087656803
0.00131210687146628
0.00164030692119904
0.0019546674343101
0.00224958042382487
0.00251896101063091
0.00275747955818382
0.00296270255147955
0.00313561044014784
1.12542119092536e-06
7.40912968676046e-05
0.000300847702903665
0.000602312383203094
0.00092856812040101
0.00125904760929491
0.00158501924875402
0.00190081575971079
0.0022010453533118
0.00248015155396311
0.00273246560374755
0.0029533340211548
0.00314105581888109
0.00329713508737429
7.87932260626583e-07
6.31256560766531e-05
0.000272923175774433
0.000558481019738932
0.000872324144973715
0.00119465017055029
0.00151666049696244
0.00183238723374773
0.00213627823201352
0.0024230197172268
0.00268733133159264
0.00292393697926794
0.00312868685285051
0.00330041495318738
0.00344106499399123
4.91075684593683e-07
5.09943427160377e-05
0.000240470529423454
0.000506755035539703
0.000805575091075156
0.00111774129940242
0.00143416499251668
0.00174846410950266
0.00205474128640041
0.0023475410716202
0.00262180911009513
0.00287255724367136
0.00309483063492199
0.00328485909572399
0.00344194102049185
0.00356842180755441
2.4914284842372e-07
3.74680485700948e-05
0.000202569217099026
0.000445577145773334
0.000726615409269809
0.00102673526601409
0.00133613941569226
0.00164783118983061
0.00195546053590734
0.00225323753343229
0.00253598192828375
0.00279892808932384
0.00303734195561961
0.00324649310135289
0.0034230437995832
0.00356669000469859
0.00368013352686804
8.62970123462211e-08
2.26169082192746e-05
0.000157596657326877
0.000372726212171875
0.000633141738163785
0.000919574372191389
0.00122082368107479
0.00152899277863283
0.00183716694228265
0.00213914229339671
0.0024294384283883
0.00270320085861183
0.00295591792922487
0.00318289408648503
0.00338001600822973
0.00354420911752873
0.00367550234350422
0.00377691804686538
1.57298519261328e-08
8.45183285523276e-06
0.000103315438207547
0.000285421250097541
0.000522282140206237
0.000793689647041009
0.0010860559062474
0.00139013532223036
0.00169832451199339
0.00200395562579471
0.00230116435286028
0.00258478278522069
0.000367571232405608
0.000108923298321966
3.34466333422788e-06
0.000704031138569357
0.000377792526274366
0.000115036021592203
3.64977226591372e-06
0.00105501567693912
0.000716430247373671
0.000388611924246736
0.000119500073254768
3.7412958821652e-06
0.00139441167636593
0.0010679890848415
0.000727629818514626
0.000396150035066352
0.000120618216671224
3.61842933727898e-06
0.00171170941125863
0.00140730181052253
0.001077294848
0.00073426265064535
0.000397807064880303
0.000118872564724472
3.41303293223439e-06
3.17212306582015e-06
0.000115472819417677
0.000393818056276011
0.000733799454274793
0.00108034546768814
0.00141392335137021
0.00172456326886346
0.0020038248206303
2.89820601961662e-06
0.000111101423037105
0.00038574756603464
0.000726034292100921
0.00107521785634671
0.00141231751894217
0.00172872224119039
0.00201678980009277
0.00227100045309058
2.58721698311914e-06
0.00010584270628159
0.00037464736703367
0.000712014606074115
0.00106152528250925
0.00140112635615934
0.00172252743304717
0.00201895678262321
0.00228393690599898
0.00251459659289792
2.24321438526002e-06
9.9585063774643e-05
0.000360766640549316
0.000692534601397061
0.00103970273345229
0.00137995467372048
0.00170490407670143
0.00200858355487885
0.00228428650977769
0.0025271119545055
0.00273612079308085
1.87536968481331e-06
9.22322275028552e-05
0.000343955769017973
0.00066777064932553
0.00101005049175004
0.00134880950195118
0.00167549325560126
0.0019846009279475
0.00226996233184108
0.00252548631163289
0.00274772880397914
0.00293694697673351
1.49544083290828e-06
8.37182268397279e-05
0.000323932046001975
0.000637466945303053
0.000972443547984992
0.0013075424507428
0.00163410413093617
0.00194668627372859
0.00223972543817197
0.00250719030861361
0.00274380614067677
0.00294717930768867
0.0031183062557544
1.12624061914557e-06
7.4001863446873e-05
0.000300332152955397
0.000601085341040476
0.000926369331501579
0.00125567303323487
0.0015803036364202
0.0018946246030942
0.00219327559248563
0.00247073829044925
0.00272138872398931
0.00294061868934437
0.00312675956361365
0.00328132722075597
7.8826843641886e-07
6.31265044289625e-05
0.00027273162456953
0.00055783569383866
0.000870964256038334
0.00119237967786914
0.00151332686536104
0.00182786470076597
0.00213046469843151
0.00241583781501879
0.00267873434535734
0.00291391599754512
0.00311727412970631
0.00328767249694109
0.00342705855498488
4.91498408784057e-07
5.10703164668041e-05
0.00024056412191666
0.000506638667717515
0.000804982496607177
0.00111647830639791
0.00143209437787932