/*--------------------------------*- C++ -*----------------------------------*\
  =========                 |
  \\      /  F ield         | OpenFOAM: The Open Source CFD Toolbox
   \\    /   O peration     | Website:  https://openfoam.org
    \\  /    A nd           | Version:  12
     \\/     M anipulation  |
\*---------------------------------------------------------------------------*/
/*   Windows 32 and 64 bit porting by blueCAPE: http://www.bluecape.com.pt   *\
|  Based on Windows porting (2.0.x v4) by Symscape: http://www.symscape.com   |
\*---------------------------------------------------------------------------*/
FoamFile
{
    format      ascii;
    class       volScalarField;
    location    "600";
    object      omega;
}
// * * * * * * * * * * * * * * * * * * * * * * * * * * * * * * * * * * * * * //

dimensions      [0 0 -1 0 0 0 0];

internalField   nonuniform List<scalar> 
10140
(
2.46684012185195
2.46684012027653
2.38167819932494
0.555439668855556
2.46684013438042
2.38167826054187
0.555369403170267
2.28699445272215
0.541423621957124
0.281616046598194
2.46684014660432
2.38167830681746
0.555211060110612
2.28699458698845
0.541363654730763
0.281528352101193
2.21610803716599
0.524470375337705
0.27786161626607
0.196841023074919
2.46684016062775
2.38167829536488
0.554933775390813
2.28699467467533
0.541215814492794
0.281349567316952
2.21610824383735
0.524413068136928
0.277776195311341
0.19675507527637
2.18721770423383
0.510904419946868
0.272529458858918
0.195553557241892
0.159042241353596
2.46684022608401
2.38167823682361
0.554502382457152
2.28699463699289
0.540946572298589
0.281067385128632
2.21610839766264
0.524270013062931
0.277599702474587
0.196587758732477
2.18721800819257
0.510847138220539
0.272444217104073
0.195469001696379
0.158964429852844
2.18619174524809
0.503147792379929
0.267447086001979
0.193418530158142
0.158550223565422
0.138828864705352
2.46684040399754
2.381678197238
0.553914380134433
2.28699449577394
0.540524244129891
0.280668741122268
2.21610835816873
0.524006722866951
0.27732056258321
0.196334074535178
2.1872183459305
0.510706164091996
0.272269425340586
0.195302377941467
0.158814248506375
2.1861921725092
0.503089610397113
0.267360307984787
0.193334105594144
0.158473814556076
0.138759543653647
2.19192529557702
0.499123049801214
0.263520033285172
0.190991807505496
0.157562661035399
0.138630295216341
0.126855666553685
2.46684060853353
2.38167823429883
0.553163821430016
2.28699436047023
0.539949726853901
0.280148903887342
2.21610814985818
0.52359266290557
0.276925917433938
0.195988113677905
2.18721838472963
0.51044757795717
0.271993854922854
0.195049781128958
0.158588775200568
2.18619289849398
0.502949865825785
0.267186030723744
0.193168086654075
0.158324085808017
0.138624632923693
2.19192786218321
0.499063512321796
0.263430578425316
0.190906444932617
0.157486708945275
0.138562388392587
0.126794007598348
2.19484646753061
0.4956885732468
0.260429151820285
0.188667942729025
0.156245213531754
0.138111259146656
0.126760489017613
0.119315320951946
2.46684039437156
2.38167833213517
0.552248950411661
2.2869943267126
0.539216735448924
0.279503982088983
2.21610794614919
0.523030788021246
0.276411424478348
0.195546272189606
2.187218095095
0.51004094940203
0.271604560714214
0.194705414726941
0.158284725694278
2.18619313583986
0.502695907450229
0.266913520372792
0.192917118894972
0.158099098576942
0.138421910328741
2.19193113251976
0.498927488674138
0.263255706359514
0.190740587942573
0.157337373511323
0.138427873573197
0.126671563380387
2.19485124577986
0.495627634441153
0.260335692026124
0.188580955319876
0.156169018640048
0.138044016290953
0.126700220318102
0.119260368386176
2.19511969829569
0.49124364987683
0.257426615823543
0.186473289100894
0.15477038414603
0.137314966363465
0.126437223745945
0.119253192638764
0.114395164905509
2.46683762068715
2.38167814435724
0.551168867549776
2.28699443330622
0.538322561936081
0.278731333075479
2.21610788714548
0.522314688860556
0.275773216847358
0.195005898573016
2.18721779875631
0.509489402904247
0.271097366625987
0.194265696303441
0.15789982621226
2.18619267951884
0.502295801111153
0.266529521923835
0.1925753955102
0.157795723726697
0.138149160876193
2.19192961654408
0.498679315947029
0.262985524492919
0.190491297516916
0.1571131934617
0.138225410291544
0.126486441947856
2.19485497839257
0.495497969197094
0.260159242899495
0.188414677183176
0.156019950146065
0.137909871350283
0.126578145334675
0.119147916576331
2.19512467647932
0.491182249883875
0.257326677329166
0.18638399612966
0.154693657163018
0.13724790439759
0.126377721142465
0.119199605333483
0.114346132203983
2.19479800717415
0.485615359980245
0.254041464662809
0.184239650660608
0.153221086691702
0.136326286523745
0.125899684155944
0.119014694132824
0.114345583147656
0.11113673905988
2.46683890081514
2.38167730318641
0.549923238036147
2.28699428172024
0.537266026674532
0.277829083713063
2.21610800963992
0.521440384448328
0.275008526709602
0.194365055451422
2.18721773004287
0.508787003949312
0.2704684244523
0.193727952494134
0.157432421207984
2.18619217794586
0.501752781638036
0.266029634529085
0.192139261569144
0.157411702443274
0.137804969115629
2.19192874745157
0.498286375420575
0.262606220564351
0.190152646746367
0.15681111090569
0.137952951837236
0.126237006657063
2.19485549888589
0.495258600491615
0.259890828123165
0.188166795678845
0.155796801711835
0.137707881705589
0.126393206277125
0.118976327129633
2.19512654388323
0.491060276229677
0.257147137097201
0.186216580939616
0.154544743967434
0.137114154247839
0.126256026252604
0.119087517468319
0.114241647888226
2.19480337290798
0.485551508644738
0.253931361579382
0.184146916093359
0.153143693374526
0.136259356487208
0.125840593025038
0.11896192511814
0.114297892765877
0.111093292406098
2.19479312669761
0.479008354685418
0.250146301161228
0.181832243689343
0.151602159426885
0.135228920461987
0.125205419136488
0.11861785165008
0.114151880937426
0.111096240750242
0.108989751102583
2.46684121378116
2.38167791954801
0.548508945791409
2.28699339051997
0.536049242010548
0.276797561904202
2.21610792389026
0.52040936058236
0.274115584533743
0.193623066136774
2.18721784342113
0.507929406117165
0.269714851917571
0.19309022665464
0.156881643367285
2.18619213716208
0.501061140791192
0.265409918463974
0.191605987517138
0.156945366809442
0.137388586194244
2.19192596129878
0.497751974343647
0.262112922308416
0.189720771630802
0.156428828817358
0.137609117288685
0.125922509505994
2.19485195183521
0.494875034746335
0.259515940550373
0.187831222844696
0.1554965069738
0.13743609941863
0.126143918086557
0.1187444186629
2.19513074634149
0.490832490352229
0.25688021022588
0.185969724342512
0.15432275493305
0.136912917347708
0.1260714376027
0.118916085961602
0.114080370154968
2.1948053915215
0.485438793410681
0.253746238454671
0.183977358132065
0.152994805303303
0.13612614694107
0.125719375147628
0.118850232760021
0.114193767966023
0.11099498195076
2.19479899199238
0.478937298094024
0.250020443406628
0.181734346870998
0.151523884234532
0.135162291473714
0.125146818554286
0.118565616776165
0.114105032064604
0.111054112785763
0.108952829411733
2.19511855608449
0.471516004176157
0.245763492328037
0.179212143423277
0.14990688126006
0.134080774592881
0.124432055919208
0.118117533524822
0.113845354509378
0.11093487695954
0.10895873754642
0.107613606496433
2.46683863087691
2.38169226993365
0.546926359364453
2.28699370251188
0.534667020426513
0.27563434419036
2.21610716667906
0.519218016351227
0.273094583287949
0.192779101430041
2.18721785969832
0.506918343867556
0.26883505800665
0.192351808876355
0.156246847039379
2.18619225169542
0.500216652449934
0.264667446138482
0.190973565236309
0.156395818197367
0.136899510290292
2.19192803365224
0.497070527200409
0.261501427840691
0.189192799635263
0.15596462791235
0.137193133540722
0.125542581504505
2.19484672207836
0.494351455936896
0.259029013578501
0.18740376125797
0.155116655802887
0.137093137366492
0.125829557562217
0.118451806719678
2.19512458989159
0.490461444225249
0.256510134641526
0.185637180091717
0.154024599551654
0.13664226602616
0.125822566471299
0.118684273098121
0.113861530557018
2.19480305404842
0.485224772594276
0.253480356831828
0.18373113417159
0.152774035884272
0.135925985744321
0.125535420120637
0.118679108911055
0.114032639139201
0.110841173732431
2.19480760589549
0.478838138483572
0.249825957165512
0.181561256966379
0.151374808916599
0.135029834991817
0.125026334868073
0.118454440974628
0.114001305802986
0.110956154326365
0.108858536618108
2.19512461210797
0.471426923305752
0.24561544683969
0.179106768091126
0.149827377711114
0.134014674943678
0.12437426554636
0.118065969611749
0.113799096602335
0.110893593906255
0.108923101083883
0.107589283826361
2.19484813698115
0.463074433123165
0.240945250948979
0.176413606519341
0.148159048247029
0.132928033018902
0.123651338603904
0.117587715970018
0.113486758517514
0.110697045870711
0.108825751616663
0.107592404147944
2.46683596259598
2.38167786656821
0.545170122974488
2.287007540379
0.533119557199439
0.274338385304262
2.21610500687094
0.51786706291667
0.271943248743757
0.191832452553488
2.18721621066109
0.505749793859289
0.267828105990801
0.191511864124917
0.155527692474509
2.18619222472061
0.499220240469885
0.263800563045344
0.190241030712338
0.155762407451889
0.136337516276227
2.19192833220119
0.496237634294633
0.260768692316034
0.188566613055644
0.155417454379269
0.13670448543723
0.125097136049734
2.19485126335814
0.493682661351376
0.258425355981488
0.186881263681511
0.154655428241046
0.13667812820201
0.125449761983498
0.118098519548337
2.19511905654044
0.489952215782874
0.256030305958302
0.185214273170891
0.153647694807059
0.136300759337389
0.125508663130264
0.118391731685497
0.11358516563079
2.19479872196384
0.484869481828168
0.253115949424326
0.18340173810038
0.152478306128649
0.135656943130063
0.125287358408935
0.118447595180153
0.113813883750223
0.11063182721009
2.19480538680966
0.478640859941621
0.249560032007334
0.181315213972362
0.151155297314489
0.134831078787357
0.124843395413136
0.118283885694035
0.113840457269007
0.110802490915812
0.108709284238957
2.19513112172946
0.471344754138367
0.245407759820139
0.178928315730109
0.149677823993412
0.133883200054698
0.124254880468409
0.117955596198561
0.11369588541992
0.11079602054961
0.108829156109622
0.10749392209713
2.19485185442383
0.462949139853773
0.240768628079468
0.176298529796146
0.148077939458888
0.132862735512863
0.123594786130131
0.117537203917299
0.113441243985124
0.11065636677853
0.108790934452018
0.107569379526449
0.106790782894622
2.19192791436318
0.453440578766686
0.235753250969426
0.17352693714665
0.146430270683082
0.131833564607405
0.122931531503783
0.117102340942545
0.113149579821876
0.110451346346491
0.108645817944905
0.107485499804592
2.46684226923058
0.543244831293085
2.38166213273328
2.2869940498939
0.531403064050284
0.272910195024043
2.21611184979431
0.516353454250014
0.270660642606669
0.190783208957287
2.18721583701112
0.504422648846921
0.266693086924004
0.19056969449077
0.154724345733461
2.18619105028048
0.498068041468511
0.262807481181204
0.189407804895366
0.155044770675998
0.135702779740948
2.19192993062515
0.495253789335644
0.259912814430248
0.187840912447588
0.154786776274538
0.13614294485236
0.124586392073977
2.19485400328955
0.49286324798417
0.257701621083702
0.186261444931376
0.154111532143238
0.136190595863429
0.125004437944007
0.117684850450183
2.19512419033057
0.489300289690691
0.255435360753596
0.184697448816644
0.153190049274875
0.135887387978209
0.125129383178323
0.118038493920778
0.113251670229944
2.19479328938157
0.484379185474939
0.252644675440264
0.18298380767507
0.152104809758917
0.135317491694745
0.124974370776687
0.118155369684089
0.113537569544857
0.110367444089837
2.19480318386555
0.478305538418773
0.24920209655764
0.180989266280949
0.150862308134658
0.134564116260981
0.124596621037027
0.118052989915134
0.113621962013289
0.110593218452969
0.108506316790227
2.19512681827939
0.47117018920601
0.245140707988157
0.178681855810256
0.149459624103759
0.133686186727561
0.124073390106791
0.117785977016711
0.11353553706929
0.110642617605025
0.108680039385426
0.107345408850359
2.19485570431745
0.462874726222917
0.240546928553715
0.17611308051724
0.147927615688419
0.132732512469485
0.123476925317681
0.117428041045268
0.11333881946952
0.110559272147454
0.108697354775715
0.107474312077272
0.106677375698019
2.19193055418302
0.453283661042709
0.235542815008007
0.173400941349194
0.146347503404586
0.131769485419897
0.122876746726014
0.117053386335115
0.11310520116975
0.110411413272307
0.108611574545554
0.107463383508028
0.1067793002411
0.106348510170592
2.18619294169925
0.442275699368241
0.23027430085463
0.170715001124618
0.144856547650253
0.130902453133986
0.122359184917493
0.116739210683112
0.112907798473899
0.110272835610579
0.108494912929935
0.107356246586466
2.4668438288431
0.541159614725763
2.3816914763307
0.271351053052805
0.529521705474064
2.28696637178866
2.21610824321158
0.514673835250318
0.269246651307437
0.18963252379753
2.18722221389308
0.502935577731695
0.265428478915418
0.189525407470753
0.153837573030209
2.18619348918741
0.496758801899861
0.261688123650206
0.188473136968402
0.154243078639071
0.134996008727354
2.1919261487796
0.49411521076157
0.258931464890196
0.187015380282752
0.154072154812751
0.135508692361957
0.124010951509084
2.1948531043604
0.491893724216006
0.256855605329884
0.185542779565771
0.15348455430329
0.135630264163215
0.124493795573305
0.117211381699065
2.19512936670949
0.488498887832998
0.254721485902917
0.18408417776776
0.152650205196931
0.135401701557316
0.124684597331981
0.117624846425755
0.112861662678257
2.19479882191684
0.483748938596938
0.252060189604937
0.182473242644923
0.15165132279304
0.134906499758412
0.124596117228795
0.117802445892874
0.113204093413887
0.110048744747381
2.19479800618548
0.477838251462537
0.24874099972648
0.180577008517136
0.150492743539262
0.134227317345075
0.12428512427973
0.117761433862721
0.113345888700034
0.11032886752816
0.108250538384789
2.19512477951573
0.470860158019812
0.244789856971741
0.178359742279879
0.149169779685966
0.133421784463321
0.123828414215081
0.117556121520336
0.113317551614169
0.110433562262214
0.108477126797369
0.10714594430166
2.19485330122245
0.462722426229974
0.240279530809597
0.17586587445478
0.147710869344263
0.132537634699896
0.12329735259984
0.117259793800505
0.113179287767922
0.110406302133283
0.108548458926395
0.107325916537428
0.106525155206503
2.19192988002277
0.453213713417444
0.235308896477188
0.173208733047874
0.146196461566694
0.13164091865277
0.122760918540024
0.11694592160804
0.113003957393314
0.110315029529645
0.108518417488634
0.107368574163317
0.106667029185782
0.106240912256044
2.18619500588245
0.442100606238796
0.230036788777538
0.170578641682188
0.144772883362165
0.130840348402416
0.12230687327683
0.11669243421188
0.112865075097469
0.110234022866088
0.108461361297179
0.107334764100621
0.106696490078968
0.106345513436774
0.106181462215195
2.18721907869173
0.429670745222216
0.224750405584815
0.168275582914753
0.143676635183176
0.130310406560906
0.122064824861811
0.116599502470908
0.112844092043499
0.110235856345244
0.108450554024812
0.107286898608711
2.46684253706441
0.538920648027487
2.38168167136367
0.269666350343315
0.527484460865067
2.28700507263454
0.18838245441485
0.267703122122912
0.512832079012601
2.21609060902104
2.18721879214926
0.501285410578203
0.264033892852171
0.18838002856153
0.152868981435831
2.18619594672053
0.495291984808987
0.260440620783447
0.187437002643332
0.153358096707447
0.134218477083804
2.19192946378825
0.492819734389956
0.257825013970853
0.186089180493819
0.15327372144928
0.134802399286149
0.123371917917842
2.19484674775684
0.490769828546454
0.255885117796721
0.184724734364262
0.15277397624604
0.134997286861569
0.123918427093794
0.116679092991839
2.19512418391961
0.487548047040129
0.253886197059914
0.183372721116862
0.152027550857869
0.134843354019935
0.124174492898016
0.117151362851334
0.112416064561458
2.19480428773884
0.48297145395963
0.251358117215591
0.181867208979474
0.151116195147709
0.134423377184298
0.124152410181123
0.117389091413577
0.112814071327127
0.109676639839892
2.19480374182143
0.477233847227272
0.248168818583187
0.180073598098921
0.150044079620882
0.133819413414702
0.123908481161387
0.117409188569819
0.113012621284142
0.11001015996107
0.107942873953824
2.1951198105926
0.470420442086807
0.244339906366255
0.177953990579476
0.148804784077726
0.133088247828173
0.123519001046095
0.117265661531712
0.113041967412161
0.11016938471234
0.108221349984544
0.10689607891378
2.19485167696793
0.46244512810827
0.239936728212318
0.175548169848973
0.147424723632025
0.132276340436998
0.123054708526836
0.117031445863723
0.112962121454161
0.110197637870032
0.108345702686686
0.107126479283151
0.106327068228139
2.19192784839133
0.453083205579382
0.235045464441399
0.17296181975432
0.145981669044871
0.131448714503403
0.122583803787999
0.116779532296679
0.112845627141818
0.110162728085392
0.108369855361637
0.107220318310246
0.106515031972837
0.106090182277581
2.18619346582451
0.442057420869387
0.229799085941392
0.170382620873423
0.144622202584437
0.130714172699008
0.122193742781417
0.116587247587961
0.112765488599627
0.110138696646499
0.108368801030647
0.107240243980611
0.106584819964257
0.106239141409038
0.106078231267235
2.18721905677796
0.429501888371337
0.224494027037475
0.168132689470359
0.143594010303713
0.130251617743655
0.122015988040894
0.116555691717406
0.1128036556398
0.110198661388198
0.108418031679375
0.107266081119073
0.106612294270928
0.106283604413821
0.106186134576405
0.106210712207811
2.2161092742595
0.417514476965322
0.219952809044555
0.166816951499051
0.143320794882434
0.130353753644237
0.1222554510614
0.116832246339863
0.113069214319051
0.1104263113842
0.108587968708315
0.107357546202978
2.46683911286069
0.536564364684685
2.3816796034234
0.267863082026887
0.525286571495953
2.28699776642828
0.187036827048394
0.266035307765942
0.510836977690948
2.21610696348779
0.151821160036013
0.187135697743188
0.262511218497572
0.499475338907439
2.18721371618764
2.18619328609255
0.493660679095531
0.259064380812317
0.186300337748923
0.152391400814765
0.133372229090681
2.19193396671431
0.491365656687515
0.256591457923967
0.185062131319906
0.152392201382682
0.134025333235703
0.122671027728231
2.19485240952263
0.489489934228995
0.254789648556203
0.183806746477382
0.15197982713899
0.134292297520387
0.123279419115826
0.116089466323025
2.19511928563004
0.486443423387014
0.252927387955483
0.182562253613395
0.151321674152418
0.134212439014364
0.123599635911459
0.116619005404903
0.111916190402241
2.19479898289547
0.4820446363847
0.250535756145978
0.181163753326519
0.150498537470134
0.133867788413133
0.123643390760534
0.116915858224101
0.112368407320028
0.109252344400507
2.1948092905844
0.476485791431458
0.247480728045476
0.179475860088956
0.149514462030912
0.133339601097059
0.123466478801784
0.116996485699578
0.112622759415934
0.109638000201109
0.10758444967695
2.19512548417959
0.469847377736106
0.24378099801673
0.177458706201636
0.148361721212326
0.132684146638335
0.123144591231363
0.116914535373687
0.112709136528049
0.109850791734976
0.10791363474521
0.106596601872171
2.19484905933732
0.46204535146251
0.239498538625941
0.175149762651604
0.147065081013664
0.131946736110451
0.122747978547316
0.11674255030001
0.112687321877178
0.109933777693702
0.108090013433651
0.106876572830918
0.106081226929428
2.1919284360264
0.452840160012995
0.234715136559118
0.172649847787591
0.145700097407559
0.131191224718033
0.122344085562261
0.11655318801243
0.1126296328815
0.109954657844997
0.108167346346417
0.107020950860576
0.106316955021495
0.105894006770443
2.18619093755697
0.44196879917096
0.229548644581702
0.17013981959052
0.144410776462825
0.130525500387602
0.122019768179229
0.116423276426032
0.112608797042509
0.109987355646906
0.108220724384852
0.10709216901957
0.106432987762994
0.106088634991863
0.105929629235079
2.18721821276561
0.429509915815611
0.224275650676928
0.167939240522981
0.143446292449874
0.130129197787048
0.121906492850482
0.116453507542347
0.112706292371186
0.110104818385906
0.108326342759276
0.107171987162984
0.106500920403218
0.106177902018496
0.106084097690144
0.106109169062452
2.21610890975852
0.417381788025796
0.219681267011815
0.166673599277611
0.143242519378504
0.130300379800926
0.122211523222481
0.116792437013172
0.113031845741966
0.110391337019043
0.108556931718488
0.107337646148957
0.106614211344851
0.106238313875803
0.106142629807719
0.106222070212868
0.106373325220222
2.28699538146645
0.413661790101125
0.21833974437002
0.167731056470259
0.144624117941003
0.131553197095551
0.123270575504968
0.117668118052164
0.113745588475587
0.110961690670011
0.108995599018407
0.107644521755988
0.534114791238372
2.38167615227496
0.265951588539207
0.523007323102353
2.28699604307766
0.185600666831219
0.264249555010662
0.508677268354795
2.21611090142735
0.150697870688164
0.18579617394731
0.260865255084617
0.497511375991659
2.18721700268632
0.132460344490799
0.151345556991808
0.185065200866066
0.257561162945343
0.491872514195998
2.18618954965512
2.19192944467223
0.489752551367554
0.255229734952208
0.183934982006496
0.151429114815508
0.133179538726981
0.121910815575488
2.19485809397211
0.488051668155175
0.253567851632308
0.182788377391049
0.151102761870925
0.133516526660083
0.122578488089777
0.115444665907012
2.19512523435617
0.485183838499499
0.251843930517014
0.181652440682178
0.150532445215022
0.133509524870355
0.122961078435681
0.116029247446734
0.11136390924461
2.19479380894899
0.480964994208939
0.249591023009084
0.180361790272896
0.149798056076857
0.133239712428681
0.123069575581785
0.116383679694243
0.111868406770592
0.108777513907636
2.19480393953053
0.475590239960422
0.246673881332384
0.178781721885446
0.148902689719464
0.132787563864491
0.12295917466655
0.11652383613761
0.11217718233712
0.109213590605506
0.107176752595062
2.19513090795769
0.469135876043994
0.243108379292104
0.176870400198705
0.147838513902248
0.132208441294905
0.122704952534722
0.11650291182667
0.112319624188461
0.109478668761742
0.107555100224418
0.10624874065521
2.19485431366289
0.461519365663084
0.238953470618539
0.174663434091395
0.146628507618376
0.13154719628814
0.122376449344199
0.116393020135711
0.112355187854972
0.109615393241503
0.107782297778101
0.106576987439449
0.105787886379291
2.19192840437474
0.452488057940005
0.234293141293142
0.172259992483652
0.145346829961071
0.130866358025364
0.122040681629837
0.116266359108567
0.112355944590942
0.109691263242577
0.107911779873486
0.106771021709472
0.106071022286332
0.105651361345721
2.18619035161078
0.441771997500351
0.229241843545395
0.169837304781596
0.144135360031322
0.130272800157575
0.121783697349125
0.116199489022492
0.112394372557309
0.109780112287548
0.108018547071652
0.106892867797624
0.106234897902653
0.105892430119331
0.105735312326566
2.18721384409991
0.429484292667178
0.224063140718262
0.167708025335201
0.143241210158747
0.129945514275698
0.121736591605089
0.116292637968442
0.112551747133972
0.109954785394654
0.10817894585729
0.10702415939442
0.10634916078773
0.106027515430903
0.105935680097605
0.105961749220086
2.21610749982241
0.41746127311237
0.219504025087014
0.166494094753263
0.14310213943479
0.130183956515281
0.122107025148006
0.116694196419918
0.112937395585275
0.110299484861697
0.108466462894469
0.10724418917569
0.106503107618604
0.106132855027169
0.106041203930648
0.106121680654176
0.106271698171603
2.28699558541227
0.413431580463004
0.218049902129229
0.167588345091365
0.144554223481473
0.13150809672834
0.123233518127154
0.117633681149457
0.113712276572808
0.110929670788577
0.10896660249831
0.107625930566757
0.106784777754565
0.106301420948001
0.106131164497745
0.10619446496899
0.106390423099328
0.106620412617895
2.38167955402928
0.456074587490072
0.229390014038204
0.174637457158713
0.149374744435888
0.134890067667377
0.125694558397462
0.119478634441243
0.11512152728008
0.112014244978105
0.109795950416499
0.108238374593832
0.263930123015841
0.520649276760948
2.28699263701049
0.184079472306209
0.262359204858753
0.506440387852212
2.21611216634959
0.149504015200015
0.184366308271067
0.259101606603055
0.495383598072518
2.18722095953295
0.131487005195159
0.150224262659499
0.183735162800438
0.255934894485846
0.489929687235739
2.18619082549136
0.121094803962059
0.132268035364455
0.150386937842183
0.1827096839723
0.253741687167794
0.487979553439697
2.19192394282371
2.19485348474157
0.486453559608213
0.252218682016888
0.181670103225819
0.150144181842147
0.132671969208289
0.121818143875416
0.114747674738635
2.19513150130458
0.483766282451014
0.250634970413353
0.180642609314478
0.149660394120845
0.132735769999102
0.122260492127719
0.115384226118088
0.11076178451327
2.19479968561379
0.479731648388816
0.248522529695451
0.179461155865987
0.149014451313257
0.132539623826468
0.122431954070592
0.11579399522229
0.111315920249705
0.108254391036494
2.19479860741361
0.474543305831831
0.245746376711506
0.177989874558698
0.148208579916203
0.132163144015041
0.12238700613107
0.115992122765027
0.111677166995786
0.108738572110047
0.10672177562384
2.19512558481951
0.468279004854019
0.242319601304096
0.176187030013143
0.147233793013022
0.131660809866298
0.122200031050419
0.11603123625161
0.111874267164415
0.109054192907549
0.107147220129533
0.105854236104365
2.19485531460617
0.460859594730278
0.238297556554819
0.174085545931381
0.14611270699443
0.131076508571819
0.121939851663809
0.115982936038663
0.111966229164047
0.109243331987842
0.10742365271847
0.106228942887946
0.105448328256294
2.19193125464139
0.452020918454381
0.233766138687053
0.171783675564168
0.14491778935462
0.130472250515803
0.121672754334243
0.115918922581017
0.11202479039485
0.109373160128879
0.107604020167356
0.106471293903844
0.105777503637409
0.105362817710181
2.18619245123398
0.441476285668374
0.22884828766268
0.169459441763057
0.143790029949529
0.129953715152632
0.121484371328804
0.115915293492344
0.112122152002318
0.109517343758675
0.107763096758549
0.106642832821439
0.105988813907385
0.105649631532488
0.105495228017003
2.18721386158079
0.429366680059786
0.223800081187804
0.167423034377399
0.142974966938688
0.129699108097089
0.121505106350718
0.116072060395499
0.112339354455446
0.109748637112845
0.107977195290501
0.106824883094294
0.106150943434895
0.105831189770189
0.105741279092321
0.105768665672023
2.21610229245698
0.41752705958437
0.219355694467634
0.166287432999093
0.142908372473368
0.130007616869628
0.121942523601854
0.116537296424395
0.112785602057114
0.110151173817797
0.108319982510303
0.107096698816777
0.10635134992494
0.105982393378423
0.105892812024464
0.105974395332109
0.106124364183014
2.28700593835545
0.413466748382681
0.217929453170249
0.167435787552326
0.14442745449505
0.131400882915353
0.123135925350523
0.117540624235333
0.113621599619738
0.110840417885549
0.108877772685409
0.107533368898415
0.106674038695482
0.106196036403547
0.106029846237382
0.106094596667195
0.106289908975316
0.106517566929825
2.38168145625283
0.454930260592766
0.229011664090748
0.17448444344234
0.149313814076525
0.134856356334267
0.125666861457626
0.119451340711954
0.115093533252228
0.111986088464083
0.109769663185946
0.108221589086504
0.10720152035676
0.106557373621959
0.106247117495091
0.106212114608664
0.106376382381731
0.106642382924308
0.106913903731848
3.68516517047986
0.791171917046181
0.302353974697067
0.1991135420388
0.161901004902643
0.142396277921258
0.130606337314447
0.122893635999688
0.117592247149053
0.113845450438692
0.111168635860326
0.109265483252462
0.182475760980038
0.260359906936943
0.504131157125291
2.21610428102563
0.148245443197227
0.18285143644969
0.257234571052835
0.493174824680805
2.18722160490384
0.130457663053032
0.149032300936755
0.182314875754987
0.254190810152743
0.487821845346207
2.18619347792412
0.120227697990649
0.131294944753305
0.149269226735229
0.181389363400733
0.252130377983495
0.486052504372006
2.19192630107263
0.11400249638152
0.121001872483587
0.131761547204965
0.1491064143199
0.180453730549019
0.250743151308659
0.48469838430576
2.19484951396594
2.19512709796093
0.482189482408412
0.249299106205866
0.179533032359744
0.148706742408665
0.131893062543099
0.121500324776032
0.114686898950915
0.110113256598122
2.19480800854518
0.47834151029722
0.247329659092509
0.178460941540323
0.148148067032642
0.131768569009019
0.121732118547784
0.115148891855829
0.110713492411239
0.107685971881231
2.19480421378859
0.473343503988499
0.244696662550111
0.177100285680722
0.147431662552252
0.131466697787005
0.121750872563892
0.115402721290972
0.111124525887998
0.10821517219405
0.106222169352538
2.19512025608535
0.467273563892804
0.241412734379274
0.175407314524963
0.146547271379896
0.131040967157202
0.121630163875485
0.115500315137756
0.111374288836191
0.108578973383849
0.106691971930394
0.105415442842737
2.19485207565669
0.460052660555944
0.237528923144799
0.173414378971756
0.145516251893782
0.13053419909915
0.121438011837269
0.115512657542567
0.111521216854637
0.108818724753904
0.107015523785795
0.105834165256213
0.105064580419698
2.19193118340958
0.451427176143249
0.233130343046063
0.17121736084698
0.144410499431276
0.130007522953023
0.121239896444526
0.115510858645426
0.111636604564657
0.109001135572083
0.107245120119724
0.106122960302231
0.105437674339745
0.105029983857724
2.18619365611158
0.441076031774495
0.228351689979877
0.168996206428138
0.143369998337795
0.129566093898256
0.12112081802395
0.115570468959827
0.111792281027232
0.109199593852964
0.107455172868901
0.106342772143429
0.105694986329785
0.10536082929596
0.105210527630129
2.18721698531951
0.429162388158997
0.223453506340487
0.167065354456771
0.142640448790112
0.129387279183717
0.121210783276754
0.115791122975984
0.112068985402393
0.109486676896104
0.10772184329376
0.1065745730419
0.105904495433002
0.10558809085129
0.105500970162583
0.105530466704621
2.21610342175294
0.41751533475126
0.219164494903773
0.166032574121799
0.142656481383171
0.129769848554852
0.12171690402962
0.116320726823283