/*--------------------------------*- C++ -*----------------------------------*\
  =========                 |
  \\      /  F ield         | OpenFOAM: The Open Source CFD Toolbox
   \\    /   O peration     | Website:  https://openfoam.org
    \\  /    A nd           | Version:  12
     \\/     M anipulation  |
\*---------------------------------------------------------------------------*/
/*   Windows 32 and 64 bit porting by blueCAPE: http://www.bluecape.com.pt   *\
|  Based on Windows porting (2.0.x v4) by Symscape: http://www.symscape.com   |
\*---------------------------------------------------------------------------*/
FoamFile
{
    format      ascii;
    class       volScalarField;
    location    "600";
    object      p;
}
// * * * * * * * * * * * * * * * * * * * * * * * * * * * * * * * * * * * * * //

dimensions      [0 2 -2 0 0 0 0];

internalField   nonuniform List<scalar> 
10140
(
83333.3294797748
83333.3294771414
83333.3294798132
83333.3294796318
83333.3294744055
83333.3294771738
83333.3294769924
83333.3294798803
83333.3294796734
83333.3294794274
83333.3294715764
83333.3294744314
83333.3294742659
83333.3294772389
83333.3294770303
83333.3294767759
83333.329479986
83333.3294797394
83333.329479487
83333.3294795063
83333.3294685692
83333.329471608
83333.3294714013
83333.3294744956
83333.3294742976
83333.3294740054
83333.3294773487
83333.3294770968
83333.3294768369
83333.3294768568
83333.3294801402
83333.3294798443
83333.3294795698
83333.3294795726
83333.3294801068
83333.3294653982
83333.3294686064
83333.3294683657
83333.329471677
83333.3294714354
83333.3294710871
83333.3294746088
83333.3294743669
83333.32947406
83333.3294740565
83333.3294775118
83333.3294772067
83333.3294769247
83333.3294769309
83333.3294774757
83333.3294803472
83333.3294800002
83333.3294796921
83333.3294796707
83333.3294801683
83333.3294812426
83333.3294620524
83333.3294654386
83333.329465171
83333.3294686801
83333.3294684019
83333.3294680043
83333.3294717981
83333.3294715079
83333.3294711439
83333.3294710942
83333.3294747813
83333.329474483
83333.3294741499
83333.3294741273
83333.3294746667
83333.3294777321
83333.3294773722
83333.3294770568
83333.3294770401
83333.3294775492
83333.32947865
83333.329480608
83333.329480214
83333.3294798683
83333.3294798161
83333.3294802843
83333.3294812998
83333.3294829072
83333.3294585139
83333.3294620953
83333.3294618018
83333.3294655185
83333.3294652094
83333.3294647619
83333.3294688098
83333.329468477
83333.3294680628
83333.3294679718
83333.3294719834
83333.3294716311
83333.3294712363
83333.3294711644
83333.3294716907
83333.3294750171
83333.3294746589
83333.3294742902
83333.3294742408
83333.3294747409
83333.3294758647
83333.3294780108
83333.3294776007
83333.3294772468
83333.3294772001
83333.3294776782
83333.3294787179
83333.329480375
83333.3294809219
83333.3294804857
83333.3294801059
83333.3294800182
83333.3294804508
83333.3294814265
83333.3294829618
83333.3294850653
83333.329454761
83333.3294585598
83333.3294582373
83333.3294621832
83333.3294618418
83333.3294613404
83333.3294656581
83333.329465289
83333.3294648229
83333.3294646852
83333.3294690094
83333.3294686071
83333.3294681578
83333.3294680425
83333.3294685554
83333.3294722373
83333.3294718202
83333.3294713839
83333.3294712802
83333.3294717633
83333.3294729073
83333.329475317
83333.3294749037
83333.3294744939
83333.3294744115
83333.3294748756
83333.3294759336
83333.3294776436
83333.3294783463
83333.3294778915
83333.3294775014
83333.3294774202
83333.3294778607
83333.3294788586
83333.3294804395
83333.3294826188
83333.329481286
83333.3294808131
83333.3294804052
83333.3294802834
83333.3294806781
83333.3294816072
83333.3294830887
83333.3294851226
83333.3294876796
83333.3294507694
83333.3294548111
83333.329454456
83333.3294586561
83333.3294582804
83333.3294577214
83333.3294623354
83333.3294619284
83333.3294614055
83333.3294612154
83333.3294658736
83333.3294654286
83333.3294649226
83333.3294647581
83333.3294652491
83333.3294692836
83333.3294688098
83333.329468313
83333.3294681611
83333.3294686274
83333.3294697875
83333.3294725602
83333.3294720838
83333.3294716019
83333.3294714593
83333.3294719007
83333.3294729738
83333.3294747368
83333.3294756786
83333.3294752161
83333.329474768
83333.3294746486
83333.3294750707
83333.3294760813
83333.3294777092
83333.3294799712
83333.3294787357
83333.3294782421
83333.329477822
83333.3294777071
83333.3294781076
83333.3294790559
83333.3294805798
83333.3294826842
83333.3294853442
83333.3294816973
83333.3294811938
83333.3294807642
83333.3294806142
83333.3294809739
83333.3294818548
83333.3294832757
83333.3294852432
83333.3294877365
83333.3294907049
83333.3294465129
83333.3294508242
83333.3294504356
83333.3294549166
83333.3294545037
83333.3294538815
83333.3294588227
83333.3294583754
83333.3294577911
83333.3294575421
83333.32946257
83333.32946208
83333.3294615122
83333.3294612919
83333.3294617535
83333.3294661704
83333.3294656474
83333.3294650877
83333.3294648818
83333.3294653231
83333.3294664908
83333.3294696322
83333.3294690938
83333.3294685462
83333.3294683492
83333.3294687681
83333.3294698525
83333.3294716646
83333.3294729494
83333.3294724202
83333.3294718969
83333.3294717126
83333.3294721056
83333.3294731249
83333.3294747999
83333.3294771473
83333.3294760982
83333.3294755928
83333.3294751127
83333.3294749583
83333.3294753367
83333.3294762921
83333.3294778567
83333.3294800376
83333.3294828097
83333.329479175
83333.3294786492
83333.3294782068
83333.3294780635
83333.3294784269
83333.3294793241
83333.3294807837
83333.3294828177
83333.3294854083
83333.3294885076
83333.3294821515
83333.3294816243
83333.3294811805
83333.3294810111
83333.3294813418
83333.3294821789
83333.3294835381
83333.3294854322
83333.3294878521
83333.3294907596
83333.3294940928
83333.3294419611
83333.3294465727
83333.3294461477
83333.3294509407
83333.3294504871
83333.3294497971
83333.3294551002
83333.3294546084
83333.3294539567
83333.3294536412
83333.3294590802
83333.3294585413
83333.3294579067
83333.3294576232
83333.329458047
83333.3294628931
83333.3294623177
83333.3294616896
83333.3294614228
83333.3294618314
83333.3294629992
83333.3294665477
83333.3294659545
83333.3294653385
83333.3294650809
83333.3294654691
83333.3294665572
83333.3294684111
83333.3294700518
83333.329469457
83333.3294688639
83333.3294686195
83333.3294689831
83333.3294700076
83333.3294717262
83333.3294741569
83333.3294734005
83333.3294728253
83333.3294722682
83333.3294720455
83333.3294723894
83333.3294733464
83333.3294749514
83333.3294772119
83333.3294801012
83333.3294765707
83333.3294760296
83333.3294755257
83333.3294753428
83333.3294756808
83333.3294765806
83333.3294780746
83333.3294801783
83333.3294828753
83333.3294861161
83333.3294796593
83333.3294791091
83333.3294786526
83333.3294784901
83333.3294788221
83333.3294796732
83333.3294810675
83333.3294830236
83333.3294855361
83333.3294885689
83333.3294920629
83333.3294826424
83333.3294820997
83333.3294816516
83333.3294814732
83333.3294817831
83333.3294825832
83333.3294838857
83333.3294857047
83333.3294880406
83333.3294908709
83333.3294941443
83333.3294977922
83333.3294370829
83333.3294420277
83333.3294415617
83333.3294467024
83333.3294462047
83333.3294454393
83333.3294511439
83333.329450603
83333.3294498782
83333.3294494869
83333.3294553834
83333.3294547912
83333.329454083
83333.3294537276
83333.3294541036
83333.3294594336
83333.3294588016
83333.3294580991
83333.3294577629
83333.3294581299
83333.3294592895
83333.3294633034
83333.3294626514
83333.3294619609
83333.3294616355
83333.3294619843
83333.3294630685
83333.3294649578
83333.3294670018
83333.3294663475
83333.3294656818
83333.329465371
83333.3294656965
83333.3294667184
83333.329468474
83333.3294709836
83333.3294705376
83333.3294698942
83333.3294692643
83333.3294689775
83333.3294692858
83333.3294702404
83333.3294718822
83333.3294742206
83333.3294772278
83333.3294739081
83333.3294732948
83333.3294727124
83333.3294724595
83333.3294727591
83333.3294736543
83333.3294751806
83333.3294773566
83333.3294801652
83333.329483554
83333.3294770907
83333.3294765226
83333.3294760031
83333.3294758018
83333.3294761062
83333.3294769562
83333.3294783795
83333.3294803983
83333.32948301
83333.329486179
83333.3294898442
83333.3294801818
83333.3294796167
83333.3294791561
83333.3294789858
83333.3294792948
83333.3294801065
83333.3294814412
83333.3294833178
83333.3294857414
83333.3294886922
83333.329492122
83333.3294959607
83333.3294831618
83333.329482615
83333.3294821738
83333.3294819996
83333.3294822982
83333.3294830687
83333.3294843212
83333.3294860693
83333.3294883179
83333.3294910565
83333.3294942499
83333.3294978383
83333.3294318438
83333.3294371572
83333.3294366457
83333.3294421731
83333.3294416248
83333.3294407757
83333.3294469275
83333.3294463324
83333.3294455264
83333.3294450487
83333.3294514561
83333.3294508046
83333.3294500151
83333.3294495779
83333.3294498944
83333.3294557707
83333.3294550773
83333.3294542933
83333.3294538776
83333.3294541925
83333.3294553332
83333.3294598811
83333.329459166
83333.3294583946
83333.329457992
83333.3294582912
83333.3294593627
83333.3294612799
83333.329463796
83333.3294630778
83333.3294623334
83333.3294619485
83333.3294622267
83333.3294632375
83333.3294650236
83333.3294676076
83333.3294675263
83333.3294668198
83333.3294661147
83333.3294657576
83333.3294660211
83333.3294669649
83333.3294686368
83333.3294710488
83333.3294741727
83333.3294710834
83333.3294704003
83333.3294697428
83333.3294694232
83333.3294696832
83333.3294705689
83333.3294721234
83333.32947437
83333.3294772912
83333.3294808323
83333.3294744661
83333.3294738245
83333.3294732247
83333.3294729532
83333.3294732168
83333.3294740576
83333.3294755058
83333.3294775881
83333.3294803039
83333.3294836165
83333.3294874597
83333.3294776509
83333.3294770661
83333.3294765414
83333.3294763335
83333.329476614
83333.329477422
83333.3294787811
83333.3294807141
83333.3294832291
83333.3294863086
83333.3294899045
83333.3294939465
83333.3294807337
83333.3294801661
83333.3294797129
83333.3294795491
83333.3294798454
83333.3294806257
83333.3294819074
83333.3294837091
83333.3294860404
83333.3294888944
83333.32949224
83333.3294960158
83333.3295001516
83333.3294837028
83333.3294831662
83333.3294827441
83333.3294825888
83333.3294828874
83333.3294836363
83333.329484845
83333.3294865273
83333.3294886912
83333.3294913326
83333.3294944286
83333.3294979348
83333.3294262073
83333.3294313669
83333.3294319264
83333.3294373204
83333.3294367142
83333.3294357728
83333.3294424232
83333.3294417657
83333.3294408685
83333.3294402906
83333.3294472727
83333.3294465549
83333.3294456754
83333.3294451434
83333.3294453856
83333.329451882
83333.3294511201
83333.3294502456
83333.3294497393
83333.3294499894
83333.329451097
83333.3294562596
83333.3294554767
83333.3294546171
83333.3294541258
83333.3294543635
83333.3294554113
83333.329457346
83333.3294604167
83333.3294596303
83333.3294588005
83333.3294583319
83333.3294585512
83333.3294595409
83333.3294613498
83333.3294640025
83333.3294643636
83333.3294635896
83333.3294628029
83333.3294623678
83333.3294625765
83333.3294635004
83333.3294651951
83333.3294676762
83333.3294709161
83333.3294681144
83333.3294673666
83333.3294666316
83333.3294662393
83333.3294664498
83333.329467317
83333.3294688926
83333.3294712055
83333.3294742384
83333.3294779345
83333.3294716823
83333.3294709706
83333.3294702943
83333.3294699544
83333.3294701762
83333.3294710021
83333.3294724702
83333.3294746137
83333.3294774347
83333.3294808951
83333.3294849243
83333.3294750665
83333.3294744077
83333.3294738014
83333.3294735238
83333.3294737629
83333.3294745585
83333.3294759365
83333.3294779246
83333.3294805344
83333.3294837493
83333.3294875193
83333.3294917691
83333.3294782415
83333.3294776535
83333.3294771369
83333.3294769362
83333.3294772042
83333.329477979
83333.3294792815
83333.329481134
83333.3294835496
83333.3294865241
83333.3294900285
83333.3294940036
83333.3294983718
83333.3294813041
83333.3294807511
83333.3294803195
83333.3294801779
83333.3294804738
83333.3294812312
83333.3294824666
83333.3294841988
83333.3294864404
83333.3294891917
83333.3294924351
83333.3294961252
83333.3295001995
83333.3295046064
83333.329484254
83333.3294837488
83333.3294833597
83333.3294832403
83333.3294835507
83333.3294842863
83333.3294854571
83333.3294870781
83333.3294891604
83333.3294917048
83333.3294946959
83333.3294981012
83333.3294201553
83333.3294256963
83333.3294262947
83333.329430397
83333.3294314416
83333.3294321097
83333.3294375996
83333.3294368705
83333.3294358701
83333.3294351751
83333.3294428063
83333.3294420122
83333.3294410305
83333.3294403893
83333.3294405372
83333.3294477427
83333.3294469035
83333.3294459278
83333.3294453175
83333.3294454865
83333.3294465425
83333.3294524177
83333.3294515592
83333.3294506014
83333.329450009
83333.3294501713
83333.3294511812
83333.3294531191
83333.3294568425
83333.3294559838
83333.3294550612
83333.3294544967
83333.329454644
83333.3294556002
83333.3294574215
83333.329460136
83333.3294610316
83333.3294601861
83333.3294593113
83333.329458788
83333.3294589303
83333.3294598231
83333.3294615315
83333.3294640759
83333.3294674305
83333.3294649976
83333.3294641809
83333.3294633627
83333.3294628899
83333.3294630407
83333.3294638798
83333.3294654684
83333.3294678421
83333.3294709856
83333.3294748405
83333.3294687585
83333.3294679815
83333.3294672269
83333.3294668129
83333.3294669825
83333.3294677841
83333.3294692644
83333.3294714643
83333.329474389
83333.3294779997
83333.3294822225
83333.3294723255
83333.3294715976
83333.3294709151
83333.3294705681
83333.3294707644
83333.3294715416
83333.3294729326
83333.3294749724
83333.3294776774
83333.3294810319
83333.3294849837
83333.3294894526
83333.3294756989
83333.3294750367
83333.3294744401
83333.3294741692
83333.3294743966
83333.3294751573
83333.3294764742
83333.3294783744
83333.3294808754
83333.3294839755
83333.3294876458
83333.3294918256
83333.3294964335
83333.3294788499
83333.3294782778
83333.3294777862
83333.3294776083
83333.3294778763
83333.3294786277
83333.3294798809
83333.3294816589
83333.3294839782
83333.3294868423
83333.3294902364
83333.3294941196
83333.329498423
83333.3295030761
83333.3294818802
83333.3294813651
83333.3294809724
83333.3294808711
83333.3294811797
83333.3294819233
83333.3294831188
83333.3294847861
83333.3294869413
83333.32948959
83333.3294927229
83333.3294963072
83333.329500296
83333.3295046461
83333.3295093006
83333.3294847864
83333.3294843571
83333.3294840161
83333.3294839528
83333.3294842881
83333.3294850183
83333.3294861566
83333.3294877203
83333.3294897235
83333.3294921721
83333.3294950567
83333.3294983522
83333.3294139
83333.3294196136
83333.3294202428
83333.3294246254
83333.3294257732
83333.3294264978
83333.3294296673
83333.3294304999
83333.3294316158
83333.3294324218
83333.329438027
83333.3294371455
83333.3294360465
83333.3294352775
83333.329435306
83333.3294433267
83333.3294423986
83333.3294413079
83333.3294405769
83333.3294406447
83333.3294416257
83333.3294483315
83333.3294473875
83333.3294463196
83333.3294456109
83333.3294456805
83333.3294466346
83333.3294485581
83333.3294530539
83333.3294521147
83333.3294510889
83333.3294504146
83333.329450475
83333.3294513822
83333.3294532025
83333.3294559687
83333.3294575096
83333.329456589
83333.3294556185
83333.3294549947
83333.3294550566
83333.3294559046
83333.3294576153
83333.3294602152
83333.3294636812
83333.3294617158
83333.3294608265
83333.329459919
83333.3294593559
83333.329459435
83333.3294602341
83333.3294618255
83333.3294642532
83333.3294675053
83333.3294715226
83333.3294656902
83333.3294648443
83333.329464007
83333.3294635112
83333.3294636182
83333.3294643854
83333.3294658691
83333.3294681191
83333.3294711455
83333.3294749093
83333.329479334
83333.3294694493
83333.3294686556
83333.3294678966
83333.329467475
83333.3294676178
83333.3294683667
83333.3294697626
83333.3294718487
83333.3294746467
83333.3294781432
83333.3294822838
83333.329486984
83333.3294730018
83333.329472272
83333.3294716016
83333.3294712618
83333.3294714465
83333.3294721866
83333.3294735113
83333.329475455
83333.3294780405
83333.3294812694
83333.3294851132
83333.3294895083
83333.3294943679
83333.3294763492
83333.3294757042
83333.3294751353
83333.3294748884
83333.3294751173
83333.3294758538
83333.3294771181
83333.3294789378
83333.329481334
83333.3294843134
83333.3294878633
83333.3294919438
83333.3294964851
83333.3295014046
83333.3294794608
83333.3294789303
83333.3294784835
83333.3294783481
83333.3294786302
83333.3294793677
83333.3294805789
83333.3294822877
83333.3294845144
83333.3294872683
83333.3294905439
83333.3294943141
83333.3294985268
83333.3295031195
83333.329508027
83333.3294824355
83333.3294820013
83333.3294816649
83333.3294816262
83333.3294819626
83333.3294827012
83333.3294838629
83333.3294854697
83333.3294875411
83333.3294900882
83333.3294931082
83333.3294965767
83333.329500459
83333.3295047275
83333.3295093326
83333.3295141961
83333.3294852598
83333.3294849679
83333.3294847039
83333.32948472
83333.3294850963
83333.3294858295
83333.3294869408
83333.3294884511
83333.3294903778
83333.3294927316
83333.329495509
83333.3294986915
83333.3294073237
83333.3294132238
83333.3294140118
83333.3294184225
83333.3294196893
83333.3294204664
83333.3294237403
83333.3294247303
83333.3294259666
83333.3294268465
83333.3294296525
83333.3294297737
83333.3294306936
83333.3294319245
83333.329432901
83333.3294386064
83333.3294375764
83333.3294363526
83333.3294354798
83333.3294354214
83333.3294362983
83333.3294439763
83333.3294429341
83333.3294417414
83333.3294408974
83333.3294408522
83333.3294417278
83333.3294436135
83333.3294490281
83333.3294479978
83333.3294468559
83333.3294460557
83333.3294460108
83333.3294468493
83333.3294486509
83333.3294514539
83333.3294537792
83333.3294527753
83333.3294516988
83333.3294509603
83333.329450926
83333.3294517126
83333.3294534102
83333.3294560549
83333.3294596268
83333.3294582498
83333.3294572836
83333.3294562797
83333.3294556141
83333.3294556075
83333.3294563523
83333.3294579335
83333.3294604059
83333.3294637627
83333.3294679446
83333.3294624603
83333.3294615427
83333.329460617
83333.3294600302
83333.3294600629
83333.3294607837
83333.32946226
83333.3294645519
83333.3294676764
83333.3294715959
83333.329476231
83333.3294664318
83333.3294655695
83333.3294647299
83333.3294642271
83333.3294643062
83333.3294650167
83333.3294664083
83333.3294685335
83333.3294714215
83333.3294750616
83333.3294793985
83333.329484343
83333.329470174
83333.3294693791
83333.3294686348
83333.3294682221
83333.3294683536
83333.3294690632
83333.3294703872
83333.3294723682
83333.3294750356
83333.3294783951
83333.329482419
83333.3294870409
83333.3294921683
83333.3294736958
83333.3294729857
83333.3294723469
83333.3294720335
83333.329472221
83333.3294729362
83333.3294742044
83333.3294760607
83333.3294785318
83333.3294816286
83333.3294853408
83333.3294896284
83333.3294944186
83333.3294996209
83333.3294769986
83333.3294763994
83333.3294758799
83333.3294756788
83333.3294759243
83333.3294766472
83333.3294778671
83333.3294796127
83333.3294819087
83333.3294847685
83333.3294881893
83333.3294921472
83333.3294965915
83333.329501449
83333.3295066401
83333.3294800491
83333.3294796019
83333.3294792211
83333.3294791519
83333.3294794646
83333.3294801979
83333.329481374
83333.3294830186
83333.3294851558
83333.3294878008
83333.3294909554
83333.3294946019
83333.3294987014
83333.3295032076
83333.329508062
83333.3295131882
83333.3294829287
83333.3294826378
83333.3294823864
83333.3294824349
83333.3294828177
83333.3294835614
83333.3294846956
83333.3294862463
83333.3294882367
83333.3294906832
83333.3294935895
83333.329496938
83333.3295007025
83333.3295048676
83333.3295093982
83333.3295142202
83333.32951925
83333.3294856378
83333.3294855233
83333.3294853997
83333.3294855253
83333.3294859627
83333.3294867109
83333.3294878024
83333.3294892641
83333.3294911179
83333.3294933787
83333.329496049
83333.3294991166
83333.3294065836
83333.3294074782
83333.3294118702
83333.3294133235
83333.3294142677
83333.3294173453
83333.3294185311
83333.329419904
83333.3294208642
83333.3294235364
83333.3294238455
83333.329424942
83333.3294263141
83333.329427387
83333.3294305094
83333.3294297747
83333.3294299918
83333.3294310332
83333.3294324084
83333.3294335509
83333.3294393274
83333.3294381723
83333.3294368335
83333.3294358316
83333.3294356435
83333.3294364117
83333.3294382281
83333.3294447416
83333.3294436072
83333.3294423332
83333.3294413872
83333.3294412128
83333.3294419577
83333.3294437175
83333.3294465368
83333.3294498189
83333.3294487205
83333.3294475252
83333.3294466554
83333.3294465058
83333.3294472096
83333.3294488747
83333.3294515488
83333.3294552178
83333.3294545809
83333.3294535301
83333.3294524198
83333.3294516378
83333.3294515299
83333.3294522025
83333.3294537568
83333.3294562614
83333.3294597163
83333.3294640635
83333.3294590514
83333.3294580574
83333.3294570363
83333.3294563477
83333.3294562928
83333.3294569526
83333.3294584073
83333.3294607303
83333.3294639474
83333.3294680237
83333.3294728779
83333.3294632553
83333.3294623232
83333.3294613973
83333.3294608056
83333.3294608101
83333.3294614704
83333.3294628462
83333.3294650014
83333.3294679743
83333.3294717591
83333.3294762998
83333.3294815027
83333.3294672075
83333.3294663458
83333.3294655232
83333.3294650326
83333.3294651018
83333.329465771
83333.3294670849
83333.3294690955
83333.3294718406
83333.3294753313
83333.3294795417
83333.3294844026
83333.3294898153
83333.3294709164
83333.3294701429
83333.329469434
83333.329469051
83333.3294691878
83333.3294698718
83333.3294711354
83333.3294730216
83333.3294755641
83333.3294787791
83333.3294826597
83333.3294871656
83333.3294922196
83333.3294977239
83333.3294743872
83333.329473727
83333.3294731433
83333.3294728796
83333.329473087
83333.3294737888
83333.3294750102
83333.3294767868
83333.3294791492
83333.3294821154
83333.3294856864
83333.3294898403
83333.3294945262
83333.3294996646
83333.3295051634
83333.3294776206
83333.3294771106
83333.3294766652
83333.3294765352
83333.3294768158
83333.3294775359
83333.3294787192
83333.3294803965
83333.3294825964
83333.3294853385
83333.329488628
83333.3294924517
83333.3294967742
83333.3295015398
83333.3295066761
83333.3295120992
83333.3294805745
83333.3294802714
83333.3294799877
83333.3294800096
83333.3294803741
83333.3294811142
83333.3294822622
83333.3294838478
83333.3294858988
83333.3294884362
83333.3294914689
83333.3294949869
83333.3294989607
83333.3295033572
83333.3295081328
83333.3295132143
83333.329518518
83333.3294833259
83333.329483214
83333.3294831111
83333.3294832778
83333.3294837306
83333.3294844933
83333.3294856085
83333.3294871089
83333.3294890225
83333.3294913704
83333.3294941626
83333.3294973888
83333.3295010299
83333.3295050787
83333.3295095126
83333.3295142693
83333.3295192658
83333.3295244218
83333.3294859076
83333.3294859307
83333.3294860397
83333.3294863278
83333.3294868561
83333.3294876397
83333.3294887248
83333.3294901469
83333.329491934
83333.3294941059
83333.3294966707
83333.3294996228
83333.3294050473
83333.3294067315
83333.3294078014
83333.3294105412
83333.3294120043
83333.3294135739
83333.3294147299
83333.3294168961
83333.3294174514
83333.3294187639
83333.329420298
83333.329421482
83333.3294242021
83333.3294236596
83333.3294240782
83333.32942532
83333.3294268627
83333.3294281232
83333.329432339
83333.3294306332
83333.3294300123
83333.32943038
83333.3294315707
83333.3294330775
83333.3294343581
83333.3294401732
83333.3294389197
83333.3294374927
83333.3294363744
83333.3294360397
83333.3294366585
83333.3294383448
83333.3294411521
83333.3294456066
83333.329444401
83333.3294430708
83333.3294420492
83333.329441759
83333.3294423528
83333.3294439597
83333.329446642
83333.3294503946
83333.3294506885
83333.3294495426
83333.3294483133
83333.329447399
83333.3294471708
83333.3294477488
83333.3294492545
83333.3294517739
83333.3294553167
83333.3294598273
83333.3294554454
83333.3294543671
83333.3294532412
83333.3294524377
83333.3294522807
83333.3294528615
83333.3294542765
83333.329456616
83333.3294599171
83333.3294641496
83333.329469231
83333.3294599035
83333.3294588979
83333.329457879
83333.3294571884
83333.3294571067
83333.3294577026
83333.3294590481
83333.329461221
83333.3294642714
83333.3294682002
83333.3294729521
83333.3294784286
83333.3294640852
83333.3294631565
83333.3294622502
83333.3294616749
83333.3294616723
83333.3294622899
83333.3294635823
83333.3294656126
83333.329468429
83333.3294720502
83333.3294764532
83333.3294815662
83333.3294872837
83333.3294680012
83333.3294671633
83333.3294663797
83333.3294659225
83333.3294660016
83333.3294666453
83333.3294678951
83333.3294698032
83333.3294724119
83333.3294757447
83333.3294797987
83333.3294845339
83333.3294898686
83333.3294956964
83333.3294716546
83333.3294709347
83333.3294702863
83333.3294699573
83333.3294701183
83333.32947079
83333.3294720044
83333.3294738049
83333.3294762295
83333.3294793021
83333.3294830282
83333.3294873883
83333.3294923302
83333.3294977677
83333.3295035981
83333.3294750468
83333.3294744822
83333.3294739815
83333.3294737944
83333.3294740416
83333.3294747421
83333.3294759256
83333.3294776294
83333.3294798883
83333.3294827269
83333.3294861547
83333.3294901619
83333.3294947156
83333.329499756
83333.3295051986
83333.3295109488
83333.3294781778
83333.3294778178
83333.3294774794
83333.3294774482
83333.3294777856
83333.3294785148
83333.3294796696
83333.3294812846
83333.3294833926
83333.3294860189
83333.3294891766
83333.3294928612
83333.3294970479
83333.3295016959
83333.3295067485
83333.3295121257
83333.3295177384
83333.3294810022
83333.32948088
83333.3294807585
83333.3294809026
83333.3294813426
83333.3294821048
83333.3294832342
83333.3294847675
83333.3294867371
83333.3294891694
83333.3294920799
83333.3294954666
83333.3294993081
83333.3295035807
83333.3295082537
83333.3295132663
83333.3295185346
83333.329523974
83333.3294836133
83333.3294836389
83333.3294837705
83333.3294841089
83333.3294846666
83333.3294854716
83333.3294865833
83333.3294880439
83333.3294898877
83333.3294921416
83333.3294948215
83333.3294979244
83333.3295014384
83333.3295053636
83333.3295096861
83333.3295143555
83333.3295192974
83333.3295244288
83333.3295296737
83333.3294860497
83333.3294861748
83333.3294865008
83333.3294870324
83333.3294877124
83333.3294885697
83333.3294896754
83333.3294910763
83333.3294928091
83333.3294949007
83333.3294973651
83333.3295002033
83333.3294033717
83333.3294052233
83333.3294070461
83333.3294083574
83333.3294097831
83333.3294106586
83333.329412273
83333.3294140313
83333.3294154411
83333.3294172999
83333.3294170243
83333.3294177023
83333.3294191911
83333.3294209249
83333.3294223234
83333.3294258747
83333.3294243336
83333.3294239122
83333.3294245077
83333.3294259255
83333.32942762
83333.329429036
83333.3294352244
83333.3294324687
83333.3294308989
83333.3294304497
83333.3294309867
83333.3294323094
83333.329433914
83333.3294353013
83333.3294411248
83333.3294397974
83333.3294383113
83333.3294371107
83333.3294366464
83333.3294370942
83333.3294386084
83333.3294412692
83333.3294450844
83333.3294465535
83333.3294453
83333.3294439367
83333.3294428696
83333.3294424954
83333.3294429497
83333.3294443786
83333.3294468889
83333.3294505037
83333.3294551731
83333.3294516219
83333.3294504499
83333.3294492081
83333.3294482746
83333.329447997
83333.3294484758
83333.3294498281
83333.3294521643
83333.3294555367
83333.3294599219
83333.3294652375
83333.3294563592
83333.3294552724
83333.3294541531
83333.3294533516
83333.3294531703
83333.3294536842
83333.3294549808
83333.3294571553
83333.3294602723
83333.3294643423
83333.3294693117
83333.3294750781
83333.3294607913
83333.3294597918
83333.3294587974
83333.3294581283
83333.3294580433
83333.3294585961
83333.3294598525
83333.3294618895
83333.3294647682
83333.3294685171
83333.3294731179
83333.3294784969
83333.3294845415
83333.3294649319
83333.3294640309
83333.3294631688
83333.3294626315
83333.3294626446
83333.3294632379
83333.3294644628
83333.3294663826
83333.3294690504
83333.3294724985
83333.3294767301
83333.3294817062
83333.3294873402
83333.3294935165
83333.329468788
83333.3294680094
83333.3294672924
83333.3294668941
83333.3294670024
83333.3294676361
83333.3294688348
83333.3294706513
83333.3294731323
83333.3294763096
83333.3294801945
83333.3294847707
83333.3294899842
83333.3294957415
83333.3295019296
83333.3294723556
83333.3294717393
83333.3294711819
83333.3294709368
83333.3294711418
83333.3294718145
83333.32947299
83333.3294747134
83333.3294770266
83333.3294799605
83333.3294835302
83333.32948773
83333.329492528
83333.3294978604
83333.3295036327
83333.3295097387
83333.3294756366
83333.3294752317
83333.3294748483
83333.32947477
83333.3294750779
83333.3294757902
83333.3294769448
83333.3294785832
83333.3294807438
83333.3294834575
83333.329486742
83333.3294905976
83333.3294950033
83333.3294999166
83333.3295052704
83333.329510974
83333.329516929
83333.3294786326
83333.3294784645
83333.3294782984
83333.3294783986
83333.3294788169
83333.3294795711
83333.3294807078
83333.3294822683
83333.32948429
83333.3294868037
83333.3294898297
83333.3294933723
83333.3294974159
83333.3295019304
83333.3295068733
83333.3295121777
83333.3295177547
83333.3295235129
83333.329481307
83333.3294813358
83333.329481461
83333.3294817852
83333.3294823347
83333.3294831425
83333.3294842702
83333.3294857626
83333.3294876591
83333.3294899914
83333.3294927818
83333.3294960359
83333.3294997409
83333.3295038811
83333.3295084354
83333.3295133555
83333.3295185665
83333.3295239806
83333.3295295152
83333.3294837743
83333.3294838992
83333.3294842431
83333.3294848258
83333.3294855555
83333.3294864459
83333.3294875843
83333.3294890257
83333.329490814
83333.3294929834
83333.3294955566
83333.3294985378
83333.3295019229
83333.3295057194
83333.3295099214
83333.3295144876
83333.3295193536
83333.3295244421
83333.3295296716
83333.3295349698
83333.3294863013
83333.3294867509
83333.3294874903
83333.3294884155
83333.3294894214
83333.3294905977
83333.3294920125
83333.3294937153
83333.3294957429
83333.3294981176
83333.329500848
83333.3294021867
83333.3294035155
83333.3294055528
83333.3294075957
83333.3294091962
83333.3294098375