/*--------------------------------*- C++ -*----------------------------------*\
  =========                 |
  \\      /  F ield         | OpenFOAM: The Open Source CFD Toolbox
   \\    /   O peration     | Website:  https://openfoam.org
    \\  /    A nd           | Version:  12
     \\/     M anipulation  |
\*---------------------------------------------------------------------------*/
/*   Windows 32 and 64 bit porting by blueCAPE: http://www.bluecape.com.pt   *\
|  Based on Windows porting (2.0.x v4) by Symscape: http://www.symscape.com   |
\*---------------------------------------------------------------------------*/
FoamFile
{
    format      ascii;
    class       surfaceScalarField;
    location    "600";
    object      phi;
}
// * * * * * * * * * * * * * * * * * * * * * * * * * * * * * * * * * * * * * //

dimensions      [0 3 -1 0 0 0 0];

internalField   nonuniform List<scalar> 
28973
(
7.47561966062319e-07
-7.78596934503521e-09
-4.81636823459932e-08
8.1716983311814e-07
-5.2001935298634e-09
-6.44186475419796e-08
1.14493640029629e-06
-2.85482520212364e-08
-5.12917807205915e-08
-3.14590537101489e-07
2.16569738620148e-08
-1.04458466720491e-07
8.97882014009271e-07
-4.06073631215889e-09
-7.66546826499922e-08
1.23477044564117e-06
-2.59527085044085e-08
-6.90865836632879e-08
-2.78594869873078e-07
2.47738350893751e-08
-1.25186765258496e-07
1.30121973058687e-06
-5.01204888018572e-08
-5.65032601924424e-08
-2.92737412629906e-07
4.94455730486698e-08
-1.169162300025e-07
-3.48762546620001e-07
1.6955187501789e-08
-1.57483710112049e-07
9.84816513188175e-07
-5.72009019758521e-09
-8.12222743470086e-08
1.33830039683649e-06
-2.52566563670026e-08
-8.23352285328595e-08
-2.40274365338597e-07
2.74641072930551e-08
-1.42446262903025e-07
1.40187544921586e-06
-4.8640881965374e-08
-7.79818581545416e-08
-2.52999319524708e-07
5.53771161424396e-08
-1.39422643298934e-07
-3.12932955184418e-07
1.84448718083344e-08
-1.79462471066488e-07
1.48373776817192e-06
-7.4971669069934e-08
-6.19882952561759e-08
-3.59574088681232e-07
8.39861157158003e-08
-1.31437951296696e-07
-3.84577926458498e-07
4.03141193932859e-08
-1.79447890596158e-07
-2.97832017290877e-07
1.322604840986e-08
-2.06353530050684e-07
1.07892973261653e-06
-7.64666258387943e-09
-8.64519897343461e-08
1.44695035466596e-06
-2.82457319956017e-08
-8.61511957871929e-08
-1.94256024471457e-07
2.8570733278946e-08
-1.5581012174332e-07
1.51782651562554e-06
-4.93851869467075e-08
-9.18047173885336e-08
-2.09452233154313e-07
5.95847668744124e-08
-1.58007788127642e-07
-2.74967011847896e-07
1.97678861903288e-08
-2.00180507032646e-07
1.59654621844249e-06
-7.50024319032763e-08
-8.64467563952149e-08
-3.17199668444438e-07
9.25099677473542e-08
-1.57496535827882e-07
-3.45631294134986e-07
4.37929460850818e-08
-2.03718546934404e-07
-2.61044423818418e-07
1.39887068672697e-08
-2.30238800816095e-07
1.63426363068858e-06
-1.04020677213139e-07
-6.4685329855129e-08
-4.13578599019906e-07
1.20932945625849e-07
-1.43430047644913e-07
-4.69444470983101e-07
7.01889876111691e-08
-2.04597340150922e-07
-3.30437506725429e-07
3.05158306240656e-08
-2.36263691187574e-07
-2.38054186552424e-07
1.05359199357163e-08
-2.51657765189274e-07
1.18060987662565e-06
-8.34960311002523e-09
-9.33388014104356e-08
1.56237368052132e-06
-3.18546268389589e-08
-9.12142170244784e-08
-1.40572940460464e-07
2.93353869418165e-08
-1.69469427185753e-07
1.63928619230789e-06
-5.37831080424437e-08
-9.59152174084188e-08
-1.57150361195059e-07
6.23434790600002e-08
-1.72233819114104e-07
-2.31579178946577e-07
2.05246716782375e-08
-2.19723240741739e-07
1.72664095016683e-06
-7.79108561243775e-08
-1.01591541287973e-07
-2.69669902117873e-07
9.88172622433024e-08
-1.78571818911123e-07
-3.03672641875384e-07
4.6601637956125e-08
-2.26801796751996e-07
-2.21583654491288e-07
1.46923928808157e-08
-2.54333592176362e-07
1.75615618868596e-06
-1.05757620120798e-07
-9.11239767727659e-08
-3.66748055863116e-07
1.31860982125921e-07
-1.72625221906426e-07
-4.26542222434133e-07
7.58714996243914e-08
-2.32476073824125e-07
-2.89612516489456e-07
3.24805605651096e-08
-2.63034036937083e-07
-2.01181595433004e-07
1.10694731114002e-08
-2.78180673985982e-07
1.73107404346646e-06
-1.37440575054389e-07
-6.3767094957916e-08
-4.53291527431317e-07
1.56109130109432e-07
-1.47702790684178e-07
-5.48729185688377e-07
1.03339602021122e-07
-2.23962612560865e-07
-4.02210370434432e-07
5.21203259597027e-08
-2.70665569289524e-07
-2.63342676242344e-07
2.32960131405296e-08
-2.87500201656171e-07
-1.78932176585626e-07
8.0008532826317e-09
-2.93488591615076e-07
1.29043803261095e-06
-8.78043845069087e-09
-1.01060026188198e-07
1.68643138165407e-06
-3.46909453161352e-08
-9.77272068623465e-08
-8.02839237009028e-08
3.030087202969e-08
-1.8392778734859e-07
1.76795981906039e-06
-5.90887345308525e-08
-1.01470034471224e-07
-9.68115278906898e-08
6.46727707683629e-08
-1.86896486743601e-07
-1.82419288491691e-07
2.10705219553699e-08
-2.39699592677596e-07
1.86255844824016e-06
-8.3583429647125e-08
-1.06115104014506e-07
-2.12257927983029e-07
1.03565915401034e-07
-1.94549844890288e-07
-2.55484898556541e-07
4.85620987089265e-08
-2.48459900821549e-07
-1.77843887247551e-07
1.5110450984567e-08
-2.78573138386251e-07
1.89712460001549e-06
-1.10465863709995e-07
-1.08411742932116e-07
-3.1398607085349e-07
1.40543076887855e-07
-1.96084600539593e-07
-3.79899292909256e-07
8.04339488990503e-08
-2.59046304316593e-07
-2.4567505588446e-07
3.41133570426438e-08
-2.90160854193744e-07
-1.61405407153521e-07
1.14658943941804e-08
-3.05575414583871e-07
1.85771049957512e-06
-1.40749847203964e-07
-9.16325697621395e-08
-4.02802397339867e-07
1.69214640822117e-07
-1.78960291482267e-07
-5.01729124151256e-07
1.11306471225319e-07
-2.55058019256432e-07
-3.5629415632138e-07
5.55297500547487e-08
-3.01440234702493e-07
-2.2250360238993e-07
2.45084942130671e-08
-3.17311925563004e-07
-1.42620689742751e-07
8.32471511916667e-09
-3.22816863155257e-07
1.78424840389036e-06
-1.74435249261862e-07
-6.08936104847418e-08
-4.75550790249779e-07
1.87576656145221e-07
-1.4553273802945e-07
-6.11245981375914e-07
1.36345268490571e-07
-2.30573013467938e-07
-4.7241686777596e-07
7.59750234081205e-08
-2.96548268632684e-07
-3.19756497999125e-07
3.84317882477002e-08
-3.29069530407788e-07
-1.9875671453688e-07
1.7126147919201e-08
-3.33924808223808e-07
-1.24840646635192e-07
5.78781534965232e-09
-3.32051310477402e-07
1.40914641044836e-06
-9.18217315283882e-09
-1.09527222736295e-07
1.82024818983304e-06
-3.73054392204081e-08
-1.05325460733278e-07
-1.31054649821845e-08
3.16008826674752e-08
-1.99839760668237e-07
1.90572467624901e-06
-6.40479835513997e-08
-1.08446919844114e-07
-2.92016873007524e-08
6.70323044539335e-08
-2.02068392802718e-07
-1.27352056643799e-07
2.14779330822287e-08
-2.60472146108909e-07
2.00615448253235e-06
-9.03819509819137e-08
-1.12306992894819e-07
-1.45890687186785e-07
1.07910506261777e-07
-2.11070138965007e-07
-2.0093971303476e-07
5.01589868610417e-08
-2.70531108398385e-07
-1.29353483678313e-07
1.53608513751349e-08
-3.03550814893449e-07
2.04358920830745e-06
-1.17601277274756e-07
-1.12454008159497e-07
-2.50318449612151e-07
1.47545883755973e-07
-2.13755705086542e-07
-3.26054180199331e-07
8.40485309763956e-08
-2.83882043058259e-07
-1.96904812981502e-07
3.52442763212235e-08
-3.17364670734099e-07
-1.17886983604136e-07
1.16875762443863e-08
-3.33779333461462e-07
2.00406727767677e-06
-1.47085833663039e-07
-1.09729873214892e-07
-3.46457892387468e-07
1.79915294097878e-07
-2.04132619632108e-07
-4.50589338511016e-07
1.17966010060073e-07
-2.84754158638144e-07
-3.06757387246981e-07
5.8285438131005e-08
-3.32755679033982e-07
-1.78471022432752e-07
2.54654221768354e-08
-3.48193293149198e-07
-1.03385542854972e-07
8.53130120619485e-09
-3.53341777255056e-07
1.91209934050288e-06
-1.78702850917686e-07
-8.98846631518372e-08
-4.22656288362618e-07
2.02671773331847e-07
-1.77999215059948e-07
-5.61804643034039e-07
1.46524616209461e-07
-2.63620055998129e-07
-4.22039161606885e-07
8.08990222127797e-08
-3.3080460769582e-07
-2.73829033209585e-07
4.05009063646566e-08
-3.63361060034691e-07
-1.58694644605246e-07
1.78423875210517e-08
-3.66891507421964e-07
-8.95201259717605e-08
5.96860302303148e-09
-3.64105927067918e-07
1.81471614776143e-06
-2.14682536963317e-07
-5.67881112886e-08
-4.84649704131536e-07
2.14126186476809e-07
-1.39893615605997e-07
-6.54312646372441e-07
1.6699794904867e-07
-2.27377727492317e-07
-5.28917508053049e-07
9.98589416435806e-08
-3.05477898328199e-07
-3.77005940206867e-07
5.47958731307675e-08
-3.60189460013003e-07
-2.42981735204283e-07
2.74954546155574e-08
-3.81339111032213e-07
-1.40580025397475e-07
1.18161164953602e-08
-3.76153772035936e-07
-7.73444543013939e-08
3.69347161460178e-09
-3.67427512018862e-07
1.53809158685413e-06
-9.83089499069184e-09
-1.19103489548345e-07
1.96479979660246e-06
-4.00393426824082e-08
-1.13699445507767e-07
6.13863772107439e-08
3.29813318630882e-08
-2.1700533272898e-07
2.05423662516373e-06
-6.92408654780026e-08
-1.16585639864614e-07
4.61601816381011e-08
6.94959275502362e-08
-2.18586969426686e-07
-6.64121028518779e-08
2.17349662329447e-08
-2.82514820254673e-07
2.1593607725215e-06
-9.74299841710093e-08
-1.19829821707434e-07
-7.15442456913622e-08
1.1220798382974e-07
-2.27971984473173e-07
-1.39706152713989e-07
5.15058621110458e-08
-2.9333068045969e-07
-7.57551318515333e-08
1.54354495338066e-08
-3.29505926311077e-07
2.19803096755164e-06
-1.25663615043634e-07
-1.19189793223625e-07
-1.76913688910114e-07
1.54252269692597e-07
-2.32049700469209e-07
-2.65075327015784e-07
8.72466321247583e-08
-3.09136338617301e-07
-1.42805714600841e-07
3.60543187255655e-08
-3.45323003769575e-07
-7.02102996400112e-08
1.17796132411026e-08
-3.6300697571051e-07
2.15568656278786e-06
-1.55234082096131e-07
-1.13983973571231e-07
-2.77975953701276e-07
1.8947094997588e-07
-2.22865438525916e-07
-3.9150187199781e-07
1.23655229499552e-07
-3.12449218475676e-07
-2.51674978465549e-07
6.04111432491613e-08
-3.64130982590977e-07
-1.30284769183186e-07
2.60958037008438e-08
-3.79957990701775e-07
-6.07590865219466e-08
8.62178479129397e-09
-3.85027576527426e-07
2.05976151199087e-06
-1.86238955941439e-07
-1.08480694201424e-07
-3.63765638490029e-07
2.1535091607889e-07
-2.0405297619717e-07
-5.08082382754977e-07
1.55348175519124e-07
-2.952279872235e-07
-3.67749831190531e-07
8.49948506659079e-08
-3.65754117587747e-07
-2.2425465726549e-07
4.21080314130409e-08
-3.98973775599331e-07
-1.15432612666516e-07
1.83515225656868e-08
-4.01276157938985e-07
-5.13791508776686e-08
6.04793482767541e-09
-3.97530868778042e-07
1.94194638754723e-06
-2.19392003729754e-07
-8.65572400649582e-08
-4.29807854733718e-07
2.31054614613927e-07
-1.73109357709034e-07
-6.03686359792706e-07
1.79253905975263e-07
-2.61352609967818e-07
-4.76154639323077e-07
1.06261858158173e-07
-3.41746275782852e-07
-3.26788753428041e-07
5.77682942893516e-08
-3.98289320327865e-07
-1.97985195353514e-07
2.86908403914921e-08
-4.19205978179254e-07
-1.0154982453394e-07
1.2171751448889e-08
-4.12125214770029e-07
-4.31925967400667e-08
3.72860532152796e-09
-4.01986246223253e-07
1.83898430388293e-06
-2.5844005325494e-07
-5.15552179148766e-08
-4.85916939741632e-07
2.34683756218763e-07
-1.32104640391306e-07
-6.84218198219897e-07
1.94151933587512e-07
-2.19346982221247e-07
-5.69859900071084e-07
1.22151914467948e-07
-3.01697363000322e-07
-4.24855128325716e-07
7.12361039312664e-08
-3.71284791597125e-07
-2.89556624538301e-07
3.85373498526252e-08
-4.16960451706744e-07
-1.75392792866292e-07
1.85558472133747e-08
-4.28841791432509e-07
-8.92042466547183e-08
7.23688961396166e-09
-4.14822970503496e-07
-3.62282227535914e-08
1.82331440025907e-09
-3.99853300747633e-07
1.67794755445383e-06
-1.07436518227948e-08
-1.2911638008376e-07
2.12114871331749e-06
-4.34441061682628e-08
-1.2274500841254e-07
1.43754786179588e-07
3.40927451389518e-08
-2.35567078613296e-07
2.21463383828436e-06
-7.49504682707487e-08
-1.25500184149991e-07
1.30063732466212e-07
7.19407908023964e-08
-2.36566945811431e-07
6.28755618998003e-10
2.19308753086115e-08
-3.0597649134467e-07
2.32411526262056e-06
-1.05215242764752e-07
-1.28771848921029e-07
1.12398967601728e-08
1.1646510186692e-07
-2.46327777645324e-07
-7.17587395001161e-08
5.25925418127404e-08
-3.17394625033425e-07
-1.68532088009229e-08
1.53222644983789e-08
-3.56738752842579e-07
2.36235367090739e-06
-1.34506820796014e-07
-1.27257931467086e-07
-9.47427745774523e-08
1.60883225433206e-07
-2.50683885677664e-07
-1.96521502617209e-07
9.01159521634807e-08
-3.35134205300519e-07
-8.29438042953741e-08
3.65430315210723e-08
-3.74299088451426e-07
-1.80188943172884e-08
1.17146567352518e-08
-3.93411941295779e-07
2.31526226029479e-06
-1.64194916224601e-07
-1.21048388718318e-07
-1.99217705407028e-07
1.98625205598512e-07
-2.42312894774332e-07
-3.2462284798543e-07
1.288946519545e-07
-3.40573564395032e-07
-1.90539660330183e-07
6.21178944248834e-08
-3.96335805955084e-07
-7.74501501965259e-08
2.64529096155285e-08
-4.12831143216905e-07
-1.44115172052749e-08
8.60519488132934e-09
-4.17959776478429e-07
2.21238637319086e-06
-1.95041675285558e-07
-1.12840519584304e-07
-2.9209122594502e-07
2.27171261097058e-07
-2.23354606561794e-07
-4.45916458307242e-07
1.63270509285866e-07
-3.24645472289805e-07
-3.0740596344847e-07
8.83772618046701e-08
-4.00760027258332e-07
-1.6994690079792e-07
4.32650113518574e-08
-4.35608807051992e-07
-6.84147612200645e-08
1.8620523225305e-08
-4.3697482428303e-07
-1.01268002307065e-08
6.03781030917418e-09
-4.32317710188634e-07
2.08880300707998e-06
-2.27514273079855e-07
-1.05578785070366e-07
-3.68834625100643e-07
2.45528747756482e-07
-1.99631196054282e-07
-5.4870617371845e-07
1.90150166981679e-07
-2.93832268723215e-07
-4.19353077979094e-07
1.11764601783064e-07
-3.78799531708889e-07
-2.72642951851197e-07
6.01386198797374e-08
-4.37932212514185e-07
-1.49351602202228e-07
2.95223035365583e-08
-4.58777414080318e-07
-5.94179806464289e-08
1.23540548298397e-08
-4.49713340978833e-07
-6.38277255150471e-09
3.69691890353873e-09
-4.38037570472871e-07
1.96482299687854e-06
-2.63268731629221e-07
-8.19692933161941e-08
-4.28993882709392e-07
2.53352867808874e-07
-1.65780331273945e-07
-6.32678274822795e-07
2.08349295822183e-07
-2.53746973947759e-07
-5.16093299052011e-07
1.29953465700715e-07
-3.38809133593013e-07
-3.72404612390826e-07
7.5099571344397e-08
-4.11528875983078e-07
-2.40428701315626e-07
4.02317915719305e-08
-4.5895849080698e-07
-1.31451168072636e-07
1.91336687454269e-08
-4.70109788916767e-07
-5.13330832355671e-08
7.31019569105075e-09
-4.53577458769818e-07
-3.29933596318045e-09
1.76809509588124e-09
-4.36683217798957e-07
1.86646994584593e-06
-3.0643694122597e-07
-4.51791062817647e-08
-4.81892660676942e-07
2.48053983143634e-07
-1.22280653481989e-07
-7.07810062621346e-07
2.17105742143824e-07
-2.08741222219872e-07
-6.01073413349059e-07
1.41910205606115e-07
-2.91873497086527e-07
-4.61497366839926e-07
8.67094398201113e-08
-3.67391446805439e-07
-3.30341605488466e-07
4.9693049456974e-08
-4.30182439791086e-07
-2.13489632200328e-07
2.57420220303337e-08
-4.68711746862191e-07
-1.15989419836519e-07
1.11779867392282e-08
-4.72491766325251e-07
-4.4170494656011e-08
3.40455152156757e-09
-4.50440247999809e-07
-7.2589447749967e-10
2.75043231417982e-10
-4.29657445000562e-07
1.82969855471165e-06
-1.20408486136309e-08
-1.39715447649131e-07
2.29038644857325e-06
-4.78942075050582e-08
-1.32092167204339e-07
2.3493190064096e-07
3.49887152932246e-08
-2.55281803014848e-07
2.38809478919462e-06
-8.18435130606841e-08
-1.35074366809884e-07
2.23378202753365e-07
7.40014302867403e-08
-2.55974365064054e-07
7.40684614213535e-08
2.19078385379414e-08
-3.3091352498811e-07
2.50172093995672e-06
-1.14073064314589e-07
-1.38489176787915e-07
1.03516322039674e-07
1.20460963618307e-07
-2.66297084572686e-07
3.13459283690914e-09
5.33747627182658e-08
-3.42904533445516e-07
4.75855629283604e-08
1.50055560455806e-08
-3.8542046624801e-07
2.53858547726168e-06
-1.44504668018982e-07
-1.36976072480074e-07
-3.46149613013786e-09
1.67353428016525e-07
-2.70943103397298e-07
-1.20343831829367e-07
9.26041348064734e-08
-3.62516392923821e-07
-1.70764533370482e-08
3.66766368143028e-08
-4.04615560276116e-07
3.89534243146673e-08
1.14748571338694e-08
-4.25186045896954e-07
2.48460463397011e-06
-1.74269262816022e-07
-1.29571917512057e-07
-1.11151200478337e-07
2.07651774965745e-07
-2.62088659921537e-07
-2.49426357825769e-07
1.33733131438654e-07
-3.69499036571397e-07
-1.22851215731656e-07
6.33901091827368e-08
-4.29670151938441e-07
-1.95571783916939e-08
2.65005454897443e-08
-4.46977038521036e-07
3.59728935287662e-08
8.44884634478762e-09
-4.52245094350934e-07
2.37278391111958e-06
-2.04350732107674e-07
-1.20262846746161e-07
-2.0973965672211e-07
2.386319541384e-07
-2.43403000606893e-07
-3.75566547966709e-07
1.70727940580347e-07
-3.54496558706388e-07
-2.40446237806749e-07
9.12551070490389e-08
-4.36670624491842e-07
-1.10362046984175e-07
4.40413510240146e-08
-4.7350915082678e-07
-1.7242380965275e-08
1.86580147773181e-08
-4.74056792405683e-07
3.44925418276681e-08
5.93995332432442e-09
-4.68519167470532e-07
2.24022262503544e-06
-2.36468690278927e-07
-1.09995304703219e-07
-2.9462961941098e-07
2.59351493954815e-07
-2.19218601656136e-07
-4.84994508129758e-07
2.00233680464898e-07
-3.24032526743339e-07
-3.56231688261804e-07
1.16510459206674e-07
-4.15902822691124e-07
-2.13355481123681e-07
6.19508071964951e-08
-4.78731521754623e-07
-9.64492612506556e-08
3.00003019051533e-08
-4.99891343815045e-07
-1.38295584069529e-08
1.23454953203843e-08
-4.88871052669775e-07
3.32824865808722e-08
3.61106275650175e-09
-4.75594057453041e-07
2.11003746633276e-06
-2.71365687885467e-07
-1.01372915408126e-07
-3.65794449058853e-07
2.69445000821826e-07
-1.92689462189334e-07
-5.76748441738281e-07
2.21187054323346e-07
-2.86598304085359e-07
-4.58233776719921e-07
1.36815887262288e-07
-3.76743501447181e-07
-3.15898553572214e-07
7.82830303150239e-08
-4.53450161991345e-07
-1.87369544656697e-07
4.14436024828023e-08
-5.02912467450052e-07
-8.39789120732491e-08
1.94085028160255e-08
-5.13304594339719e-07
-1.05216448784605e-08
7.2428057318015e-09
-4.94071164427784e-07
3.21053832724992e-08
1.65266130078915e-09
-4.75095071754691e-07
1.99023148940542e-06
-3.10925583327116e-07
-7.61218659307473e-08
-4.22523444883383e-07
2.68324803995157e-07
-1.56298417157081e-07
-6.55047533763559e-07
2.33160766233613e-07
-2.43353119358667e-07
-5.46599755457803e-07
1.51026236888865e-07
-3.29294448228077e-07
-4.08150994826038e-07
9.14257576839351e-08
-4.08481810834693e-07
-2.79037408055525e-07
5.18852761972374e-08
-4.74486183953337e-07
-1.65431653804667e-07
2.65511619396396e-08
-5.1443406872601e-07
-7.31770222854177e-08
1.13032856349788e-08
-5.16914918180815e-07
-7.53205739534065e-09
3.27602063126427e-09
-4.91723923753722e-07
3.09737978752476e-08
1.48942021254835e-10
-4.68531756511536e-07
1.90004624304818e-06
-3.58589543860937e-07
-3.85904842389441e-08
-4.73195257402228e-07
2.52791368289878e-07
-1.10268949037116e-07
-7.29122474781365e-07
2.35188021506036e-07
-1.95817638795173e-07
-6.28203477551095e-07
1.58521846226344e-07
-2.79113034680033e-07
-4.91281774528996e-07
1.00404580494817e-07
-3.5637818023395e-07
-3.6324679122128e-07
6.02463048653467e-08
-4.26507229377016e-07
-2.48548410715252e-07
3.30359455126611e-08
-4.8408615384259e-07
-1.46714946764721e-07
1.5420619184177e-08
-5.16487735914382e-07
-6.36809224329482e-08
5.15836032552545e-09
-5.1286207395267e-07
-4.87718804374276e-09
2.95188406675539e-10
-4.8335905631654e-07
2.98452721649722e-08
-9.39690514670356e-10
-4.57115990173325e-07
1.99472632256841e-06
-1.41885444029825e-08
-1.50840034048749e-07
2.47356919213988e-06
-5.36559442765317e-08
-1.41554632607544e-07
3.3592745770799e-07
3.54151949847499e-08
-2.7612902936561e-07
2.57573576956761e-06
-9.05449521400304e-08
-1.44989143097318e-07
3.2701033195561e-07
7.52861517152674e-08
-2.76015674353188e-07
1.54552031261497e-07
2.15136041111327e-08
-3.57278220784148e-07
2.69337283574358e-06
-1.24621989565347e-07
-1.48857214843791e-07
2.06241358867967e-07
1.23804558150932e-07
-2.87605362952688e-07
8.5331849662084e-08
5.36406338094145e-08
-3.69904611644061e-07
1.17883289570527e-07
1.4426577868896e-08
-4.15637405409315e-07
2.72806575375587e-06
-1.56046537523128e-07
-1.47519865519745e-07
9.81646493806693e-08
1.73342686738531e-07
-2.92994219495281e-07
-3.63519218739342e-08
9.45872235568349e-08
-3.91502567899484e-07
5.50931475116707e-08
3.63833107983024e-08
-4.36451532669015e-07
1.00976575869488e-07
1.10308014298105e-08
-4.58474479565485e-07
2.66565260047065e-06
-1.85751898769993e-07
-1.39829229956279e-07
-1.36237208011543e-08
2.16475207873991e-07
-2.83618323896402e-07
-1.65863565271943e-07
1.38068452898823e-07
-3.99970735494547e-07
-4.83309301282001e-08
6.41491835551764e-08
-4.64510770247759e-07
4.37082210575556e-08
2.61944200588835e-08
-4.82599561774503e-07
9.06674001516015e-08
8.13510665561039e-09
-4.88015779452276e-07
2.54255076412649e-06
-2.15006937209422e-07
-1.29033830524361e-07
-1.17863475195842e-07
2.49974664438315e-07
-2.63770823356605e-07
-2.96474520030563e-07
1.77738216100112e-07
-3.85184643199394e-07
-1.66307608473207e-07
9.35891867031622e-08
-4.73836003714263e-07
-4.5044026021286e-08
4.43780384922198e-08
-5.12865825515256e-07
3.84404952942368e-08
1.84199334954459e-08
-5.12630586306688e-07
8.27439892072921e-08
5.72484780912115e-09
-5.06221387381013e-07
2.39885625925837e-06
-2.45407812869413e-07
-1.17608225139765e-07
-2.09544475075477e-07
2.72904547110936e-07
-2.39620804694139e-07
-4.12887046293289e-07
2.09885095332859e-07
-3.54666898294278e-07
-2.86210038774814e-07
1.20692272320794e-07
-4.53955216200936e-07
-1.48316122925616e-07
6.32763810367356e-08
-5.20946029903452e-07
-3.88363963896543e-08
3.01424706823716e-08
-5.42605546132577e-07
3.55299542222437e-08
1.21438884341143e-08
-5.2961980126694e-07
7.6006405296093e-08
3.45530412264244e-09
-5.14698295239454e-07
2.25912659103196e-06
-2.79721099310443e-07
-1.0585398341975e-07
-2.8899041490267e-07
2.85015009718516e-07
-2.12450349081442e-07
-5.11875494512622e-07
2.33278981249881e-07
-3.17141579437926e-07
-3.93934982550504e-07
1.42906089176823e-07
-4.14726002148081e-07
-2.54058309057821e-07
8.08209771020679e-08
-4.96611456536791e-07
-1.29672274739132e-07
4.21911102410027e-08
-5.48620219496104e-07
-3.25696819987664e-08
1.93925938041556e-08
-5.5834785676535e-07
3.3487727627002e-08
7.02903041341672e-09
-5.36298737431408e-07
7.0138174443509e-08
1.49332820825758e-09
-5.15120150255495e-07
2.1331511737112e-06
-3.18247275989155e-07
-9.60166494557997e-08
-3.56708486004211e-07
2.85846097837546e-07
-1.8357269492866e-07
-5.97906005624348e-07
2.47793687997683e-07
-2.76433280469309e-07
-4.87997076758667e-07
1.5916965734718e-07
-3.67556060176652e-07
-3.50701842060975e-07
9.54047536220027e-08
-4.51314539181419e-07
-2.23660093241232e-07
5.35172804858358e-08
-5.2090059648449e-07
-1.13536038322037e-07
2.69552756336414e-08
-5.62355140191003e-07
-2.70055357384355e-08
1.11754018146336e-08
-5.63408980724529e-07
3.18555547043832e-08
3.03269839156406e-09
-5.34838694918205e-07
6.49545703246108e-08
-1.9036699878434e-11
-5.09056690018714e-07
2.02171806615653e-06
-3.62578286646862e-07
-7.0038792072305e-08
-4.10959356996264e-07
2.74552107412849e-07
-1.44565202185813e-07
-6.74715695350293e-07
2.52991896191123e-07
-2.30539274148301e-07
-5.72750565149681e-07
1.68869655461878e-07
-3.16652127948187e-07
-4.37336535128525e-07
1.05918039728467e-07
-3.97730942393479e-07
-3.11063840401292e-07
6.29197726861375e-08
-4.71697852702668e-07
-1.98269414310123e-07
3.40786435241697e-08
-5.32292316440292e-07
-9.97589538816932e-08
1.55977875052158e-08
-5.65684401009032e-07
-2.21067081421964e-08
4.96309586679259e-09
-5.60176427132518e-07
3.04623497389504e-08
2.96881776562088e-11
-5.26944000890251e-07
6.02650747210427e-08
-1.11229093469994e-09
-4.97839203042556e-07
1.93981289432178e-06
-4.14502916147471e-07
-3.32278766012741e-08
-4.59531895975048e-07
2.46610743074713e-07
-9.611074432806e-08
-7.50544512561282e-07
2.47623593300037e-07
-1.80304838067658e-07
-6.54374781321e-07
1.71408809537663e-07
-2.63841711839675e-07
-5.18426183293146e-07
1.11732715195659e-07
-3.42055797663362e-07
-3.91205937375121e-07
6.94935748573576e-08
-4.14715182174255e-07
-2.78217082299908e-07
3.98940256794568e-08
-4.80821508366498e-07
-1.76638316218071e-07
1.97211387921622e-08
-5.34012782199785e-07
-8.76883887438263e-08
7.07428380531894e-09
-5.60841433099046e-07
-1.77689515266221e-08
3.368773988334e-10
-5.50326811492786e-07
2.9176608667862e-08
-2.13825902428649e-09
-5.13814447471471e-07
5.5942884447325e-08
-1.84619227519842e-09
2.17457833568654e-06
-1.7712302958918e-08
-1.62138172239729e-07
2.67163572794565e-06
-6.12061695362735e-08
-1.51062627619567e-07
4.47816021703213e-07
3.52352481028874e-08
-2.97962310435646e-07
2.77849622838404e-06
-1.01597286418393e-07
-1.54815768431659e-07
4.42254150719611e-07
7.57614864127011e-08
-2.97149324833401e-07
2.42756670342287e-07
2.07048344843951e-08
-3.8503781046024e-07
2.90026730657053e-06
-1.37682754695539e-07
-1.59765391403141e-07
3.20563854540251e-07
1.26126321016749e-07
-3.1016681060071e-07
1.75731116098438e-07
5.33761435909539e-08
-3.98279642409745e-07
1.94513093685958e-07
1.35113588864598e-08
-4.47419528389282e-07
2.9319164199518e-06
-1.69770348010658e-07
-1.58698565987135e-07
2.11299144697182e-07
1.78390765409335e-07
-3.16576380649514e-07
5.59805668305282e-08
9.58274918695451e-08
-4.2212683838808e-07
1.33964291930093e-07
3.55457013922794e-08
-4.69895226651382e-07
1.68372382143579e-07
1.03334984157172e-08
-4.93367405640417e-07
2.85970010318641e-06
-1.99154041446045e-07
-1.50936702552552e-07
9.46930589340482e-08
2.24620006570753e-07
-3.07114884532805e-07
-7.37415795611244e-08
1.41706602828284e-07
-4.32233131282595e-07
3.33505993518598e-08
6.42626650381286e-08
-5.01063536492234e-07
1.12679643988506e-07
2.5462117441823e-08
-5.19854141665831e-07
1.49945656800702e-07
7.63450404036524e-09
-5.2538732765585e-07
2.72340065018404e-06
-2.26967679822415e-07
-1.39651376926743e-07
-1.64188867743404e-08
2.61163132605704e-07
-2.85959732901491e-07
-2.08611122055951e-07
1.84131496503953e-07
-4.17543518706133e-07
-8.46951577187819e-08
9.52576539814211e-08
-5.12691670921388e-07
2.63602092125699e-08
4.41911877883706e-08
-5.53912430079508e-07
9.89567187114126e-08
1.78597956953088e-08
-5.52840193112114e-07
1.34878885359109e-07
5.37390032319703e-09
-5.45524537335576e-07
2.56658953033651e-06
-2.55308097806571e-07
-1.27415265419128e-07
-1.14920360686478e-07
2.86624594746798e-07
-2.60315409901069e-07
-3.31853395789467e-07
2.19069902372482e-07
-3.8613421870496e-07
-2.08702788193282e-07
1.24235718111454e-07
-4.93339769923277e-07
-7.7017042431123e-08
6.40385949938857e-08
-5.64796367388541e-07
2.38791209930009e-08
2.9882296566222e-08
-5.87044525688893e-07
8.89645539265213e-08
1.17051490960724e-08
-5.72045914637292e-07
1.22013843721078e-07
3.19846317613672e-09
-5.55427370798362e-07
2.41503056528934e-06
-2.87315958887985e-07
-1.13993424706914e-07
-2.01132843966087e-07
3.00524765635105e-07
-2.3308571934736e-07
-4.38468077313789e-07
2.45001743267858e-07
-3.48146547696304e-07
-3.2263563065198e-07
1.48403979315992e-07
-4.53676675268939e-07
-1.86238996937024e-07
8.27811599611391e-08
-5.41279861618908e-07
-6.68396856546901e-08
4.24959433757972e-08
-5.96132479387063e-07
2.31235828779343e-08
1.9088063085168e-08
-6.05243108712897e-07
8.09471145988629e-08
6.65838256176295e-09
-5.80282094656717e-07
1.1096277993222e-07
1.28056494389996e-09
-5.56803356963481e-07
2.27963951104056e-06
-3.25463926097566e-07
-1.00746502291149e-07
-2.76928134780027e-07
3.02829182136609e-07
-2.03456873945075e-07
-5.31614903037283e-07
2.61716699029214e-07
-3.07173712844613e-07
-4.22883232536519e-07
1.66528047461028e-07
-4.05875883775775e-07
-2.87850284561925e-07
9.86751243572166e-08
-4.95430730879952e-07
-1.63466119119339e-07
5.45869918863128e-08
-5.69202104461108e-07
-5.73473335051395e-08
2.69654644109928e-08
-6.12382010007531e-07
2.2818643273501e-08
1.08111227440063e-08
-6.11954095493907e-07
7.41951805484053e-08
2.6743345942627e-09
-5.79819504327645e-07
1.01342079061984e-07
-2.18766967097393e-10
-5.5128894191719e-07
2.16236936274462e-06
-3.68701798544261e-07
-9.01768809539535e-08
-3.42091931230276e-07
2.93191374238678e-07
-1.72243777839828e-07
-6.15958030662579e-07
2.69259695634461e-07
-2.63800655925092e-07
-5.13141790747969e-07
1.78197391389985e-07
-3.55068932869313e-07
-3.79261489657587e-07
1.10640515217264e-07
-4.40866205708766e-07
-2.54752110461003e-07
6.49690015783858e-08
-5.19078569323752e-07
-1.43993921665417e-07
3.46438719878865e-08
-5.82865849207919e-07
-4.91323551101195e-08
1.54342875022401e-08
-6.17240589222998e-07
2.26159312383628e-08
4.56244595669732e-09
-6.09661356422919e-07
6.83408859245392e-08
-3.1746041070658e-10
-5.72418998045247e-07
9.27702594540898e-08
-1.30409546722995e-09
-5.40257745783483e-07
2.06004900427169e-06
-4.17888140651849e-07
-6.49037627848493e-08
-3.94005882192511e-07
2.69733617921278e-07
-1.30754138359398e-07
-6.94126878581266e-07
2.67060478242423e-07
-2.15052997586053e-07
-5.97542556324867e-07
1.8288808119516e-07
-3.01393876882819e-07
-4.63654060825669e-07
1.17967381033702e-07
-3.83473859941831e-07
-3.38466535106226e-07
7.26039401509504e-08
-4.60153574849301e-07
-2.27019092967935e-07
4.11587901987397e-08
-5.29975991961931e-07
-1.27404039987837e-07
1.994842743088e-08
-5.85877226121743e-07
-4.19751210189548e-08
6.80837975513362e-09
-6.13242558096775e-07
2.24382789720396e-08
-6.79196928754076e-11
-6.00286192847802e-07
6.31138895596935e-08
-2.48696160748264e-09
-5.59506909174928e-07
8.49576152842952e-08
-2.0295635005213e-09
-5.24824427484348e-07
1.98176768168241e-06
-4.75335011958735e-07
-3.19742361537439e-08
-4.39600194637413e-07
2.26148085030431e-07
-8.00091810615889e-08
-7.73956874299026e-07
2.53366411876345e-07
-1.61932728222576e-07
-6.81468479249453e-07
1.79945991920575e-07
-2.45741074014297e-07
-5.45240985878796e-07
1.20186034674539e-07
-3.25054118066059e-07
-4.17361286431032e-07
7.69047359883022e-08
-3.99259511797244e-07
-3.04278841786632e-07
4.57445940320736e-08
-4.68536410332022e-07
-2.03228820940171e-07
2.3663672896096e-08
-5.31271642734799e-07
-1.12833854522452e-07
8.98954062590494e-09