/*--------------------------------*- C++ -*----------------------------------*\
  =========                 |
  \\      /  F ield         | OpenFOAM: The Open Source CFD Toolbox
   \\    /   O peration     | Website:  https://openfoam.org
    \\  /    A nd           | Version:  12
     \\/     M anipulation  |
\*---------------------------------------------------------------------------*/
/*   Windows 32 and 64 bit porting by blueCAPE: http://www.bluecape.com.pt   *\
|  Based on Windows porting (2.0.x v4) by Symscape: http://www.symscape.com   |
\*---------------------------------------------------------------------------*/
FoamFile
{
    format      ascii;
    class       volScalarField;
    location    "100";
    object      k;
}
// * * * * * * * * * * * * * * * * * * * * * * * * * * * * * * * * * * * * * //

dimensions      [0 2 -2 0 0 0 0];

internalField   nonuniform List<scalar> 
10152
(
0.000461418426693477
0.000465752069081551
0.000463282537628236
0.00130899412802681
0.000468845462705086
0.00046758606538474
0.00132125792629284
0.000465667760841305
0.00131059624835992
0.0019151072590185
0.000471079432421811
0.000470676234147347
0.00133017417990193
0.000469951099911413
0.00132270056283804
0.00193278933483361
0.000463409866331389
0.00130951464850379
0.00191536643591149
0.00240199172209213
0.000472683956146252
0.000472912166970578
0.00133667916367995
0.00047304448798007
0.0013315695208256
0.00194578800575004
0.000467660650109024
0.00132146517247436
0.00193279422140991
0.00242372335939166
0.000455112739713965
0.00129980897605429
0.00190757847298642
0.00240113372100628
0.00281916373858059
0.00047382137057418
0.000474521358431774
0.00134138900005598
0.000475292835459331
0.00133805988217306
0.00195534036971491
0.000470738478257439
0.00133029160659833
0.00194570730652951
0.00243982403764557
0.000459301023351705
0.0013116071435417
0.00192471831273723
0.00242253129286749
0.00284408127565518
0.000442505830708334
0.00127813012251372
0.00188846570341939
0.00238795890222453
0.00281659894188726
0.00318559807146031
0.00047462005103791
0.000475663878353163
0.00134475605555619
0.000476916136736614
0.00134276385280948
0.00196229439162677
0.000472983606724103
0.00133678382705818
0.00195522646502208
0.00245172843082728
0.000462337763427989
0.00132036436547419
0.00193752185345456
0.00243851216605222
0.0028626376921915
0.000446615412767459
0.00128974073649028
0.00190532920716772
0.00240895989937936
0.00284110878630154
0.00321306499965021
0.000427511957941355
0.00124582262021241
0.00185592302784816
0.00236050390226855
0.00279851442292872
0.00318091426006889
0.00351023665915735
0.000475179921762062
0.000476466371143871
0.00134714259465187
0.000478071548774418
0.00134613126271895
0.00196730258654563
0.000474610625261468
0.0013415041595626
0.00196216683238625
0.00246044178178332
0.000464556838535912
0.00132683371054886
0.00194700830665728
0.00245036462597841
0.00287642211730351
0.000449592770933072
0.00129837875730224
0.00191799035899006
0.00242477417525155
0.00285951097701756
0.00323358749931591
0.000431551251682907
0.00125720166202498
0.00187249697319267
0.00238112500732445
0.00282253477352672
0.0032079081612222
0.00353974373440311
0.000410683237283356
0.00120569313100804
0.00181079880947828
0.00231821290972648
0.00276358654427012
0.00315814494170695
0.00350380511876969
0.00379841006554938
0.000475577568649598
0.000477029523922624
0.00134882754171632
0.000478882572398726
0.00134851769788284
0.00197087103448156
0.000475773116034236
0.0013448919277692
0.00196716650981029
0.00246674482911751
0.000466170375190605
0.00133155513843352
0.00195394815739591
0.00245905176035355
0.00288655498611898
0.000451766075326838
0.00130477642775407
0.0019274128787271
0.00243656240725238
0.0028732229079911
0.00324888497614682
0.000434465483005617
0.00126567217845422
0.0018849684620732
0.00239673100212063
0.00284072025559399
0.00322824585921504
0.00356183874558127
0.00041471946058827
0.00121684509713817
0.00182704554563738
0.00233845842111296
0.00278714082878914
0.00318457191961414
0.0035327886730127
0.00382953863683214
0.00115910191739073
0.00175496839467589
0.00226225103294125
0.00271243940324319
0.00311657252641015
0.0034771966735067
0.00379090839416698
0.00405398218156848
0.000475872796397057
0.000477431546855933
0.00135002874064055
0.000479455024960984
0.00135020281833958
0.00197340341406017
0.000476591156211607
0.00134729729273105
0.0019707307372504
0.00247125872785773
0.000467326197137027
0.00133495458729748
0.00195895936671089
0.0024653400965371
0.00289391539794743
0.000453348780941932
0.00130945822816183
0.00193433165578736
0.00244523141805847
0.00288331604356693
0.00326016825538546
0.000436581784843062
0.00127194811229262
0.00189427361881795
0.00240841539735725
0.00285433924182639
0.00324345226159174
0.00357834996988824
0.000417580720642546
0.00122511807926238
0.00183927464329134
0.00235381128953568
0.00280506208793537
0.00320465193160234
0.00355467708827246
0.00385288421258214
0.000395834266074477
0.00117016031324058
0.00177089491641169
0.00228209389990937
0.00273554744026446
0.00314246604722826
0.00350555698755765
0.00382147790338382
0.00408638431947365
0.0016893369504711
0.00219396337251572
0.00264676906982956
0.00305764863606345
0.0034302286842499
0.00376159611647511
0.00404591033206729
0.00427989071575357
0.000476110564174243
0.000477727222288108
0.00135091418534751
0.000479863158216403
0.00135140416089089
0.00197521514525118
0.000477168737544184
0.0013489985926667
0.00197326060195757
0.00247447693929172
0.000468142782857101
0.00133737463293113
0.00196253914328473
0.00246984503357137
0.0028992085038078
0.00045448350748926
0.00131283748875682
0.00193934333942393
0.00245152220224259
0.00289065243660268
0.00326839307461144
0.00043811867092078
0.00127654452169695
0.00190112414858415
0.00241703984268857
0.00286439735316831
0.00325468368164143
0.00359056234389198
0.000419626584738923
0.00123123016892361
0.00184840227611454
0.00236533479127521
0.00281854230843397
0.00321974207095033
0.00357108524870697
0.00387036414013391
0.000398609847784964
0.00117820210283748
0.00178283284385382
0.00229714147864054
0.00275316225096324
0.00316223891308783
0.00352716040334197
0.00384460358910888
0.00411071476793875
0.000374414855352625
0.00111720310423958
0.00170510067624898
0.00221341530378645
0.00266941437609609
0.00308304294894556
0.00345801001378238
0.0037915069180188
0.00407772937508246
0.00431327372709584
0.00211376461351747
0.00256772768593055
0.00298347488085449
0.00336487831067551
0.0037105873566187
0.00401480326397762
0.00427149522390946
0.00447841125587241
0.000476324767163412
0.000477966307714958
0.0013516124757888
0.00048016271751031
0.00135228927710598
0.00197655027781834
0.000477577928463413
0.00135021263244319
0.00197507057877661
0.00247678757162962
0.000468716028285581
0.00133908956376222
0.00196508441100721
0.00247305738688619
0.00290299748606716
0.00045528511121401
0.0013152481129982
0.00194293330066169
0.00245603809277578
0.00289593001604835
0.00327432876980022
0.00043921995189897
0.00127986537909429
0.00190609885383645
0.00242331805229767
0.00287172630083702
0.00326287582423556
0.00359949011250528
0.000421105262658691
0.00123570040442978
0.00185512800845524
0.00237386254647112
0.00282853460207629
0.00323092470930958
0.0035832376989313
0.00388332169717164
0.000400577895754336
0.00118410573749964
0.00179172018893656
0.00230843892732979
0.00276644411979666
0.00317716383239015
0.00354343825786468
0.00386197412595826
0.00412896104205171
0.000377082354801855
0.00112486804296902
0.00171667093768451
0.00222809758045078
0.00268667228549963
0.00310246974535328
0.00347927926873954
0.0038143333530528
0.00410183238029925
0.00433836667952083
0.000350221576732082
0.00105710957017899
0.00162977043856979
0.00213299610135598
0.00258992890806992
0.00300836302408605
0.00339212670315532
0.00373989392378461
0.00404594417589302
0.0043042794763713
0.00451252537373557
0.00247540829246188
0.00289513306775625
0.00328351082605636
0.0036401505327705
0.00396084128696492
0.00423916368715943
0.00446978496502644
0.00465145070330992
0.000476541113866976
0.000478181913143812
0.00135222081610169
0.000480404013968847
0.0013529870377605
0.00197759564814675
0.000477880613753902
0.00135110689642498
0.00197640427278388
0.00247849219507301
0.000469121423595545
0.00134031421673851
0.00196690766411419
0.00247536394927584
0.00290572705549718
0.000455846161430622
0.00131695779665017
0.00194549172957124
0.00245926384039977
0.00289970848414776
0.00327859282416923
0.000439995918401419
0.00128223550740649
0.00190967055710838
0.00242783749817194
0.00287700912325344
0.00326878990607605
0.00360595285240166
0.000422161819195315
0.00123892738848773
0.00186001794781602
0.00238008625712689
0.00283583853403745
0.00323910112843308
0.00359212741908228
0.00389281748014871
0.000401985253396182
0.00118841050636097
0.00179826357446595
0.00231680704342694
0.00277631475395941
0.00318826470035779
0.00355553432100123
0.00387486826605891
0.00414251186195841
0.00037895568810603
0.00113049539660378
0.00172523820105884
0.00223909320012012
0.00269968748305262
0.00311716853959283
0.00349537654033018
0.00383156822997784
0.00411996654247496
0.0043572100790877
0.000352733554425612
0.00106442566964309
0.00164074792402799
0.00214720450804974
0.00260676250032978
0.00302739480636636
0.00341302541761932
0.00376237354763238
0.00406974291631298
0.00432914088402804
0.00453819134274472
0.000323108349586219
0.000989462401630121
0.00154398320448068
0.00204080123373888
0.00249735040930238
0.00291954071717753
0.00331022648550114
0.00366890784679213
0.00399136828097869
0.00427126158689186
0.00450329105550529
0.00468608011939507
0.00279251956858636
0.00318721991583939
0.00355283857454868
0.00388642430339531
0.00418300936687143
0.00443656393015875
0.0046426246631798
0.00480080980941608
0.00047677842965988
0.000478400107648481
0.00135281190485226
0.000480620883996418
0.00135359490457859
0.00197849271444309
0.000478122268331325
0.00135181055713059
0.00197744834564733
0.00247982228236645
0.000469419755153786
0.0013412156205107
0.0019682517237344
0.00247706555688416
0.0029077439532957
0.000456240904927772
0.00131817753789113
0.00194732741563214
0.00246158313121605
0.00290243068609131
0.0032816739890035
0.00044053648147271
0.00128391458373221
0.00191222078983788
0.0024310736817738
0.00288079780145917
0.00327303898033682
0.003610609572376
0.000422903377393469
0.00124122692449843
0.00186353303795571
0.00238457742415259
0.00284111804916967
0.0032450155640437
0.0035985647620127
0.00389970975596706
0.000402986642201202
0.00119151009545934
0.00180302083278868
0.00232292243880223
0.00278354839323915
0.0031964068055698
0.0035644042925742
0.00388432390949111
0.00415246351780248
0.000380286339485474
0.00113459521554729
0.00173153805203759
0.00224723325966103
0.00270936895294845
0.00312812930482045
0.00350738243716843
0.00384440449240077
0.00413345296555964
0.00437122698007861
0.000354491254337995
0.00106975135170173
0.00164889529525309
0.00215779548642856
0.00261942598186661
0.00304179650663868
0.00342887993691021
0.00377942244543165
0.0040877418366739
0.00434787126802581
0.00455748759297423
0.000325427250805551
0.000996325273975466
0.00155444867244482
0.00205423827613524
0.00251362620941772
0.00293810423598608
0.00333070592715917
0.003691005863261
0.00401481801125123
0.00429581946227639
0.00452872365169843
0.00471215522162357
0.000293013337379614
0.000913878501421553
0.00144746135527044
0.00193575212048924
0.00239147785154342
0.002816645230247
0.00321343406458572
0.00358105170809105
0.00391639945412124
0.00421449469251803
0.00446938341340982
0.00467664210181672
0.0048357675492722
0.00307581089774363
0.00344981970163181
0.00379424643260049
0.00410546130324632
0.00437874201371828
0.00460872773134465
0.00479180025671947
0.00492834403527055
0.000477049763254839
0.00047864000106676
0.0013534396500449
0.000480840152519171
0.00135418580835894
0.00197934752254916
0.000478337442826618
0.00135242191569487
0.00197834421826348
0.00248095344379577
0.000469656373772018
0.00134192210146597
0.00196930309300434
0.00247839324452578
0.00290931505593511
0.000456529108623331
0.0013190723100767
0.00194868127982368
0.00246329528047417
0.00290444222906804
0.00328395469265857
0.000440914087953336
0.00128510921149568
0.00191405272456907
0.00243340490890403
0.00288353108825583
0.00327610964573149
0.00361398390202358
0.000423416076147655
0.00124285184135664
0.00186604503744482
0.00238780040276219
0.00284491375473962
0.00324927204152357
0.00360320405625406
0.00390468951608646
0.000403686474424424
0.00119371372001288
0.00180644089898889
0.00232734201696761
0.00278879023369965
0.00320231285721335
0.00357084001457361
0.003891189453762
0.0041597036265045
0.000381228765249818
0.00113754140445326
0.00173611612520956
0.00225318395489641
0.00271647411231753
0.00313618953377953
0.0035162139028462
0.00385384064127323
0.00414336422409265
0.00438154041248793
0.000355733659106412
0.00107361661373102
0.00165489074962865
0.00216563132255024
0.00262884207130262
0.00305254588521329
0.00344073517091081
0.00379216705807634
0.00410117271174024
0.00436182387443856
0.00457186188790381
0.000327045161954303
0.00100129866028173
0.00156215397707486
0.00206429948025361
0.0025258176642128
0.00295211621111442
0.00334624362426002
0.00370780523399982
0.00403263253090287
0.00431441819299587
0.00454790696350493
0.00473177917759774
0.000295109115826168
0.000920190442038022
0.00145728235315514
0.00194854913517275
0.002406839597828
0.00283458687449199
0.00323341541766183
0.00360271851475312
0.00393946676376057
0.00423870830483163
0.00449451685524105
0.00470248374009116
0.00486210856279996
0.000259949061993411
0.000830100073547542
0.00133980426089138
0.00181768644509111
0.00227101834029639
0.00269933983163511
0.00310173312841787
0.00347752373192505
0.00382367828375744
0.00413640236746005
0.00441095807961277
0.00464206435367364
0.00482614612257915
0.00496346708150902
0.00333088606397277
0.00368557200831345
0.00400930964498886
0.00429871536431295
0.00454962152115892
0.0047573869661843
0.00491916757327574
0.00503601650980181
0.000477362845243935
0.000478914328995281
0.00135414344791562
0.000481081351792837
0.00135481382735556
0.00198023893194169
0.000478554277924971
0.00135301486013829
0.00197919793725125
0.00248201760087927
0.000469866058348517
0.00134253320095751
0.00197020338664261
0.00247952236147024
0.00291064327242431
0.00045675530498117
0.00131977195180583
0.00194973895610416
0.00246463065789357
0.00290600924540758
0.00328572992289333
0.000441187544312573
0.00128598357166196
0.00191540378974331
0.0024351274318893
0.00288555239807035
0.00327838275639418
0.00361648601538884
0.00042377187424358
0.00124400511121273
0.00186784983819686
0.00239012596609805
0.00284765762075612
0.00325235229710464
0.00360656614146002
0.00390830711490461
0.000404167488573792
0.00119526668060619
0.00180888439404473
0.00233051793234765
0.00279256760740612
0.00320657390892557
0.00357548600865769
0.00389615108819944
0.0041649481043147
0.000381885397577866
0.00113962946942355
0.00173940516475767
0.00225748702569213
0.00272163133170649
0.00314205112393646
0.00352263957910809
0.00386070559224349
0.00415057778055135
0.00438905990655974
0.000356609539491711
0.00107638516562342
0.00165924597074382
0.00217136053390561
0.00263575625044173
0.00306046247910199
0.00344947859829296
0.00380156526308641
0.00411106732137228
0.00437209732701581
0.0045824563264156
0.000328183580619901
0.00100489474039526
0.00156780530622127
0.00207175649132449
0.00253488126819393
0.00296257160506382
0.00335787308819307
0.00372039564595626
0.00404597494091137
0.00432831940571425
0.00456221752854691
0.00474641621163417
0.000296570346157646
0.000924751032898078
0.00146448004267282
0.00195806317825486
0.00241841420521085
0.00284807465816843
0.00324853668135691
0.00361919088223359
0.0039570323861209
0.00425712855374387
0.00451357380105712
0.0047219955345297
0.00488195055987387
0.000261800265829349
0.000835778567956695
0.00134884647064985
0.00182970484691594
0.00228564270777279
0.0027162550077985
0.0031210457131105
0.00349867509379069
0.00384631245324571
0.00416024015846586
0.00443575665461076
0.0046676137908876
0.00485225526879513
0.00498994944204425
0.000223811578857563
0.000737934971322233
0.00122070628711956
0.00168627103166948
0.00213585584715266
0.0025661187699127
0.00297469830022453
0.00335829909528314
0.00371449820022576
0.00403971782405115
0.00433040219439437
0.00458236962094402
0.00479106250355879
0.00495368266296199
0.00507116452665022
0.00356021610025796
0.00389590391335345
0.00419932437955565
0.00446763316037164
0.00469729852501989
0.00488437079575084
0.00502669229438464
0.00512588066381121
0.000477721479738678
0.000479229722064292
0.00135495172578784
0.000481356799167679
0.00135551831372708
0.00198122531597712
0.000478793130202727
0.00135364405016163
0.00198008833988998
0.00248311318441857
0.000470076561065741
0.00134312406215563
0.00197105897542823
0.00248058465459662
0.00291188132979561
0.000456955512038745
0.00132037503340623
0.00195064175041067
0.00246576441018212
0.00290733414691011
0.00328722448523094
0.000441401112554147
0.0012866651410411
0.00191645736682011
0.00243646996156101
0.00288712672560208
0.00328015226772174
0.00361843291725611
0.000424028385479477
0.00124484639112783
0.00186917960084517
0.00239184540117643
0.00284968904371506
0.00325463443251572
0.00360905944664544
0.00391099410734056
0.000404500452647545
0.00119636407016934
0.00181063822994396
0.00233281158372384
0.00279530336919973
0.00320966385839104
0.00357885763471589
0.00389975601493807
0.00416876678414672
0.000382335183158509
0.00114109395308492
0.00174175205078816
0.00226058060576771
0.00272535369484377
0.00314629026230374
0.00352728998570446
0.00386567529363822
0.00415580418129765
0.00439451906620519
0.000357216356999305
0.0010783386647876
0.00166237067860389
0.00217550370594662
0.00264077920744454
0.00306622972679334
0.00345585667463536
0.00380842174624746
0.00411828310295227
0.00437959070946487
0.00459019591701593
0.000328981923541549
0.00100745804328831
0.00157190084412683
0.002077211092106
0.0025415403391617
0.00297027709568067
0.00336646325754996
0.00372970453017254
0.00405583527672365
0.00433858009868869
0.00457277264065457
0.00475722091854041
0.000297593226843667
0.000928038057742855
0.00146974014836624
0.00196509659066003
0.00242704084455799
0.00285814026803708
0.00325985195263026
0.00363154817814858
0.00397022224819715
0.00427094717191521
0.00452783788376559
0.00473656970601389
0.00489676691112504
0.000263090448845892
0.000839884354213032
0.00135545909863758
0.00183860169511522
0.00229658983047629
0.00272905806481654
0.00313560405617386
0.00351471438553415
0.00386354863849581
0.00417841735768953
0.00445464371816446
0.00468700555604297
0.00487198648248713
0.00500991287405821
0.000225401688438348
0.000742926333627547
0.0012288606134363
0.00169735765985939
0.00214960426146463
0.00258222396899717
0.0029928971573244
0.00337874969740551
0.00373661008829429
0.00406312831903179
0.00435483688430886
0.00460759686251845
0.00481688840836109
0.00497993567040362
0.0050976789147624
0.000184359392464541
0.00063708532319394
0.00108994052952891
0.00154124022659777
0.00198570139681606
0.0024168685493118
0.00283063877025465
0.00322290620706582
0.00358886078314312
0.00392581850959977
0.0042304959293073
0.00449987252950229
0.00473040475255394
0.00491822985812284
0.00506123890547792
0.00516093333343362
0.00376508762454164
0.00408197813979532
0.00436561335521282
0.00461377123838779
0.00482354982663298
0.00499162532467065
0.00511642871258834
0.00520002752244209
0.00047813487578782
0.000479587514141864
0.0013558858482619
0.000481672148860186
0.00135632734685783
0.00198235028095712
0.000479065616912209
0.00135434899017181
0.00198107370117867
0.00248431349281885
0.000470307983321448
0.00134374999880261
0.00197194890988078
0.0024816783887232
0.00291314352044933
0.000457156045802792
0.00132095585521527
0.00195149602810436
0.00246682829299807
0.00290856930809052
0.00328860752951954
0.000441588657266489
0.00128725021224704
0.00191735343801058
0.00243760679192127
0.00288845595690255
0.00328164220296435
0.00362006656104533
0.000424227680249331
0.00124549952847895
0.00187021420214337
0.00239318418144721
0.00285127070074884
0.00325641088099706
0.00361099978332554
0.00391308453850518
0.000404739266914143
0.00119716245630153
0.00181192798486759
0.00233450738212065
0.00279733080645935
0.00321195607323091
0.00358136023976316
0.00390243397011455
0.00417160751101762
0.000382642498786586
0.00114212706577546
0.00174343288742316
0.00226281471493562
0.002728053021539
0.00314937055530823
0.00353067195136476
0.00386929118327533
0.00415961042984008
0.00439850271541015
0.000357627490591425
0.00107970592174047
0.00166459495064484
0.00217848132344111
0.00264440768796038
0.00307040802448847
0.00346048400527824
0.00381339788065833
0.00412352005068845
0.00438503237224509
0.00459582655429383
0.000329529752274012
0.00100926225579555
0.0015748303562832
0.00208115406220713
0.00254638039597668
0.0029758965509393
0.00337274106225581
0.00373651359548302
0.00406304621115709
0.00434607906844825
0.00458048668230695
0.00476512816054592
0.000298304714980157
0.000930377633413415
0.00147353921870115
0.00197023344052026
0.002433385176877
0.00286556478285614
0.00326821688967355
0.00364069917603297
0.00397999552305934
0.00428117888650541
0.0045383844019415
0.00474733587922182
0.004907719145051
0.00026398853412222
0.000842837408659427
0.00136027853387568
0.00184515908193899
0.00230473246638235
0.00273864181882853
0.00314650193883107
0.003526744797856
0.00387650373416536
0.00419208863063735
0.00446883256265005
0.00470153849911355
0.00488674112509118
0.00502483463352511
0.000226517826331568
0.000746534214763405
0.00123481762988151
0.00170554774870052
0.00215985370982786
0.00259433872813444
0.0030067190802354
0.00339419909285263
0.00375340513205468
0.00408097967161427
0.00437349041843847
0.00462682911682214
0.00483650670511495
0.00499979036439534
0.0051176791910727
0.000185672475888843
0.000641339156535609
0.00109711487799888
0.00155126491034172
0.00199841043013908
0.00243202751846451
0.00284797453246248
0.00324217740300387
0.00361025269919081
0.00394870845706759
0.00425451511209469
0.00452475172100854
0.00475592355686383
0.00494421006213594
0.00508752776965921
0.00518738566265219
0.000143186174676378
0.000527351987700207
0.000947355392365414
0.001382413186895
0.00182032872866824
0.00225130280350511
0.00266941964306905
0.00306950117446879
0.00344627213278029
0.00379473649668632
0.00411267472610146
0.00439736041105563
0.00464639327868192
0.00485686205819803
0.0050255330205322
0.00515088867227901
0.00523488341152464
0.00394654032301582
0.00424500347268414
0.00450963546218001
0.00473883577245275
0.00493027992569097
0.00508118557888365
0.00519046697336336
0.00526052197963668
0.000478646836118842
0.000479989852600577
0.00135697081642091
0.000482026805951003
0.00135726132771307
0.00198364851390167
0.000479376462115872
0.00135515728229321
0.00198219736845807
0.00248567375123391
0.00047057245442544
0.00134445079802026
0.00197293153966077
0.00248287667086762
0.00291451519892124
0.000457376272323203
0.00132156953331421
0.00195238096517762
0.00246792060229354
0.00290982870174154
0.00329000629100046
0.000441776122350315
0.00128781161426013
0.0019181975488632
0.00243866927902084
0.00288969225586676
0.00328302143858363
0.00362156975685214
0.000424402173794719
0.00124605771553162
0.00187109095697347
0.00239431457544675
0.00285260319492101
0.0032579048716188
0.00361262825664268
0.00391483365972008
0.000404922009120628
0.00119777883233792
0.00181292837125102
0.0023358259747484
0.00279890858681767
0.00321374018110409
0.00358330791370363
0.00390451773037968
0.00417381728527061
0.000382857397653817
0.00114287405505752
0.00174466504855753
0.00226446513058381
0.00273005447548456
0.00315165842079592
0.00353318565205016
0.0038719797879724
0.00416244239824449
0.00440147017075695
0.000357904249654139
0.00108066314765505
0.0016661819980926
0.00218062962199756
0.00264704026647936
0.00307344868966034
0.00346385636256775
0.00381702623602083
0.00412733944568562
0.00438900401298941
0.00459994336492704
0.00032989540793275
0.00101051663552391
0.00157690767463141
0.00208398447327333
0.002549877495488
0.00297997224327745
0.0033773042702718
0.00374146771456881
0.00406829291495899
0.00435153413937408
0.00458610045644218
0.00477089221907923
0.00029878671200135
0.00093201329346484
0.00147624692697499
0.0019739403496334
0.00243799724531548
0.00287098371578476
0.0032743375411337
0.00364740548515119
0.00398716157681855
0.00428867757312616
0.00454610742445009
0.00475521834642139
0.00491574765921875
0.000264608259046001
0.000844926333651329
0.00136374846831274
0.00184993599648085
0.00231071501905256
0.00274572081987016
0.00315456689055182
0.00353566181805375
0.00388611851175564
0.00420223787574814
0.00447935616010741
0.0047123002603057
0.00489765576935904
0.00503587844962511
0.000227291320764257
0.000749121484090065
0.00123914989581433
0.00171156969482637
0.00216745744526535
0.00260339267378219
0.00301710130459775
0.0034057930197752
0.003766027075084
0.00409441893261612
0.00438753953981787
0.00464129505611628
0.0048512255897855
0.0050146518553013
0.0051326408863798
0.00018663125332995
0.000644422666299518
0.00110235268045024
0.00155866222260054
0.00200786690280479
0.00244338535197891
0.00286106288555053
0.00325685254178291
0.00362644105889476
0.00396611768932523
0.00427285102093651
0.00454376261751487
0.00477539397483984
0.00496395956508779
0.00510742168382331
0.00520734863649101
0.00014468778301216
0.000530850195251758
0.000953484290799971
0.00139126887941974
0.00183185585244884
0.00226534531325523
0.00268575905444985
0.00308787205142493
0.00346643772370147
0.00381689800654394
0.00413618194151506
0.0044218404054385
0.00467158275763433
0.00488255204608088
0.0050515607475479
0.00517711989550167
0.00526119272345106
8.03457660963222e-05
0.000409667738357121
0.000793410572996171
0.00120973073572726
0.00163955783672432
0.00206917907334298
0.00249071840622898
0.00289791259444104
0.00328476188402395
0.00364596274172921
0.00397699140243173
0.00427629905586675
0.00454179210691062
0.00477169129772483
0.00496366560325404
0.00511502570480328
0.00522474015358594
0.00529509663138021
0.00410567589381864
0.00438634244302015
0.00463301689787608
0.00484467244625472
0.00501948578463328
0.00515512210566134
0.0052508702536107
0.00530934268534134
0.000480503143080961
0.00135825254624517
0.000482418305293679
0.00135834345155306
0.00198515825758387
0.000479722607240286
0.00135608783741522
0.00198349345126796
0.00248723808361174
0.000470873672083342
0.00134525310326703
0.00197404997776298
0.0024842344386866
0.0029160606644567
0.000457629068948069
0.00132225597268087
0.00195335475882171
0.00246911440153188
0.00291119737063199
0.00329151597832565
0.0004419819931054
0.00128840358976005
0.00191906828049874
0.00243975549564106
0.00289094943445968
0.00328441659613756
0.00362307947164926
0.000424575790063282
0.00124659135934249
0.00187191351570025
0.00239536664513954
0.00285383799160875
0.00325928494452373
0.00361412700455653
0.00391643483092506
0.000405079652885806
0.00119830344117715
0.00181377281201366
0.00233693621020794
0.00280023473007898
0.00321523780080616
0.00358494082730563
0.00390626169041981
0.00417566158714549
0.000383018986883218
0.00114344623124579
0.00174561660857584
0.00226574603293399
0.00273161093730308
0.00315343889288936
0.00353514209366205
0.00387407209005771
0.00416464576473703
0.00440377829220486
0.000358093131460353
0.00108134805827099
0.00166733930335432
0.00218221383664266
0.00264899197809837
0.00307570906757838
0.00346636643603634
0.00381972798212064
0.00413018394607272
0.00439196325920582
0.00460301434040919
0.000330136355004175
0.00101138655529678
0.00157838277009728
0.00208602244235159
0.00255241413859266
0.00298294080645287
0.00338063550657757
0.00374508799269048
0.00407212774151384
0.00435552128153272
0.00459020586544139
0.00477511422352673
0.000299102320284353
0.00093313952469163
0.00147815827281843
0.00197659494845675
0.00244132808776613
0.0028749162729939
0.00327879226873616
0.00365229452773072
0.00399238885591681
0.00429414626227051
0.00455173737311202
0.00476096594911717
0.00492161021510539
0.000265021716216192
0.00084637454421473
0.00136621065774895
0.00185337338733073
0.00231505956976929
0.00275089052650579
0.003160474182836
0.00354220536737296
0.00389318207107418
0.00420969569400476
0.00448708379081558
0.00472019497853429
0.00490566006643061
0.00504398577313007
0.000227818869911251
0.000750940368702899
0.00124225524079963
0.00171594355715449
0.00217303279705515
0.00261007650573543
0.00302479773779293
0.00341439706444582
0.003775403726004
0.00410441214489624
0.00439798677602789
0.00465204030930821
0.00486213994798347
0.00502565909355297
0.00514372608710276
0.000187305202007463
0.000646627696024739
0.00110615370146479
0.00156409073301298
0.00201486793265924
0.00245185363472491
0.00287088107682042
0.00326790648730692
0.00363861481105349
0.00397922284927838
0.00428667425976399
0.00455809815697677
0.0047900546667628
0.00497879093480135
0.00512232479210621
0.00522229241917355
0.00014578672405708
0.000533406835948806
0.000957964535781746
0.00139780101415615
0.00184042510446931
0.00227584758930026
0.00269804715077056
0.00310178114896805
0.00348182597335574
0.00383369244284808
0.00415408050248251
0.00444054545841914
0.0046908459399315
0.00490216621967563
0.0050713576065408
0.00519697927399685
0.00528105404974052
8.14457747399755e-05
0.000412499081596863
0.000798454959908296
0.00121733109789091
0.00164978219569742
0.00208195332304469
0.00250588588152453
0.00291525268783298
0.00330400311572283
0.00366686724309682
0.00399977062436208
0.00430028107119618
0.00456660212400197
0.00479707280204737
0.00498942129321811
0.00514100820266339
0.00525083338341493
0.00532119441443939
2.63853796000222e-05
0.000283576716122698
0.000630034120921158
0.00102372357626965
0.00144320583532253
0.0018702295015741
0.00229421872633553
0.0027077521264505
0.00310411159447345
0.00347742070700382
0.00382292028556489
0.00413674923857493
0.00441807468721271
0.00466543680227826
0.00487763093479212
0.00505283021028542