/*--------------------------------*- C++ -*----------------------------------*\
  =========                 |
  \\      /  F ield         | OpenFOAM: The Open Source CFD Toolbox
   \\    /   O peration     | Website:  https://openfoam.org
    \\  /    A nd           | Version:  12
     \\/     M anipulation  |
\*---------------------------------------------------------------------------*/
/*   Windows 32 and 64 bit porting by blueCAPE: http://www.bluecape.com.pt   *\
|  Based on Windows porting (2.0.x v4) by Symscape: http://www.symscape.com   |
\*---------------------------------------------------------------------------*/
FoamFile
{
    format      ascii;
    class       volScalarField;
    location    "100";
    object      nut;
}
// * * * * * * * * * * * * * * * * * * * * * * * * * * * * * * * * * * * * * //

dimensions      [0 2 -1 0 0 0 0];

internalField   nonuniform List<scalar> 
10152
(
0.000105958072214189
0.000106480271527516
0.000108066954732836
0.000878284297359522
0.000106848260738247
0.000108595399576525
0.000882490397455945
0.000110572697023921
0.000891767750141683
0.00206505885470508
0.000107114207733571
0.00010896754388991
0.000885530001452927
0.000111109157198274
0.000895986410263453
0.00207512401675384
0.000112057673483116
0.00090855127218886
0.0020824717685336
0.00334217408980992
0.000107306257397085
0.000109237198633758
0.000887741206421545
0.000111486694889597
0.000899049597207348
0.0020824386973502
0.000112601561021499
0.000912813292936404
0.00209256050892333
0.00335906893709997
0.000111777894752838
0.000918954458236923
0.00210242501653646
0.00335533319054112
0.00455775460435979
0.000107443199837815
0.00010943279471238
0.00088934124909415
0.000111761778221951
0.000901283312487934
0.00208777380899729
0.000112983547505799
0.000915923472275856
0.00209990796027979
0.00337144105339413
0.000112323890265059
0.000923251770716882
0.00211256064874333
0.00337221053495308
0.00458168826545399
0.000110236967875672
0.0009176734068525
0.00211280636920147
0.00336580235820362
0.00456268712798622
0.00564906283335591
0.000107539989432292
0.000109572624657678
0.000890479268997957
0.000111962307612094
0.000902899155294425
0.00209163265543196
0.000113262471137801
0.00091820183949467
0.00210527554702558
0.0033805042009494
0.000112706470118953
0.000926399620178143
0.00211997777891665
0.00338459580690094
0.00459938092467518
0.000110781664337622
0.000921976860730874
0.00212297826850062
0.00338268969278892
0.00458655341903714
0.00567985842872235
0.000108200848835816
0.000906712567110458
0.00210582519225481
0.00336398582170672
0.00455849081160589
0.00564558767040506
0.00659985227811972
0.000107608382027919
0.00010967152770751
0.000891285679964863
0.000112106174631271
0.000904052731654719
0.00209440047426059
0.000113466695526311
0.000919854354375642
0.00210916276077083
0.00338708657887157
0.000112985859546354
0.000928713270593805
0.00212541503394249
0.00339367942367029
0.00461241436186077
0.00011116234611295
0.000925133560126306
0.00213045306848703
0.00339512826506773
0.00460422038987054
0.00570279291932742
0.000108747145649297
0.000910993516154401
0.00211599299792359
0.00338086584660137
0.00458230177683188
0.0056762653320894
0.0066370846777932
0.000105962320511586
0.000890535017817393
0.00208250837094371
0.00334316052752722
0.00453854834269911
0.00562689081057059
0.00659056840808806
0.00741568765967949
0.000107657257134768
0.000109741555088643
0.000891854755688247
0.000112207582175909
0.000904868772568414
0.00209636058634921
0.000113613964785916
0.000921037489985233
0.00211194715726064
0.00339181446687677
0.000113191378028614
0.000930397885969306
0.00212936247521919
0.00340027967677284
0.0046219198025213
0.000111439390614605
0.000927458407725712
0.00213595103048365
0.00340427598927233
0.00461724564419054
0.00571977788193885
0.000109125367728294
0.000914134690436835
0.00212348035478069
0.00339334385676403
0.00459997922604804
0.00569913121975787
0.0066649686051419
0.000106516480965879
0.000894790279995063
0.00209262031549809
0.00335998620074997
0.00456226745558167
0.00565744433227431
0.00662765161373073
0.00745878921269857
0.000871489132251785
0.00204760230889687
0.00330305027946434
0.00449841564612167
0.00558871057545193
0.0065610045168095
0.0074033760916445
0.00811047034500436
0.000107693750554769
0.000109792197942222
0.000892260931722162
0.000112280204320684
0.000905444779237741
0.00209774440516842
0.000113718084400223
0.000921875728196483
0.00211392057401937
0.00339517677115711
0.00011334004793326
0.000931608218711927
0.00213219439861049
0.00340502114739215
0.00462877280497945
0.000111643745807691
0.000929156422402024
0.0021399552040308
0.00341093673873101
0.00462674827392235
0.00573221728526813
0.000109398911542499
0.000916448736239255
0.00212900027175726
0.00340254832198488
0.00461304135997787
0.00571607416297533
0.00668571056194499
0.000106902606916986
0.000897907417835276
0.00210007151543503
0.00337244855702366
0.00457993332227007
0.00568027120852799
0.00665543616480797
0.00749120788558958
0.000104032134149511
0.000875747448010351
0.00205763989528815
0.00331974959554323
0.00452198414565034
0.00561907732165592
0.00659791575145178
0.00744632010858998
0.00815879729873963
0.00200398541312879
0.00324633996453122
0.00443730415822088
0.00552841318555141
0.00650809043825977
0.0073670112446504
0.00809670977828359
0.00869940112247403
0.000107723070873779
0.000109829231025089
0.000892561510877684
0.000112332555788283
0.000905855988745917
0.00209873067161735
0.000113792668834516
0.000922468414836352
0.00211531386081782
0.00339755708148065
0.000113445932147254
0.000932467944865221
0.00213420496732209
0.00340839312690498
0.00463366444317448
0.000111791735203607
0.000930379526400246
0.00214283563139385
0.00341572982095042
0.00463360007764037
0.00574122153520795
0.000109600028254731
0.000918140414227546
0.00213303058647058
0.0034092687403776
0.00462258821757709
0.00572848644510184
0.00670096343611607
0.000107173113356773
0.000900198653037716
0.00210556926584393
0.00338166178625536
0.00459302175212338
0.00569721652450776
0.00667611177485987
0.00751541155026136
0.00010442125289749
0.000878851125754548
0.00206502396181076
0.00333212643752985
0.00453957062489679
0.00564182984214025
0.00662562513307928
0.00747862454969337
0.00819527140426611
0.000101161908596805
0.000854036808221
0.00201397679361381
0.00326286336319319
0.00446062586949764
0.00555851063438637
0.00654473544966286
0.00740976435758351
0.00814488606985524
0.00875227119815072
0.00317448493704805
0.00435575082428552
0.00544504049554794
0.00642997997303967
0.00730344667164868
0.00805621899127994
0.0086847546674685
0.00919632727445278
0.000107749208167253
0.000109859262704753
0.000892800279819755
0.000112370723324768
0.000906160004252815
0.00209945661339518
0.00011384567399714
0.000922891741730772
0.00211630663879764
0.00339925357817959
0.000113520707187656
0.000933076470421582
0.0021356264761409
0.00341077989397944
0.00463713750725932
0.000111896984403146
0.000931249582218882
0.00214488537245071
0.00341914373361682
0.00463849064690441
0.00574767192428192
0.000109745667408123
0.000919359612010792
0.00213593623143172
0.00341411668388122
0.00462948277714275
0.0057374710976767
0.0067120448300496
0.00010736907082324
0.000901870091946155
0.00210958759297588
0.0033884039636586
0.00460261134555261
0.00570965036386879
0.00669131761178106
0.00753327120806129
0.000104689930774736
0.000881120598905883
0.00207046448826777
0.00334128500747466
0.00455262729700876
0.00565876021198775
0.00664627733385266
0.00750274860094237
0.00822258547008812
0.000101549227125177
0.000857067583231364
0.00202127615760507
0.00327509325723057
0.00447804002341661
0.00558110124735382
0.00657231696317083
0.00744197741469047
0.00818124176930893
0.00879228906959731
9.78151782435166e-05
0.000828877235202139
0.00196194407873203
0.00319085129066435
0.00437873471461163
0.00547473742855989
0.00646623841148116
0.00734587952366281
0.0081042076157326
0.00873748824694512
0.00925304289373164
0.00425328791911914
0.00533758702627984
0.00632558468328861
0.00721074341404363
0.00798498043092141
0.00864145197358443
0.00918089754721719
0.00961332632282099
0.000107775214445652
0.000109886043444975
0.000893010472436144
0.000112401491547223
0.000906401431068433
0.00210002663039155
0.000113885001536969
0.000923203876569928
0.00211703693915368
0.0034004954931378
0.000113573183546785
0.000933510196216291
0.00213663989039993
0.00341248047635454
0.00463961376277812
0.000111970075152706
0.000931863683551787
0.00214633668204987
0.00342156325905795
0.00464196235996947
0.00575226502155806
0.000109847675526383
0.000920225006136043
0.00213800710000385
0.0034175772357572
0.00463441075165074
0.00574390726927054
0.00672001065895184
0.00010750875690533
0.000903070785380051
0.00211248685691386
0.00339327809327371
0.00460955262445149
0.00571866331969107
0.00670236486339847
0.00754628971346288
0.00010488018508669
0.000882761616614461
0.00207443764241284
0.00334799525506309
0.00456221420789404
0.00567121085757457
0.00666148702860217
0.00752055062894569
0.00824279969525494
0.00010181380159699
0.000859292111568405
0.00202662988109441
0.00328413479380593
0.00449098205884092
0.00559794408802748
0.00659291830138249
0.00746606619496609
0.00820847075582133
0.00882233412191272
9.8194259137432e-05
0.000831836761517997
0.00196910783732592
0.00320288384674536
0.00439587892179868
0.00549704289514904
0.0064935752310346
0.00737792852901274
0.00814047075835664
0.00877738834503034
0.0092960792904088
9.39219416695248e-05
0.00079951698929857
0.00190038887539286
0.00310321579503649
0.00427589200456413
0.00536674054214041
0.00636127698453501
0.00725268681963621
0.00803261721886292
0.00869401397685243
0.00923749384181796
0.00967319398337233
0.00520392258921817
0.00619305137941276
0.0070876446404455
0.00788043949939784
0.00856434234443184
0.00913535883858175
0.0095971047135022
0.00996099879920991
0.00010780328809476
0.000109912748606318
0.000893216803451385
0.000112428820137162
0.00090661416802337
0.00210051945074335
0.000113915399488359
0.000923450700866934
0.00211761005375716
0.00340145700609776
0.000113610384101854
0.000933827965805002
0.00213738470287922
0.00341372480628169
0.00464141738834935
0.000112019812459654
0.000932296438949409
0.00214737117938125
0.00342328843222039
0.00464443701469695
0.00575554136693887
0.000109917208982171
0.000920829236481232
0.00213947333420904
0.00342003397922409
0.00463791313433259
0.00574848914556045
0.00672569691884791
0.000107606451163179
0.000903915113789715
0.00211455261579417
0.0033967636399804
0.00461452441397525
0.0057251281677614
0.00671030569947333
0.0075556773936658
0.000105015529511114
0.000883926712593009
0.00207730088047027
0.00335285191472656
0.00456916817417078
0.00568025519954963
0.00667255135739279
0.00753352695353488
0.00825757778356853
0.000101999229542605
0.000860896020331128
0.00203052864450657
0.00329075852936003
0.00450049736350194
0.00561035578072646
0.00660812170780304
0.00748386446424988
0.0082286225824293
0.00884462653730299
9.84522566464349e-05
0.000833999937000786
0.00197432892865481
0.0032117461689372
0.00440861465352887
0.00551369156742006
0.00651403200462319
0.0074019423094985
0.0081676631214
0.00880734621677163
0.00932846340889579
9.42879251820754e-05
0.000802378663188219
0.00190737057935425
0.00311499676766513
0.00429267137595389
0.00538862050590885
0.00638820590221584
0.00728441808044338
0.00806869524738074
0.00873382850069027
0.00928041485148284
0.00971872529899415
8.94213355424888e-05
0.000765222136207502
0.00182762309523437
0.00299804241776839
0.00415017601014903
0.00523241166255827
0.00622797235881388
0.00712886013669822
0.00792750186503329
0.00861653733871983
0.00919180666102305
0.00965687215216388
0.0100233509433167
0.00602912518943023
0.0069319339146083
0.00774109760835789
0.00845003379910882
0.00905347009714312
0.00954963615503717
0.00994399710259546
0.0102487899866884
0.000107834835214397
0.000109941659424373
0.000893437401847012
0.000112456067642718
0.000906823514838353
0.00210099360176345
0.000113941909680608
0.000923667592018256
0.00211810559331977
0.00340226883632581
0.000113639751920062
0.000934074714397529
0.00213796787275435
0.00341468771079428
0.0046427944614413
0.000112055908790964
0.000932606531731484
0.00214812953851827
0.00342455052894539
0.00464623886756298
0.00575791743524593
0.000109965310076542
0.000921247940799479
0.00214051567263161
0.00342178704107805
0.00464041171382738
0.00575175699396159
0.00672975587261687
0.000107673514085774
0.000904497912880046
0.00211601161403065
0.0033992408083187
0.00461806422907469
0.00572973563796065
0.00671597355053881
0.00756239458874479
0.000105109940521756
0.000884741555587954
0.00207933588172381
0.00335632749695706
0.00457415863779824
0.00568675561345296
0.00668051425095354
0.00754288363368825
0.00826826376016607
0.000102130357399308
0.000862029744445332
0.00203332913055921
0.00329555231316939
0.00450740885700804
0.00561939033121869
0.00661920358829356
0.00749685371523273
0.00824335482414445
0.00886096651671082
9.8631886282553e-05
0.000835556105793792
0.00197812361228252
0.00321822947908189
0.00441798148964022
0.00552597747652838
0.0065291585098546
0.00741971922726537
0.00818781103697427
0.00882957386372053
0.00935254593331063
9.45360300605514e-05
0.000804464664341357
0.0019124238522671
0.00312360819241738
0.00430510328188586
0.00540495055720831
0.00640838096734891
0.00730823655827732
0.00809579874708289
0.00876375374252721
0.0093127107727242
0.00975305590387333
8.97704066338997e-05
0.000767955133160437
0.00183433141333698
0.00300945092248529
0.00416649368104967
0.00525371977262002
0.00625430344171429
0.0071600627957177
0.00796320138292465
0.00865615628320602
0.00923465303664513
0.00970229133947312
0.0100708695587485
8.42541062497957e-05
0.000725154622469463
0.0017413794908471
0.00287228913938984
0.00399834879814624
0.00506832836522774
0.00606306569124264
0.00697214652176552
0.00778728374950875
0.00850158733293056
0.00910954802806862
0.00960928293384728
0.0100062689612628
0.0103130019149792
0.0067397132845607
0.00756458890718874
0.00829670731111829
0.00893096989564776
0.00946373238305968
0.00989485140115003
0.0102310601516534
0.0104851780116428
0.000107870480633886
0.000109974058983542
0.000893685012623722
0.000112485614045072
0.000907047973135184
0.00210149174478186
0.00011396879111612
0.000923881355870406
0.00211858283373059
0.00340302764702735
0.000113665677113839
0.000934290077471004
0.00213847089826208
0.00341550052590628
0.00464392910342225
0.000112084123592302
0.000932848341937782
0.00214872036189133
0.00342552586253204
0.00464761409208203
0.00575970902431083
0.000110000042619001
0.000921549847709334
0.00214127585157424
0.00342306861657951
0.00464223132702757
0.00575412635633007
0.00673268916885544
0.000107719652153309
0.000904903270947431
0.00211704441868337
0.00340100814335331
0.0046205925070281
0.00573302475929287
0.00672001881171099
0.00756719319549411
0.000105174228331895
0.000885304566145775
0.00208076798723438
0.00335879716588489
0.00457771712930883
0.00569139678601222
0.00668620439533788
0.00754957853707003
0.00827592822468548
0.000102221533838932
0.000862818177072994
0.0020353130907856
0.00329898104327608
0.0045123746742714
0.00562589641097117
0.00662719461285419
0.00750623079804994
0.00825400749992769
0.00887281204012593
9.87582386674751e-05
0.000836652090216825
0.00198084194325327
0.00322291637223487
0.00442478863257308
0.00553493382723794
0.00654020642418544
0.00743271761599325
0.00820255734098878
0.00884586601216832
0.0093702393344594
9.47077736894471e-05
0.00080596148526069
0.00191608471385637
0.00312989549107523
0.00431424104508068
0.00541700941608191
0.00642332114315453
0.00732590255379968
0.00811591719579588
0.00878598082759066
0.00933672684211441
0.0097786380641152
9.00069094598481e-05
0.000769944818462241
0.00183916891217997
0.00301774248225222
0.00417851516597889
0.00526959541069199
0.00627403500007124
0.00718351274634403
0.00799006701030578
0.0086859856856171
0.00926692253287772
0.00973653326309237
0.0101067649269581
8.45839269006124e-05
0.00072772927612241
0.00174773045955023
0.00288317474033544
0.00401403068366265
0.00508892036152486
0.00608859722306718
0.00700257626474358
0.00782234330678646
0.00854077921805578
0.00915219603143671
0.0096546408862981
0.0100536802900401
0.010362033057682
7.82498430853052e-05
0.000678025528174016
0.00163853425732368
0.00272161985779911
0.00381575198763811
0.00486982253992002
0.00586189745412842
0.00677862175257943
0.00760955153431161
0.00834725557342428
0.00898635700870836
0.00952301690387526
0.00995703430550036
0.0102952138688036
0.0105506874218378
0.00734666720417628
0.00810189840591059
0.00876566716049024
0.00933432409080624
0.00980556960242627
0.0101804960485722
0.0104667985110415
0.010677768938806
0.00010791025981237
0.000110010165990935
0.000893967971231029
0.000112518668849102
0.000907300292034177
0.00210204393879494
0.000113998743130604
0.000924111332790606
0.00211908488443878
0.00340380347113387
0.00011369190020422
0.000934504328150042
0.00213895462811866
0.00341626040820518
0.00464495683343106
0.000112109133426383
0.000933060589928418
0.00214922781025185
0.00342634730351861
0.0046487469606273
0.00576115224149497
0.000110026993428903
0.000921785325730286
0.00214186595423893
0.00342405649498366
0.00464361899420627
0.00575591245679081
0.00673487722508628
0.000107752728714267
0.000905195244894343
0.00211779540716532
0.0034022978303619
0.00462243398247271
0.00573541061704941
0.00672294178015916
0.00757065138122516
0.00010521828995149
0.000885694874413634
0.00208177867181897
0.00336055678240049
0.0045802606462946
0.00569471462520745
0.00669026957687079
0.00755436072618316
0.00828140793578049
0.000102283440091246
0.000863359674283017
0.002036704570602
0.0033014141221436
0.00451591803064801
0.00563054955409109
0.00663291528819278
0.00751294812194927
0.00826164746861415
0.00888132560272949
9.88454952021809e-05
0.000837410446514591
0.001982759194224
0.0032262634523272
0.00442968081492645
0.0055413926167047
0.00654818859897234
0.00744211904341387
0.0082132325478982
0.00885767664381188
0.00938309567327043
9.48278214600947e-05
0.000807010805757254
0.00191869699356959
0.00313443323644892
0.00432088017553528
0.00542580767037171
0.00643425011080287
0.00733884516032979
0.00813066885025224
0.00880229037843912
0.0093543708840006
0.00979747291590948
9.01694333280291e-05
0.000771367794506988
0.0018426598019404
0.00302377927786466
0.00418734002850159
0.00528131820255439
0.00628865996954065
0.00720093170944399
0.00801004576544723
0.00870817953715808
0.00929094252485519
0.00976204759946225
0.0101335626680468
8.48070393188922e-05
0.000729607072934057
0.00175230570300644
0.00289106074952741
0.00402553546089149
0.00510419576598792
0.00610770871956814
0.00702545510271187
0.00784875963783323
0.00857033624147389
0.0091843674028168
0.00968886379258606
0.0100894871648565
0.0103991328571119
7.85571536357295e-05
0.000680416948646504
0.00164445962891335
0.00273183284659786
0.00383059412132657
0.0048894668779842
0.00588643835971885
0.00680802016236595
0.00764367128022983
0.00838570987147688
0.00902854142986961
0.00956818019938391
0.0100044001930334
0.0103441431114343
0.0106007982300523
7.09634155415927e-05
0.000621166833129176
0.00151417846121416
0.002539840863071
0.0035959633723714
0.0046306821723578
0.00561857621951951
0.0065427436094763
0.00739001370257182
0.00815102399750028
0.00881994286060786
0.00939288608542401
0.00986740771946434
0.0102445964876148
0.0105322728671165
0.0107440863613216
0.0078611583578674
0.00855499062593376
0.00915883548146793
0.00967036584060016
0.0100884176790218
0.0104150771174748
0.0106588281944135
0.0108333496340218
0.000107955883035498
0.000110048903889712
0.000894291469763614
0.000112554976391602
0.000907588178983531
0.00210267014567652
0.000114032805989698
0.000924370519663631
0.00211964195789266
0.00340464504816282
0.000113721061842435
0.000934738181899986
0.00213946336664709
0.0034170376537416
0.00464597535844033
0.000112134287086052
0.000933272014383429
0.00214971504017204
0.00342711330480342
0.00464977312470701
0.0057624192024634
0.0001100505196796
0.000921991454793996
0.00214237105061309
0.0034248853011781
0.00464475997311162
0.00575735084327929
0.00673660409206996
0.000107778210811727
0.000905421681124646
0.00211837585942243
0.0034032887362818
0.00462383630144648
0.00573720850682686
0.00672512185330134
0.007573207821114
0.000105249698876956
0.000885974340506876
0.00208251020374515
0.00336183759192602
0.00458211230967144
0.0056971228199336
0.0066932088225144
0.00755780678992421
0.00828534845538388
0.000102325127970144
0.000863732948241339
0.00203768110932628
0.00330314363081811
0.00451845036541003
0.00563387991762388
0.00663700863245545
0.00751775135993792
0.00826710958103856
0.00888741832636723
9.89037818120373e-05
0.000837928375314178
0.00198409527717932
0.00322863285243666
0.00443317063325021
0.00554601702161557
0.00655391331195368
0.007448866176154
0.00822089738825586
0.00886616495987175
0.00939235330234829
9.49097577533099e-05
0.000807732176509295
0.00192052542111457
0.00313766540911315
0.00432564896252247
0.00543215691072174
0.00644215842762075
0.00734822458587114
0.00814136763226902
0.00881412690221535
0.00936719103724045
0.00981118706462945
9.02817464984667e-05
0.000772361215513169
0.00184513732543004
0.00302812449539611
0.00419374665753663
0.00528987368975996
0.00629936972720551
0.00721371397677655
0.00802472306739827
0.00872449327521667
0.00930860776783985
0.0097808317777506
0.0101533303485205
8.49590063582055e-05
0.000730945591326795
0.00175559839304259
0.00289678636581787
0.0040339645065453
0.00511546857044983
0.00612187921628502
0.00704246794204033
0.00786843428777596
0.00859236672843956
0.00920835310096802
0.00971438694773511
0.010116216199354
0.0104268767857799
7.87672042963944e-05
0.000682165366286687
0.00164872679999928
0.00273922115663581
0.00384145662438876
0.00490399582826738
0.0059047431999791
0.00683010938540897
0.00766939410796248
0.00841474611880404
0.00906041385253425
0.00960230663217912
0.0100401966937541
0.0103811558735447
0.0106387738687728
7.12379820718558e-05
0.000623353181258241
0.00151960230520687
0.00254924196622964
0.00360975437461725
0.00464912665341741
0.00564183268041763
0.00657087497578887
0.00742287989662623
0.00818838764230839
0.00886130856614809
0.00943756139806276
0.00991458894847023
0.0102934983619585
0.0105822892111877
0.0107948980989784
6.46115758459577e-05
0.00054926476353771
0.00135996235165059
0.00231782405824611
0.00333016470788093
0.00434279684215721
0.00532563150944761
0.00625771621244414
0.00712254180699002
0.00790838197603989
0.00860767292882944
0.0092162048808855
0.00973146719298212
0.0101522001395646
0.0104805372171335
0.0107251349663982
0.0109000662530567
0.00829435658982934
0.00893457504308781
0.00948629718841888
0.00994841217083029
0.0103207375925889
0.0106061956460194
0.0108139350321267
0.0109579276620135
0.000108018574862874
0.000110091485134115
0.000894664157287911
0.000112592364141887
0.000907915296433508
0.00210338303345198
0.000114070138129894
0.000924665476515352
0.0021202736293879
0.00340558362823524
0.000113754468320761
0.000935005506492268
0.00214002780342687
0.00341788109406857
0.00464705183503908
0.000112162055215589
0.000933503593568741
0.00215022758846191
0.00342789504901799
0.0046507902389118
0.00576363477197801
0.000110074096398539
0.00092219607525655
0.00214285460584486
0.00342565503159252
0.00464579082101453
0.00575861416562903
0.00673807795429191
0.000107800302076165
0.000905618478792555
0.00211887004607005
0.0034041163000952
0.00462498569822033
0.00573865436955293
0.00672684234172657
0.00757518982488486
0.000105273298655893
0.000886189001035987
0.00208307157803275
0.00336281752864946
0.00458351932765999
0.00569893632133845
0.00669540106310407
0.0075603541189832
0.00828823980266339
0.000102353619473039
0.000863997329002361
0.00203838160203368
0.00330439760007523
0.00452029134341879
0.00563629782355713
0.00663997112452685
0.00752121536190527
0.00827103734273458
0.00889179209225024
9.89422887733739e-05
0.000838280325080807
0.00198502148738198
0.00323031035796271
0.00443566174840845
0.0055493285270213
0.00655801555124457
0.00745369871639606
0.00822638329071697
0.00887223943205378
0.00939898473414817
9.49634779900146e-05
0.000808219322125664
0.00192178574828679
0.00313994408418748
0.00432904642435916
0.0054367043412751
0.00644783778963512
0.00735496858725529
0.00814906343401677
0.00882264350102257
0.0093764228944847
0.00982108106400777
9.03571832788104e-05
0.000773037636048425
0.00184686008132138
0.0030312068041699
0.00419834211897345
0.00529604802414383
0.00630712693111641
0.00722299212217723
0.00803538860817766
0.00873635409152983
0.00932145724072468
0.00979450895904653
0.0101677519417793
8.50631259176608e-05
0.000731871479468411
0.00175792509066764
0.00290089243475745
0.00404007362448777
0.00512369406574038
0.00613226266659093
0.00705496726318029
0.00788291184830919
0.00860859060305868
0.00922602276983583
0.00973319610263232
0.0101359322527814
0.0104473784186594
7.89096007397484e-05
0.000683406274743749
0.00165179021260106
0.00274457233631039
0.00384940012985206
0.00491470527368042
0.00591831401796009
0.0068465454591397
0.00768857459710036
0.00843642138874282
0.00908421751784183
0.00962779663111722
0.0100669399587586
0.0104088309354725
0.0106672162912138
7.14378911331624e-05
0.000624966898115953
0.0015235089832919
0.00255603747743648
0.00361983835665906
0.00466274453429925
0.0056591430757788
0.00659194738677047
0.00744764949011914
0.00821661904492608
0.00889260012423904
0.00947137040273336
0.00995029453720536
0.0103305109099808
0.0106201800874525
0.0108334585156368
6.52891724566559e-05
0.000551278906553992
0.00136481851597368
0.0023262795826908
0.00334270330159602
0.00435977628739782
0.00534730712660792
0.00628422228128074
0.00715387758156208
0.007944289651738
0.00864781839049
0.00925999846831918
0.00977814820106306
0.0102009334537719
0.0105305467839612
0.0107758605877115
0.0109512577740803
3.51316086005676e-05
0.000453798618252055
0.0011625938131128
0.0020421978854647
0.00300631035813135
0.00399563159198654
0.00497379876901986
0.00591517137514606
0.0067997374046599
0.00761281908009446
0.00834488688901723
0.00899021269124827
0.00954615030584587
0.0100114603214452
0.0103859148236765
0.0106725297537108
0.0108806657940669
0.0110247164371659
0.00865685941762659
0.00925055014520466
0.00975720227453969
0.0101768182955542
0.0105100748780961
0.0107606091746577
0.0109381202318321
0.0110567710387941
0.000110158136382984
0.000895108175691787
0.000112632414490262
0.000908291203161835
0.00210419622982537
0.000114106507971502
0.000924996739559606
0.00212099173113543
0.00340663794566552
0.000113791834943496
0.000935310836164225
0.00214066687153839
0.00341882174861688
0.00464822792932806
0.000112194018717512
0.000933770333545598
0.00215079708254721
0.00342874176491857
0.00465186533146757
0.00576488425047591
0.000110100073877366
0.000922420243877293
0.00214336292080296
0.00342643793136299
0.00464680969927838
0.00575982641097518
0.00673944721126501
0.00010782229653242
0.000905812878179389
0.00211934117166102
0.00340488119783288
0.00462601969792601
0.00573992153546604
0.00672831086700861
0.00757683785476703
0.000105293331473904
0.000886374287527994
0.00208354547304508
0.00336363144778863
0.0045846680175632
0.00570039132210667
0.00669712958925114
0.00756232921053057
0.00829044772864293
0.000102374537422015
0.000864197305904737
0.00203891252787105
0.00330535141488921
0.00452168597996346
0.00563811644682674
0.00664218053692037
0.00752377669760054
0.00827391924305725
0.00889498200840959
9.89677304662187e-05
0.000838524455220574
0.00198567461105481
0.00323151908180494
0.00443746817877332
0.00555173161729028
0.00656098676226568
0.00745718812512086
0.00823033177935868
0.00887660058644809
0.00940374072925876
9.49979994882506e-05
0.000808545389965372
0.00192264972709356
0.00314154670751963
0.00433146573433525
0.00543995959255462
0.00645191135281721
0.0073598068476903
0.0081545809808073
0.00882874498074129
0.00938303598043211
0.00982817546901118
9.0405481910581e-05
0.000773487398580247
0.00184803841024791
0.00303336613212204
0.00420160819008012
0.00530046805309667
0.00631270170126026
0.00722967329499971
0.00804307517103777
0.00874490362336498
0.00933072065141514
0.00980437612232387
0.0101781732607016
8.51317769467358e-05
0.000732493497593026
0.00175953184310518
0.00290378965978272
0.00404444510426728
0.00512962670601823
0.00613978680680111
0.00706405039304592
0.00789344963280602
0.00862040864760821
0.00923889782212988
0.00974690579350028
0.0101503156006085
0.010462361341891
7.90058582955872e-05
0.000684255911342359
0.00165393997541043
0.00274839128999958
0.00385514398309246
0.00492251278836754
0.00592826043231602
0.00685863134197904
0.00770270681680157
0.00845240974500019
0.00910178478266921
0.00964661149960487
0.0100866847967131
0.0104292802790926
0.0106882673497844
7.15777001903139e-05
0.000626106641325273
0.00152630464756997
0.0025609476420437
0.00362720092862677
0.00467277077185997
0.00567196951021964
0.00660762997012436
0.00746613403672514
0.00823771926121759
0.00891600499329402
0.00949666487689283
0.00997700804521585
0.0103582063920349
0.0106485542792281
0.0108623784920353
6.57850440973316e-05
0.000552793535882891
0.00136832632349086
0.00233239242621086
0.00335186938369507
0.00437230671961209
0.00536342102809674
0.0063040482841075
0.00717742783410502
0.00797141777968333
0.00867820874480252
0.00929317920459757
0.00981352613906985
0.0102378646174804
0.0105684490948583
0.0108143395987705
0.0109901539658229
3.56127865701921e-05
0.000456054274470443
0.00116685013566499
0.00204956235520285
0.00301739586347657
0.00401089348361723
0.00499358210877653
0.00593971486871024
0.00682912064069164
0.00764695734552068
0.00838340060100034
0.00903268064861087
0.00959190525297687
0.0100596929541872
0.0104357776070526
0.010723271091891
0.0109317806650771
0.0110760268053546
1.10784827778273e-05
0.000304993218997381
0.000905012300856605
0.00169595958914671
0.00260882780978489
0.00357587087572143
0.004551698612408
0.00550517989399218
0.00641265627793318
0.00725656775219936
0.00802482390175179
0.00871013623266388
0.00930856686589583