/*--------------------------------*- C++ -*----------------------------------*\
  =========                 |
  \\      /  F ield         | OpenFOAM: The Open Source CFD Toolbox
   \\    /   O peration     | Website:  https://openfoam.org
    \\  /    A nd           | Version:  12
     \\/     M anipulation  |
\*---------------------------------------------------------------------------*/
/*   Windows 32 and 64 bit porting by blueCAPE: http://www.bluecape.com.pt   *\
|  Based on Windows porting (2.0.x v4) by Symscape: http://www.symscape.com   |
\*---------------------------------------------------------------------------*/
FoamFile
{
    format      ascii;
    class       volScalarField;
    location    "100";
    object      omega;
}
// * * * * * * * * * * * * * * * * * * * * * * * * * * * * * * * * * * * * * //

dimensions      [0 0 -1 0 0 0 0];

internalField   nonuniform List<scalar> 
10152
(
4.35472651635962
4.37406913412305
4.28699539811745
1.49039910193336
4.38795596171328
4.3057631097461
1.4971924115002
4.21141722481967
1.46966096066122
0.927386284732308
4.39791734812196
4.3194167487419
1.50212209379632
4.22963427823315
1.47625069720546
0.931409072050116
4.13545857170784
1.44132168275869
0.919756255452252
0.718691383975374
4.40499899644337
4.32922276372285
1.50570814333161
4.24305777876469
1.48108572092325
0.93437948892611
4.15323416359862
1.44768397075307
0.923650338027441
0.72154617984237
4.07158088565102
1.41444329956031
0.907322952296758
0.715617074267085
0.618542239172744
4.40997076864253
4.33618971057943
1.50829504582439
4.25273150643178
1.4846162839512
0.936567151713628
4.16643386271154
1.4524047552716
0.926567898847462
0.723673942093491
4.08907688531672
1.42063864391321
0.91108310375949
0.718380797330969
0.620749625656464
4.01413281983048
1.39279411713317
0.89381863428078
0.709476864083909
0.617311435757022
0.563916204410114
4.41342847012955
4.34108318422793
1.51014863835003
4.25961331905504
1.48716924247384
0.938163968003988
4.17599582609005
1.45587143213945
0.928727105477716
0.725255253384604
4.10214039123066
1.42526436401203
0.913934982113195
0.720473671060005
0.622396304866545
4.03149217370788
1.39888623177362
0.897479373876672
0.712143329172251
0.619443082142926
0.565694557350608
3.95109615627933
1.37399950701316
0.881328153293166
0.70169852888112
0.613912485203155
0.56343368410408
0.531865943544635
4.41582628422736
4.34448558439517
1.51145993359276
4.26445332156634
1.48899639986163
0.939315384389494
4.18281878272742
1.45838757318615
0.930306028952052
0.726418331651573
4.11163698184125
1.42867960710899
0.91606028731514
0.722037741363421
0.623626129752811
4.0444699725593
1.40345006738808
0.900273461715891
0.714192214827316
0.621063010647489
0.567018221608032
3.96839152978447
1.38003360038394
0.884925883511966
0.704294436798813
0.615964401951321
0.565144152632729
0.53332809603087
3.87574786301938
1.35389749631976
0.86952774583936
0.69341956230895
0.608914202426804
0.561259325625105
0.531639291456221
0.512212789948269
4.41751518947075
4.34684494435409
1.51238476121084
4.26782721017888
1.49029090047517
0.940139328756327
4.18762884413674
1.46019238347264
0.931446841862206
0.727264080393208
4.11842653839553
1.43116741612787
0.917621203592771
0.72319102959419
0.624535930836432
4.05391731626746
1.40683012508734
0.902367540837615
0.715735861290496
0.622280712226394
0.568008940767737
3.98134267082032
1.38455764964942
0.887678785362661
0.706303605908717
0.617550670556946
0.566445258888458
0.534411931488077
3.89347692326711
1.359922122919
0.87308984439564
0.695972626492038
0.610911318971278
0.562899382225814
0.53303777550614
0.513426311915661
1.33002452296312
0.857084594528205
0.684897546672565
0.602976607015347
0.557655023342863
0.529979314081863
0.512051305680043
0.499845509461178
4.41875962110768
4.34850158576097
1.5130425334603
4.27016523403903
1.49120393567928
0.940726338822833
4.19098825596004
1.46147387497319
0.93226337898935
0.727873361072597
4.12322215896902
1.43295707410486
0.918752702843374
0.724030773913187
0.625201434564744
4.06067332891925
1.40929793583804
0.903912218416476
0.716879732858425
0.623184118275487
0.568744709619459
3.99073243679814
1.387909723693
0.889747945994593
0.707826948935818
0.618754313930556
0.567426553455258
0.535223584200037
3.90617902299439
1.36441469902985
0.875815242372984
0.697953208102611
0.612467887751916
0.564172345642772
0.534101297082312
0.514320824014738
3.80492305873106
1.336184668193
0.860643750379701
0.687429528712975
0.604944058217402
0.559249475909006
0.531312784160103
0.513203548552179
0.500856213219676
0.842988646226502
0.675826745345982
0.596481326376051
0.553078891435731
0.527071453107699
0.510600023748657
0.499698080190417
0.491975327439139
4.41976412584923
4.34972746170803
1.51352502755705
4.27180842498427
1.49185320589622
0.94114750976075
4.19331704257779
1.46237916764447
0.93284530419267
0.728310630240639
4.12657178619192
1.43423121437642
0.919564509189219
0.724636197061614
0.625683741100073
4.06544818954197
1.41107736305887
0.905035977100328
0.717715490026801
0.623845905595445
0.569285308808949
3.99743209830669
1.39035870975241
0.891278428280697
0.708961371704852
0.619652285331543
0.568157699740104
0.535827777322285
3.91540911331008
1.36773162764555
0.877863438690383
0.69945930160403
0.613657513625085
0.565143005729191
0.534904952034289
0.514990312140566
3.81732489052089
1.34061625263997
0.863347291278163
0.689392050904118
0.606480761828842
0.56049881006128
0.532351337797873
0.514078967805184
0.50159592832995
3.70114463582243
1.30814397398956
0.846633725699195
0.678365918951721
0.598439424016685
0.554652703167116
0.528365132613651
0.511690619977462
0.500649037949641
0.492817650349683
0.665860653124742
0.589502886991185
0.547925196018999
0.523310853965975
0.5080597591029
0.498348327959213
0.491838329056053
0.486978238401036
4.42067997775019
4.35071468665773
1.51390238818213
4.27302328670226
1.49232946804028
0.941458025475419
4.19495894482042
1.46302385360068
0.93326295092035
0.728626892541515
4.12890335074081
1.43513378186163
0.920144244773613
0.725070940887014
0.626032219558422
4.06878803430211
1.41234760059099
0.905844818383802
0.718319639103837
0.624325936278648
0.569679134949808
4.00216211056055
1.39212704405734
0.892395019002411
0.709793564976462
0.620312557380202
0.568695818887317
0.536273252584739
3.92203508356658
1.37015343502882
0.879379464797812
0.70058427859586
0.614549956474043
0.565870850823927
0.535505547161963
0.515489432136218
3.82632687585083
1.34386341548476
0.865371127633096
0.690883573884198
0.607658817495189
0.561459350346657
0.533146313322837
0.514741241026414
0.502148753220252
3.71329615672049
1.31246130990975
0.849300542741536
0.680315766743959
0.599966117196465
0.555888454240865
0.529383973450506
0.51254298965263
0.501370390456721
0.493428576469623
3.58044204407812
1.2753511922923
0.830691586083881
0.668472425398391
0.591478835067912
0.549499051478234
0.524590416761066
0.509114519471431
0.499239946424704
0.492622061938247
0.487680152957307
0.581998759438448
0.542404845766812
0.519084162248428
0.504823195577997
0.496036442572454
0.490561505186616
0.486857079282109
0.483854448201543
4.42162065107542
4.35161643965516
1.51422727710327
4.2740003478247
1.49270178905791
0.941700271571331
4.19616812841483
1.46349785861481
0.933570990770706
0.728862073210982
4.13056505898063
1.43577887222987
0.920561145072523
0.725385527163573
0.62628641177176
4.07114276568032
1.41325155159025
0.906424302320167
0.718754456428454
0.624672985105125
0.569965537380819
4.00550959583793
1.39339346231255
0.893201223281692
0.710397258259485
0.620792863953345
0.569088209965336
0.53659927571664
3.92676681739575
1.37190506939757
0.880487346810444
0.701412083449566
0.615209059333583
0.566408782499905
0.535949249599771
0.515858471906236
3.83280457661201
1.34624170783356
0.86686798277259
0.69199830553024
0.608545462235317
0.562184122655126
0.533744838912839
0.515237308707824
0.502561267422656
3.72204634501373
1.31561244585425
0.851284300677131
0.681790894924038
0.601135218907862
0.556841670901935
0.530171371848674
0.513197730896256
0.501916454968562
0.493884046883393
3.59220139266928
1.27960883539296
0.833244321578725
0.670397245354883
0.593001433092967
0.550731523131816
0.52560035052917
0.50994985012898
0.499939504375121
0.493215147131909
0.488183372900765
3.44017961982849
1.23757520462222
0.812456452714974
0.657640772840576
0.58405366801516
0.544006309649754
0.52037138039244
0.505868781878018
0.496895118020289
0.491287637478382
0.487501386482011
0.484439795940221
0.536618199196907
0.514644513758516
0.501272108688192
0.493173547451545
0.488421550498976
0.485647472480405
0.483752631837816
0.481960685488374
4.42267057050047
4.35254430186254
1.51453924693871
4.27489040096718
1.49302200684745
0.941906400220631
4.19716974595857
1.463868678492
0.933811370105111
0.72904707539178
4.13183846586543
1.43625557342836
0.920869191719681
0.725619579037548
0.626477584324686
4.07285903189756
1.41390386450104
0.906842484583057
0.719069742428754
0.62492626703878
0.570176422995443
4.0078936278683
1.39430258387368
0.893781081195304
0.710833195384025
0.621140956723358
0.569373777606345
0.536837983623336
3.93009315726026
1.373167574657
0.881289509675224
0.70201452820731
0.615690327819101
0.566802256465911
0.536274340272626
0.516129733018555
3.83740046902829
1.34797385177333
0.867963254499995
0.69281987331423
0.609202438416335
0.562722394202154
0.534189113228038
0.515604966100043
0.502867018227225
3.72832560785792
1.31792363857239
0.852752339506326
0.68289217808335
0.602015451652264
0.557563446433588
0.530768438030858
0.513692425987313
0.502326230684812
0.494224031013924
3.60064122868261
1.2826755785483
0.835167469473564
0.671844963122537
0.594160793747282
0.551680569985525
0.526383649094239
0.510598743870474
0.500478750888201
0.493664170910672
0.488557160295889
3.45142021289716
1.24171456655715
0.814969408289337
0.659467225603258
0.585562226705314
0.545242373769747
0.521383621339422
0.506698794948401
0.497579582343815
0.491859836947436
0.487987199297973
0.484853216512999
3.27677209920878
1.1942656363168
0.791991170961225
0.645672025524619
0.57623528392415
0.538307268597032
0.515967939394919
0.50233159851971
0.494026935697832
0.489116976674552
0.486235576773149
0.484281248433924
0.482450188227376
0.510158737976761
0.497670598728832
0.490143210247591
0.485851465313583
0.48365344632883
0.482607678085586
0.48187868593292
0.480870819059782
4.42389291277138
4.35358174119618
1.51486791043998
4.27580443277492
1.49332895122413
0.942100690305677
4.19808167308634
1.46418682151635
0.93401586044762
0.729205586962084
4.1328528603476
1.43663250999305
0.921109768813916
0.725803778978456
0.626630164246373
4.07411901388414
1.41439317139212
0.90715259246788
0.719304696967855
0.625116855128773
0.570337232096539
4.00957436164581
1.3949656271475
0.894201686557088
0.711150308213621
0.621395528259608
0.569584154749734
0.537015602115487
3.93240695952726
1.37407928051401
0.881868995931603
0.702451087583647
0.616040317678659
0.567089347019169
0.536512544181325
0.516329777594237
3.84061176726541
1.34922307251591
0.868758585309131
0.693419226543787
0.609683759250209
0.563117720346159
0.534515739422893
0.515875577926598
0.503092758910844
3.73276638756187
1.31960806663951
0.853829367374527
0.683704502548006
0.602668672511039
0.55810138625828
0.531214043493817
0.514061069838227
0.502630823552191
0.494476579301459
3.60668007592731
1.28491265432267
0.83659622652151
0.672926320707268
0.595032386954772
0.552399262968226
0.526979880442117
0.511093067260712
0.500887562404688
0.494001629270091
0.488836079555661
3.45947636837328
1.24467699411202
0.81684506037874
0.660870170997994
0.58670315177813
0.546187459046657
0.522166775244689
0.507346088818151
0.498114226512353
0.492302536076478
0.488354795343285
0.485158623536503
3.28737639598401
1.19823463937415
0.794448779844032
0.64747662791709
0.577665486155649
0.539539030852875
0.516990492673563
0.50316856395559
0.494708920988473
0.4896755749495
0.486701215238496
0.484677647326403
0.482789349463503
3.08529843308428
1.14472148122106
0.769392466107218
0.632835469160754
0.56798905121767
0.532589768680825
0.511578347715734
0.498773759425304
0.491015661783052
0.486544712825317
0.48421261582041
0.483081244004446
0.482312252575119
0.481282474533413
0.494217769115364
0.487213786966136
0.483241061139525
0.481326822790859
0.48074283348321
0.480794180055233
0.480807218446546
0.480298618126446
4.425333440982
4.35479360698099
1.5152357136885
4.27682558233687
1.49365178852965
0.942301551675733
4.19899406880069
1.46448984119134
0.934208427322195
0.729355696844657
4.13375497581326
1.43695543100657
0.921314097958397
0.725961639491277
0.626763072304305
4.07511153535521
1.41477654241664
0.907395392478145
0.719489724147578
0.625269049415794
0.570468040837615
4.01079430342297
1.39545741867191
0.894515196785659
0.711387268164841
0.621587377878037
0.569744658594029
0.537153271848378
3.93402564687507
1.37473821915823
0.882291283882701
0.702769845102882
0.616297069353059
0.567301282247698
0.536689887709071
0.51648041934912
3.84283768927092
1.35011918645111
0.869334978787801
0.693854918069655
0.610034986549672
0.563407196772221
0.534755714490389
0.516075310571115
0.503260539632458
3.73586056906163
1.32082227716807
0.854613067951269
0.68429827152032
0.603148348301982
0.558497863168806
0.531543101552432
0.514333451250457
0.502856070894982
0.494663911137855
3.61093458432806
1.28653854835224
0.837646828105188
0.673725372650584
0.595679583661604
0.552935694378343
0.527426563408904
0.5114637013663
0.501193365735949
0.494253171029448
0.48904367997981
3.46522326346764
1.24682724766956
0.818233815490261
0.661925133676832
0.587561344325981
0.546901690122339
0.522762759849183
0.507841268517368
0.498523437746164
0.49263929556072
0.488631359329106
0.485386224596261
3.29497310748066
1.20106144066924
0.796272725672034
0.648850320983486
0.578773585627108
0.540473117232055
0.517774714568859
0.503819093809715
0.495243954902634
0.490114617710358
0.487062860949102
0.484977086498442
0.483037905319446
3.09515383622433
1.14847457066728
0.771770305472029
0.634614621624724
0.569413362253431
0.533758600023481
0.512605054787686
0.499626846108874
0.491708469239486
0.487103114628094
0.484665826581342
0.483458043220633
0.482634729652397
0.481560849523144
2.86021760597745
1.08835868364656
0.744998941379115
0.619583600860819
0.559747031272522
0.52694297356364
0.507463380842581
0.495425061002294
0.488136282864636
0.483957606007976
0.481886284975985
0.48118885718656
0.481173646344892
0.481163648088222
0.480647783778894
0.484602882002621
0.480863091360324
0.479065004713319
0.478624174274386
0.479043922533332
0.479777289087583
0.480251176047955
0.480051656220272
4.42702557263157
4.3562312423361
1.51566025785243
4.2780171867588
1.49401287052162
0.942523264814778
4.19998604418113
1.46480624371734
0.934407278552408
0.729511326219841
4.13465304231314
1.43725825734215
0.921505743748243
0.726111115135939
0.626890934451314
4.07598826315795
1.4151010638093
0.907601205003059
0.719648124301338
0.625401677384005
0.570584554519242
4.01175292351665
1.39584033844512
0.894760646915036
0.711574112498
0.621740657277067
0.569875287775064
0.537267836713943
3.9351985841945
1.37522418301383
0.882606315284762
0.703008825339084
0.616491020644205
0.567463194847952
0.536827413454115
0.516599419310157
3.84439295519855
1.35076323091673
0.869755394487684
0.694174130888358
0.610293514946821
0.563621545526369
0.534934742702821
0.51622581397545
0.503388652808084
3.73799691149838
1.32169012182848
0.855181490692756
0.684731003785712
0.603499371854785
0.55878919669887
0.531785773290874
0.514535070772624
0.503023664116083
0.494804409023651
3.61388605791944
1.28770624880043
0.838412795384613
0.674310619108728
0.596155641405595
0.553331976072241
0.527757657312698
0.511738891037741
0.501420491741239
0.494440120765136
0.489198456122748
3.46925531427494
1.24838234643335
0.81925434260593
0.662707078252949
0.588199680600225
0.547435013574151
0.523209884536162
0.508214092093603
0.498831689178661
0.492892180575624
0.488838073384035
0.485555914200637
3.30037814212547
1.20310708374337
0.79761882623072
0.64988096354961
0.579613985976316
0.541179334101608
0.518369886179165
0.504316430801006
0.495655376318001
0.49045235616594
0.487338918699873
0.485202480089813
0.483222640598608
3.10222418986491
1.15114612422205
0.77352889756166
0.635960934205817
0.570505427858707
0.534669552253807
0.513384675030079
0.500282805049519
0.492249580414263
0.487544156957247
0.485024555615909
0.483751826465914
0.482877514276161
0.481762560676584
2.8692700537947
1.09186923562881
0.747273202595023
0.621325591707862
0.561167326367692
0.528119738498311
0.508439394830823
0.496289613841465
0.488850180927972
0.484530037564512
0.482341130971778
0.48155414786347
0.481476981670062
0.481425635430241
0.480876892865572
2.597949817628
1.02562675470706
0.719823031067905
0.606825509821198
0.552202898414554
0.52192494741681
0.503800012611864
0.492592465704734
0.485636553271093
0.481635008166302
0.479651171914252
0.479072405283957
0.47939690818925
0.48008038814108
0.480545744430906
0.48035106568138
0.478948197344679
0.477145834318173
0.476655942127822
0.47710410489511
0.478127490365832
0.479269166072281
0.480017936237116
0.480001818284489
4.42898397330141
4.35794903166407
1.51615652626128
4.27943893999275
1.49443037962094
0.942777584507584
4.2011210085937
1.46515813882148
0.934626573984337
0.729683552227982
4.13562778698884
1.43756832107923
0.921702582349501
0.726266035144743
0.62702517678167
4.07686228434279
1.41540283524731
0.907792889586045
0.719797705415979
0.625529295748983
0.570699113336579
4.01259947297047
1.39616284462708
0.89496795499635
0.711733847286149
0.621874106223732
0.569991701442877
0.537372615574472
3.93611730102291
1.3756016168421
0.882852867598898
0.703197514784432
0.616646116960688
0.567595003235837
0.536941911551077
0.51670106392638
3.84551472576952
1.35123829389531
0.870069198993141
0.694414087024113
0.610489358926241
0.56378564667636
0.535073734397215
0.516344764901523
0.503492102170655
3.73947735397147
1.32231503742096
0.855596530508933
0.685048840693365
0.603758545722443
0.559005623363818
0.531967358622907
0.514687304490379
0.503151722989201
0.494913433112589
3.61591320411874
1.28854202047476
0.838969262106863
0.674738015441117
0.596504828423808
0.553623981412529
0.528002712359143
0.511943400576337
0.501590015778471
0.494580508268428
0.489315766384637
3.47203238186033
1.24950111577478
0.819999745366168
0.663281067561426
0.588670143610493
0.547829637443943
0.523542086111261
0.508492024409193
0.499061876907862
0.493081063690596
0.488992555409263
0.485683142025169
3.30415312673668
1.20458875293894
0.798606801993839
0.650644794662752
0.580241339210114
0.541707600391905
0.518816489776569
0.504691368101597
0.495966713073092
0.4907080275558
0.487547065590312
0.485371386308989
0.483360530642649
3.10724601708719
1.15307817525724
0.774823296299677
0.636967607867774
0.57133186537532
0.535364802092354
0.513976481349215
0.500782513584894
0.492665197723989
0.487885208246769
0.485302041923248
0.483976860753906
0.483060170798172
0.481911768668633
2.87578857666701
1.09435959615937
0.748952239923589
0.622639666961102
0.562248626241232
0.529025476159721
0.509204037907362
0.496946520373976
0.489400476650149
0.484979536399166
0.482703162308109
0.481845591278742
0.481714338138782
0.481621740902358
0.481040320454057
2.60636910941077
1.02885358704846
0.721975002432968
0.608520074159949
0.553613964482273
0.523114920234924
0.504795993391931
0.493416388981686
0.486368195291925
0.482232721453623
0.480122668151718
0.479440771843597
0.479689433579356
0.48032358759663
0.480758715635992
0.480540493767432
2.21610714181855
0.960105258352334
0.6966041311479
0.59642714552763
0.546618227128639
0.518399290901854
0.501240019767333
0.490514601535423
0.483854251216629
0.479837280012937
0.477791705157267
0.477133534669547
0.477460714457598
0.478404876916297
0.479511013263376
0.480263296305055
0.480261614011441
0.475810303098751
0.475120915344292
0.475384164401416
0.476340916628633
0.477706160190652
0.479077111951133
0.47997948553817
0.480065404873285
4.43115303758143
4.35991804466845
1.51673765554042
4.28116781830391
1.49492065288986
0.943075266061355
4.20247112850863
1.46556491694725
0.934878093555457
0.729881871238023
4.13673819914078
1.43790682374059
0.921918648207034
0.726437404500828
0.627175099908635
4.07781643661997
1.41570910108863
0.907988054685036
0.719952205946488
0.625663285648933
0.570821438408278
4.01344309700987
1.39646182499949
0.895159915950955
0.711884079549935
0.622002231093935
0.570106165156668
0.53747816238091
3.93692935567901
1.37591904837561
0.883060742891646
0.703358629486245
0.616780976429544
0.567712334951549
0.537046666640834
0.516796773443177
3.84638853622512
1.35160652066058
0.870314966787239
0.69460384182263
0.61064618402004
0.563919300005324
0.535189435245326
0.516446408320462
0.503583074892376
3.74053599301062
1.32277498632684
0.855906983666302
0.685288335317835
0.603955424125332
0.559171732839141
0.532108586888159
0.51480772742978
0.503255181395215
0.4950037208577
3.6173031177186
1.28914292191086
0.839377310867355
0.675052666881469
0.596763327913617
0.553841545818529
0.528186664929513
0.512098272448876
0.501719808064754
0.494689536570974
0.489408536670416
3.47391876240504
1.25030002112074
0.820542912256046
0.663701141612083
0.589015973850516
0.548121077810632
0.5237886529498
0.50869934659572
0.499234414837986
0.49322339034437
0.489109813843802
0.485780759570712
3.30672893022129
1.20565060483867
0.799327973951753
0.651206096171973
0.580704758265772
0.542099260183519
0.519148825906714
0.504971544126751
0.496200217717012
0.49090015448025
0.487703511054958
0.485498391629865
0.483464554147897
3.11072813503392
1.15447364374006
0.775771661461866
0.637712717064438
0.571948740004839
0.535886956684132
0.514421358324744
0.501159209697015
0.492980079764456
0.488144699813586
0.48551323488519
0.484147263716517
0.483197366282228
0.48202316866697
2.88040135336492
1.09615833476354
0.750186002048683
0.623619815802446
0.56306369100389
0.529714912453463
0.509790676101651
0.497446930003025
0.489821231168688
0.485326508000125
0.482984861513999
0.482072402850256
0.481896744160549
0.481768979281979
0.481160290206862
2.61249667885721
1.03113087787884
0.723561654404128
0.609796310249632
0.554684133646772
0.524022994184072
0.505564684836457
0.494065311916652
0.486924238809303
0.48269460560842
0.480495126424247
0.479736555990205
0.479924886342215
0.480514430345538
0.480916673894975
0.480672781362923
2.21610686072358
0.962943056483094
0.698616174707848
0.598066066422877
0.548016287169188
0.519601273992736
0.502263848112567
0.491369005298076
0.484553682136753
0.48045806155984
0.478291952345301
0.477520641128262
0.477757409846421
0.478637770573387
0.479705456058731
0.480436792343575
0.480419037884703
2.28699365889622
0.902752282356174
0.682448645474764
0.592367049411564
0.54537211445575
0.517860324633741
0.500767827951312
0.489911857265417
0.483071873006873
0.478924128285466
0.47657822752108
0.475661611435468
0.475772113511488
0.476622904602993
0.477922810606775
0.479270222041291
0.480185703014141
0.480293226729143
0.474268518841706
0.474170981635504
0.474830465487572
0.476049812972599
0.477588013677651
0.479073444819662
0.480052343759182
0.480189258393143
4.3619396520145
1.51741720512768
4.28312140405538
1.49549334709459
0.943428293162859
4.20416517662689
1.46604607283357
0.935172646904257
0.730115181971837
4.13802688318681
1.43829521828701
0.92216589325939
0.726634677485489
0.62734889699745
4.07890789704496
1.41603981747863
0.908200394482741
0.720122590390097
0.625812907983209
0.570959595251878
4.01436599940612
1.39676421708221
0.895353867454142
0.712038433064674
0.622136394978393
0.57022839957107
0.537592974330784
3.93773647675572
1.37621289051227
0.883252560149697
0.703509610456932
0.616910038858723
0.567827438822141
0.537152202981276
0.516895689995663
3.84715391958324
1.35191584191719
0.870522307037939
0.694765834629215
0.610782442556731
0.564038084251717
0.535295125998374
0.516542136909396
0.50367142087138
3.74135011037277
1.32313098343753
0.856150808195065
0.685478107631087
0.60411336598946
0.559307159160252
0.532226137788949
0.514910562310179
0.503346194517385
0.495085688542304
3.61828173459614
1.28958440214667
0.839684051995111
0.67529040720496
0.596960219516582
0.554008961456171
0.528330045713934
0.512220949509535
0.501824720654767
0.494779867183732
0.489487585093387
3.47519270703176
1.25087171091297
0.820941405943605
0.664011277425376
0.589272614662479
0.548338780040842
0.523974264634219
0.508856831462335
0.499366889739404
0.493334136509062
0.489202628553707
0.485859683578396
3.30845335883715
1.20640559420157
0.799852570499409
0.65161766247914
0.581046108375844
0.542389133222735
0.519396040538647
0.505181130419375
0.496375922270746
0.491045578912641
0.487822703428773
0.485596012404786
0.483545533077921
3.11307628856388
1.15547038573846
0.776462593219051
0.638260206308954
0.572404745295387
0.536274993125399
0.514753082197432
0.501441123758124
0.493216812950031
0.488340618883859
0.485673061571013
0.48427624915406
0.483301235100171
0.482107777422493
2.88356933050337
1.09745543480906
0.751088467095886
0.624344707901743
0.56367098261062
0.530232549502631
0.51023361276509
0.497824842042116
0.490139871060506
0.48559076863543
0.483200480020374
0.482246051838904
0.482035480038779
0.481879761504523
0.481249759083406
2.61680944637014
1.0327756540899
0.724726681023933
0.610746860785016
0.555488370318114
0.524710873790404
0.506152417012772
0.494565600991941
0.487349248373458
0.483049096855265
0.480784192358362
0.479968306354316
0.480109331881286
0.480661491610158
0.481034763761146
0.48076877665446
2.21610741556064
0.964929582790576
0.700099471402258
0.599299242463662
0.549074231061009
0.520514166833695
0.503045935912286
0.492030043105418
0.48510776476374
0.480929810581372
0.478679486129029
0.477828454682364
0.477998007388617
0.478827021340518
0.479858261228515
0.480563720653611
0.480525938595904
2.28698123859102
0.904495593371743
0.684282355979893
0.593946846652746
0.546756962076755
0.519074697831935
0.501821303212433
0.490806840441148
0.483810916450321
0.479519772036487
0.477105987740203
0.476080273230684
0.476089160970883
0.476860757469806
0.478107284486995
0.479425369237477
0.480327363335174
0.480424479639838
2.38167808075944
0.929780396609844
0.696160837067986
0.603624981881037
0.553200878152834
0.523013712344067
0.504035728569868
0.491855339623957
0.484060186596172
0.47921012050771
0.476386813264571
0.47493507886383
0.47462458516567
0.475145174287661
0.476271670436891
0.477756237881348
0.479227771493491
0.480226993549011
0.480390401867289
0.473720716371422
0.473886032381189
0.474715020346622
0.476041190917621
0.477646402973452
0.479175211189913
0.480183605654001
0.480340933191263
4.28498815681496
1.49615009730068
0.943854609341248
4.20605549286975
1.46660747793437
0.935521825258886
0.730393137193782
4.13957835903537
1.43876112735386
0.922455551500482
0.726866678533645
0.627554295132359
4.08017179033726
1.41641178272545
0.908442164529632
0.720318293945981
0.625986307367989
0.57112089836504
4.01542616535563
1.39708913194292
0.895563210005329
0.7122078032052
0.622285853622176
0.570366472014999
0.537724238491359
3.93861898599876
1.37650983422057
0.883445322681145
0.703663942770421
0.61704463820666
0.567950055285857
0.537267005930866
0.517005321626853
3.84791152935388
1.35220201323256
0.870713271695704
0.694917290364696
0.610912478283045
0.564154234610477
0.535401343384631
0.516641084877083
0.503765152240437
3.74205481362316
1.32342981129769
0.856357416869728
0.685640287865024
0.6042506189463
0.559427394600302
0.532333282211287
0.515007213253693
0.503434595178724
0.495167901026877
3.61901998932223
1.28992494079447
0.839925289156012
0.675479325231329
0.597118523429589
0.55414566533891
0.528449439541351
0.512325623144446
0.501916901463855
0.494861908153145
0.489561888755878
3.47607626656266
1.25128983317455
0.821240716153406
0.66424639642616
0.589468617384098
0.548506726104129
0.524119267484618
0.50898179230761
0.499474057178629
0.493425893441064
0.489281757261426
0.485929146049543
3.30959371968924
1.2069432483542
0.800236426673496
0.651922156501313
0.581300017390459
0.542606171722038
0.51958259429945
0.50534075972637
0.496511217724196
0.491159033176161
0.4879172138883
0.485675020801601
0.4836127170556
3.11461884499395
1.15617575633318
0.776964010543893
0.638662092708824
0.572741068854848
0.536562740761408
0.515000364080298
0.50165246595448
0.493395444994685
0.488489506618584
0.485795412486107
0.484375795563929
0.483382262012358
0.482174772712643
2.88567134496178
1.09837900045298
0.751744947980372
0.624877137513366
0.564119673549343
0.530617399795464
0.510564690616472
0.498108248961489
0.490379764499008
0.485790767922042
0.483364494559918
0.482378522914792
0.482141337741514
0.481964272237583
0.481318210354624
2.61972609476137
1.03396145651494
0.72558012927479
0.611448629317258
0.556086550902206
0.52522608930083
0.506595899821839
0.494945239551895
0.487671701868597
0.483318855577778
0.481005618855977
0.480146874882172
0.480251462724174
0.480773839244277
0.481123678763786
0.480840142036148
2.21610851709353
0.966369816609853
0.701190833361585
0.600217069570879
0.549867799660487
0.521203052323462
0.503640368252923
0.492537449826038
0.48553706519527
0.481291640530706
0.478978100855269
0.478068767433358
0.478187963234973
0.478976307407632
0.479976215372545
0.480657908210168
0.480602222333338
2.28699400985074
0.905769819386073
0.685641027678042
0.595136754042152
0.547803589577097
0.519994353874747
0.502621433941902
0.491490888086076
0.484384143926181
0.479994726988791
0.477506876233031
0.476405384266091
0.476343058988209
0.477055750611505
0.478258702295099
0.479547208106655
0.480428993569698
0.480510408438716
2.38166506997839
0.930999728642227
0.69773545022354
0.605145244474647
0.554578273946033
0.524244644868414
0.505122404905637
0.492795259458939
0.484850905857555
0.479853203345975
0.476895365361482
0.475384895373915
0.47497539105065
0.475404570824572
0.476461633548529
0.477901617606403
0.479351201805259
0.480342625922151
0.480499593835804