/*--------------------------------*- C++ -*----------------------------------*\
  =========                 |
  \\      /  F ield         | OpenFOAM: The Open Source CFD Toolbox
   \\    /   O peration     | Website:  https://openfoam.org
    \\  /    A nd           | Version:  12
     \\/     M anipulation  |
\*---------------------------------------------------------------------------*/
/*   Windows 32 and 64 bit porting by blueCAPE: http://www.bluecape.com.pt   *\
|  Based on Windows porting (2.0.x v4) by Symscape: http://www.symscape.com   |
\*---------------------------------------------------------------------------*/
FoamFile
{
    format      ascii;
    class       volScalarField;
    location    "100";
    object      p;
}
// * * * * * * * * * * * * * * * * * * * * * * * * * * * * * * * * * * * * * //

dimensions      [0 2 -2 0 0 0 0];

internalField   nonuniform List<scalar> 
10152
(
83333.3318297927
83333.331785753
83333.3318298588
83333.3318290021
83333.331740792
83333.3317858302
83333.3317850314
83333.3318300207
83333.3318291401
83333.3318299465
83333.3316949664
83333.3317408753
83333.3317401432
83333.3317860226
83333.3317851778
83333.3317859668
83333.3318302908
83333.3318293242
83333.331830149
83333.3318348707
83333.3316482904
83333.3316950659
83333.3316943866
83333.3317410925
83333.3317402873
83333.3317410883
83333.331786353
83333.3317853929
83333.3317861933
83333.3317907143
83333.3318306837
83333.3318296114
83333.3318304175
83333.331835011
83333.3318439937
83333.3316007726
83333.3316484068
83333.3316477733
83333.3316953137
83333.3316945376
83333.3316953445
83333.3317414735
83333.3317405237
83333.331741307
83333.3317456853
83333.3317868358
83333.331785743
83333.3317865077
83333.3317909034
83333.3317994774
83333.3318312175
83333.3318300405
83333.331830791
83333.3318353098
83333.3318440755
83333.3318569527
83333.3315524129
83333.331600905
83333.331600311
83333.3316486852
83333.3316479343
83333.3316487519
83333.3316957448
83333.3316948006
83333.3316955613
83333.3316998155
83333.3317420352
83333.3317409233
83333.3317416413
83333.3317458811
83333.3317541607
83333.3317874921
83333.3317862653
83333.3317869602
83333.3317912912
83333.3317996174
83333.3318119431
83333.3318319036
83333.3318306407
83333.3318312932
83333.3318357879
83333.3318443237
83333.3318569529
83333.331873111
83333.3315032039
83333.3315525606
83333.3315519988
83333.3316012135
83333.3316004834
83333.3316013186
83333.3316491657
83333.3316482245
83333.3316489737
83333.3316531324
83333.3316963806
83333.3316952469
83333.3316959124
83333.3317000121
83333.3317080637
83333.3317427969
83333.3317415235
83333.3317421466
83333.3317463091
83333.3317543183
83333.3317662293
83333.3317883374
83333.331786985
83333.3317875679
83333.3317918523
83333.3317999651
83333.3318120007
83333.3318275366
83333.3318327529
83333.3318314235
83333.3318319618
83333.3318363677
83333.3318448048
83333.3318571021
83333.3318730664
83333.3318918933
83333.3314531318
83333.3315033666
83333.3315028293
83333.3315528985
83333.3315521833
83333.3315530397
83333.3316017425
83333.3316008015
83333.3316015482
83333.3316056423
83333.3316498727
83333.3316487176
83333.3316493448
83333.3316533352
83333.3316612092
83333.3316972396
83333.3316959181
83333.3316964623
83333.3317004643
83333.3317082312
83333.331719824
83333.3317437688
83333.3317423459
83333.3317428361
83333.331746928
83333.3317547254
83333.3317663116
83333.3317813592
83333.3317893812
83333.3317879261
83333.3317883622
83333.331792535
83333.3318005765
83333.3318122619
83333.3318275276
83333.331845697
83333.3318323835
83333.331832821
83333.3318370726
83333.3318453948
83333.3318574774
83333.3318731087
83333.3318918299
83333.3319128023
83333.3314021765
83333.3314533094
83333.3314527885
83333.3315037336
83333.3315030264
83333.3315039047
83333.3315534754
83333.3315525295
83333.3315532795
83333.3315573354
83333.3316025188
83333.3316013419
83333.3316019422
83333.331605858
83333.3316136004
83333.331650825
83333.3316494574
83333.3316499371
83333.3316538168
83333.3316613899
83333.3316727399
83333.331698328
83333.3316968357
83333.3316972228
83333.3317011303
83333.3317086807
83333.3317199255
83333.3317345952
83333.3317449522
83333.3317434014
83333.3317437384
83333.3317476993
83333.3317554154
83333.3317666411
83333.3317813767
83333.3317990258
83333.3317906308
83333.3317890929
83333.3317893839
83333.3317933766
83333.3318012785
83333.3318127998
83333.3318276911
83333.3318456667
83333.3318659581
83333.3318338605
83333.3318379419
83333.3318460752
83333.3318579883
83333.3318733349
83333.3318917994
83333.3319127272
83333.3319354031
83333.3313503126
83333.3314023691
83333.3314018565
83333.3314537056
83333.3314529987
83333.331453898
83333.331504358
83333.3315034009
83333.3315041566
83333.3315081965
83333.3315543202
83333.3315531174
83333.3315536985
83333.3315575673
83333.3315652244
83333.3316035619
83333.3316021491
83333.3316025774
83333.3316063667
83333.3316137977
83333.3316249736
83333.3316520264
83333.3316504658
83333.3316507642
83333.3316545222
83333.3316618792
83333.3316728622
83333.3316872495
83333.3316996438
83333.3316980002
83333.3316982224
83333.3317019788
83333.3317094227
83333.331720315
83333.3317346382
83333.3317518776
83333.3317463623
83333.331744699
83333.3317448803
83333.3317486598
83333.3317562179
83333.331767298
83333.3317816214
83333.3317990131
83333.3318187779
83333.3317920493
83333.33179045
83333.3317906433
83333.3317944259
83333.3318021132
83333.3318134455
83333.3318281017
83333.3318457476
83333.3318659256
83333.3318879069
83333.3318389867
83333.3318468953
83333.3318585705
83333.3318736917
83333.3318918662
83333.3319126431
83333.3319353184
83333.3319593085
83333.3312975093
83333.3313505198
83333.3313500082
83333.3314027946
83333.3314020804
83333.3314029986
83333.3314543774
83333.331453402
83333.3314541636
83333.3314582056
83333.3315052711
83333.3315040367
83333.3315046024
83333.3315084485
83333.3315160609
83333.331555453
83333.3315539923
83333.3315543777
83333.3315581055
83333.3315654412
83333.3315765077
83333.3316048747
83333.3316032461
83333.3316034702
83333.3316071123
83333.3316143265
83333.3316251189
83333.3316393105
83333.3316534736
83333.3316517398
83333.331651854
83333.3316554381
83333.3316626639
83333.3316733043
83333.3316873195
83333.3317042589
83333.3317011812
83333.3316994115
83333.3316994771
83333.3317030443
83333.3317103111
83333.3317210346
83333.3317349572
83333.3317518959
83333.3317712463
83333.3317479774
83333.3317462202
83333.3317462851
83333.3317498543
83333.3317571896
83333.3317680567
83333.3317821695
83333.3317991892
83333.3318187595
83333.3318402262
83333.3317936802
83333.3317919691
83333.3317920877
83333.3317956987
83333.3318031358
83333.3318142091
83333.3318286209
83333.3318460126
83333.3318659454
83333.3318878734
83333.3319111704
83333.3318478784
83333.3318592708
83333.3318741045
83333.3318920267
83333.331912571
83333.3319351805
83333.3319592043
83333.3319841508
83333.3312437313
83333.3312977309
83333.3312972135
83333.3313509749
83333.3313502463
83333.3313511809
83333.3314035142
83333.3314025132
83333.3314032792
83333.3314073387
83333.3314553589
83333.3314540866
83333.3314546377
83333.33145848
83333.3314660852
83333.3315064933
83333.33150498
83333.3315053273
83333.3315090157
83333.3315162995
83333.3315273162
83333.3315568764
83333.3315551773
83333.3315553368
83333.3315588929
83333.3315660112
83333.3315766774
83333.3315907539
83333.3316064527
83333.3316046287
83333.3316046476
83333.3316080937
83333.3316151539
83333.3316256126
83333.3316394086
83333.3316561496
83333.3316551622
83333.331653273
83333.3316532185
83333.3316565976
83333.3316636279
83333.3316740777
83333.3316877033
83333.3317043091
83333.3317233594
83333.3317029581
83333.3317010602
83333.3317009989
83333.3317043648
83333.3317114019
83333.3317218961
83333.3317355817
83333.3317521546
83333.3317712593
83333.3317923265
83333.3317497971
83333.3317479369
83333.3317479212
83333.3317513049
83333.3317583843
83333.3317689807
83333.3317828259
83333.3317995975
83333.3318188803
83333.33184021
83333.33186302
83333.3317955344
83333.3317937132
83333.3317937125
83333.3317971658
83333.3318043668
83333.331815143
83333.3318292496
83333.3318463658
83333.3318660629
83333.3318878429
83333.3319111252
83333.3319354227
83333.3318601136
83333.3318746103
83333.3318922135
83333.3319125081
83333.3319349662
83333.3319589933
83333.3319840143
83333.3320095998
83333.3311889391
83333.3312439672
83333.3312434374
83333.331298216
83333.3312974661
83333.3312984139
83333.3313517431
83333.3313507092
83333.3313514771
83333.3313555675
83333.3314045645
83333.3314032473
83333.331403783
83333.3314076367
83333.3314152683
83333.3314566706
83333.3314550988
83333.3314554101
83333.3314590778
83333.3314663471
83333.3314773688
83333.3315080266
83333.331506253
83333.3315063538
83333.3315098488
83333.3315169127
83333.3315275116
83333.3315415475
83333.3315585837
83333.3315566678
83333.3315566015
83333.3315599404
83333.331566883
83333.3315772228
83333.3315908804
83333.3316075165
83333.33160829
83333.3316062872
83333.3316061203
83333.3316093434
83333.3316161892
83333.3316264362
83333.3316398538
83333.3316562312
83333.3316750958
83333.3316570973
83333.3316550581
83333.3316548603
83333.3316580342
83333.3316648244
83333.3316750279
83333.3316883939
83333.3317046415
83333.3317234109
83333.3317441967
83333.3317049525
83333.3317029451
83333.331702776
83333.3317059574
83333.331712744
83333.3317229601
83333.3317363614
83333.3317526561
83333.331771467
83333.3317923404
83333.3318147844
83333.33175183
83333.3317498648
83333.3317497548
83333.3317529895
83333.3317598267
83333.3317701178
83333.3317836448
83333.3318001167
83333.3318191486
83333.3318402708
83333.3318630054
83333.3318868295
83333.3317976075
83333.3317956931
83333.3317955781
83333.3317988415
83333.3318057939
83333.3318162677
83333.3318300289
83333.3318468078
83333.3318662302
83333.3318878137
83333.3319110417
83333.3319353569
83333.3319603542
83333.3318752299
83333.3318924564
83333.3319124263
83333.3319346696
83333.3319586296
83333.3319837211
83333.3320094284
83333.332035379
83333.3311330914
83333.3311891886
83333.3311886405
83333.3312444823
83333.3312437046
83333.3312446625
83333.3312990335
83333.3312979593
83333.3312987263
83333.3313028592
83333.3313528633
83333.3313514934
83333.3313520118
83333.3313558893
83333.3313635778
83333.3314059669
83333.3314043292
83333.3314046046
83333.3314082669
83333.3314155548
83333.3314266309
83333.3314583141
83333.3314564606
83333.3314565057
83333.3314599596
83333.3314670056
83333.3314775907
83333.3314916544
83333.3315098625
83333.3315078513
83333.3315077069
83333.3315109645
83333.3315178317
83333.3315281096
83333.331541702
83333.3315583187
83333.3315605664
83333.3315584527
83333.3315581822
83333.3315612802
83333.3315679894
83333.3315780978
83333.3315913853
83333.3316076289
83333.3316264115
83333.3316103824
83333.3316082125
83333.3316078855
83333.3316108926
83333.331617485
83333.3316274691
83333.3316406058
83333.3316566312
83333.3316751813
83333.331695804
83333.3316592618
83333.3316570984
83333.3316567729
83333.3316597596
83333.3316662985
83333.331676215
83333.3316892789
83333.3317052221
83333.3317236957
83333.3317442563
83333.3317664415
83333.3317071586
83333.3317050469
83333.3317047877
83333.3317078139
83333.3317143582
83333.3317242716
83333.3317373458
83333.3317533191
83333.331771844
83333.3317924959
83333.3318147926
83333.3318383109
83333.3317540702
83333.3317520158
83333.3317518134
83333.3317548916
83333.3317615032
83333.3317714909
83333.3317846632
83333.331800783
83333.3318195093
83333.331840412
83333.3318630022
83333.3318867991
83333.3319113832
83333.3317998817
83333.331797889
83333.3317976976
83333.3318007755
83333.331807443
83333.3318175792
83333.3318309748
83333.3318473704
83333.3318664467
83333.331887784
83333.3319108813
83333.3319352024
83333.3319602599
83333.3319856986
83333.3318927743
83333.331912351
83333.3319342942
83333.3319581009
83333.3319832056
83333.3320090509
83333.332035172
83333.3320612562
83333.3310761505
83333.3311333532
83333.3311327802
83333.3311897338
83333.3311889216
83333.3311898866
83333.3312453502
83333.3312442282
83333.3312449909
83333.3312491766
83333.3313002255
83333.3312987943
83333.3312992925
83333.3313032041
83333.3313109774
83333.3313543582
83333.3313526465
83333.3313528842
83333.3313565536
83333.3313638891
83333.3313750651
83333.3314077218
83333.331405782
83333.3314057715
83333.3314092001
83333.3314162599
83333.3314268799
83333.3314410342
83333.3314602788
83333.3314581686
83333.3314579495
83333.3314611461
83333.3314679749
83333.3314782421
83333.3314918373
83333.3315085139
83333.3315119892
83333.331509764
83333.3315093971
83333.331512396
83333.3315190109
83333.3315290381
83333.331542266
83333.3315584594
83333.3315772538
83333.3315628147
83333.3315605204
83333.3315600746
83333.331562942
83333.3315693832
83333.3315792114
83333.3315921975
83333.331608091
83333.3316265361
83333.3316470923
83333.331612713
83333.3316104025
83333.3316099373
83333.3316127496
83333.3316190844
83333.3316287706
83333.3316415874
83333.3316572841
83333.3316755334
83333.3316959049
83333.3317179563
83333.3316616405
83333.331659371
83333.3316589459
83333.3316617689
83333.3316680672
83333.3316776811
83333.3316904086
83333.3317060088
83333.3317241642
83333.3317444761
83333.3317665001
83333.3317897953
83333.3317095629
83333.3317073669
83333.3317070305
83333.3317099176
83333.3317162409
83333.3317258497
83333.33173857
83333.3317541791
83333.3317723701
83333.3317927528
83333.3318148853
83333.3318383059
83333.3318626147
83333.3317564909
83333.3317543725
83333.3317541114
83333.3317570388
83333.3317634085
83333.331773091
83333.3317858995
83333.3318016248
83333.3318199855
83333.3318405993
83333.3318630074
83333.3318867404
83333.3319113289
83333.3319364213
83333.3318023037
83333.331800272
83333.3318000553
83333.3318029841
83333.3318093639
83333.3318191117
83333.331832087
83333.3318480662
83333.3318667402
83333.3318877473
83333.3319106409
83333.3319349081
83333.3319600316
83333.3319855734
83333.332011232
83333.3319123011
83333.3319338614
83333.331957416
83333.3319824426
83333.3320083825
83333.3320347112
83333.3320610142
83333.3320870404
83333.331018088
83333.3310764208
83333.3310758205
83333.3311339277
83333.331133074
83333.3311340421
83333.331190653
83333.3311894752
83333.3311902299
83333.3311944788
83333.3312466162
83333.3312451148
83333.3312455888
83333.3312495435
83333.3312574278
83333.3313018158
83333.3313000206
83333.331300217
83333.3313039037
83333.3313113127
83333.3313226318
83333.3313562275
83333.331354193
83333.3313541248
83333.3313575403
83333.3313646417
83333.3313753408
83333.3313896437
83333.3314098174
83333.331407602
83333.3314073093
83333.3314104602
83333.3314172824
83333.3314275854
83333.3314412459
83333.331458055
83333.3314625505
83333.3314602099
83333.331459752
83333.331462672
83333.3314692291
83333.3314792262
83333.3314924583
83333.3315086841
83333.331527572
83333.3315143932
83333.3315119748
83333.33151142
83333.3315141721
83333.3315205037
83333.3315302326
83333.3315431383
83333.3315589837
83333.331577412
83333.3315980078
83333.3315653097
83333.3315628614
83333.3315622698
83333.3315649326
83333.331571106
83333.3315806235
83333.3315932717
83333.3316088136
83333.3316269322
83333.3316472282
83333.3316692561
83333.3316152617
83333.3316128417
83333.3316122659
83333.3316149097
83333.3316210015
83333.3316303808
83333.3316428502
83333.3316581833
83333.3316760852
83333.3316961775
83333.3317180423
83333.3317412484
83333.3316642115
83333.3316618607
83333.3316613642
83333.3316640529
83333.3316701291
83333.3316794414
83333.3316918145
83333.3317070385
83333.3317248332
83333.3317448417
83333.3317666494
83333.331789831
83333.3318139805
83333.3317121301
83333.3317098845
83333.3317095074
83333.3317122727
83333.3317183807
83333.3317276936
83333.3317400481
83333.3317552611
83333.3317730696
83333.3317931293
83333.331815029
83333.3318383222
83333.3318625914
83333.3318874676
83333.33175903
83333.3317569034
83333.3317566379
83333.3317594479
83333.3317655748
83333.3317749199
83333.331787346
83333.331802657
83333.3318206004
83333.3318408571
83333.3318630175
83333.3318866255
83333.3319112037
83333.3319363396
83333.3319617272
83333.3318047641
83333.331802828
83333.3318026313
83333.3318054615
83333.3318115772
83333.3318209165
83333.3318334048
83333.3318488967
83333.3318671234
83333.3318877318
83333.331910331
83333.3319344579
83333.3319596006
83333.3319852707
83333.3320110755
83333.3320367686
83333.3319333941
83333.3319566002
83333.3319814403
83333.3320073855
83333.3320338925
83333.3320604732
83333.3320867647
83333.3321125778
83333.3309589028
83333.3310183659
83333.3310177367
83333.3310770235
83333.3310761229
83333.3310770941
83333.3311348998
83333.3311336567
83333.3311343981
83333.3311387217
83333.3311919958
83333.3311904143
83333.3311908587
83333.331194865
83333.331202887
83333.3312483053
83333.3312464168
83333.3312465663
83333.3312502785
83333.3312577848
83333.331269289
83333.3313038033
83333.331301664
83333.3313015339
83333.3313049455
83333.3313121131
83333.3313229327
83333.3313374391
83333.3313584573
83333.331356128
83333.3313557599
83333.331358877
83333.3313657199
83333.3313761008
83333.3313898836
83333.3314068927
83333.3314122364
83333.3314097735
83333.3314092269
83333.3314120839
83333.3314186144
83333.3314286273
83333.3314419216
83333.3314582584
83333.3314773131
83333.3314651116
83333.3314625647
83333.3314619066
83333.3314645653
83333.3314708232
83333.3314805032
83333.3314933923
83333.331509262
83333.3315277609
83333.3315484898
83333.3315170534
83333.331514469
83333.33151376
83333.3315162987
83333.3315223508
83333.3315317549
83333.3315443043
83333.331559773
83333.3315778554
83333.3315981695
83333.3316202743
83333.3315680272
83333.3315654628
83333.331564754
83333.3315672452
83333.3315731704
83333.3315823735
83333.3315946615
83333.3316098193
83333.3316275685
83333.3316475526
83333.3316693664
83333.331692589
83333.3316179996
83333.3316155006
83333.331614854
83333.3316173646
83333.3316232347
83333.3316323126
83333.3316444235
83333.3316593674
83333.331676884
83333.3316966422
83333.3317182535
83333.331741311
83333.3317654142
83333.3316669336
83333.3316645443
83333.331664019
83333.3316666037
83333.3316724775
83333.3316814963
83333.3316935066
83333.3317083319
83333.3317257281
83333.3317453815
83333.3317669164
83333.331789921
83333.3318139903
83333.3318387619
83333.3317147914
83333.3317125669
83333.3317122054
83333.3317148848
83333.3317207874
83333.3317297957
83333.3317417796
83333.3317565747
83333.3317739607
83333.3317936404
83333.3318152463
83333.3318383596
83333.3318625491
83333.3318874198
83333.331912657
83333.3317615712
83333.3317595728
83333.3317593697
83333.3317621169
83333.3317680219
83333.3317770122
83333.3317890081
83333.3318038724
83333.3318213682
83333.3318412053
83333.3318630387
83333.3318864465
83333.3319109659
83333.3319361472
83333.3319616173
83333.3319871201
83333.3318070903
83333.3318054743
83333.3318054071
83333.3318081894
83333.3318140718
83333.3318230127
83333.3318349806
83333.331849905
83333.3318675999
83333.3318877534
83333.3319099791
83333.3319338648
83333.3319589396
83333.3319847037
83333.3320107
83333.3320365816
83333.3320621574
83333.3319556832
83333.3319802293
83333.3320060655
83333.3320326661
83333.33205951
83333.3320861481
83333.332112271
83333.3321377486
83333.3308985239
83333.3309592157
83333.3309585257
83333.3310190011
83333.3310180437
83333.331019026
83333.3310780517
83333.3310767329
83333.3310774568
83333.331081871
83333.3311363229
83333.3311346492
83333.3311350558
83333.3311391232
83333.3311473111
83333.3311937884
83333.3311917951
83333.33119189
83333.3311956343
83333.3312032614
83333.3312149921
83333.331250416
83333.3312481615
83333.3312479621
83333.3312513764
83333.3312586331
83333.3312696121
83333.3312843759
83333.331306172
83333.3313037191
83333.3313032699
83333.3313063616
83333.3313132489
83333.3313237464
83333.3313377039
83333.3313549783
83333.3313610275
83333.3313584341
83333.3313577961
83333.3313606021
83333.3313671326
83333.3313772024
83333.3313906139
83333.3314071293
83333.3314264238
83333.331414958
83333.3314122761
83333.331411515
83333.3314140979
83333.331420313
83333.3314299888
83333.3314429192
83333.3314588787
83333.3314775321
83333.3314984751
83333.3314679391
83333.3314652158
83333.3314643936
83333.3314668304
83333.3314727971
83333.331482137
83333.3314946501
83333.3315101197
83333.3315282511
83333.3315486716
83333.3315709475
83333.3315199406
83333.3315172319
83333.3315164014
83333.3315187656
83333.3315245634
83333.3315336437
83333.3315458184
83333.3315608825
83333.3315785708
83333.3315985437
83333.3316204092
83333.3316437465
83333.331570933
83333.3315682921
83333.331567509
83333.331569869
83333.3315755732
83333.3315844722
83333.3315963947
83333.331611149
83333.3316284899
83333.3316481077
83333.3316696352
83333.3316926777
83333.331716839
83333.3316208802
83333.3316183518
83333.3316176849
83333.3316201025
83333.331625778
83333.3316345656
83333.3316463145
83333.3316608543
83333.3316779558
83333.3316973297
83333.3317186287
83333.3317414668
83333.3317654548
83333.3317902282
83333.3316697317
83333.3316673843
83333.3316668927
83333.3316694155
83333.3316751093
83333.3316838412
83333.3316954847
83333.331709894
83333.3317268618
83333.331746114
83333.3317673166
83333.331790087
83333.3318140242
83333.3318387485
83333.3318639395
83333.3317174236
83333.3317153629
83333.3317150981
83333.3317177485
83333.3317234697
83333.3317321679
83333.3317437583
83333.3317581193
83333.3317750511
83333.3317943009
83333.3318155481
83333.3318384114
83333.3318624723
83333.3318873163
83333.3319125837
83333.3319380062
83333.3317639409
83333.3317622939
83333.3317622705
83333.3317650216
83333.3317707412
83333.3317793853
83333.3317909212
83333.3318052783
83333.331822283
83333.3318416601
83333.3318630916
83333.331886214
83333.3319105967
83333.3319357858
83333.3319613586
83333.3319869825
83333.3320124509
83333.3318089353
83333.3318080414
83333.3318082832
83333.3318111256
83333.3318168198
83333.3318253846
83333.3318368321
83333.3318511458
83333.3318682171
83333.3318878193
83333.3319096052
83333.3319331609
83333.3319580606
83333.3319838346
83333.3320100011
83333.3320361368
83333.3320619417
83333.3320872781
83333.3319788469
83333.3320044584
83333.3320310357
83333.3320580641
83333.3320850494
83333.3321115848
83333.3321374135
83333.3321624618
83333.3308988984
83333.3308981314
83333.3309599116
83333.3309588595
83333.3309598373
83333.3310200946
83333.3310186812
83333.3310193873
83333.3310239124
83333.3310795618
83333.3310777821
83333.3310781394
83333.331082281
83333.331090667
83333.331138225
83333.3311361125
83333.3311361416
83333.3311399245
83333.3311476989
83333.3311596973
83333.3311960284
83333.3311936454
83333.331193367
83333.3311967888
83333.3312041565
83333.331215334
83333.3312304087
83333.3312529298
83333.3312503418
83333.3312498032
83333.3312528748
83333.3312598273
83333.331270478
83333.3312846626
83333.3313022641
83333.331308899
83333.3313061652
83333.3313054296
83333.3313081923
83333.3313147453
83333.3313249094
83333.3313384906
83333.3313552438
83333.3313748523
83333.3313639145
83333.3313610893
83333.331360222
83333.3313627412
83333.3313689392
83333.3313786508
83333.3313916758
83333.3314077897
83333.3314266734
83333.331447909
83333.3314179565
83333.3314150892
83333.3314141534
83333.3314165047
83333.3314224167
83333.3314317363
83333.33144427
83333.3314598084
83333.3314780673
83333.3314986798
83333.3315212128
83333.3314709993
83333.3314681446
83333.3314671961
83333.3314694542
83333.33147516
83333.3314841654
83333.3314962882
83333.3315113321
83333.3315290431
83333.331549095
83333.3315711054
83333.3315946514
83333.3315230169
83333.3315202348
83333.3315193244
83333.3315215593
83333.331527136
83333.3315359078
83333.331547708
83333.3315623526
83333.3315796094
83333.3315991853
83333.3316207306
83333.3316438608
83333.3316681775
83333.3315739747
83333.3315713128
83333.3315705167
83333.3315727903
83333.3315783062
83333.3315869176
83333.3315984762
83333.3316128181
83333.3316297269
83333.331648932
83333.3316701098
83333.3316928951
83333.3317169082
83333.3317417841
83333.3316238216
83333.3316213521
83333.3316207362
83333.3316231101
83333.3316286227
83333.3316371349
83333.3316485214
83333.3316626451
83333.3316793099
83333.3316982614
83333.3317191927
83333.3317417507
83333.3317655585
83333.3317902474
83333.3318154926
83333.3316724788
83333.3316703245
83333.3316699535
83333.3316724758
83333.3316780204
83333.3316864737
83333.3316977444
83333.3317117234
83333.3317282365
83333.3317470483
83333.3317678645
83333.3317903383
83333.3318140875
83333.3318387256
83333.3318639027
83333.3318893406
83333.3317198552
83333.3317181842
83333.3317181379
83333.3317208354
83333.3317264151
83333.3317348153
83333.3317459958
83333.3317598886
83333.3317763409
83333.3317951197
83333.3318159484
83333.3318384887
83333.3318623518
83333.331887126
83333.3319124191
83333.3319379075
83333.3319633679
83333.3317657982
83333.3317648733
83333.331765226
83333.3317681034
83333.3317736943
83333.3317820218
83333.3317930991
83333.331806911
83333.3318233541
83333.3318422183
83333.3318631983
83333.3318859531
83333.3319101064
83333.3319352272
83333.3319608761
83333.3319866597
83333.332012287
83333.3320375994
83333.3318098822
83333.3318101784
83333.3318110104
83333.3318141283
83333.3318197467
83333.331827985
83333.3318389371
83333.3318526369
83333.3318690342
83333.3318879829
83333.3319092217
83333.3319323725
83333.3319570003
83333.3319826736
83333.3320089308
83333.3320353126
83333.3320614322
83333.3320870361
83333.3321120374
83333.3320026097
83333.3320290419
83333.332056137
83333.3320833978
83333.3321103614
83333.3321366645
83333.3321621018
83333.3321866512
83333.3308996855
83333.3308985379
83333.3308994395
83333.3309610959
83333.330959553
83333.3309602183
83333.3309648354
83333.3310217048
83333.3310197958
83333.331020091
83333.3310243238
83333.3310329445
83333.3310815821
83333.3310793346
83333.3310792823
83333.3310831116
83333.3310910638
83333.3311033757
83333.3311406023
83333.3311380743
83333.3311377036
83333.331141136
83333.3311486364
83333.3311600549
83333.3311754946
83333.3311986948
83333.331195957
83333.3311953173
83333.3311983721
83333.3312054094
83333.3312162489
83333.3312307167
83333.3312487036
83333.3312558209
83333.3312529339
83333.3312520919
83333.3312548155
83333.3312614102
83333.3312717034
83333.3312855033
83333.3313025558
83333.3313225483
83333.331311958
83333.3313089786
83333.3313079992
83333.3313104616
83333.3313166638
83333.3313264472
83333.3313396167
83333.331355949
83333.3313751314
83333.3313967363
83333.3313670899
83333.33136407
83333.3313630172
83333.3313652946
83333.331371177
83333.3313805149
83333.3313931211
83333.3314087921
83333.3314272515
83333.3314481365
83333.3314710094
83333.3314211955
83333.3314181898
83333.3314171223
83333.33141929
83333.3314249333
83333.3314339067
83333.331446033
83333.3314611237
83333.3314789349
83333.3314991502
83333.3315213929
83333.3315452363
83333.3314742512
83333.3314713234
83333.3314702911
83333.3314724211
83333.3314779043
83333.3314865957
83333.331498333
83333.3315129403
83333.3315301957
83333.3315498202
83333.3315714776
83333.3315947898
83333.331619355
83333.3315262246
83333.3315234282
83333.3315225111
83333.3315246642
83333.3315300578
83333.3315385433
83333.3315499755
83333.3315641975
83333.3315810038
83333.3316001392
83333.331621299
83333.3316441346
83333.3316682737
83333.3316933475
83333.3315770641
83333.3315744762
83333.3315737475
83333.3315759919
83333.3315813575
83333.3315897025
83333.3316009022
83333.3316148254
83333.3316312867
83333.331650048
83333.3316708243
83333.3316932864
83333.3317170763
83333.3317418338
83333.331767229
83333.3316266932
83333.3316244422
83333.3316239688
83333.3316263673
83333.331631756
83333.3316400115
83333.331651039
83333.3316647364
83333.3316809443
83333.3316994431
83333.3317199613
83333.3317421806
83333.3317657478
83333.3317902985
83333.3318154901
83333.3318410366
83333.3316750022
83333.3316732694
83333.3316731487
83333.3316757518
83333.3316811917
83333.3316893852
83333.3317002813
83333.3317138144
83333.3317298502
83333.331748187
83333.3317685688
83333.3317906854
83333.331814183
83333.3318386848
83333.3318638232
83333.3318892802
83333.331914819
83333.3317217538
83333.331720828
83333.3317212049
83333.3317240762
83333.3317295776
83333.3317377143
83333.3317484917
83333.3317618934
83333.3317778239
83333.3317960988
83333.3318164592
83333.3318386087
83333.3318621964
83333.3318868324
83333.3319121172
83333.3319376836
83333.3319632447
83333.3319886215
83333.3317666784
83333.3317669595
83333.3317679635
83333.3317711986
83333.3317767903
83333.331784864
83333.3317955155
83333.3318087826
83333.3318246205
83333.3318428927
83333.3318633599
83333.3318856899
83333.3319095243
83333.3319344802
83333.3319601327
83333.3319860613
83333.3320119039
83333.3320374109
83333.3320624698
83333.3318114608
83333.3318115331
83333.3318131815
83333.3318168747
83333.3318226675
83333.3318307154
83333.3318412382
83333.3318543551
83333.3318700735
83333.3318883106
83333.3319088899
83333.3319315186
83333.3319557921
83333.3319812619
83333.3320074977
83333.332034052
83333.3320604917
83333.3320864674
83333.3321117718
83333.3321363644
83333.3320267383
83333.3320537742
83333.3320811932
83333.3321085212
83333.332135329
83333.3321612974
83333.3321862698
83333.3322102705
83333.3309009841
83333.330899336
83333.3308999037
83333.330904556
83333.3309628308
83333.3309607562
83333.3309609727
83333.3309652687
83333.330974128
83333.3310238582
83333.3310214518
83333.3310213008
83333.3310251845
83333.3310333438
83333.3310460142
83333.3310841072
83333.3310814165
83333.3310809375
83333.331084383
83333.3310920378
83333.3311037421
83333.3311196023
83333.3311434308
83333.3311405251
83333.3311397695
83333.331142808
83333.3311499495
83333.3311610142
83333.3311758206
83333.3311942537
83333.3312017588
83333.3311987033
83333.3311977421
83333.3312004278
83333.3312070817
83333.3312175376
83333.3312316019
83333.3312490178
83333.3312694633
83333.3312590598
83333.3312559132
83333.3312548122
83333.3312572213
83333.3312634452
83333.3312733333
83333.3312866944
83333.3313033052