/*--------------------------------*- C++ -*----------------------------------*\
  =========                 |
  \\      /  F ield         | OpenFOAM: The Open Source CFD Toolbox
   \\    /   O peration     | Website:  https://openfoam.org
    \\  /    A nd           | Version:  12
     \\/     M anipulation  |
\*---------------------------------------------------------------------------*/
/*   Windows 32 and 64 bit porting by blueCAPE: http://www.bluecape.com.pt   *\
|  Based on Windows porting (2.0.x v4) by Symscape: http://www.symscape.com   |
\*---------------------------------------------------------------------------*/
FoamFile
{
    format      ascii;
    class       surfaceScalarField;
    location    "100";
    object      phi;
}
// * * * * * * * * * * * * * * * * * * * * * * * * * * * * * * * * * * * * * //

dimensions      [0 3 -1 0 0 0 0];

internalField   nonuniform List<scalar> 
29005
(
7.17158045394556e-06
-7.37385517039991e-09
-1.37432724759458e-07
7.31383600958041e-06
-1.4304591434199e-08
-1.27947996361609e-07
9.08585617582099e-06
-1.51049883234603e-08
-1.65215092553223e-07
1.99182983964572e-06
1.25477570910125e-08
-2.04379821719409e-07
7.45019967461873e-06
-1.8200097801747e-08
-1.18161952401622e-07
9.25681618746277e-06
-2.95188059799293e-08
-1.55736491204162e-07
2.04291296335418e-06
1.0805881859313e-08
-1.89835053717063e-07
1.03063953846705e-05
-1.8676545064652e-08
-1.91157431642366e-07
2.59868043288352e-06
3.24888245104108e-08
-2.49282463117038e-07
1.4493259475307e-06
1.44638520273479e-08
-2.61803206818643e-07
7.58279566848623e-06
-2.27628356456846e-08
-1.09829389651113e-07
9.42292042300744e-06
-4.04733526054116e-08
-1.43822946910716e-07
2.09128652427109e-06
9.76640060874271e-09
-1.76299194870494e-07
1.0499808019405e-05
-4.12971107152614e-08
-1.81627950616976e-07
2.65879670138899e-06
2.83258565962142e-08
-2.33370745248227e-07
1.48937794270529e-06
1.3296383559633e-08
-2.43183157900676e-07
1.16391294598541e-05
-2.33257920780802e-08
-2.16317440300858e-07
3.0388679613729e-06
5.90718647673646e-08
-2.91133904894093e-07
1.84546040752264e-06
3.39912689705316e-08
-3.19339098754999e-07
1.33495218309279e-06
1.42210425350701e-08
-3.13222628965969e-07
7.71369196288601e-06
-2.78771357954316e-08
-1.03018711714191e-07
9.58513646136514e-06
-5.14244033328944e-08
-1.33541698573076e-07
2.13747374750396e-06
8.24888197707212e-09
-1.64263164309774e-07
1.06880604947367e-05
-6.10172250129987e-08
-1.6770520716605e-07
2.71765518075743e-06
2.47291903106627e-08
-2.17641443820813e-07
1.52700508000826e-06
1.2418307517148e-08
-2.26344136420524e-07
1.18591369055507e-05
-5.46508528213246e-08
-2.06648751806976e-07
3.10715637107815e-06
5.18354652736005e-08
-2.73423632188375e-07
1.8922888939307e-06
3.0681428440641e-08
-2.97582815972953e-07
1.37019439314771e-06
1.30830647665597e-08
-2.9150805865785e-07
1.2662120671103e-05
-3.44795815519911e-08
-2.31043566259086e-07
3.45654998717754e-06
8.77551425372206e-08
-3.28379754376887e-07
2.18428075537997e-06
5.96371072499402e-08
-3.75590100762808e-07
1.64557233018501e-06
3.37475605848339e-08
-3.81862014379102e-07
1.32178429867891e-06
1.42534018846423e-08
-3.59888194374953e-07
7.84423734983348e-06
-3.30639312535965e-08
-9.74784408901573e-08
9.74536979260667e-06
-6.25567693097064e-08
-1.25541933391667e-07
2.18202547941273e-06
6.41589419775279e-09
-1.53984310069733e-07
1.08719516627368e-05
-7.96084242537674e-08
-1.55703724458312e-07
2.77527987504443e-06
2.06473445598016e-08
-2.03562401329083e-07
1.56283562043305e-06
1.12378661603839e-08
-2.11331216809398e-07
1.20725022889041e-05
-8.33572597367478e-08
-1.91020629390464e-07
3.17494375084731e-06
4.48995926009321e-08
-2.55659700620536e-07
1.93715347641042e-06
2.79160255283869e-08
-2.78002948306866e-07
1.40365901559055e-06
1.20924960197909e-08
-2.71900759923188e-07
1.29045150459934e-05
-7.53327951769542e-08
-2.21708345791789e-07
3.53407371183702e-06
7.72232161381622e-08
-3.09556649026023e-07
2.23832242848656e-06
5.4307912109912e-08
-3.51090987076467e-07
1.68630850424284e-06
3.11315101601537e-08
-3.56366674622735e-07
1.35309209363039e-06
1.31021475022328e-08
-3.35917765506775e-07
1.32368595565875e-05
-5.50715045698582e-08
-2.3509929363624e-07
3.71282728585847e-06
1.12509974305065e-07
-3.46295938837496e-07
2.46515435237746e-06
8.78334306661861e-08
-4.23057239095321e-07
1.93281052910106e-06
5.72129101195257e-08
-4.48972598930381e-07
1.5795773129261e-06
3.19258745383463e-08
-4.36163610287403e-07
1.34045227050735e-06
1.44136785222858e-08
-4.02164806788706e-07
7.97547294395736e-06
-3.8165111758863e-08
-9.30711254099619e-08
9.90511661763849e-06
-7.36088460792009e-08
-1.19194661450575e-07
2.2254503500582e-06
4.52187011597277e-09
-1.45423483786614e-07
1.10535510114297e-05
-9.76891217031256e-08
-1.4645967761846e-07
2.83149953665929e-06
1.63057885647145e-08
-1.91648518499277e-07
1.59733528054871e-06
9.82586163265949e-09
-1.98309368040895e-07
1.22803801722902e-05
-1.10242626362379e-07
-1.7723538396877e-07
3.24208337537024e-06
3.77957814497277e-08
-2.39987362367127e-07
1.98063235329521e-06
2.48642683306295e-08
-2.60666271792111e-07
1.43580717042147e-06
1.09863611473994e-08
-2.54465468883682e-07
1.31390059341571e-05
-1.1256596168709e-07
-2.05269057195579e-07
3.61122391380866e-06
6.68132886477185e-08
-2.90079874338257e-07
2.29072210973175e-06
4.89735519112016e-08
-3.29115652058789e-07
1.72545513592248e-06
2.85347011010523e-08
-3.33590720863074e-07
1.38336683171112e-06
1.19970931196474e-08
-3.1417239534304e-07
1.34953405751001e-05
-1.06412044900128e-07
-2.27390117545911e-07
3.7974446932797e-06
9.86745235194041e-08
-3.27772708725663e-07
2.5262562989001e-06
8.0268708312929e-08
-3.96617841048786e-07
1.98011959534031e-06
5.24566787809867e-08
-4.1972446876346e-07
1.6150209965133e-06
2.94253663898387e-08
-4.08132796583449e-07
1.36790740105851e-06
1.32491075190272e-08
-3.76621752248147e-07
1.34674706728764e-05
-8.45416989472708e-08
-2.32298330167015e-07
3.80983431554273e-06
1.29882333804548e-07
-3.47462530717066e-07
2.59417070660668e-06
1.13111641489892e-07
-4.42935358866009e-07
2.1545671105569e-06
8.08089095151148e-08
-5.02761037372794e-07
1.82885685938927e-06
5.24362675788974e-08
-5.11539401089236e-07
1.56961784253605e-06
3.05614816573402e-08
-4.83237904684393e-07
1.37242096823621e-06
1.45382754325987e-08
-4.40100211096854e-07
8.1083204517524e-06
-4.31529612798514e-08
-8.96928753440589e-08
1.00656210517553e-05
-8.44614860163021e-08
-1.14204853353957e-07
2.26822635985614e-06
2.67035031243528e-09
-1.38514683355564e-07
1.12344954328574e-05
-1.15377020059599e-07
-1.39168426277498e-07
2.88669836223335e-06
1.19544611680438e-08
-1.81823589104932e-07
1.63091053404126e-06
8.34844169095808e-09
-1.87346989100102e-07
1.24855325996582e-05
-1.35986929193429e-07
-1.66853135600357e-07
3.30781893336357e-06
3.05273681491057e-08
-2.26412704938362e-07
2.02293330398043e-06
2.15356289433312e-08
-2.45659258197088e-07
1.46706266741211e-06
9.75026666990915e-09
-2.39314985660429e-07
1.3366615623456e-05
-1.47297826026331e-07
-1.905539033311e-07
3.6879162497235e-06
5.63396015511956e-08
-2.72470777841844e-07
2.34188207172992e-06
4.35488896546573e-08
-3.09830199544049e-07
1.76346059142379e-06
2.58105731951905e-08
-3.13494985527619e-07
1.41291618783303e-06
1.08011330159339e-08
-2.94815668463323e-07
1.37446478738917e-05
-1.51000242760186e-07
-2.10866358253291e-07
3.88163006583311e-06
8.51449780986238e-08
-3.07784128143571e-07
2.58552644120562e-06
7.22839720689837e-08
-3.72658975842845e-07
2.0257403593143e-06
4.76112542187919e-08
-3.93812217389455e-07
1.64961953507651e-06
2.6778953849045e-08
-3.82970436193805e-07
1.39500407456176e-06
1.20695794975057e-08
-3.53338479978408e-07
1.37355758755731e-05
-1.46307716281742e-07
-2.28208173525385e-07
3.89915098494605e-06
1.12329970882518e-07
-3.30361378390695e-07
2.66007816161964e-06
1.03197578971453e-07
-4.16607401453743e-07
2.20771003225643e-06
7.43441540190105e-08
-4.71646976981661e-07
1.86947103565589e-06
4.85614319532642e-08
-4.79473570623597e-07
1.60021893937418e-06
2.80576869305124e-08
-4.53541799208607e-07
1.3960457751121e-06
1.32348859470329e-08
-4.13481257809033e-07
1.35255145218423e-05
-2.23361526292343e-07
3.81069004893927e-06
1.39901279412418e-07
-3.39583875579464e-07
2.59720593742496e-06
1.32404931720342e-07
-4.40889680446773e-07
2.23468739973186e-06
1.0219266443811e-07
-5.24196339696138e-07
2.01278337908367e-06
7.26722157172889e-08
-5.69913881184449e-07
1.79899080927201e-06
4.84744706068181e-08
-5.64654052357937e-07
1.59024953543125e-06
2.9627760919514e-08
-5.24082577367537e-07
1.41370058338344e-06
1.45660180815512e-08
-4.73638952499009e-07
8.24361303126517e-06
-4.80060200011782e-08
-8.72829459838808e-08
1.02279705434884e-05
-9.50682450903932e-08
-1.10428664631472e-07
2.31080400455331e-06
9.00964743553061e-10
-1.33170019223482e-07
1.14161171143731e-05
-1.32638616787317e-07
-1.33437235219813e-07
2.94138717163183e-06
7.73800716648765e-09
-1.73959085503079e-07
1.66393261483193e-06
6.89015566459371e-09
-1.78426377887669e-07
1.26898220124531e-05
-1.60888066711539e-07
-1.5877102428354e-07
3.37245428429542e-06
2.33395308097688e-08
-2.15185561424901e-07
2.06438004785063e-06
1.81784121880121e-08
-2.33099492285774e-07
1.49777588516319e-06
8.45096086569051e-09
-2.26511058573902e-07
1.35908246700028e-05
-1.80478827102623e-07
-1.79710053692372e-07
3.76321003685075e-06
4.58666826120346e-08
-2.57483524279504e-07
2.39184222038438e-06
3.79727301789809e-08
-2.92809128137734e-07
1.80068580879427e-06
2.29324079452377e-08
-2.96066269230556e-07
1.44206737142439e-06
9.51982197350034e-09
-2.77985819085229e-07
1.39854523840799e-05
-1.92285669993235e-07
-1.95814613210707e-07
3.96535594351527e-06
7.15715226434029e-08
-2.89506289575256e-07
2.64365521569854e-06
6.42571836660311e-08
-3.51305433248418e-07
2.07013585969652e-06
4.26054759761705e-08
-3.710199211546e-07
1.68367792851546e-06
2.39948642714352e-08
-3.60746598872894e-07
1.42196383921e-06
1.07989527835191e-08
-3.32574241493405e-07
1.39946319899652e-05
-1.97960213938178e-07
-2.12089601107607e-07
3.98792254127373e-06
9.65437336184391e-08
-3.11035128222026e-07
2.72391166111448e-06
9.29960406760518e-08
-3.92328184860694e-07
2.25898446885952e-06
6.74101208486796e-08
-4.43731001768295e-07
1.90926812216131e-06
4.39271938850364e-08
-4.50756701304823e-07
1.63068965651346e-06
2.54100259483487e-08
-4.2678082399858e-07
1.4198899158151e-06
1.20009285229247e-08
-3.89183315643198e-07
1.3795731182891e-05
-1.90582453886097e-07
-2.25945166228531e-07
3.90138615066597e-06
1.18197895572615e-07
-3.24769704234736e-07
2.66597476929529e-06
1.1995836483353e-07
-4.15888758541787e-07
2.29146012136216e-06
9.38213208830399e-08
-4.92855652845167e-07
2.05835475330557e-06
6.68365732131309e-08
-5.35492089524985e-07
1.83379884404682e-06
4.45403844993305e-08
-5.30763591876634e-07
1.6163038566303e-06
2.70594355253631e-08
-4.93420157579772e-07
1.43351557543169e-06
1.30876777373955e-08
-4.46383697184904e-07
3.77346009989893e-06
-3.27329387380666e-07
2.53551040030677e-06
1.4564326517753e-07
-4.28403308146792e-07
2.20521741466556e-06
1.19176221804282e-07
-5.19763205664709e-07
2.06796641472332e-06
9.07342035376212e-08
-5.92125189599841e-07
1.96501092201185e-06
6.6355223097925e-08
-6.26853170731312e-07
1.81525113568907e-06
4.61270382908915e-08
-6.10218612234563e-07
1.62938311740549e-06
2.92815945061762e-08
-5.595887543658e-07
1.46330269056443e-06
1.45960383687531e-08
-5.0282780958994e-07
8.38216413229268e-06
-5.27610960981444e-08
-8.57883029402757e-08
1.03931722135682e-05
-1.05432222742173e-07
-1.07768634604148e-07
2.35359943766052e-06
-7.77931371826126e-10
-1.29298578476137e-07
1.15996163259731e-05
-1.49472707898652e-07
-1.29089614593464e-07
2.99606930947896e-06
3.7223124579143e-09
-1.67929145885446e-07
1.69674947992623e-06
5.49021666496674e-09
-1.71476754701652e-07
1.28946820956167e-05
-1.85074464559296e-07
-1.52420432980693e-07
3.43653282252759e-06
1.64032918889346e-08
-2.06178092604465e-07
2.10535482609119e-06
1.49156393373278e-08
-2.22958444125111e-07
1.52825714610573e-06
7.1490474671648e-09
-2.16056438163995e-07
1.38137783046156e-05
-2.125429954621e-07
-1.71297733135638e-07
3.837335997631e-06
3.56255133879792e-08
-2.45181280908012e-07
2.44089639817629e-06
3.24153350620072e-08
-2.78476061796123e-07
1.83746772788134e-06
1.99229033022086e-08
-2.81352700227824e-07
1.47110043962355e-06
8.2149255973113e-09
-2.63758932042757e-07
1.42219505998408e-05
-2.3209278490907e-07
-1.84884037283509e-07
4.04763046432816e-06
5.80648145829141e-08
-2.7418205763036e-07
2.70059163583585e-06
5.61973024147766e-08
-3.326440524581e-07
2.11385509742912e-06
3.75861171447602e-08
-3.51181692033282e-07
1.71748063461651e-06
2.11277329594366e-08
-3.41476201581101e-07
1.44902440896506e-06
9.46439207673071e-09
-3.14510597221298e-07
1.42435526901323e-05
-2.4451052958379e-07
-1.96689603714141e-07
4.07613277979458e-06
8.06509272156637e-08
-2.93104325274645e-07
2.78660611257456e-06
8.26229013901948e-08
-3.70565858826667e-07
2.30905156796175e-06
6.02518604590808e-08
-4.19017955842835e-07
1.94858395345703e-06
3.91752686601091e-08
-4.25515326286969e-07
1.66124813985897e-06
2.25843452683316e-08
-4.03090001399138e-07
1.44413288052708e-06
1.06687954723724e-08
-3.67485802247166e-07
1.40614807811692e-05
-2.50737370577475e-07
-2.12971086054099e-07
3.99289224959538e-06
9.98697810741095e-08
-3.06921503122035e-07
2.73251509911641e-06
1.08063965080441e-07
-3.92642030330446e-07
2.34627098167113e-06
8.49828957526741e-08
-4.64709966573813e-07
2.10285823241389e-06
6.04538136366819e-08
-5.04760157825644e-07
1.86849161696436e-06
4.03252880101907e-08
-5.0036380039235e-07
1.64288309351024e-06
2.4319207313639e-08
-4.65677604007124e-07
1.45409377560309e-06
1.17421112966529e-08
-4.21503362740546e-07
1.38015048618805e-05
-2.4389555330758e-07
-2.18017474465176e-07
3.86328964925741e-06
1.18370628022754e-07
-3.15945190135716e-07
2.60552310025682e-06
1.30374192543954e-07
-4.05197026147754e-07
2.26415804707956e-06
1.08835464589298e-07
-4.89841371297211e-07
2.11636783885468e-06
8.31804762721946e-08
-5.57599479036112e-07
2.00382256064797e-06
6.06417773956732e-08
-5.90404211394481e-07
1.84476754133892e-06
4.20665195512153e-08
-5.75286397047891e-07
1.65108862508735e-06
2.64378357839046e-08
-5.28475233684593e-07
1.47931342824952e-06
1.29542819096533e-08
-4.75348567011356e-07
2.45200318582311e-06
-4.12255025494422e-07
2.12331660044811e-06
1.31428391933034e-07
-5.03625878797824e-07
2.02581514480781e-06
1.05513537973047e-07
-5.86040369219015e-07
2.01035345490966e-06
8.24571743260554e-08
-6.49884449990238e-07
1.97749863220304e-06
6.28075563200852e-08
-6.75740410780794e-07
1.85849884506549e-06
4.51516644109367e-08
-6.4955292558421e-07
1.68077227185575e-06
2.97252617231818e-08
-5.90466223612918e-07
1.51949066524272e-06
1.4860700288488e-08
-5.27881609813808e-07
8.52475533845492e-06
-5.74606358136807e-08
-8.51281299859503e-08
1.05621862052985e-05
-1.15633693063536e-07
-1.06137650389513e-07
2.39699798975297e-06
-2.37434472720664e-09
-1.26810524373428e-07
1.17861611086244e-05
-1.659628295361e-07
-1.26008655110394e-07
3.05121867547696e-06
-7.43931182468325e-11
-1.63619269077661e-07
1.72969123684698e-06
4.16383899327186e-09
-1.66403853702393e-07
1.31014434456835e-05
-2.08652344043341e-07
-1.47574849333278e-07
3.50061637252158e-06
9.80943458746152e-09
-1.99257594759962e-07
2.14623471420922e-06
1.18013252371139e-08
-2.15119520590089e-07
1.55878637570144e-06
5.89535612051305e-09
-2.07901263814845e-07
1.40370719739912e-05
-2.43707621743133e-07
-1.64660967758152e-07
3.9108480429169e-06
2.57806348209185e-08
-2.35308880389131e-07
2.48943104568378e-06
2.70288397350064e-08
-2.66824776332484e-07
1.8741410661745e-06
1.68761988607366e-08
-2.6935888053542e-07
1.50026248385873e-06
6.9321821600797e-09
-2.52150356962721e-07
1.44566897084619e-05
-2.7083490128931e-07
-1.76440314250466e-07
4.12863639109751e-06
4.48713271730232e-08
-2.61546654758857e-07
2.75655374374846e-06
4.82500619960091e-08
-3.16977862833247e-07
2.15713624428918e-06
3.26091598907167e-08
-3.34442692927697e-07
1.75129038226707e-06
1.82750365277006e-08
-3.25222157301323e-07
1.47639675186026e-06
8.12444275983648e-09
-2.99255506264984e-07
1.44872237640331e-05
-2.90193796032581e-07
-1.85571562064329e-07
4.16278077305184e-06
6.46043576221109e-08
-2.78068118185625e-07
2.84803954208714e-06
7.22109264742531e-08
-3.51627837043168e-07
2.35836838527437e-06
5.30975017332936e-08
-3.97471379807492e-07
1.98770623440557e-06
3.44278983032027e-08
-4.03603517913813e-07
1.69208123505489e-06
1.96981345010966e-08
-3.82542763510977e-07
1.46895262951932e-06
9.28532176350326e-09
-3.48615557797151e-07
1.43161256783514e-05
-3.03078069228782e-07
-1.96083293875266e-07
4.08391216816035e-06
8.26817105994841e-08
-2.89739433523072e-07
2.79780105583931e-06
9.59078135597597e-08
-3.7167389003954e-07
2.39983517008362e-06
7.58775731033284e-08
-4.39754793139714e-07
2.1467531044498e-06
5.38287519594457e-08
-4.7756538902346e-07
1.90345751042109e-06
3.56256399848577e-08
-4.73521764412282e-07
1.67012983759117e-06
2.14164096146249e-08
-4.41083810873121e-07
1.47555195057235e-06
1.0353101553533e-08
-3.99296902778249e-07
1.40695000657734e-05
-3.08106761201152e-07
-2.10625934112151e-07
3.95308769457276e-06
9.7244558248075e-08
-3.00141848567091e-07
2.67377730109348e-06
1.16551866257243e-07
-3.83662303225827e-07
2.32099231331807e-06
9.8431856782065e-08
-4.62923336832843e-07
2.16369069250312e-06
7.50784407858689e-08
-5.26656137735559e-07
2.04261459745717e-06
5.44930541592602e-08
-5.5771934612219e-07
1.87493295459756e-06
3.76632882673092e-08
-5.43872564233549e-07
1.67387212397899e-06
2.35499573440579e-08
-5.00268455452073e-07
1.49659899468803e-06
1.1500582960085e-08
-4.50289318588137e-07
1.3817971675053e-05
-3.14763452281594e-07
-2.1094403441225e-07
3.81094960702866e-06
1.10119974136134e-07
-3.04168127390116e-07
2.52177617711808e-06
1.36003719366902e-07
-3.9134533980335e-07
2.18347504183788e-06
1.19045840323642e-07
-4.75564141236693e-07
2.07599067598677e-06
9.62543414597593e-08
-5.53089263072836e-07
2.0516539403792e-06
7.51293222287574e-08
-6.13386373630386e-07
2.01043212342777e-06
5.6880177166586e-08
-6.38150586225201e-07
1.88298537603836e-06
4.08787481413154e-08
-6.14213360556282e-07
1.69819323881175e-06
2.62975558060737e-08
-5.59238929536882e-07
1.53163791632803e-06
1.30480477523034e-08
-5.00543780970179e-07
2.02399350253145e-06
-4.83735485464531e-07
1.93806849288321e-06
1.16523155298184e-07
-5.67141734155167e-07
1.96430725488285e-06
9.59816974714579e-08
-6.42734182471204e-07
2.02141339172512e-06
7.80601146400028e-08
-6.99820048291695e-07
2.0237709707361e-06
6.16478658018677e-08
-7.1809922934648e-07
1.91744623300778e-06
4.59328376465922e-08
-6.83616613655694e-07
1.74044064738974e-06
3.07712596116886e-08
-6.1704191486909e-07
1.57954096284488e-06
1.54204879564721e-08
-5.49022211304108e-07
8.67210841798121e-06
-6.2116336771711e-08
-8.52342150385935e-08
1.07359060030072e-05
-1.25718213193379e-07
-1.05458172036127e-07
2.44137469968982e-06
-3.88900436471706e-09
-1.2561419732222e-07
1.19768078208657e-05
-1.82181744648958e-07
-1.24093361250446e-07
3.10728692339957e-06
-3.65759099236963e-09
-1.60921195166762e-07
1.76307280212918e-06
2.91486277954304e-09
-1.6310629971446e-07
1.33113405348367e-05
-2.31746205468727e-07
-1.44115051975384e-07
3.56523882192488e-06
3.59539441056644e-09
-1.94299283690725e-07
2.18738971639315e-06
8.85982785027277e-09
-2.09470136893953e-07
1.58963608573543e-06
4.70720483803192e-09
-2.01960698866538e-07
1.42620553631489e-05
-2.7407194503262e-07
-1.59560615573382e-07
3.98435273316863e-06
1.64364858453612e-08
-2.27706393453314e-07
2.53786823714462e-06
2.19053533488702e-08
-2.5779884766634e-07
1.91098203418904e-06
1.39804027845044e-08
-2.60045379309504e-07
1.52978153315911e-06
5.69994361064667e-09
-2.43120187131532e-07
1.46913049425867e-05
-3.08567202418321e-07
-1.6975076459319e-07
4.20893537990422e-06
3.21871132466618e-08
-2.51365569627927e-07
2.81192534469294e-06
4.05849940722523e-08
-3.04236621670521e-07
2.20025836385981e-06
2.77594289674237e-08
-3.20829600762066e-07
1.78535777080885e-06
1.55060215760524e-08
-3.11999714918622e-07
1.50426677797181e-06
6.81920811482232e-09
-2.86839370545019e-07
1.4728483829034e-05
-3.34946058427996e-07
-1.77147039803387e-07
4.24804518194385e-06
4.88096758674385e-08
-2.65640955161477e-07
2.90838309272289e-06
6.19807832413567e-08
-3.35619835006764e-07
2.40718611285447e-06
4.60458215132078e-08
-3.79231537325082e-07
2.02688386804109e-06
2.97467161501337e-08
-3.85091365008131e-07
1.72337839491667e-06
1.68366413797597e-08
-3.65231135315873e-07
1.49449712926102e-06
7.90934693008582e-09
-3.32709262906465e-07
1.45645730532177e-05
-3.54128525852098e-07
-1.84514575359875e-07
4.17343330221957e-06
6.47593388267708e-08
-2.75249195216744e-07
2.86169337407772e-06
8.35910731061492e-08
-3.53339001085977e-07
2.45250519407986e-06
6.67347459573506e-08
-4.17933672626801e-07
2.19041120622283e-06
4.71729111935156e-08
-4.53873793865964e-07
1.9388043887707e-06
3.09613300314883e-08
-4.50213135347254e-07
1.69816051739414e-06
1.84723868961439e-08
-4.19759936425744e-07
1.49802606740582e-06
8.91984291816286e-09
-3.80009355212929e-07
1.43300473644736e-05
-3.67575821850245e-07
-1.96047837782517e-07
4.0456734525635e-06
7.78493550236588e-08
-2.83839078146628e-07
2.7406567172907e-06
1.03322529370756e-07
-3.64032948428403e-07
2.37642629350561e-06
8.7742808252513e-08
-4.38971149779222e-07
2.2103424318168e-06
6.66875430192052e-08
-4.99264127389382e-07
2.08145760624139e-06
4.80582100189063e-08
-5.28840142236872e-07
1.90601263066984e-06
3.28873787652725e-08
-5.1607164918924e-07
1.69785915266823e-06
2.05290985296351e-08
-4.75246452697347e-07
1.51522079373766e-06
1.00316159634482e-08
-4.27950218437097e-07
1.40944025540956e-05
-3.77742860462631e-07
-2.0679695402947e-07
3.90162120295917e-06
8.79524223627142e-08
-2.92004894123041e-07
2.58975799049842e-06
1.19922002136397e-07
-3.71493327043823e-07
2.24176932853003e-06
1.06981480799754e-07
-4.50504177611101e-07
2.12496692897368e-06
8.66701199778722e-08
-5.23488995458201e-07
2.09280838176512e-06
6.72670380304539e-08
-5.80583391840456e-07
2.0441531887815e-06
5.058330852992e-08
-6.04359779372815e-07
1.90883803391055e-06
3.61522625440532e-08
-5.82326931411282e-07
1.71719422816327e-06
2.32362079134278e-08
-5.3100468557906e-07
1.54556086750339e-06
1.14515833762524e-08
-4.75663619875289e-07
1.38795710197145e-05
-3.97392938564735e-07
-2.06143990379809e-07
3.7561839573766e-06
9.04984389305948e-08
-2.92738324932135e-07
2.43041459430977e-06
1.34123931150091e-07
-3.76121384350639e-07
2.08466649803879e-06
1.25048167223291e-07
-4.58018745316312e-07
1.98939407975864e-06
1.05583207867164e-07
-5.36216782678739e-07
2.00724152472697e-06
8.70265051050973e-08
-6.07919585221958e-07
2.05661765362486e-06
7.04957531458817e-08
-6.62205510448227e-07
2.05117671600393e-06
5.53358669640789e-08
-6.80012911472571e-07
1.93702040760572e-06
4.08268045393391e-08
-6.4831639572493e-07
1.75344660800649e-06
2.68782688122438e-08
-5.86074646902104e-07
1.5876939183413e-06
1.35127726443674e-08
-5.22209377016526e-07
1.83482373173385e-06
-5.44165113012806e-07
1.87514092414656e-06
1.06284225204923e-07
-6.21713675089276e-07
1.97480734228813e-06
9.10971422105301e-08
-6.9196538189652e-07
2.06940664459301e-06
7.69237570198829e-08
-7.43209567477133e-07
2.08841240254215e-06
6.26788669834599e-08
-7.54669979789409e-07
1.98578603890242e-06
4.79103761818325e-08
-7.12888881163603e-07
1.80481693246712e-06
3.22233880514105e-08
-6.39454455343468e-07
1.64057870428028e-06
1.62702576808896e-08
-5.66462723673449e-07
8.82491017498221e-06
-6.67430907535505e-08
-8.60594574756477e-08
1.09152125864062e-05
-1.35746075615281e-07
-1.05670856798937e-07
2.48709488984026e-06
-5.32652425501655e-09
-1.25626811621042e-07
1.2172549677261e-05
-1.98190105394873e-07
-1.23259871314502e-07
3.16471693260556e-06
-7.04175928962503e-09
-1.59733016514935e-07
1.79720063507346e-06
1.74139787354805e-09
-1.61483093342423e-07
1.35254749247033e-05
-2.54376140785224e-07
-1.41938733814122e-07
3.63091946155406e-06
-2.2428817761411e-09
-1.91185207437575e-07
2.22917944165798e-06
6.09823512222819e-09
-2.05894099595548e-07
1.62107292853059e-06
3.59068979438012e-09
-1.98133642929062e-07
1.4489868123623e-05
-3.03679096262059e-07
-1.55879371513997e-07
4.05844370755134e-06
7.63681845877118e-09
-2.22246259604698e-07
2.58662681317299e-06
1.70900135626647e-08
-2.51287888537235e-07
1.94828721092802e-06
1.12502846098058e-08
-2.53317756127254e-07
1.55988091527515e-06
4.53275940114005e-09
-2.36592834625028e-07
1.49270722040107e-05
-3.45257624281513e-07
-1.6457786799334e-07
4.28915814297525e-06
2.01426824542259e-08
-2.4349056717731e-07
2.86715590886368e-06
3.33116779757578e-08
-2.94342864436169e-07
2.24357410433706e-06
2.31377967097562e-08
-3.10271565329009e-07
1.81991988064565e-06
1.28613258308685e-08
-3.01768303249985e-07
1.53281206410104e-06
5.57115722740124e-09
-2.77236582401551e-07
1.4968963052942e-05
-3.78518879506169e-07
-1.70526392189723e-07
4.33248759838145e-06
3.35783696189472e-08
-2.55586291288857e-07
2.96802078284221e-06
5.21229329336777e-08
-3.22540853474013e-07
2.45582269241509e-06
3.92220859669524e-08
-3.64335384736413e-07
2.06636541404312e-06
2.5208688383696e-08
-3.70013286488456e-07
1.75532554848148e-06
1.40615784615826e-08
-3.51188802671426e-07
1.52089693672459e-06
6.57811148989361e-09
-3.19817216985202e-07
1.48098814450022e-05
-4.04190593634003e-07
-1.7606547790821e-07
4.26150119730853e-06
4.68605232354878e-08
-2.63263660160541e-07
2.92435999149342e-06
7.14154064292493e-08
-3.37741600194557e-07
2.5045667405266e-06
5.77284603922078e-08
-3.9936283778216e-07
2.23410426241226e-06
4.06148636786179e-08
-4.33792152982382e-07
1.974708198056e-06
2.6377603250741e-08
-4.3053590413514e-07
1.72709966076544e-06
1.55700014946284e-08
-4.01830422124704e-07
1.52161401402885e-06
7.50402170887546e-09
-3.63801091642232e-07
1.45837255419914e-05
-4.2429346903122e-07
-1.83517473221707e-07
4.13746906830044e-06
5.84345654906635e-08
-2.69987501936375e-07
2.80607756936909e-06
8.96370520779643e-08
-3.46715037747672e-07
2.43079266016041e-06
7.69433871495004e-08
-4.17912291229368e-07
2.25664912817036e-06
5.82413430624317e-08
-4.75307489156778e-07
2.12065327536671e-06
4.15895156302943e-08
-5.03696986139235e-07
1.93803392304891e-06
2.81712230843797e-08
-4.91932843496424e-07
1.72311045297647e-06
1.74886926715335e-08
-4.53579579566805e-07
1.53526934319854e-06
8.53458752359096e-09
-4.08592345623446e-07
1.43607605006852e-05
-4.39955086394205e-07
-1.93981928143453e-07
3.99438123853166e-06
6.65277774101624e-08
-2.77487599897608e-07
2.65762976089936e-06
1.05003450692619e-07
-3.53391116061139e-07
2.29843288901667e-06
9.51670378960224e-08
-4.28119306592128e-07
2.17310890374597e-06
7.67769367470694e-08
-4.97201662801134e-07
2.13400388027276e-06
5.91218233553335e-08
-5.51522122027979e-07
2.0786338286433e-06
4.40525173305289e-08
-5.74485425151691e-07
1.93618845212861e-06
3.12041643024117e-08
-5.54096743821381e-07
1.73788789180201e-06
2.00571517252979e-08
-5.05965230504376e-07
1.56125624735876e-06
9.88649901807719e-09
-4.53531944871954e-07
1.41647765252788e-05
-4.58498789401229e-07
-2.04447216205432e-07
3.85175920147291e-06
6.88509236429969e-08
-2.83270896340285e-07
2.49922963490732e-06
1.17694670465563e-07
-3.58592816388011e-07
2.14345440505613e-06
1.11260619665886e-07
-4.34558921370818e-07
2.03967474415537e-06
9.4484168496213e-08
-5.0859728096333e-07
2.0498894137815e-06
7.76775544683183e-08
-5.76546018224073e-07
2.09248790776155e-06
6.24494924482646e-08
-6.28318781887771e-07
2.08008511303325e-06
4.8661491138575e-08
-6.457769415527e-07
1.95855961097548e-06
3.58029843108818e-08
-6.16432540958912e-07
1.76860610180933e-06
2.34678373400752e-08
-5.58180135683358e-07
1.59812991007237e-06
1.17076433305454e-08
-4.97807105490511e-07
1.40046879098872e-05
-4.89389221721054e-07
-2.04997925452699e-07
3.71865548342461e-06
6.04306274617044e-08
-2.83674673789438e-07
2.33448659147513e-06
1.23355235075781e-07
-3.6092369135873e-07
1.97983068366665e-06
1.24837740135976e-07
-4.39290961299369e-07
1.88688304981012e-06
1.11266055469573e-07
-5.15759575705986e-07
1.91925252990489e-06
9.5757872073977e-08
-5.8905831250282e-07
2.01162704124189e-06
8.18648606089497e-08
-6.56107428250364e-07
2.09891262217169e-06
6.8788271523447e-08
-7.05163271538543e-07
2.11030658959226e-06
5.56660300669511e-08
-7.16745656714642e-07
2.0004077351668e-06
4.19739385792065e-08
-6.7803345398772e-07
1.81321451688392e-06
2.82662370150659e-08
-6.0922540304777e-07
1.64464069948793e-06
1.42273555944468e-08
-5.40498630629085e-07
1.77099060950148e-06
-5.96254862039983e-07
1.88501730849934e-06
1.0119894585428e-07
-6.69285990210592e-07
2.0230602487614e-06
9.0030386474731e-08
-7.34854601772232e-07
2.13660760223346e-06
7.84230867007599e-08
-7.80755074311566e-07
2.16334435638332e-06
6.54230331968584e-08
-7.86011391347935e-07
2.05906474589273e-06
5.0575289515979e-08
-7.37638677340224e-07
1.87063497025005e-06
3.42987885798436e-08
-6.5791771028387e-07
1.70030012894053e-06
1.74482502228035e-08
-5.80414170144107e-07
8.98376409008664e-06
-7.13028284382291e-08
-8.75512309730412e-08
1.11009738917028e-05
-1.45777103549327e-07
-1.06718375739636e-07
2.53451478372294e-06
-6.69878797083646e-09
-1.26779149135146e-07
1.23743946619593e-05
-2.14136652322074e-07
-1.23452883602168e-07
3.22393847827628e-06
-1.02537976278991e-08
-1.59964303313334e-07
1.83237862086605e-06
6.36422333347719e-10
-1.61440952372089e-07
1.3744991485725e-05
-2.76724820357014e-07
-1.40983064348763e-07
3.69816241752887e-06
-7.73394331228665e-09
-1.89809574271708e-07
2.27195789195892e-06
3.50880429863739e-09
-2.04278385774668e-07
1.65336237089173e-06
2.54465777545513e-09
-1.96316863181114e-07
1.47218229119308e-05
-3.32768166782897e-07
-1.53560291005303e-07
4.1336950673943e-06
-6.17173256928072e-10
-2.188122545088e-07
2.63611808081479e-06
1.25919082293909e-08
-2.47170067954615e-07
1.98635463802667e-06
8.6922122986955e-09
-2.49062633418997e-07
1.5907847623166e-06
3.43570094679152e-09
-2.32473007527318e-07
1.51653731973218e-05
-3.81137620913914e-07
-1.60842007069063e-07
4.36992139624515e-06
8.80150589372636e-09
-2.37804921428502e-07