/*--------------------------------*- C++ -*----------------------------------*\
  =========                 |
  \\      /  F ield         | OpenFOAM: The Open Source CFD Toolbox
   \\    /   O peration     | Website:  https://openfoam.org
    \\  /    A nd           | Version:  12
     \\/     M anipulation  |
\*---------------------------------------------------------------------------*/
/*   Windows 32 and 64 bit porting by blueCAPE: http://www.bluecape.com.pt   *\
|  Based on Windows porting (2.0.x v4) by Symscape: http://www.symscape.com   |
\*---------------------------------------------------------------------------*/
FoamFile
{
    format      ascii;
    class       volVectorField;
    location    "100";
    object      U;
}
// * * * * * * * * * * * * * * * * * * * * * * * * * * * * * * * * * * * * * //

dimensions      [0 1 -1 0 0 0 0];

internalField   nonuniform List<vector> 
10152
(
(7.25070041359325e-06 0.000952248840248085 3.95674373945774e-05)
(7.0628756134673e-06 0.000981376249901335 3.62094103642782e-05)
(2.22750841956336e-05 0.00093387805760404 3.91249836120638e-05)
(5.89558001389226e-06 0.000594759415090887 7.09751789753027e-05)
(6.73772347199113e-06 0.00100853863718647 3.31594199669753e-05)
(2.16294919540096e-05 0.000957109843231243 3.62255917763243e-05)
(5.74677425747e-06 0.00061610287651998 6.52706730268176e-05)
(3.76558909747759e-05 0.000918171114245634 3.97111354811599e-05)
(1.86244675619951e-05 0.000548413557019523 7.00933146813138e-05)
(4.77594335232717e-06 0.000593923533179726 0.000106875353576133)
(6.12234221915183e-06 0.00103360337435384 3.0413956309148e-05)
(2.05032231990531e-05 0.000982560497519872 3.32312277035447e-05)
(5.47006067361288e-06 0.000636248249531386 5.99506918311896e-05)
(3.63051419461989e-05 0.000938383788618002 3.71521088695355e-05)
(1.81643868352778e-05 0.000565450673818196 6.47814068084852e-05)
(4.58833082962945e-06 0.000614028005920226 9.83097258498557e-05)
(5.33134852010505e-05 0.000921234485472412 4.07049725128131e-05)
(3.2763440625115e-05 0.00052958048737661 6.98668619240924e-05)
(1.45352758086029e-05 0.000579410854927351 0.000106758146874963)
(4.20072731676354e-06 0.000609429364839013 0.000140943660391052)
(5.50059199205711e-06 0.0010571094797939 2.80363047006483e-05)
(1.88086469958932e-05 0.00100677620563266 3.03290589498347e-05)
(5.08665475790278e-06 0.000654949112985102 5.51357862511905e-05)
(3.43526118679152e-05 0.000963310506240023 3.42348091742129e-05)
(1.73143762659923e-05 0.000583355117302047 5.96391762732032e-05)
(4.34021437395255e-06 0.00063289063467678 9.05148851054322e-05)
(5.09492247639311e-05 0.000940748135252002 3.82905848813364e-05)
(3.17089301082504e-05 0.000544305051925833 6.47962658379217e-05)
(1.39850977520508e-05 0.000597215768883098 9.82502122154424e-05)
(3.99930423337064e-06 0.000627915371789378 0.000130125345996652)
(6.92021290199006e-05 0.000911433271903011 4.06861973427408e-05)
(4.70633938551274e-05 0.000516248854076557 7.00228460750199e-05)
(2.58806384612722e-05 0.000568942425017103 0.000106708849228885)
(1.2212855690038e-05 0.000602723604911247 0.000140950876292622)
(3.68249962265589e-06 0.000636932549789786 0.000171683252150009)
(4.94907203036632e-06 0.00107925959048931 2.59987542914419e-05)
(1.71029570496057e-05 0.00102954096213692 2.7935274561666e-05)
(4.69958445484401e-06 0.000672315453327125 5.09396109029489e-05)
(3.18074913876203e-05 0.000987521472089979 3.12785121101523e-05)
(1.619866510601e-05 0.000601048873360499 5.48999049055344e-05)
(4.03424996085223e-06 0.000650651806829227 8.35083591680202e-05)
(4.80750595559393e-05 0.000965701414366614 3.54124677817961e-05)
(3.02096148182851e-05 0.0005611571148567 5.97658462938544e-05)
(1.32919522230794e-05 0.000614956217932609 9.05115792655371e-05)
(3.75112281032018e-06 0.000645455555518918 0.00012021650738279)
(6.56149019453848e-05 0.000930804836585982 3.83810186367036e-05)
(4.5339203756046e-05 0.000530019042621119 6.50688025724998e-05)
(2.47640044680867e-05 0.000585328515975746 9.81214745666074e-05)
(1.16363056069767e-05 0.000619857738694003 0.000130215257349655)
(3.48526153863492e-06 0.000653660533683136 0.000159133383656705)
(8.36359090204587e-05 0.000886736805108048 3.95606541776104e-05)
(6.09348293070413e-05 0.000492541762418909 6.88559132768338e-05)
(3.75982731082833e-05 0.000555396204122908 0.000106311600899739)
(2.14638051955225e-05 0.000593924497874917 0.000140645176935716)
(1.06049140580007e-05 0.000631425793065566 0.000171367706011565)
(3.26100647715273e-06 0.000672397391420648 0.000199182168881236)
(4.46406634075087e-06 0.00110033982194588 2.43003093697457e-05)
(1.55544201390961e-05 0.00105085380338443 2.59080102273029e-05)
(4.33984370028278e-06 0.000688544233995345 4.73563935116782e-05)
(2.92205206188563e-05 0.00101038993514751 2.88419257476778e-05)
(1.50765752088878e-05 0.000617628901740919 5.07714995761115e-05)
(3.72398764013907e-06 0.00066740415216554 7.73456058281706e-05)
(4.46732668306526e-05 0.000990252546974674 3.24028213522896e-05)
(2.84279955516417e-05 0.000578611152466864 5.52127301169168e-05)
(1.23774188003761e-05 0.000632325224782372 8.36240498270972e-05)
(3.48000948492883e-06 0.000662212976003004 0.000111304234631376)
(6.17285094081428e-05 0.000955904140791777 3.55844574259486e-05)
(4.32071049642216e-05 0.000546424683172198 6.01892744537567e-05)
(2.34269458108042e-05 0.000602475018714556 9.0621641051025e-05)
(1.09101331989156e-05 0.000636742429012578 0.000120398210778944)
(3.2483833006945e-06 0.000669822794137815 0.000147598881232753)
(7.88127206793221e-05 0.0009061236688766 3.76139173126219e-05)
(5.86213671819378e-05 0.000505876456776681 6.40511797954708e-05)
(3.60017074204486e-05 0.000571102875098706 9.80367455781226e-05)
(2.04527103200089e-05 0.000610171623730875 0.000130117294686312)
(1.00467598283354e-05 0.000647185813291192 0.000158941583602208)
(3.06963224338923e-06 0.000687316573833261 0.000185365153085432)
(9.50071975509859e-05 0.000852441371289223 3.77124363836647e-05)
(7.34409968118913e-05 0.000459579537094514 6.61565447688632e-05)
(4.8978802713254e-05 0.0005311462674961 0.000103594187785455)
(3.13095874278522e-05 0.000579707588603779 0.000139303705644493)
(1.85057508294949e-05 0.000622160677852292 0.000170511978966992)
(9.52892849570631e-06 0.00066628763785232 0.00019821959206341)
(2.95980237280826e-06 0.000712837247351608 0.000223511011532186)
(4.04550614840322e-06 0.00112062926679267 2.29074853951609e-05)
(1.41835711382524e-05 0.00107097961235347 2.42148531125554e-05)
(4.01464946234659e-06 0.000703894349873516 4.43800541749757e-05)
(2.68017396921984e-05 0.00103174315162658 2.6759471350954e-05)
(1.40276167050181e-05 0.000633072087818577 4.72292337960745e-05)
(3.42954756843401e-06 0.000683329296501274 7.20669386411964e-05)
(4.12070051225691e-05 0.00101365767764091 2.99398559376417e-05)
(2.66098561231279e-05 0.000595101480029019 5.11828969237838e-05)
(1.14447705134282e-05 0.000648833619531893 7.75168199798252e-05)
(3.20770730090524e-06 0.000678291956913919 0.000103472628149744)
(5.74560326663218e-05 0.000980817016984022 3.26145789023606e-05)
(4.07883720839378e-05 0.000563935053822617 5.56754007543812e-05)
(2.1941680119429e-05 0.000619781128803118 8.42172846856978e-05)
(1.01083333794512e-05 0.000653281724013234 0.000111584546942122)
(2.9953902594412e-06 0.000685536319783238 0.000137213297551689)
(7.40971452380081e-05 0.000931584672462751 3.49205414491752e-05)
(5.59245473188775e-05 0.000522069547353727 5.93877781840848e-05)
(3.39442448223859e-05 0.000587968903869002 9.07156038409271e-05)
(1.91959223822708e-05 0.000626663785871775 0.000120538486597846)
(9.34666716507847e-06 0.000662850070562874 0.00014754667016799)
(2.83892472955156e-06 0.000702030834727874 0.000172627727930557)
(8.94511019937396e-05 0.000869304216876152 3.61327806974087e-05)
(7.06453924314377e-05 0.000472582463975049 6.17710488503863e-05)
(4.68626930106775e-05 0.000546590634463245 9.59968965753927e-05)
(2.98360289209896e-05 0.000595508375532698 0.000129148660630978)
(1.75335137017312e-05 0.000637251244808144 0.000158351793302587)
(8.96929426409042e-06 0.000680421410669502 0.000184579969413586)
(2.76863623334739e-06 0.000725879951804553 0.000208811431887526)
(0.000102450010056499 0.000815742862308199 3.5068518019817e-05)
(8.35768905991511e-05 0.000422136862408987 6.24755895828942e-05)
(5.90623112166198e-05 0.000497667578515863 9.92557390830356e-05)
(4.0907783884627e-05 0.000554975710165283 0.000135608923399868)
(2.70236876106981e-05 0.000606649480708366 0.000168294818099205)
(1.65757170695505e-05 0.000655872084409831 0.000196647512538769)
(8.85658692198513e-06 0.000705455968576117 0.000221888565622852)
(2.79692344425276e-06 0.000756007481251476 0.000244910216338488)
(3.68545939955173e-06 0.00114040816174645 2.18387959811472e-05)
(1.29860819621307e-05 0.00109020451542006 2.28436929117114e-05)
(3.72775072942535e-06 0.000718607028731937 4.20001223345428e-05)
(2.46094505026233e-05 0.00105183868699718 2.50080823547014e-05)
(1.30776431012819e-05 0.000647603343940288 4.42673529827132e-05)
(3.15617236220921e-06 0.000698644734117979 6.76827611258652e-05)
(3.79107724728843e-05 0.00103555724183808 2.78355557225505e-05)
(2.48764915952347e-05 0.000610440716412848 4.76901248602467e-05)
(1.05534636356801e-05 0.000664532897136983 7.22577285749198e-05)
(2.94303023171744e-06 0.000693851901867108 9.67666890590644e-05)
(5.31150946028362e-05 0.00100472481117489 3.02222256524086e-05)
(3.83087468537916e-05 0.000580621087547971 5.16848681001619e-05)
(2.03807007498779e-05 0.00063628779231858 7.819491097299e-05)
(9.29195496054836e-06 0.000669241801814004 0.000103811459761621)
(2.74168946132467e-06 0.000700890659140738 0.000128080621545746)
(6.91027786743475e-05 0.00095685548347479 3.2000478489996e-05)
(5.29073454625736e-05 0.000539674385541618 5.5004335736584e-05)
(3.17936515562206e-05 0.000605310328534905 8.42008520312874e-05)
(1.78162966297585e-05 0.000643136161431468 0.00011191403854372)
(8.5893010674925e-06 0.000678377558074396 0.000137299770821206)
(2.59230689421873e-06 0.000716619263251318 0.000161142012859728)
(8.44435426414782e-05 0.000894924764417144 3.37567232496308e-05)
(6.7537850798532e-05 0.000488680027966916 5.74013189075102e-05)
(4.43348209506234e-05 0.000563359326605494 8.89632943612227e-05)
(2.80268251802441e-05 0.000611821980445917 0.000119841527496369)
(1.63378176431806e-05 0.000652589424352103 0.000147207033010349)
(8.27949301642049e-06 0.000694714869365881 0.000172040374869262)
(2.53546676742221e-06 0.000739058096944887 0.000195238517590557)
(9.60186063210749e-05 0.00082684581652567 3.41050928040901e-05)
(8.04919758870074e-05 0.00043267284832445 5.8548309277362e-05)
(5.6581782031786e-05 0.000512978481488294 9.2206949293269e-05)
(3.8986491991213e-05 0.000570629023279631 0.000125993993209959)
(2.56138925881363e-05 0.000621429990134708 0.000156602207023776)
(1.55952735892771e-05 0.000669462279787706 0.000183341370762299)
(8.27356259005462e-06 0.00071784089548078 0.000207416677609051)
(2.58780686292873e-06 0.000767091021451869 0.000229644230717495)
(9.09910943053859e-05 0.000381610447225774 5.81052949995993e-05)
(6.71919302687182e-05 0.00045832776734147 9.37357817721129e-05)
(4.94320115293025e-05 0.000521079263171357 0.000129844595051087)
(3.53763030424737e-05 0.000581040260040823 0.000163542940628331)
(2.41934488451828e-05 0.000638933541625787 0.000193598453249641)
(1.54106760865874e-05 0.00069366310188474 0.000219638420679014)
(8.52064131984079e-06 0.000747293616407234 0.000242752352371304)
(2.75758478556394e-06 0.00080028784354469 0.000263674775779719)
(3.377212024756e-06 0.00115994429053981 2.11289767123242e-05)
(1.19651828811834e-05 0.0011087973948526 2.17969085887582e-05)
(3.47877186520276e-06 0.000732908188216254 4.01975467784791e-05)
(2.26768794435187e-05 0.00107095439531899 2.35837137499505e-05)
(1.22380649852372e-05 0.00066145396696519 4.18807257430634e-05)
(2.90762242492225e-06 0.000713552143298185 6.41801720748457e-05)
(3.49061890792171e-05 0.00105616006546317 2.60365276240635e-05)
(2.32862555387321e-05 0.000624834188826265 4.47465708336493e-05)
(9.72379965229808e-06 0.000679609703851838 6.78653747742669e-05)
(2.69307062788878e-06 0.00070906403840686 9.12006377413653e-05)
(4.89679207136925e-05 0.00102716615220472 2.81592327803841e-05)
(3.59127091015687e-05 0.000596166919721336 4.82195603084485e-05)
(1.88645137624692e-05 0.00065198720751733 7.29527003480804e-05)
(8.49777370205783e-06 0.000684702513835283 9.71255706930164e-05)
(2.49457736453168e-06 0.000716012129982445 0.000120262347126824)
(6.39883579261135e-05 0.000981199768261493 2.97028330522069e-05)
(4.97945539627754e-05 0.000556561998597632 5.11675348002669e-05)
(2.96173899715359e-05 0.000621962833331881 7.82646010940549e-05)
(1.64098286903233e-05 0.000659097488866296 0.000104256723652702)
(7.82435393053252e-06 0.000693621776020578 0.000128256796722524)
(2.3447141196521e-06 0.000731150033500218 0.000151036874777427)
(7.88905233708715e-05 0.000920585077634007 3.09407432470758e-05)
(6.40334033632464e-05 0.00050640489656146 5.32499460805599e-05)
(4.15970484748768e-05 0.000580805207495614 8.26323901786299e-05)
(2.60501835453913e-05 0.000628344646009731 0.000111453465576434)
(1.50382112504448e-05 0.000668035646477454 0.00013718641221221)
(7.53144791373491e-06 0.000709128984869465 0.000160741293296221)
(2.28577800843096e-06 0.000752414516288389 0.000182986168807199)
(9.13600295011704e-05 0.000849622998170453 3.22652454125001e-05)
(7.72608059516538e-05 0.000448412308237972 5.46139073604812e-05)
(5.36780549361325e-05 0.000529748976004699 8.56145936131036e-05)
(3.66789500032061e-05 0.000586916385801937 0.000117120940180122)
(2.39083165156852e-05 0.000636647072002367 0.000145852735504388)
(1.44055339002244e-05 0.000683471958607183 0.000171108957811916)
(7.5642109183087e-06 0.000730650592210179 0.000194085918330112)
(2.34512523337544e-06 0.000778625616584919 0.00021553978698442)
(9.89683334056171e-05 0.000783608433413968 3.09863725469806e-05)
(8.73548365679014e-05 0.000392073820974505 5.47195394688808e-05)
(6.44723006627911e-05 0.000472552691183153 8.71916909547575e-05)
(4.71677946772541e-05 0.000536746757882443 0.00012088616749706)
(3.35555242407626e-05 0.000595749377107275 0.00015248371855363)
(2.27757005748678e-05 0.000652281571471369 0.000180818931070718)
(1.43727232687939e-05 0.00070558256234428 0.00020554625236266)
(7.88344944274432e-06 0.000757813779369048 0.00022775329906097)
(2.52063685366024e-06 0.000809311335566787 0.00024810757621849)
(7.30998432566255e-05 0.000415287689084378 8.73820966440198e-05)
(5.63161828001791e-05 0.000480858673403898 0.000122689683667686)
(4.2804255296125e-05 0.000546584033951144 0.00015655652919361)
(3.16686930203877e-05 0.000612335446934607 0.000187929224550054)
(2.24558951909477e-05 0.000675308745587353 0.00021587110230535)
(1.48445455993305e-05 0.000734159582356922 0.000239944906589988)
(8.47499627850391e-06 0.000790469228179279 0.000261127013786449)
(2.81222677967247e-06 0.000844530717893645 0.000280062331366964)
(3.12401609313774e-06 0.00117949548184577 2.07430274737584e-05)
(1.11110802022944e-05 0.00112704410692005 2.10700939318142e-05)
(3.26679532466839e-06 0.000747009125954 3.89486477144066e-05)
(2.1012739297053e-05 0.00108937376822103 2.24908407192444e-05)
(1.15128664038322e-05 0.000674841841138965 4.0056154900421e-05)
(2.6852935723658e-06 0.000728242933575549 6.15275961067762e-05)
(3.22362512075002e-05 0.00107571925035644 2.45420920225515e-05)
(2.18709679854843e-05 0.000638511188358218 4.23530773979488e-05)
(8.96922990897246e-06 0.000694256959410448 6.43351518293752e-05)
(2.46101328607711e-06 0.000724092177605444 8.67589551251664e-05)
(4.51428956233997e-05 0.00104826845540893 2.63722052966995e-05)
(3.36904888113743e-05 0.000610743478767828 4.52783910706425e-05)
(1.74403417259591e-05 0.000667047589916424 6.8546140083902e-05)
(7.74156877164788e-06 0.000699814756063661 9.15486303463884e-05)
(2.25914972156065e-06 0.000731034978153855 0.000113781167135861)
(5.906167270975e-05 0.00100412582696875 2.77183017268173e-05)
(4.67689633602e-05 0.000572327006663201 4.78046352034978e-05)
(2.74805650041365e-05 0.00063780920024309 7.31333610954322e-05)
(1.50375041590066e-05 0.000674565982354094 9.76331297417295e-05)
(7.07539525772485e-06 0.00070864902545125 0.000120478762509804)
(2.10259896995368e-06 0.000745717968970926 0.000142391841635011)
(7.30961784474344e-05 0.000945382114286753 2.86318032034385e-05)
(6.0371625451683e-05 0.000523511944234136 4.9615803109483e-05)
(3.8780671043203e-05 0.000597629001777757 7.69793393752669e-05)
(2.40388185276524e-05 0.000644407880312077 0.000103985700812308)
(1.37150290293625e-05 0.00068325018333018 0.000128299648095985)
(6.7780202741935e-06 0.000723543862924974 0.000150763831732312)
(2.03508303559105e-06 0.000765997658522802 0.000172208114611631)
(8.60526866449311e-05 0.00087528312157295 2.93601759650843e-05)
(7.34603371401137e-05 0.00046620906065244 5.07155784784192e-05)
(5.04392377385215e-05 0.000547344309616064 7.96521934783747e-05)
(3.4144544200147e-05 0.000603547140994221 0.000109106611441715)
(2.20447535203629e-05 0.000652122453249927 0.000136146120433947)
(1.31259544970265e-05 0.000697792040278544 0.000160081562073904)
(6.79972631673286e-06 0.000743845434824938 0.000182058780328621)
(2.08371632783812e-06 0.00079063007807878 0.000202807559776592)
(9.41695937950469e-05 0.000799915284114537 2.99713858669754e-05)
(8.43564675253453e-05 0.000403257351661258 5.12426110459395e-05)
(6.13577489341378e-05 0.000489203600614136 8.11077718393145e-05)
(4.4457331330969e-05 0.000553109709356006 0.00011257280628016)
(3.1363812859472e-05 0.000610970077414103 0.000142266226214801)
(2.10787635908435e-05 0.000666199061552658 0.000169044609677409)
(1.31459590773359e-05 0.000718146856322344 0.00019257421891998)
(7.13197602476514e-06 0.000769026800635583 0.000213921662095892)
(2.25866120130352e-06 0.000819081803206599 0.000233725806908244)
(9.89627948553137e-05 0.000732254043528505 2.86883056046536e-05)
(9.15414726822004e-05 0.000346384954956456 5.002013144135e-05)
(7.00479987175306e-05 0.000429188833683498 8.14744203108511e-05)
(5.3824108498982e-05 0.000496030543940058 0.00011434943130088)
(4.06368368978612e-05 0.000561386404071201 0.000146257262030611)
(2.98354350636867e-05 0.000625678171708206 0.000175861498543259)
(2.0959211407153e-05 0.00068704878957671 0.000202355732052991)
(1.37127950647287e-05 0.000744287012421954 0.000225357934373175)
(7.75817551385199e-06 0.000798998444954822 0.000245847027567485)
(2.54350569560043e-06 0.000851376338738508 0.000264418374312339)
(6.13148544169326e-05 0.000436255855277592 0.000114592706750094)
(4.88173871498626e-05 0.0005058400766969 0.000148065382339096)
(3.83309623568319e-05 0.000577296284389479 0.000179949141945583)
(2.93667952735137e-05 0.000647721964333558 0.000209443874710047)
(2.15963825224131e-05 0.000714525221323289 0.000235589579431236)
(1.47659599521965e-05 0.000776194887984051 0.000257877569950375)
(8.66841911380276e-06 0.000833894112530559 0.000277234397412275)
(2.94046529899285e-06 0.000887886469594202 0.000294252003580173)
(2.91790916196825e-06 0.00119930983452882 2.06498036608366e-05)
(1.04045758999119e-05 0.00114518487513626 2.06550287104763e-05)
(3.08986856448426e-06 0.000761108723830888 3.82268632300001e-05)
(1.96087827537928e-05 0.00110737887344243 2.17157330546096e-05)
(1.08996669792002e-05 0.000687971941238482 3.87772638144743e-05)
(2.48945208251332e-06 0.00074289740861668 5.9686735484758e-05)
(2.99142292068491e-05 0.00109452348485024 2.33628578186236e-05)
(2.06431372315276e-05 0.0006516850795607 4.05018980577304e-05)
(8.29506977448865e-06 0.000708660319241943 6.16425415821469e-05)
(2.24932002985661e-06 0.000739094876074259 8.34066152328312e-05)
(4.17175243022617e-05 0.00106827821852058 2.48579599278187e-05)
(3.16955629940416e-05 0.000624566945249544 4.28634259011341e-05)
(1.61373439335954e-05 0.000681655189214183 6.49759273774886e-05)
(7.03893134568362e-06 0.000714732045778604 8.70735981220285e-05)
(2.03866083425576e-06 0.000746090060676931 0.000108624785097353)
(5.44992603187453e-05 0.00102569214723881 2.59665717833023e-05)
(4.3947613099281e-05 0.000587100682745897 4.49131575889189e-05)
(2.54585001040595e-05 0.000652989815548582 6.87916203927522e-05)
(1.37296903655126e-05 0.000689672043704359 9.20769585272095e-05)
(6.35655595560535e-06 0.000723577036587772 0.000113998891425148)
(1.87078945375477e-06 0.000760425032357224 0.000135240016144737)
(6.74908365183198e-05 0.000968817906803973 2.66898331576952e-05)
(5.67902749630542e-05 0.000539520038600874 4.6399787201619e-05)
(3.60184562668684e-05 0.000613631958196992 7.20126551892375e-05)
(2.20608510481848e-05 0.000659966485387653 9.74880942112884e-05)
(1.24134208856612e-05 0.000698247689760811 0.000120616180812914)
(6.03897178288989e-06 0.000738004602646811 0.000142189072360441)
(1.78982686871895e-06 0.000779874517363238 0.00016300088577763)
(7.9733120609451e-05 0.000900772219494847 2.71071494884751e-05)
(6.93887392178227e-05 0.000483583789395352 4.7288712364268e-05)
(4.70822112526354e-05 0.00056436594288473 7.43056499144242e-05)
(3.15412167268077e-05 0.000619744359469289 0.000101932140743968)
(2.01340382617175e-05 0.000667390595630741 0.000127495184703273)
(1.18221789902376e-05 0.000712153721686259 0.000150299097903869)
(6.03160864605035e-06 0.000757310758672793 0.000171439492590546)
(1.82224829393075e-06 0.00080312819714301 0.000191615905380425)
(8.92028284289682e-05 0.000825028494858625 2.8154546804313e-05)
(8.05480856680297e-05 0.000420782569878865 4.7628544407148e-05)
(5.77743373967626e-05 0.00050692784624274 7.55765943243497e-05)
(4.14418373648885e-05 0.000569898960581018 0.000105025500427733)
(2.89527504178279e-05 0.000626537651330044 0.000133001701015146)
(1.92419691490868e-05 0.000680541034160152 0.000158387373730436)
(1.18379230365699e-05 0.000731249756084761 0.000180855073279072)
(6.32954561200012e-06 0.000780882258974511 0.000201439169434242)
(1.98036984717796e-06 0.000829601073829347 0.000220754981822293)
(9.37699329896778e-05 0.00074885002814991 2.78352688520398e-05)
(8.83895667863676e-05 0.000356436930806664 4.72377540310532e-05)
(6.69158600251228e-05 0.000443639238807947 7.58323000781072e-05)
(5.08476375499902e-05 0.000512437103024309 0.000106656212275835)
(3.80317975541206e-05 0.000576720549445152 0.000136688496803266)
(2.76576934161267e-05 0.000639625962200142 0.000164686564330199)
(1.92070685476626e-05 0.000699548021410736 0.000189876812578503)
(1.24090860982806e-05 0.000755288733364919 0.000211917055827137)
(6.94399061259194e-06 0.00080849092096783 0.000231760230678972)
(2.2551574709177e-06 0.000859253013561677 0.000249981293000205)
(9.43639403843461e-05 0.000678578088499528 2.59141778218908e-05)
(9.3061877903436e-05 0.000294381260880023 4.53785268301781e-05)
(7.33826734730865e-05 0.00038206746610592 7.50186592943498e-05)
(5.85646051419926e-05 0.000451500564016765 0.000107012486659007)
(4.64112092284734e-05 0.000520406993525066 0.000138478671087107)
(3.61350861496556e-05 0.000590791309728292 0.000168716419658359)
(2.74288206529433e-05 0.000659520502683681 0.000196693161090282)
(1.99595535761699e-05 0.000724525383053675 0.00022160826639515)
(1.35121388526674e-05 0.00078439826080948 0.000243035676179361)
(7.85696168276951e-06 0.000840301640045147 0.000261885481515416)
(2.63686986385007e-06 0.000892426817482639 0.000278734908475873)
(5.32073837221011e-05 0.000460630553622018 0.000138563780432686)
(4.37419049030796e-05 0.000536169582215886 0.000170385838568626)
(3.55418778271161e-05 0.000612105263344884 0.000200662546114762)
(2.82106499796657e-05 0.000686024976023179 0.000228541436148902)
(2.14611609875088e-05 0.000755478315780454 0.000253043075111604)
(1.51028587641077e-05 0.000818730551968904 0.000273633636592512)
(9.06437928130757e-06 0.000876680975971674 0.000291214253641399)
(3.12465872548891e-06 0.000929687390093417 0.000306353585904662)
(2.75604203110734e-06 0.0012196224813299 2.0840029561628e-05)
(9.84089496099926e-06 0.00116347258106627 2.05547974685411e-05)
(2.94569615652084e-06 0.000775398786326513 3.80080188036146e-05)
(1.84587157509573e-05 0.00112520038552545 2.12518072954346e-05)
(1.03960205003113e-05 0.000701039987910606 3.80268774525888e-05)
(2.3191928327768e-06 0.000757687810959295 5.86189437303976e-05)
(2.79446541632983e-05 0.00111283736377723 2.24945476911231e-05)
(1.9606447915881e-05 0.000664559505158359 3.9184690650841e-05)
(7.70252219936903e-06 0.00072299633562876 5.97564900507542e-05)
(2.05889834703425e-06 0.000754223378613757 8.10993859798544e-05)
(3.87355720303421e-05 0.00108745381706438 2.36224365099712e-05)
(2.99578656414008e-05 0.000637845704930705 4.09743747726587e-05)
(1.49694883323954e-05 0.000695989921367157 6.22265571194574e-05)
(6.39626995171036e-06 0.000729607716062765 8.36734828630355e-05)
(1.83521501887011e-06 0.000761304805862139 0.000104759711630968)
(5.04096623239604e-05 0.00104610493785401 2.44470028205398e-05)
(4.14067378734736e-05 0.000601081892256179 4.25039300743688e-05)
(2.35957948591362e-05 0.000667682441732434 6.52428710043405e-05)
(1.25132616528116e-05 0.000704564757211981 8.7590685489983e-05)
(5.67913974441249e-06 0.000738529178013653 0.000108815070709298)
(1.65217607933607e-06 0.000775372125526363 0.000129577078461519)
(6.23213166829775e-05 0.000990858792791544 2.49851682272385e-05)
(5.34443605708272e-05 0.000554515438496068 4.35946359230171e-05)
(3.34012874798692e-05 0.000628934988675265 6.77587896033621e-05)
(2.01707615895601e-05 0.000675136392411275 9.19959771321483e-05)
(1.11623626374494e-05 0.000713132449310554 0.000114177833240428)
(5.32806479455332e-06 0.000752600710971436 0.000135060931817913)
(1.55460534143947e-06 0.000794117894385097 0.000155408885930309)
(7.36186221870016e-05 0.000924896047780037 2.51750404465496e-05)
(6.53755987480279e-05 0.000499903672135617 4.42289600247583e-05)
(4.377894911557e-05 0.000580552551487566 6.9551885523952e-05)
(2.89715638775325e-05 0.000635413170536303 9.56331754058844e-05)
(1.82445420153021e-05 0.000682426362481415 0.000119965996166321)
(1.05370919573977e-05 0.000726554990004941 0.000141846665220375)
(5.27976687063935e-06 0.000771070834289062 0.000162326313749278)
(1.56784141503446e-06 0.000816164193434522 0.000182077853728256)
(8.30309190350298e-05 0.000851007549100226 2.56795896919334e-05)
(7.62480360785745e-05 0.000438471591247925 4.442028470902e-05)
(5.40101507371192e-05 0.000524187463522787 7.05720752759061e-05)
(3.83189021556599e-05 0.000586269178387438 9.82157266952088e-05)
(2.64649770708157e-05 0.00064190527181036 0.000124687805666621)
(1.73552227903209e-05 0.000694924536650436 0.00014888185685427)
(1.05094471785437e-05 0.000744650502373955 0.000170460243251336)
(5.52698935468822e-06 0.000793265618718618 0.000190427809159582)
(1.70135382013364e-06 0.000840870683217019 0.000209374584824503)
(8.8578614509716e-05 0.000774131464352834 2.6227792031019e-05)
(8.47208935051371e-05 0.000371898063638697 4.4284433380681e-05)
(6.31807910552939e-05 0.000461303849689209 7.07221734015406e-05)
(4.74615861316789e-05 0.000529402727885363 9.96321787915198e-05)
(3.51412798030285e-05 0.000592445531762135 0.000127958691502437)
(2.52694490543056e-05 0.000654053018302178 0.000154522393216537)
(1.73284478036095e-05 0.000712669610022966 0.000178569462168243)
(1.1034140228774e-05 0.000767064327084966 0.000199767515546139)
(6.08772613812876e-06 0.000818876043374388 0.000219053857496622)
(1.95494762283349e-06 0.000868144614342846 0.000236979111715693)
(8.99383151868128e-05 0.000696840016087471 2.54092712068941e-05)
(8.96968417557353e-05 0.000305177576105395 4.2930453924992e-05)
(7.0125148354095e-05 0.00039559687863349 7.0043680833495e-05)
(5.5484024089902e-05 0.000466757989631411 9.97871722154257e-05)
(4.35098820674129e-05 0.000535861100243524 0.000129607637303494)
(3.35247660468357e-05 0.000604887198247182 0.00015825264701665)
(2.51714348517274e-05 0.000672082666339775 0.000184862766440208)
(1.80959985008336e-05 0.000735492785655292 0.000208691980650523)
(1.20980867406043e-05 0.000793715718975315 0.000229354901467152)
(6.96682905924019e-06 0.000847939638819176 0.00024775897594054)
(2.31569138356147e-06 0.000898275922325029 0.000264433709481361)
(8.46496865287487e-05 0.000625976059554175 2.26383787475863e-05)
(9.11133620479976e-05 0.000240750734950606 4.06975960904041e-05)
(7.45420154933269e-05 0.000329486643645693 6.81566709109717e-05)
(6.14003452267564e-05 0.000403372134558791 9.89144386859323e-05)
(5.05580470325477e-05 0.000475413995416003 0.000129831898160873)
(4.12818006949262e-05 0.000549580081517975 0.000159937277337066)
(3.32093879570374e-05 0.000624113915903127 0.000188795924171446)
(2.60893928929766e-05 0.000696144869257116 0.000215362028886205)
(1.9639436605043e-05 0.000763614042521963 0.000238824492712481)
(1.36964870829598e-05 0.000824878704930808 0.00025874085121839)
(8.14567226005546e-06 0.000880835857213295 0.000275995034431385)
(2.78418216819555e-06 0.000931808264854193 0.000291148553716244)
(4.77229991303727e-05 0.000490694089513303 0.000159769394797058)
(4.05831363504779e-05 0.000570648317265335 0.00019024430974618)
(3.41443115668752e-05 0.000649853478184485 0.000219111001381895)
(2.80223593648683e-05 0.00072618172590532 0.000245486375015451)
(2.19415732396146e-05 0.000797148281214654 0.000268402181985491)
(1.57896944845744e-05 0.00086086550216524 0.00028733289677026)
(9.62423773963351e-06 0.000918113179590447 0.000303156103349536)
(3.35080969818849e-06 0.000969419440639312 0.000316433265572282)
(2.6373150936361e-06 0.00124065163285443 2.13077854294681e-05)
(9.40828489364175e-06 0.00118215226841939 2.07639548239396e-05)
(2.83027048471769e-06 0.000790067625830518 3.82749127425623e-05)
(1.75431563187581e-05 0.00114309535937658 2.11071093825095e-05)
(9.99372359741047e-06 0.000714235204330345 3.77897593450368e-05)
(2.17247369846923e-06 0.000772782441517143 5.82881947733494e-05)
(2.63218207998412e-05 0.00113091687574802 2.19499648645561e-05)
(1.87545071075724e-05 0.000677328002549817 3.83917755230725e-05)
(7.18952415248338e-06 0.000737434831010091 5.86449315367121e-05)
(1.8894983332649e-06 0.000769625410226163 7.97910069080125e-05)