/*--------------------------------*- C++ -*----------------------------------*\
  =========                 |
  \\      /  F ield         | OpenFOAM: The Open Source CFD Toolbox
   \\    /   O peration     | Website:  https://openfoam.org
    \\  /    A nd           | Version:  12
     \\/     M anipulation  |
\*---------------------------------------------------------------------------*/
/*   Windows 32 and 64 bit porting by blueCAPE: http://www.bluecape.com.pt   *\
|  Based on Windows porting (2.0.x v4) by Symscape: http://www.symscape.com   |
\*---------------------------------------------------------------------------*/
FoamFile
{
    format      ascii;
    class       volScalarField;
    location    "400";
    object      k;
}
// * * * * * * * * * * * * * * * * * * * * * * * * * * * * * * * * * * * * * //

dimensions      [0 2 -2 0 0 0 0];

internalField   nonuniform List<scalar> 
10063
(
8.14436064206177e-05
7.97757540170842e-05
8.13286495438378e-05
7.73813350538258e-05
0.00015952068052521
7.96750014531632e-05
7.48582920384207e-05
0.000155291118873182
7.73732767017755e-05
0.000222680138557247
0.000157724418820047
7.64734742487513e-05
7.1048412095113e-05
0.000150293718617662
7.4566323313931e-05
0.000217647641737934
0.00015352621881085
7.41058327134329e-05
0.000284175901664809
0.000220441228251232
0.000152035028811981
6.81392505508013e-05
6.70669210866777e-05
0.000143936192016005
7.07454355113698e-05
0.000211447042244626
0.000148384391711516
7.11505551977102e-05
0.000278652197198404
0.000215376895862247
0.00014776231007149
6.58293993395145e-05
0.000345534856204737
0.000282102397039358
0.000214157752539103
0.000138641990090218
5.06883204318037e-05
6.02063977493428e-05
0.000135918570982261
6.6119198695351e-05
0.000203767212641498
0.000141805899760272
6.73126164862449e-05
0.000271834676272253
0.000209061924903777
0.000142454971153857
6.28322048778205e-05
0.000339745396889999
0.000276548628729793
0.000208994124341425
0.000134355835004092
4.85713566938578e-05
0.000405333916514065
0.000343791854117638
0.000276160667592404
0.000200551905480143
0.000110284138712966
2.45938739594467e-05
5.05715695489209e-05
0.000124277813258505
5.91416748745033e-05
0.000194132308075406
0.000133326172390714
6.22455736394324e-05
0.000263550214775169
0.000201158719256274
0.000135621535185544
5.89338436145131e-05
0.000332694119111704
0.000269643489961834
0.000202493231620049
0.000128918248609864
4.58102851545645e-05
0.000399477796422049
0.000337998071490224
0.000270538602652353
0.000195280141661622
0.000106140772279379
2.28714261795859e-05
0.000462377762442621
0.000403791929838152
0.000338609709840025
0.000264042475776304
0.000172662726804628
6.05613743240559e-05
3.49007211923383e-06
3.16695688098796e-05
0.000105953931950732
4.85535138443755e-05
0.000181249731870157
0.000121239087412996
5.48499478658713e-05
0.000253516383081192
0.000191140836908086
0.00012656324729036
5.37952489946118e-05
0.00032429279009357
0.00026117895424678
0.000194248493819554
0.000121852806845076
4.22786687078504e-05
0.000392425380400429
0.00033090433575676
0.000263480156001282
0.000188573302489682
0.000100761168396053
2.09654670781695e-05
0.000456567934940872
0.000397955185363502
0.000332795822804794
0.000258337340212726
0.000167364192412156
5.68332622584212e-05
3.09123256217258e-06
0.000516236660632755
0.00046086081080842
0.000399173795645486
0.000328696612247112
0.000241133663501486
0.000116253192910078
8.81756929526433e-06
1.14778518316076e-05
7.38516948710832e-05
3.48784205641797e-05
0.000161858510832533
0.000102453836006669
4.27435859835566e-05
0.00024114979583508
0.000177692971714358
0.000113462942341601
4.62446073719282e-05
0.000314443292931866
0.000250810834241248
0.000183601958579752
0.000112430746090243
3.78423017872771e-05
0.000384155546750528
0.000322397790758335
0.000254702775711501
0.000179948012619627
9.37918455380066e-05
1.87554972276637e-05
0.000449598686019374
0.00039090048965365
0.000325622934342929
0.000251095671304453
0.000160492590823041
5.21966946945276e-05
2.67842538043975e-06
0.000510514504333442
0.000455084566416384
0.000393361091710495
0.000322861597709271
0.000235379992822763
0.000111136796114177
7.94773644119032e-06
0.00056698440435963
0.000514640266687085
0.000456389803576548
0.000390792106278984
0.000312750134699425
0.000196056017269196
1.87728363360004e-05
1.21466685095752e-06
3.06226432779459e-05
2.60252779309836e-05
0.000131755249406826
7.56060361034634e-05
6.45673203675089e-05
0.000225260222595458
0.000157800265963836
9.0691831734956e-05
8.05081388730753e-05
3.3374929288468e-05
2.00314889101564e-05
0.000302996560854066
0.000237889544997563
0.000168929272381522
9.87487011450104e-05
3.19442894196311e-05
0.00037470127406223
0.00031233016451218
0.000243735289906669
0.000168649197875079
8.47576225879402e-05
1.63800623272406e-05
0.000441487464373367
0.00038259779446173
0.000316922662584153
0.000241939428959774
0.00015155375512165
4.66073003368406e-05
2.22661694250946e-06
0.000503618253221721
0.000448135824543549
0.000386301583201122
0.000315600590313737
0.000227967075453482
0.000104535880949158
6.95045385490628e-06
0.000561378286803992
0.000508961872545454
0.000450664982962654
0.000385020713539222
0.000306917988111907
0.000190375235124004
1.70601909655672e-05
0.000614941989825968
0.000565298915305203
0.000510009698897163
0.000448507656649256
0.000378546162695879
0.00029098075028786
0.000165177413742168
2.64483284673156e-05
2.39587455186751e-06
3.30025560094216e-06
5.70036234314983e-05
5.79858431885584e-05
5.50956664154016e-05
0.000201400101983465
0.000127553977733092
8.29735457442112e-05
0.000289525546205127
0.000221260612665251
0.000145317627007721
7.53773436897689e-05
5.01549472264718e-05
6.4908493740427e-05
1.47324312707926e-05
2.23095053188634e-05
0.00036418266756226
0.000300501893228384
0.0002296684316778
0.000152822460444002
7.23479782671857e-05
1.38646142226997e-05
0.000432317775652422
0.000373056385814504
0.000306447006131912
0.000230243881193047
0.000139842137003705
4.00866965421041e-05
1.72442403643381e-06
0.000495576610405037
0.000440034606455023
0.000377938291954819
0.000306677920225662
0.000218438032189976
9.62610239230703e-05
5.87258909052768e-06
0.000554522080302745
0.000502096238035356
0.000443757706995939
0.000377972911379518
0.000299621885772587
0.000182807861599093
1.47800964019243e-05
0.000609435248387148
0.000559723161393119
0.000504393118611487
0.000442863152632255
0.000372856992752069
0.000285253287333494
0.000160038452160298
2.46581829710065e-05
0.000660452581177825
0.000613153348284666
0.000560378997565451
0.000501942239090512
0.000437210282040667
0.000363077209052917
0.000270773442003497
0.0001593785739966
3.12040223629784e-05
1.27311899191878e-06
6.39945010961654e-06
7.41475634161365e-06
6.22997323301198e-05
0.000171402317597281
0.000197080611655335
0.000272928234265434
0.000101682196625713
0.000352869740175451
0.000286444441670526
0.000210563566042742
0.000127547350487357
3.56265126480283e-05
5.17091186099078e-05
8.33984214784929e-06
9.3477875301462e-06
0.000422267942880753
0.000362381787564256
0.000293867110676712
0.000214642522827409
0.00012356764402138
3.30295480638091e-05
1.44617385119747e-06
0.000486464206886307
0.000430860084696882
0.000368237837703414
0.000295721661311528
0.000206100549886573
8.58688523488641e-05
4.64286179408099e-06
0.000546445171037136
0.00049408055676389
0.000435680905203637
0.000369562520694547
0.000290575614263391
0.000173034022614834
1.24490637688823e-05
0.000602588123764275
0.000552892673270592
0.000497587628867692
0.00043602854614504
0.000365889017636006
0.000278057857384672
0.00015311966555703
2.22939767546618e-05
0.00065502545533609
0.000607682049071326
0.000554863148565887
0.000496420854073802
0.00043169319243658
0.000357549642833292
0.000265310436477833
0.00015476351225581
2.93010409784054e-05
0.00070377220964218
0.00065856175113556
0.000607911830050732
0.000551838434488554
0.000490407376078668
0.000422829460498243
0.000345868828988167
0.000255404157480945
0.000153271242670921
3.19244344403574e-05
8.62852009633003e-07
3.52216933325155e-06
1.45348964013582e-05
8.88543827545588e-06
9.11007616759402e-05
0.000130961388377764
0.000159162824805158
0.000168222470471608
0.000261253686679781
0.000173225154738839
0.000179402353936869
0.000269486767557074
0.000341528185280442
7.91157157334398e-05
0.000411615236831251
0.000350891297878533
0.000278586839777927
0.000192409887326704
9.76287317300777e-05
1.99822685696342e-05
2.14017016640935e-05
1.48992219831781e-06
1.11341617622657e-06
0.00047640288780627
0.00042079694419666
0.000357295356182415
0.000282118602784357
0.00018914512757191
7.3595447538472e-05
3.83548739312019e-06
0.00053720369695797
0.000484993024517084
0.00042650667817673
0.000359714994356904
0.000279358992721696
0.000160766130842767
9.87303606800622e-06
0.000594416592279251
0.000544846052954966
0.000489630337052641
0.000428009319182378
0.00035754552824106
0.000269144050585514
0.000144395933492364
1.99744970513535e-05
0.000648151195086381
0.000600860473429996
0.000548094579884852
0.000489712569848503
0.000424991845790565
0.000350789082038138
0.000258504531288705
0.000148945051271446
2.70149121586519e-05
0.000698410002131007
0.000653170483515635
0.000602500221238654
0.000546418512852425
0.000485027154915514
0.000417504171959405
0.000340614310334411
0.000250388719218669
0.000149162948350092
3.01787717451626e-05
0.00074507228650593
0.000701784129591075
0.000653001806893898
0.000598824582211914
0.000539651914394613
0.000475622731477208
0.000405744620375288
0.000327609501079179
0.00024104790163726
0.00014321725723801
2.96548562798428e-05
1.01098694735276e-07
2.67374600071813e-06
8.19505959368561e-06
1.56563803103602e-05
1.58039313663146e-05
0.000132554802783331
0.000157850895914588
3.11722038790262e-05
0.000148207074660412
0.000249048726077015
0.00015464340071644
0.000192111729699155
0.000158115547637927
0.000330845049598054
0.000262530877498285
0.000156212563211515
0.000259678534355604
0.000158006329572301
0.000339735953857432
0.000400569607042252
5.39547837290961e-05
0.000465512878917372
0.000410165975888766
0.000345553375142256
0.000265378284152705
0.000162258811885203
5.6734906854407e-05
3.42286918696696e-06
2.98481185795236e-06
3.39102973140324e-07
0.000526864196136146
0.000474960130679561
0.000416437385645922
0.000348504305475457
0.000265101681039935
0.000145436849289781
8.2541774301433e-06
0.000584952622520089
0.000535635211236971
0.000480600861794519
0.000418876465441305
0.000347763503774042
0.000258305530122932
0.000133860371832363
1.69093491173429e-05
0.000639838585363205
0.000592710038227077
0.000540113861789431
0.000481852636076408
0.000417112582311745
0.000342719431141672
0.000250189119276375
0.00014155166493138
2.46521346419483e-05
0.000691489387728273
0.000646321378007684
0.000595739530027346
0.00053975286365777
0.000478467556030113
0.000411025858815296
0.000334216560700395
0.000244303429526314
0.000144316912516929
2.8220996937062e-05
0.000739764906900254
0.000696457953635713
0.000647668926671283
0.00059350654178225
0.000534372007815171
0.000470437005368448
0.000400683252580262
0.000322719748564462
0.000236544638359246
0.00013969503123345
2.82191445568436e-05
0.000784459649902965
0.000742992574464275
0.000695922128492132
0.000643369402391148
0.000585884994422755
0.000524045942015382
0.0004578066588952
0.000386202834671131
0.000308428972157645
0.000224743774880884
0.000130161623790092
2.57379727407394e-05
5.12232247094555e-07
7.13660601923697e-06
1.17629303670119e-05
1.61071553389807e-05
9.2594216526313e-05
2.13973119770793e-05
0.00014997164684719
3.14100677473025e-05
2.79675226246475e-05
0.000138540134336344
0.000235076332013808
0.000141912593482031
0.000318264096822948
0.000249326608215786
0.000179001632665872
0.000145823357006292
0.000114413680283423
0.00015310927732542
0.000388847580215984
0.000329684528402473
0.000255433649361051
0.000127193940182837
0.000246979108207894
0.000140720776126513
0.000334515564748636
0.000140229804552625
0.000182030234294508
0.000399223090496267
0.000453795765539026
2.6364180906812e-05
0.000515463574827149
0.000464110224257275
0.00040585582752323
0.000336623139154548
0.000246087448436474
0.000128133366604726
7.69644552744689e-06
2.92175795446782e-05
1.22282835799501e-06
1.02343107600285e-05
0.0005742271497364
0.00052532496753097
0.000470634072228277
0.000408862250201948
0.000336669794009413
0.000245420593175833
0.000121479765431191
1.43974460599557e-05
0.000630105834613027
0.000583268285273296
0.000530971542420998
0.000472923502427897
0.000408140400131439
0.000333374339262907
0.000240385586337519
0.000133289024794287
2.16715860917541e-05
0.00068301467997637
0.000638031840580831
0.000587651689955961
0.000531879041947084
0.000470764263505786
0.000403409966590028
0.000326639965250038
0.000237022468044365
0.000138393515930559
2.60989667961681e-05
0.000732789608239051
0.00068956229043069
0.00064088016140105
0.000586846411234686
0.000527855458486276
0.000464090963462461
0.000394522101719161
0.000316815379916146
0.000231213101630095
0.000135645885264452
2.66406981629963e-05
0.000779200499977096
0.000737721548309837
0.000690652995216005
0.000638127001803195
0.000580701750756139
0.000518953033599959
0.000452866919024401
0.000381457678921346
0.000303957161953229
0.000220769417875497
0.000127152165942778
2.46110643083775e-05
0.000821996982242779
0.00078229398897449
0.000736847002057096
0.000685772217014879
0.000629682612118385
0.000569364816135029
0.000505256642337305
0.00043715333977782
0.000364611530273832
0.00028775083089602
0.00020625645648432
0.00011514658028299
2.11688129387239e-05
1.53548369508822e-06
1.41087939207949e-05
1.58003314593737e-05
7.88494478936574e-05
1.85167036805563e-05
9.07140720455738e-05
0.000111225992742278
0.000136199416396028
2.733181162107e-05
2.80295600343976e-05
0.000129164898303463
0.000223382350571896
0.000135730263919178
0.000303952524344051
0.000233192090383118
0.000132316005971062
0.000375602501499069
0.000317072527689156
0.000238794011548755
0.000143508927539784
0.0004410305129536
0.000387623377934169
0.000325014847837927
0.000245102117317228
0.00012593042877898
0.000229910083380614
0.00011063300585647
0.000325853884227218
0.000170899756450683
0.000133660926342772
0.000126577443163089
0.000395058061263489
0.000452443340373365
0.000502968131072548
5.79788047880037e-05
9.63078134158251e-06
0.000562255006627176
0.000513955067575219
0.00045986946247676
0.00039840928539699
0.000325260048066729
0.000232125063223203
0.000126686912686255
0.000105103721008558
1.2185141703572e-05
3.13399430702656e-06
6.01374953550692e-05
1.57055439393008e-05
0.000618969479678722
0.000572568234988377
0.00052073402426958
0.000463069356512876
0.000398347133054581
0.000323124397628544
0.000229342994412723
0.000124028185081088
1.88313418420105e-05
0.000672997199649
0.00062832263208492
0.000578276886307827
0.000522848399062651
0.000462003200088548
0.000394766408253501
0.000317995672538641
0.000228757573503785
0.000131699026548195
2.36048721720505e-05
0.000724148260781793
0.000681110899576304
0.000632654440925915
0.000578866483694992
0.000520139188433259
0.000456622138282443
0.000387289215806266
0.000309895738300456
0.000224979060184505
0.000130843525826479
2.48981902714341e-05
0.0007721690712203
0.000730771259222407
0.000683817402404102
0.000631438852457984
0.000574188544958412
0.00051263811169521
0.000446799922674599
0.000375684742276199
0.000298598646620279
0.000216124867322956
0.000123754705031368
2.33782558974763e-05
0.000816781774558955
0.000777071598409586
0.000731631923605571
0.000680590456223828
0.000624569233803286
0.000564358495861834
0.000500394612923334
0.000432494867557764
0.000360219770437258
0.000283717388676876
0.000202768956360478
0.000112541905295603
2.03047179946205e-05
0.000857718456665853
0.00081975079990731
0.000775882806579556
0.000726211908811098
0.000671375459253318
0.000612262860545305
0.000549546751397867
0.000483467434334361
0.00041395827181433
0.00034110800144222
0.000265284294454743
0.000185946274485442
9.90157275367194e-05
1.65696711474874e-05
5.28703308222524e-06
1.0122224525443e-05
1.77100138838914e-05
1.91068110505915e-05
7.68005732534518e-05
2.28506901339465e-05
0.000125845729210866
2.31514769250457e-05
2.54434620463877e-05
0.000120095378587639
0.000211362918658521
0.000128100818105702
0.000289533371571767
0.000221595915327084
0.000131549849752585
0.000360916033164301
0.00030254701145659
0.000226827657861467
0.000130120629633096
0.000426921232268673
0.000374410419379618
0.000312408257263957
0.000230795010343367
0.000489261954284379
0.000439720784453407
0.000383630787610599
0.000316786264072353
0.000224050848497771
0.000112291515452125
0.000152127002180636
8.03359433337454e-05
0.000230566492661965
0.000315404684090225
0.000105103782179496
0.000121738021349221
0.000387806366773844
0.000129611193481944
0.000448302927733066
0.000501489730262778
0.000549010804120845
4.57615655328602e-05
0.000606434054628825
0.000560622202968103
0.000509442016904464
0.00045243699223037
0.000388198325703262
0.000313416777513521
0.000218109212545907
0.000114032665878111
8.09507357297874e-05
0.000113746158479291
9.35745407063612e-05
1.60757431791814e-05
8.88430347884714e-06
5.05493954197384e-05
0.000661448037498732
0.000617210822430086
0.000567648163691762
0.000512728729682753
0.000452332932104759
0.00038540233215123
0.000308718055406841
0.000220012360521171
0.000125475028351607
2.10766087680477e-05
0.000713849480609289
0.000671117692846778
0.000623013773812046
0.000569606359035736
0.000511273842449385
0.00044811757885169
0.000379104222948935
0.000302101704844625
0.000218030356852585
0.000125325842900718
2.29439404746097e-05
0.000763365893272516
0.000722153692531088
0.000675430992477532
0.000623322967338466
0.000566366344723316
0.000505138293033313
0.000439643985425223
0.000368920746485698
0.000292375579952201
0.00021077318309927
0.000119757735992936
2.19994417832689e-05
0.000809696910133297
0.000770065347900583
0.000724741742726069
0.000673855089939402
0.000618025631362867
0.000558040413072928
0.00049433475625299
0.000426759765339906
0.000354878700256364
0.00027890569046073
0.000198728014478024
0.000109667584357431
1.93611399160109e-05
0.000852544283377296
0.000814572757561217
0.000770715457130962
0.000721081409962036
0.000666317407036789
0.000607317153808289
0.000544755680503423
0.000478876359025799
0.000409616476758637
0.00033708680411914
0.000261678639849498
0.000182884053351167
9.67350051484261e-05
1.59114773767781e-05
0.000891639973562225
0.000855396668500784
0.000813090754870532
0.000764793641332699
0.000711148215757487
0.000653097598862672
0.000591436830062438
0.000526629607090903
0.000458894472497017
0.000388445692674828
0.000315695292397217
0.0002410471770913
0.00016412466447385
8.22237899717057e-05
1.22872780718947e-05
1.27739538135625e-05
5.46247421705036e-05
1.61061930163006e-05
5.51215572842602e-05
2.18251468321847e-05
2.18065167466206e-05
0.000129332476870755
2.31222073930313e-05
2.037498126428e-05
2.26994949587943e-05
0.000110888872919035
0.000199038990655713
0.000119587599682602
0.000275121458418409
0.00021015935721029
0.000126033882102629
0.000345378073761953
0.000288196181190229
0.00021769350207857
0.000128240038819735
0.00041148246005017
0.000359709786995227
0.000298319016748349
0.000221534947209826
0.000125537508394046
0.000474229644385001
0.000425637205419417
0.000370530584203531
0.000304824115033614
0.000218688877064351
0.000534438233638795
0.000487810775232304
0.000435676135840662
0.000376570059036158
0.000306338550611261
0.000225194716174794
0.000106606934126798
7.51326091845934e-05
0.000214281694636517
0.000305619784480326
0.000377913943607251
0.000107587373321694
0.000144159168716229
0.000116798658322794
0.000441012764055474
0.00049705798143229
0.000547404194258043
0.000592486588911631
0.000648371738299365
0.000604700662235547
0.000555778119636677
0.000501561657805931
0.000441895620394515
0.000375763384947382
0.000299946545707197
0.000211805769568861
7.75988811377021e-05
0.000118987601945479
0.000109344329034702
9.88739332721995e-05
1.9500722824519e-05
1.38265357876771e-05
0.000701903018929631
0.000659594311141609
0.000611975735240761
0.000559099377363509
0.000501326271117123
0.000438719923916029
0.000370246875390417
0.000293824431065528
0.000211070609039266
0.000120441376460419
2.0828406206696e-05
0.000752798603963945
0.000711880167979785
0.000665509027511696
0.000613801485512339
0.000557274045510349
0.000496503373927278
0.000431481493681217
0.00036127465386776
0.000285418380810023
0.000204844207966402
0.000115201487351188
2.04780764178438e-05
0.000800741702752148
0.000761286445496325
0.000716190575650281
0.000665580836333275
0.000610068964108261
0.000550430534880953
0.000487111708881332
0.000419981951024005
0.00034862947577819
0.000273346477134387
0.000194100263022596
0.000106258801755656
1.82839824132036e-05
0.000845411314364673
0.00080751321860909
0.000763769452600078
0.000714291222818646
0.00065972509123553
0.000600962428791437
0.000538678505722097
0.000473119247841163
0.000404249407260117
0.000332200794798845
0.000257390216611169
0.000179363509581286
9.43237731463522e-05
1.52068540959215e-05
0.000886504974219031
0.00085026009443957
0.000807966920833192
0.00075970838038822
0.00070613669790713
0.000648199389218621
0.000586693871248968
0.00052208701612704
0.000454601049148362
0.000384453299239625
0.000312062674840408
0.000237844303916051
0.000161439147917459
8.02210236833772e-05
1.17888049812011e-05
0.000923764673741024
0.000889246968852233
0.000848503078874756
0.000801576036902478
0.000749104228417557
0.000692059063071795
0.000631302231245694
0.000567416788026645
0.000500784279846669
0.000431746357696212
0.000360757637403807
0.000288388541784829
0.00021512545150394
0.00014101206586924
6.49564176388829e-05
8.50000592599039e-06
1.62122325169755e-05
1.53689473576884e-05
0.000100921643987043
2.00892851680291e-05
2.16487549249995e-05
2.21801740848958e-05
2.17437035216312e-05
1.75079051941885e-05
2.01185950747115e-05
0.000101923542952963
0.000186431526528391
0.000110732763268677
0.000260365098049788
0.00019820815457566
0.000118350272937613
0.000329266267932374
0.000274010393651889
0.000207411673981526
0.000123170309765027
0.000394938476773525
0.000344205062169746
0.000284650796272737
0.000212906372878388
0.000124183350911978
0.000457872312052356
0.000410218316411955
0.000355980064607632
0.000291816029108255
0.000214456263632528
0.000121126404596002
0.000518489984415805
0.000472805179472834
0.000421683559728546
0.000363712167605499
0.000295433288661338
0.000214694374777792
0.00057710364976864
0.000532858280423374
0.000483463039563681
0.000428530730942056
0.00036687460166556
0.000296802459254671
0.000210207419704465
0.000206632238744353
0.000292429295831323
0.000365928856734091
0.000430665666077742
0.00011139196885907
0.000489310258052233
0.000542641196096769
0.000590780139924109
0.000633765663784092
0.000688316182676657
0.000646545758958925
0.000599545165170653
0.000547359920889231
0.000490337699478921
0.000428553663638768
0.000361054163729607
0.000285667661475284
0.000204362262865071
0.000115628625952148
0.000115133252688653
0.000111764777248725
1.96257599923391e-05
1.90520893148671e-05
0.000740477424065257
0.000699961225149405
0.000654063939885713
0.000602892699069227
0.00054694515260408
0.00048679491217396
0.000422435142001907
0.000352959272863761
0.00027804031253812
0.000198822997785609
0.000110487769118584
1.87988789669311e-05
0.000789923331721255
0.00075074540657882
0.000705991254265961
0.000655783372357529
0.000600721245944327
0.000541565251384752
0.000478776882959151
0.000412232107650465
0.00034156094290284
0.000267140066693801
0.000188962530854895
0.000102339347006901
1.70951195009279e-05
0.000836317051361677
0.000798582735402915
0.000755058293350739
0.000705854554969008
0.000651612508361877
0.000593215678828569
0.000531337305348065
0.000466232195712738
0.000397898810739682
0.000326483069430563
0.00025244203897911
0.000175330096283063
9.14491533806435e-05
1.43873780627135e-05
0.000879332093155468
0.000843152594620444
0.000800967696828116
0.000752862146341973
0.000699488455867742
0.000641792281738896
0.000580570399055139
0.000516293208834664
0.000449190845229497
0.000379489208186075
0.000307630351349604
0.00023404666060638
0.000158387193961306
7.82299256083227e-05
1.12813333663662e-05
0.000918668744302596
0.000884150056358957
0.000843419973087132
0.000796531966568766
0.000744133709674672
0.000687200662423964
0.000626596672479244
0.000562907443998238
0.000496517830896506
0.000427772283446375
0.000357127169665078
0.000285148740412885
0.000212312977510014
0.000138665222581302
6.32235267977429e-05
8.13402251585274e-06
0.000954081454013482
0.000921304248664441
0.000882133819429419
0.000836588631498821
0.000785298492971224
0.000729248939295796
0.000669338196537285
0.000606214294546469
0.000540352116820449
0.000472179364691956
0.000402187500337673
0.000330985312230806
0.0002592398242928
0.000187597402390583
0.000116694525935036
4.75534754471127e-05
5.29594714958448e-06
1.94911140488703e-05
1.85832448672602e-05
1.84400582733451e-05
2.02440844583013e-05
2.01270285940425e-05
2.08972791526549e-05
1.97329292334432e-05
1.52451420351607e-05
1.75716536998033e-05
9.28823958104771e-05
0.000173568242031391
0.000101811049986943
0.000245146256545314
0.000185820124049561
0.000109962835765149
0.000312559159617308
0.000259454853037209
0.000196090467682628
0.000115979340010681
0.000377468715443752
0.000328186943114825
0.000270999237880359
0.000203275373647828
0.000119347855421924
0.000440285160874627
0.000393711051997889
0.000340712343369654
0.000279073555314456
0.000206946560277534
0.000119493541650927
0.00050116795088113
0.000456478370515032
0.000406373750580613
0.000349540427922606
0.000283681728717454
0.000207763759159522
0.000116129006296607
0.000560269901593833
0.000516940737731418
0.000468551019951475
0.000414711338215214
0.000354358054685712
0.000285891522619562
0.000204690652074502
0.000617624836367108
0.000575427555681678
0.000528184611464727
0.000475861724301053
0.000418383389661903
0.000355141233305041
0.00028401012027806
0.000202148250566026
0.000198710406036891
0.00027801077531704
0.000351523440330907
0.000417579429026976
0.000478276333096383
0.000113857068429527
0.000534365263970206
0.000585712367558794
0.000631970054909837
0.000673094159442153
0.000726412664614697
0.000686404650576493
0.000641101741210159
0.000590603076804895
0.000535395756660912
0.000476051515873768
0.000412602235426687
0.000344191315573144
0.000270521775059056
0.000192933608403429
0.000106348013067665
0.000111781421143577
0.000113517153500993
1.73640239528804e-05
1.92414008455376e-05
0.000777252660102676
0.00073845329655159
0.000694155260441553
0.000644476100688748
0.000590001748436372
0.000531478318360547
0.000469382586126294
0.000403607361747302
0.000333820875075127
0.000260486871329049
0.000183538574687996
9.8075935134144e-05
1.58002702465073e-05
0.000825267266488769
0.000787791376951736
0.000744594110002061
0.000695784768895212
0.000641995562889525
0.000584098648292506
0.000522761928279016
0.00045826178190597
0.000390618064113912
0.000320002506832543
0.000246901001681855
0.000170822246809317
8.81339621092943e-05
1.3474747726972e-05
0.000870114125836915
0.000834083263885631
0.000792106025737479
0.000744267480507368
0.000691215942235651
0.000633890324632929
0.000573083924241575
0.000509271529365708
0.000442691420833206
0.000373595668259022
0.000302444274510159
0.000229659879721087
0.000154889340319586
7.58544768913621e-05
1.0684178739423e-05
0.000911468318523783
0.000877002617078779
0.000836372718952665
0.000789632155989966
0.00073742838006836
0.000680734996363937
0.000620414630245248
0.000557054816475028
0.000491045567112909
0.000422737843754785
0.000352592732303417
0.000281172963990725
0.000208980937291721
0.000136054861700589
6.16401689312483e-05
7.79312318864764e-06
0.00094903182305884
0.000916246943512504
0.00087708975756519
0.000831583152340452
0.000780365264188509
0.000724425571474284
0.000664663966305245
0.000601730661762814
0.000536103394798198
0.000468212279378556
0.00039854972848112
0.000327721656339548
0.000256376039215601
0.000185160081346585
0.000114669921961123
4.61080695432915e-05
5.04399101773599e-06
0.00098253606634532
0.000951556925298523
0.000913984429497554
0.000869843210975286
0.00081975696724444
0.000764718724471264
0.000705646076297593
0.000643221492072279
0.000577972445224103
0.000510381215253535
0.000440963731896241
0.000370326881759051
0.000299171014124661
0.000228247076950569
0.000158479298086286
9.12932974516212e-05
3.07059231528398e-05
2.78751179185491e-06
1.87029880738318e-05
1.90636762470458e-05
1.88619468439063e-05
1.88602856904557e-05
1.88538730798358e-05
1.81889156944346e-05
1.91015580151473e-05
1.75049278149697e-05
1.3044878752839e-05
1.52793714654685e-05
8.37515279006348e-05
0.000160402582176552
9.27984070616566e-05
0.00022943326074509
0.000173084439185591
0.000101294400662881
0.000295201422026856
0.000244385471405588
0.000184101513841472
0.000108002165622835
0.000359138384829161
0.000311591081197993
0.000256843043891916
0.000192509427844159
0.000112480882395784
0.00042157145433323
0.000376301964361183
0.000324966460683494
0.000266040160786684
0.000197772259477822
0.000114602336973677
0.000482523232349317
0.000438932092274078
0.000390016321518765
0.000334721711051074
0.000271741312593879
0.000200000024313463
0.000114228658131127
0.000541995783638065
0.000499656744359457
0.000452336868008594
0.00039963540239011
0.000340694854517055
0.000274439933584019
0.000199251140745921
0.000112718045011961
0.000599951318759339
0.000558628352649061
0.000512369998318314
0.000461123972316531
0.000404828825962435
0.000342984126803242
0.000274087384910244
0.000196757061707497
0.000656243253350558
0.000615863152656531
0.000570458341901577
0.00052006955154466
0.000465044727779114
0.000405567807851516
0.000341082055223646
0.000269916363587439
0.000193235832157758
0.000187266896635428
0.00026301031257801
0.000334974499027677
0.000401946651835178
0.000464249712201063
0.00052261066425804
0.000111238858534782
0.000576926940357964
0.000626622046606273
0.000671216128155067
0.000710615245522555
0.000762742522117691