/*--------------------------------*- C++ -*----------------------------------*\
  =========                 |
  \\      /  F ield         | OpenFOAM: The Open Source CFD Toolbox
   \\    /   O peration     | Website:  https://openfoam.org
    \\  /    A nd           | Version:  12
     \\/     M anipulation  |
\*---------------------------------------------------------------------------*/
/*   Windows 32 and 64 bit porting by blueCAPE: http://www.bluecape.com.pt   *\
|  Based on Windows porting (2.0.x v4) by Symscape: http://www.symscape.com   |
\*---------------------------------------------------------------------------*/
FoamFile
{
    format      ascii;
    class       volScalarField;
    location    "400";
    object      nut;
}
// * * * * * * * * * * * * * * * * * * * * * * * * * * * * * * * * * * * * * //

dimensions      [0 2 -1 0 0 0 0];

internalField   nonuniform List<scalar> 
10063
(
0.000367167118841543
0.000363499071656294
0.000352407317327962
0.000353882600014191
0.000726285375713935
0.000349231753086411
0.000341185635114544
0.000708302288924489
0.000340278675884534
0.0010395501661744
0.000692512528676642
0.000311692047775129
0.000317203170383529
0.000679399574852177
0.000326868704646659
0.00101548371891698
0.000675852046306524
0.00030424193154524
0.00136347050347074
0.000998816480506779
0.000615060182312584
0.000247138674023495
0.000283874491656207
0.00063381697949045
0.000306601842759749
0.000976795386457845
0.000648207314102402
0.000291608609245324
0.00133482518127825
0.000975878566885544
0.000601051079969978
0.000241046552865929
0.00171331970833938
0.0013217015630418
0.000900985904169566
0.00047758137085955
0.000149812027118925
0.000234420061554664
0.000565845280396531
0.000275225018288016
0.000917881612050647
0.000606212492697579
0.000273585019013549
0.00128930676753966
0.000938775378010978
0.000576273508152567
0.000230121834242287
0.00168121288669197
0.00129407567829053
0.00088032372671346
0.000467276745647051
0.000144773666406784
0.00208529148944033
0.00167533650859668
0.00121869545351726
0.000719840043783422
0.000280352243301309
4.06754463779876e-05
0.000170709313124517
0.000467010261586445
0.000227603161328725
0.000829921225194662
0.000542461363347948
0.000247531401661785
0.00122140777204569
0.000882594161207953
0.000539392595146931
0.000215000024954128
0.0016315813783082
0.00125003166960329
0.000846597851674563
0.000446790612614696
0.000136067861538315
0.00205133651994591
0.00164414571151177
0.0011932107776026
0.000702796585241009
0.000273253240710122
3.75838947835026e-05
0.00246730038270629
0.00205326941939913
0.0015807880186807
0.0010267751540957
0.000450851017558303
8.4836292277413e-05
1.4352572654869e-06
8.30631070640046e-05
0.00032636806255521
0.000162767424257781
0.000699200430699613
0.000447521915895449
0.000204328308654812
0.00112211190043645
0.000798243624758168
0.000483994729148334
0.000193822574840972
0.0015595211481529
0.00118425122030873
0.000795924786796683
0.000417131775920209
0.000124515071216101
0.00200058609635964
0.00159582481885387
0.00115249820754641
0.000674336765206294
0.00025783449979586
3.3804480387609e-05
0.00243316454363632
0.00202009551213665
0.0015515504849628
0.00100470569127564
0.000439899835369201
7.90107057096341e-05
1.27147624753739e-06
0.00284648604590268
0.00244114075953886
0.00197374641488165
0.00140822628256349
0.000733180141568441
0.000161799825987938
3.57262541478758e-06
1.88132795527301e-05
0.000153177082632089
8.64681417442163e-05
0.00050051178872729
0.000312918045929197
0.000137867338500941
0.000978272840775296
0.000671172473029921
0.000396052507677615
0.0001592135937708
0.00145759394381152
0.00108751564430658
0.000719641235733777
0.000374083486880953
0.000109740462530133
0.0019293639467798
0.00152548933666757
0.0010916533425274
0.000632649697515516
0.000236793230228233
2.91677401222207e-05
0.00238381577890238
0.0019704848277921
0.00150622036481893
0.000969414454541916
0.000418923476240877
7.05633608527455e-05
1.10556378625057e-06
0.0028134593853476
0.00240764909739669
0.0019422249313529
0.00138207247158167
0.000717384621007714
0.000155005649774007
3.21635610314061e-06
0.00321263298485299
0.00282506885041826
0.00237661833171452
0.00183266931894643
0.00115343470631386
0.000372999815099545
5.64045638818853e-06
4.37762863813602e-07
3.45645878707357e-05
5.67626864464499e-05
0.000246117444938859
0.000148361582928582
0.000131769204432971
0.000773367167230234
0.000478982262873513
0.000255746311067839
0.000170983724519716
9.64126936797859e-05
4.01704016352987e-05
0.00131632408066409
0.000945914339109533
0.000600510148523146
0.00030443117173562
8.82854638594007e-05
0.00183284821172218
0.00142546015162166
0.00100142075485877
0.000571490277007602
0.000209118012202864
2.41962094649892e-05
0.00231696944704282
0.00190076611860505
0.0014400265276474
0.000917197328160066
0.000389618577867042
6.03701406635756e-05
9.19932992731408e-07
0.00276702091280076
0.0023592546484245
0.00189517290869121
0.00134168080641712
0.000690011357603186
0.000144061268188801
2.80567320396124e-06
0.00318169883354628
0.00279259689813909
0.00234445985012119
0.00180371861698282
0.0011318192782907
0.00036330610233517
5.12546219982684e-06
0.00355936965051143
0.00319487085241855
0.00277233955275342
0.0022646594574866
0.00163367223917397
0.000857547728668772
0.000164648421073311
5.36017180533467e-06
1.16822760356205e-06
1.10257674545217e-06
3.95921732467753e-05
8.58210846106964e-05
9.94389911160592e-05
0.000493167352546067
0.000224868544394047
0.00015127120180725
0.00112610697232345
0.000742733454679167
0.00040369317178063
0.000182713315576215
7.68426989694779e-05
0.000110969167801875
2.21665202973784e-05
4.86570922753419e-05
0.0017065563803395
0.00128567619802605
0.00086586275292817
0.000475069740462482
0.000168194764923498
1.90886010326445e-05
0.00223023827908986
0.00180598736197178
0.00134499214309321
0.000840063419703807
0.000348860052512799
4.87515508272997e-05
7.14319720094136e-07
0.00270600326337495
0.00229370985053817
0.00182897980422913
0.00128286437908092
0.000650350325257656
0.000130171696885641
2.36821691133255e-06
0.00313880900570819
0.00274693526065705
0.00229818497434103
0.00176086180402119
0.00109827438883071
0.000345334399247352
4.40302986100739e-06
0.0035307927869986
0.00316426893889827
0.00274091637647135
0.0022345757007918
0.00160809166466207
0.000839973497694378
0.000159036027202831
4.98669943093957e-06
0.00388329833957414
0.00354398657587807
0.00315033236010979
0.00268173284132886
0.00210999660871259
0.00141024595448192
0.000630484106939554
0.000182730897065532
9.64279528469077e-06
5.38459946475042e-07
3.05696599970462e-06
1.58559882944241e-06
2.35209923211418e-05
0.000225641759714278
0.000465390089745968
0.0008843794493451
0.000135672286043734
0.00155050130949684
0.00109569950514843
0.000659647403613019
0.000308895245190833
4.18011502849675e-05
8.99051899336574e-05
8.94988234811398e-06
1.07390910558323e-05
0.00212272309745743
0.00168143772237534
0.00120973883351752
0.000722067597975541
0.000288454153414708
3.76852305354225e-05
5.9158064916227e-07
0.00262957646149916
0.00220862259191151
0.00173856586254967
0.00119797598442912
0.000593439330294192
0.000110432860170123
1.86585533424208e-06
0.0030835376105283
0.0026869745996925
0.00223563239483012
0.00170083169537807
0.00105012638289658
0.000320449255198134
3.71795188524223e-06
0.00349145116968003
0.00312193249359195
0.00269694574234572
0.00219174906686496
0.00157084596924689
0.000813462693684364
0.000149341636807682
4.45502736278301e-06
0.0038570240872348
0.00351571611361116
0.00312052495774471
0.00265195891512491
0.00208254530817875
0.00138739516817186
0.000613404050414443
0.000177186864154597
9.02548191045697e-06
0.0041828825265131
0.00386929642188417
0.00350456956207327
0.00307362124226614
0.00255670897200642
0.00193613980501882
0.00122295927572168
0.0005976995213706
0.000195006475690008
1.06396975796033e-05
3.19837713039714e-07
1.42626515836632e-06
4.84521101559091e-06
8.48317203327716e-07
4.41185881492481e-05
9.31212366669851e-05
0.000202742874114952
0.000205904700763595
0.000693740212739597
0.000235559206338359
0.000361498340248215
0.000855724642019382
0.00137962383850426
8.67666433117962e-05
0.00199803594897146
0.00152723033695088
0.00102025339249245
0.000532414723277504
0.000178276701168695
1.72918022169987e-05
2.06428475425133e-05
1.07572077010065e-06
4.37647234493642e-07
0.00253835863897529
0.00210311849386791
0.00161891132147956
0.0010748673978092
0.000507079289370604
8.97901754224885e-05
1.53567483607028e-06
0.00301588524901535
0.00261193042609145
0.0021544773450923
0.00161882914535934
0.000981749580508483
0.00028671248400787
2.93080471207751e-06
0.00344124131350878
0.00306748481811623
0.00263939768225259
0.00213428052414768
0.00151953708024778
0.000776490620723742
0.000136688776469933
3.97037227975759e-06
0.003820753495821
0.00347680421689235
0.00307948068281753
0.00261074447310056
0.00204427160052097
0.00135589582188295
0.000591988118185827
0.000168984169826698
8.27143006545747e-06
0.00415869410345485
0.00384328232245978
0.0034769404632089
0.00304511807763481
0.00252906805893712
0.00191120856521177
0.00120069367311061
0.000582846349682631
0.000189614349065149
1.00307505511492e-05
0.0044578856506561
0.00416953296479399
0.00383265286554502
0.00343605055224136
0.00296654685844984
0.00241253473397185
0.00177733808574326
0.00113104063647169
0.000587598607580868
0.000191023753411318
1.00034424537594e-05
3.20632635221457e-08
1.05923705761716e-06
2.31522826225295e-06
2.49582809002076e-06
2.94996111711556e-06
9.95194076456303e-05
0.000166114883573284
1.04973178114177e-05
0.0001951128913049
0.000627331144211219
0.000184000955266304
0.000278715132120789
0.000180190505218065
0.00123640240341697
0.000716632246022431
0.000266526778691996
0.000772061318570761
0.000173590658110216
0.00136177436799475
0.0018674816024322
4.9271995804186e-05
0.00243578739853403
0.0019811135432209
0.00147009472021065
0.000896873384520047
0.000357841163458285
6.16593828446581e-05
2.14706577295057e-06
1.22683056056344e-06
1.23996737196114e-07
0.00293685961020464
0.00252245505471672
0.00205395179316723
0.00151004366055277
0.000881933177990805
0.000245516452866595
2.50413864928617e-06
0.0033804263872139
0.0030008942489821
0.00256757680255437
0.00206018445912759
0.0014507878614265
0.000726513934947475
0.000121296264601424
3.27643507755496e-06
0.00377453127891066
0.00342714921797856
0.00302688159536083
0.00255723069561126
0.00199380911610596
0.00131394813697202
0.000563294863307299
0.000156689463834225
7.50671848985983e-06
0.00412494203036508
0.00380734979407318
0.0034390224259651
0.00300623133446507
0.0024915084046755
0.00187778091762614
0.00117362851008619
0.000565642752792654
0.000182973247045444
9.34556152844746e-06
0.0044354935820328
0.00414557055145842
0.00380716267854729
0.00340948258449839
0.00293979715006879
0.0023871761801835
0.00175417046754933
0.00111143249500241
0.000575011380595263
0.000186522707807338
9.50154397569222e-06
0.00470893726409393
0.00444469174108118
0.00413401060573333
0.00376825091675145
0.00333872332477072
0.00283869323299486
0.00226880833267483
0.00165851143367164
0.00107249303380427
0.00056568909787513
0.00017737301497515
8.66447886255597e-06
1.71141962692782e-07
2.6422375827302e-06
1.94790852360068e-06
2.98317048301297e-06
3.25358165429781e-05
5.58745525586357e-06
0.000139276408178399
1.10630928927292e-05
8.92548960724689e-06
0.000185004559014285
0.000582531381857582
0.000176243893499093
0.00114314357030994
0.000636519066246076
0.000251968934208865
0.000169696879717386
8.1428354722371e-05
0.000172629021520008
0.00174932192816135
0.00123358964467231
0.000676370579020371
0.000173355348578342
0.000677631148216844
0.000144076656341277
0.00131221032547457
0.000134793146495601
0.000235196130114675
0.0018545047919856
0.00232886077482135
1.54233789817472e-05
0.00284900321765221
0.00242201896017435
0.00193823860560303
0.00137464831784456
0.000727697716189602
0.000193424044095739
2.73519050410435e-06
2.00394706746206e-05
4.83060161178801e-07
6.1750643047169e-06
0.00330990451474111
0.00292314233906515
0.00248220648636781
0.00196914999542989
0.00136132588954171
0.000662609834832982
0.000104325928871164
2.69445964124556e-06
0.0037186614105754
0.00336705404448
0.0029627186911398
0.00249094097587064
0.00193004322385837
0.00126031224508066
0.000527416481642701
0.000143992728239337
6.5361082204123e-06
0.00408170354642139
0.00376156526171093
0.0033907303048432
0.00295672151831291
0.002443473372568
0.00183502989401462
0.00113914885314857
0.000542682350176362
0.000173205161642651
8.60639939459604e-06
0.00440372301167249
0.00411209210719837
0.00377201076082904
0.00337323713749008
0.00290381525136976
0.00235365559929797
0.00172504217864561
0.00108881935322217
0.000561142469436361
0.000181205588283376
8.94767364718676e-06
0.00468803923062974
0.0044225027554287
0.00411048702715069
0.00374363561070572
0.0033136269087625
0.00281396273865832
0.00224560490202633
0.00163772338153403
0.00105576673476386
0.000555278022274301
0.000173539881282021
8.27522223465616e-06
0.00493720718679755
0.00469558463936647
0.00440918994103438
0.00407098179599495
0.00367519615457831
0.00321846890202795
0.00270161933160992
0.00213794150800602
0.00156226048651482
0.00101661205530166
0.000531916716597555
0.000158535607683075
7.09689783620924e-06
2.62355187740598e-07
2.66116628148209e-06
3.11980539780614e-06
2.71454531443713e-05
4.16561798823821e-06
3.93397024229459e-05
7.19045677193814e-05
0.000118465192199996
9.35320861609499e-06
9.07382344072893e-06
0.000172967876961144
0.000559380678565564
0.000177915424135417
0.00107425852210223
0.000574620347142586
0.000150643729145318
0.00165336199622639
0.00113972977147615
0.000556513778497125
0.000149051541210162
0.00222649128590487
0.00174151738769324
0.00120232711972794
0.000620748461110089
0.000168562297093954
0.00055690897429026
7.93106844033986e-05
0.00123500543946051
0.000218447833913397
0.000117553821734738
0.000114396109604507
0.00181926531884814
0.00231755777735012
0.00275649483365073
4.15318898855727e-05
2.72064811316445e-06
0.0032314580689716
0.00283674931071725
0.00238672555603236
0.00186527413663442
0.00125310962465441
0.000588779766238026
0.000176340143841847
7.70390181695585e-05
2.13215278545418e-06
8.94052559187872e-07
4.79146674579781e-05
6.9783195902676e-06
0.00365383237815946
0.00329742099902645
0.00288796825685376
0.00241276294376502
0.00185365078672705
0.00119672219265374
0.000486477239513732
0.000130291804447521
5.61990665359614e-06
0.00402922305737663
0.00370623959853609
0.00333239717757466
0.00289667120559993
0.00238489694764976
0.0017829740637905
0.0010974844144203
0.000516432366125837
0.000161993208508278
7.75146088157451e-06
0.00436262748796656
0.00406919735290938
0.00372727346850296
0.00332728153066884
0.00285851319526575
0.00231175361946433
0.0016891696051453
0.00106110623747067
0.000543413521902333
0.000173730118693432
8.33911535569213e-06
0.00465777710358765
0.00439096234995043
0.00407763884303952
0.0037098175562476
0.00327970756337289
0.00278130466610037
0.00221599078972236
0.00161267742967817
0.00103696372296141
0.000543991407282137
0.000169230854870639
7.84797689303587e-06
0.00491752194057916
0.00467487439903763
0.00438738033865547
0.00404819358519614
0.00365182296575675
0.00319514284042462
0.0026790191216864
0.00211699089924379
0.00154403245403545
0.0010024240364173
0.000523031062915635
0.000155032630000975
6.80231240839774e-06
0.00514416851357533
0.0049235119314118
0.00465941818926336
0.0043457619066434
0.0039786527024097
0.00355700617376416
0.0030823465034555
0.00256221609794409
0.00201567045000244
0.0014708944566478
0.000953705911649466
0.000489713658835413
0.00013745061849866
5.53737667306212e-06
1.13292522508726e-06
1.91945629528971e-06
4.60792175995223e-06
4.67306671701512e-06
3.05733947563874e-05
6.94435300138322e-06
0.000103763335739186
7.7475571284684e-06
8.41303367095972e-06
0.000162538301451995
0.000534972054146877
0.000171825897924326
0.00102493983559493
0.000553217664493713
0.000169888427263375
0.00157514442774263
0.00106838940938261
0.000540123489867914
0.000154959555762728
0.00213412282943857
0.00164735600300421
0.00110691180415737
0.000537101610646014
0.00266407126477079
0.00221766055476069
0.00171533758041573
0.00114420295367793
0.000459342631056793
0.000121308898687333
0.00023458788389533
6.94273457851391e-05
0.000579683336510895
0.00114367447725379
8.31540481346901e-05
0.000118529583918779
0.00175980344194783
0.000114742074548669
0.00228772092672034
0.00274578642201613
0.00314756725599247
2.08824686117218e-05
0.00358116758737969
0.00321996915824674
0.00280504143642604
0.00232589906568887
0.00176871317642852
0.00113343665591979
0.000438904462573892
0.000121465522562755
7.47755046117748e-05
0.000111592332877308
5.87132784164266e-05
4.70553698801958e-06
1.66740632217853e-06
3.05174831002413e-05
0.00396796101281506
0.00364204939433037
0.00326489380729023
0.00282706072586628
0.00231696178042646
0.00172403482253547
0.00105226834972579
0.000490068233613168
0.000155650935286943
6.89265770255643e-06
0.00431236001080725
0.00401713502067685
0.00367326200833368
0.00327196988912198
0.00280412196472945
0.00226188705435802
0.00164725316721177
0.00102946352994405
0.000523444351634346
0.000164015910930707
7.66563261222474e-06
0.00461815740090492
0.00435014758276173
0.00403557009824086
0.00366688498112628
0.00323698887489045
0.00274080586391253
0.00217993144424317
0.00158287674252223
0.00101479878421792
0.000530097456256754
0.000163243049352487
7.3717969053713e-06
0.00488837430273422
0.0046448134934997
0.00435636744321198
0.0040164318591321
0.00361988563495473
0.00316398329862602
0.00264976727607805
0.00209107073508235
0.00152262397128316
0.000986682905927652
0.000513632381024321
0.00015141745125694
6.4798422174457e-06
0.00512545086570987
0.00490400401559556
0.00463904594317449
0.00432458620771375
0.00395692711547795
0.00353517354187328
0.0030609692366499
0.0025419051414303
0.0019970950656809
0.0014550179724427
0.000941458868267208
0.000481714613093761
0.000134128276992246
5.31529155358822e-06
0.00533143123841191
0.00513003375711629
0.0048862896044683
0.00459451210395245
0.00425194207592701
0.00385903076243505
0.00341812456058085
0.00293448795130055
0.00241978065827372
0.00189279524325671
0.00137397197071092
0.000881434669727123
0.000440707909300084
0.000114946386904645
4.10238256962675e-06
3.86821894376895e-06
2.03307592840839e-05
3.9718711566874e-06
1.94467523986486e-05
6.60687571787387e-06
6.46080440186181e-06
0.000128043189418167
7.49327104625633e-06
6.85570280583048e-06
7.55701596758734e-06
0.000151128981720841
0.000510805884882222
0.000162412000125562
0.000983881676469987
0.000533144464279397
0.000169996828904994
0.00151069980918618
0.00102043247105859
0.000540358768578202
0.000167453144089497
0.0020517669306399
0.00156987651390078
0.00104619976055074
0.000531823260942096
0.000150214229453844
0.00257489016861711
0.0021269024432246
0.00162550913671603
0.00106726207669182
0.000481996265417542
0.00306082241176362
0.00265482315245159
0.00219318843416183
0.00166831574078052
0.00105998641936572
0.0005393429574679
9.86514153791894e-05
5.16195218038254e-05
0.00043968470950334
0.00108964261056673
0.00168320122194173
8.87273072764363e-05
0.000166349600475899
0.000116800509415959
0.00223616614587435
0.00271773924331503
0.00313710493038759
0.00350209584194593
0.00389857879851395
0.00357008443567937
0.00318984513451592
0.00275008141442952
0.00224252919122615
0.0016634042706471
0.0010120442907576
0.000464549393507888
6.13631927435117e-05
0.000145585843487102
0.000106898632110753
8.18832747035418e-05
6.34843577133293e-06
3.94784232181988e-06
0.00425318005620989
0.00395635587298635
0.00361062361490742
0.00320812899605053
0.00274164512663818
0.00220566498008974
0.00160231276054961
0.000997693394483239
0.000508573729792204
0.000160127180305798
6.94757524093649e-06
0.00456923769415718
0.00430021633026763
0.00398452435367818
0.00361514411486639
0.00318586622557751
0.00269287836483994
0.00213812826709613
0.00154927095374313
0.000990423350626388
0.000514400343034698
0.000155689083437952
6.85146027421387e-06
0.00484971744656308
0.00460543327379014
0.00431623093352048
0.00397579831011064
0.00357948999599713
0.00312507625176359
0.00261405699217872
0.00206024345300034
0.00149783591964267
0.000968615708194999
0.000502324440447817
0.000146276441587405
6.11262939357205e-06
0.0050971011933766
0.00487503820042267
0.00460944336391192
0.00429448699706007
0.00392672067917815
0.00350552342493476
0.00303274329906833
0.00251598590604842
0.00197451125962466
0.0014367116395196
0.000928083143321333
0.0004735967995879
0.000131162190140882
5.07713095179483e-06
0.00531347645326844
0.00511148641676266
0.00486709015863125
0.00457470073870754
0.00423169278671242
0.00383865364809783
0.00339804003726167
0.00291518188011325
0.00240177909184836
0.00187665650946029
0.00136025131515953
0.000870592378772286
0.000433241019917543
0.000111751124363972
3.93515577904112e-06
0.00550063557443102
0.00531681603274885
0.00509156110188215
0.00481930494720783
0.0044978960141432
0.00412877170659
0.00371499311574465
0.0032610168885489
0.00277484191865641
0.00226957069689796
0.00176142861661039
0.00126590673404133
0.000798469805842731
0.000385176596864771
9.08754199694425e-05
2.84268998282047e-06
4.86179966089709e-06
4.07657335268094e-06
8.07709060854165e-05
6.10763852973928e-06
7.05324813492023e-06
7.20232152837585e-06
7.2207499876411e-06
5.81075224544076e-06
6.68761372174315e-06
0.000140904763051705
0.00048594061691988
0.000151920144374657
0.000944593370277307
0.000510823908426008
0.000161985454449962
0.00145358823132588
0.000981826496168922
0.000528469525281248
0.000167470092354595
0.00197718691552877
0.0015065770687293
0.0010079804773784
0.000531373674556611
0.000163544249308995
0.00248958666929471
0.00204568325242465
0.00155284046084301
0.00102118430763988
0.000515300151227788
0.000148307656137795
0.00297299202964422
0.00256682637979113
0.00210636464372065
0.00158918012798407
0.00101938187566422
0.000501901989296566
0.00341801010736762
0.00305133287731334
0.00263026823335639
0.00215017763994743
0.00160607369641617
0.00104182393130757
0.000465237974755291
0.000463761735232733
0.000995277000800159
0.00160682872662183
0.00216584909500067
0.000118836747651744
0.00266904240574658
0.00310948787760928
0.00349173690463563
0.00382184246818733
0.00418542063431154
0.00388750380976233
0.00354038156857816
0.00313722648336376
0.00267297024118789
0.00214577329823526
0.00155891215041529
0.000970003717039372
0.000494440461194813
0.00015500115546762
0.000142638744926729
0.000126489784610943
6.54174058149758e-06
6.20204062319302e-06
0.00451111415010321
0.00424142292029388
0.00392493007356285
0.00355519503470384
0.00312711524135138
0.0026385537860131
0.00209228220947388
0.00151443806540812
0.000967770068456395
0.000503022032032852
0.000148591304880521
6.28483255815968e-06
0.00480152248332841
0.00455679786470633
0.0042671240610012
0.00392652313345881
0.00353093666410326
0.00307884330467114
0.00257244399881992
0.00202524513694199
0.00147052888978709
0.000949040308811445
0.000489432985254649
0.000139780359939764
5.70985507421525e-06
0.00505902263799384
0.00483659431384631
0.0045706445769045
0.00425553679987599
0.00388813404482205
0.00346818203253647
0.00299783249195758
0.00248475272271999
0.00194815238191752
0.00141584761010481
0.000912937725481892
0.000463828560220882
0.000126902753962472
4.80058157503556e-06
0.00528567796894083
0.00508330579121193
0.0048385360882534
0.00454589346207954
0.00420291730806141
0.00381038139828785
0.00337090692838066
0.00288990834580576
0.00237907160568863
0.00185710025411592
0.0013444449151999
0.000859009603043617
0.0004261790564744
0.000109346615004594
3.76470950822979e-06
0.00548327524935555
0.00529902695647906
0.00507330091469412
0.00480061283448509
0.00447890933230778
0.00410971762712865
0.0036961823272461
0.00324282330781418
0.00275767283144353
0.00225384295252665
0.00174753500988479
0.00125410219550631
0.000788768668636576
0.000378055917445505
8.78832275271382e-05
2.72003663146033e-06
0.00565339958862371
0.00548553304007196
0.00527702492027881
0.00502221451817891
0.00471920055823228
0.00436999371896082
0.00397817635987048
0.00354795900032933
0.00308551077048853
0.00260051828774096
0.00210591372448968
0.00161564684044427
0.00114304972397037
0.000702995759130358
0.00032195258711274
6.59426267968114e-05
1.77379333879625e-06
6.37748984396481e-06
5.87759861539278e-06
5.70124796037025e-06
6.59643202566398e-06
6.70952998514131e-06
6.96239409744365e-06
6.5650806182852e-06
5.06797878198418e-06
5.80336036111791e-06
0.00013020518031432
0.000461001855141897
0.000141364799222193
0.000904574795391371
0.000486938824620836
0.000152287519340687
0.00139840655422267
0.000944082603365023
0.000509051444545457
0.000159929993736618
0.00190654655625736
0.00145081428350901
0.000974844689698735
0.000521829992513364
0.000163551974891831
0.00240693912863774
0.00197210970173343
0.00149393797005467
0.000991625679723955
0.000521277265326128
0.000159258572965693
0.00288449509013573
0.00248247871115752
0.00202841154669231
0.00152534187775751
0.000994370413008928
0.000510394274767284
0.000146711693178186
0.00332981301428626
0.00296436946629796
0.0025452155067828
0.00207056509046075
0.00154305988657004
0.000999432927461598
0.000482130369629562
0.00373842508948118
0.00340836408170417
0.00302613618282951
0.00258747695760228
0.00209125051016857
0.00155104680887008
0.000983515575570532
0.000481428306119903
0.000490161450029613
0.000956461622741156
0.00152186520141071
0.00208494567111811
0.00260063475105698
0.000143390193297105
0.00306120731383771
0.00346383955575526
0.00381132238382764
0.00410941533623879
0.00444388271024621
0.0041740902137385
0.00385739094199623
0.00348795201547915
0.00306198045167872
0.00257941544124912
0.00204465071326364
0.00148129613028878
0.000947589550898487
0.000493530986916871
0.000145066331463877
0.000151855537644806
0.000148467484560228
5.80684823145086e-06
6.41824284519861e-06
0.00474375494481471
0.00449900124184185
0.00420928636295347
0.00386899733871283
0.00347476458637745
0.00302601027400588
0.00252588244968097
0.0019875097441151
0.00144266175613381
0.000930682473224562
0.000477303294687741
0.000132610684708955
5.2750864981641e-06
0.0050111104624592
0.00478865072236988
0.00452271136456227
0.00420787564528456
0.00384137891029418
0.00342343839421378
0.00295660965124822
0.00244875519688796
0.00191860044337703
0.00139305791237403
0.000896400830061214
0.000452462772679108
0.000121547598280478
4.49369461580119e-06
0.00524789301020445
0.00504542255967714
0.00480061088495738
0.00450811645888565
0.00416568032616613
0.003774314930908
0.00333686801674618
0.00285887056886932
0.00235186930315138
0.00183441179859382
0.00132662097022301
0.000845927389993872
0.000417704624772617
0.00010588671983494
3.56430953876742e-06
0.00545583523181595
0.00527138841111678
0.00504550042546609
0.00477277336155293
0.00445126404806796
0.00408261872947573
0.00367009876527931
0.00321830683647818
0.00273528611440214
0.00223407539921427
0.00173074179254347
0.00124043822198037
0.00077868631803618
0.000371975640898557
8.60353691585141e-05
2.60570156587687e-06
0.00563648923127843
0.0054683353929515
0.00525950731684278
0.00500442193727476
0.00470125645478037
0.00435208268457554
0.00396053550392866
0.00353087590646434
0.00306930479878227
0.00258550973616339
0.00209238914275294
0.00160380103159522
0.00113280029742025
0.000694292904672195
0.000315197388649171
6.3289377714118e-05
1.68933834805453e-06
0.00579127262028769
0.00563782266404074
0.00544443325979424
0.00520523620515406
0.00491833204522959
0.00458600701227336
0.00421215527702085
0.00380091274427196
0.00335747625481755
0.0028894620263673
0.00240730826659617
0.00192334861053435
0.0014503767923112
0.00100131706160837
0.000591909891131973
0.0002497517721141
4.15827817748663e-05
9.29515114323195e-07
6.24785436160559e-06
6.28685371559006e-06
6.11913017260743e-06
6.16191498478177e-06
6.26505957115163e-06
6.09431680833932e-06
6.39375417005918e-06
5.80764330925367e-06
4.3172809777958e-06
5.03184487423697e-06
0.00011929774050191
0.000435043152535485
0.00013054810385636
0.000863093224897375
0.000462216839314723
0.000142082660973037
0.00134196197274821
0.000904966211209653
0.000486632275875153
0.000150761759026918
0.00183602073300642
0.00139668811287921
0.00093987268247864
0.000504186259654186
0.000156531065966639
0.00232451570244688
0.00190237415083117
0.00144141313948438
0.000963038244384713
0.000512806951455219
0.000158215333609175
0.00279454545834903
0.00240063840346399
0.00195756285453987
0.00147280278572706
0.000972547037835316
0.000510992505653613
0.000154635601919331
0.00323763115789767
0.0028766420496506
0.00246332821875968
0.00199845708666338
0.00149073250309344
0.000973477203844351
0.000498876016559201
0.00015110417695783
0.00364866810101221
0.00332082998255474
0.00294135425495117
0.00250756446468995
0.00202166799737862
0.00149895082046365
0.000965137057824365
0.000491319234262509
0.00402537910623344
0.0037284623783343
0.00338225165600299
0.00298204546817922
0.00252717367670927
0.00202406029120713
0.00148586994996585
0.000949330912171292
0.000491814454893605
0.000486869704006438
0.000933493617244093
0.00145271998701871
0.00199705381633195
0.00251717251592243
0.00299200498771638
0.000151381962689271
0.00341456220760968
0.00378259736917547
0.0040985388996796
0.00436758369190274
0.00467633696237428
0.00443213378649273
0.00414301658977744
0.00380375683499384
0.00341174673280009
0.00296757735888938
0.00247562042302271
0.00194862959154711
0.00141569422322782
0.000914068792554475
0.000467941736480831
0.000127022712784124
0.000144440611216641
0.00015055499149055
4.85407257602165e-06
5.47713841451071e-06
0.00495322795593355
0.004731173454889
0.00446572890704145
0.00415171679969358
0.00378679556439581
0.00337176103616222
0.0029097336127923
0.00240881878381561
0.00188690068252269
0.0013696243184556
0.000879835870057938
0.000440465458167807
0.000115565585060126
4.16740232263331e-06
0.00519995607132717
0.00499774147947971
0.00475329268919581
0.00446142142848215
0.00412010322117694
0.00373064340876583
0.00329618450313063
0.00282240994288726