/*--------------------------------*- C++ -*----------------------------------*\
  =========                 |
  \\      /  F ield         | OpenFOAM: The Open Source CFD Toolbox
   \\    /   O peration     | Website:  https://openfoam.org
    \\  /    A nd           | Version:  12
     \\/     M anipulation  |
\*---------------------------------------------------------------------------*/
/*   Windows 32 and 64 bit porting by blueCAPE: http://www.bluecape.com.pt   *\
|  Based on Windows porting (2.0.x v4) by Symscape: http://www.symscape.com   |
\*---------------------------------------------------------------------------*/
FoamFile
{
    format      ascii;
    class       volScalarField;
    location    "400";
    object      omega;
}
// * * * * * * * * * * * * * * * * * * * * * * * * * * * * * * * * * * * * * //

dimensions      [0 0 -1 0 0 0 0];

internalField   nonuniform List<scalar> 
10063
(
0.221816176452788
0.219466183650989
0.230780252125556
0.218663859287579
0.219639119634486
0.22814363456077
0.219406341692226
0.219244129662466
0.227382090578107
0.214208169844002
0.227756773038389
0.245349455639379
0.223983928058502
0.22121550289513
0.228123164603771
0.214329031262122
0.22715950872659
0.243575342613198
0.208421011632767
0.220702433883935
0.247187239857308
0.275712616894284
0.236255539183494
0.227094250664791
0.230740411977254
0.216470148381225
0.228915022220922
0.243993328529792
0.208755574218013
0.220700508414288
0.245839854540934
0.273098281459885
0.201675644377922
0.213438801108868
0.23769267815182
0.290300247349871
0.338346135531335
0.256831251344516
0.240204479371133
0.240236876380762
0.221997270635219
0.233921110944533
0.246039116940505
0.210837857301397
0.222696429625929
0.247200277539294
0.27303886693197
0.202083507436406
0.213703598150545
0.23740598827396
0.287529469967622
0.335498560611032
0.194377581535545
0.205207641780343
0.22660351016768
0.278606208715561
0.393377051006642
0.6046368546494
0.296243764463123
0.266113667045196
0.259845577404285
0.23391654795896
0.245780034116817
0.251465362461292
0.215775780052357
0.22791757310173
0.251433809818247
0.274110868717746
0.203908995000101
0.215709326826422
0.239184674541188
0.288542876618225
0.336672338615867
0.19474025472553
0.205576713258242
0.22673161165701
0.277861540255855
0.388433718127345
0.60854326863498
0.18740229835147
0.196658035240363
0.214203109992333
0.257157055975756
0.382970693378328
0.713861635136309
2.43167005885168
0.381271179580081
0.324645527877925
0.29829994586312
0.259224285215043
0.270912067335088
0.268440277448455
0.225927898084482
0.239451755052843
0.261497160336991
0.277548933805826
0.207943823318885
0.220543538201878
0.244053831520106
0.292120653182712
0.339546597009724
0.196155207273761
0.207356303679007
0.228616542981193
0.279642624011452
0.390797850853281
0.620197880215144
0.187643674216352
0.196998202794177
0.214492422921562
0.257127378152626
0.38045977505695
0.719310905376349
2.43121534370752
0.181359280287301
0.188789117959539
0.202241682434884
0.23341178638476
0.328887335908534
0.718500110863805
2.46809230510628
0.610093088737525
0.482132794293158
0.403367296447222
0.323386011035044
0.327414277762208
0.310034170879892
0.246505663638751
0.264750088620569
0.286484595204126
0.290456400591654
0.215727634069071
0.230627334470364
0.255129847294733
0.300549877321964
0.344834538827337
0.199109943663922
0.211340573158389
0.233318367460692
0.284435467726141
0.396091752486358
0.643021953331767
0.188604627085064
0.198377822625332
0.216185454631051
0.25901787427247
0.383107178101327
0.739713841060572
2.42267828753998
0.181454371437592
0.189016151443519
0.202531172039116
0.233606850833069
0.328108501255747
0.716985453602565
2.47103746796873
0.176485893979444
0.182169105935557
0.192033275804661
0.21323656277699
0.271146804398586
0.525619609802953
3.32824775940328
2.77471423769451
0.885954242893571
0.458492709916679
0.535334866000892
0.509606561287893
0.490003112983455
0.291272027234119
0.329449080258546
0.354616382759472
0.470852644596545
0.346167377081235
0.49866289842007
0.230183862245537
0.251491636358434
0.281309604503729
0.324371189001524
0.361829547279766
0.204436609461595
0.219108309802179
0.243389493101771
0.295104229521013
0.40531000507846
0.676968115643974
0.190545224900071
0.201286097598643
0.220081128020548
0.263781218644754
0.388979796475126
0.772025703842051
2.42041209534003
0.182007389569008
0.189948051959043
0.203834479392119
0.235227774597544
0.330381627695732
0.725634879266489
2.47728561013206
0.17643979401353
0.182253970447583
0.192225506843019
0.213459410971356
0.271172256913154
0.524007810219419
3.32851756591699
0.172767104910728
0.176939520067694
0.183963648460966
0.198046401708019
0.231714877451356
0.339317265453631
1.00321286208157
4.93423148134787
2.0508628152273
2.99322075724417
1.43977000393988
0.675659640653519
0.554065018128525
0.408380848699129
0.567237974865767
0.548508537996124
0.257103057987255
0.297900426150627
0.359970485422744
0.412544337297228
0.652696325078241
0.584923677685995
0.664625348189403
0.458504696347613
0.213402072007612
0.23373061871236
0.265248078752792
0.321684265335924
0.430144055316422
0.726329509375207
0.193843760868837
0.206566443193268
0.227842971206617
0.274079165682786
0.400854543237146
0.822265053354088
2.41407872122942
0.183139694291037
0.191844058371977
0.206638854666912
0.239057163973462
0.335877485881837
0.739492733260119
2.47975135319141
0.176666397762431
0.182784154117727
0.193090509228127
0.214652229105294
0.272811502134348
0.529364760642203
3.3568013092109
0.172605781520588
0.176888618572353
0.184023534224288
0.198186685944599
0.231863021832417
0.339597961264824
1.00630313127848
4.94479029917401
0.170075158647289
0.173012322467037
0.17787932621367
0.187170858839834
0.207208997509919
0.257456657045545
0.429469100050537
0.872203751834279
3.23599344813625
2.36437083250683
2.09339917756196
4.67631295125333
2.64868639381859
0.759621436272795
0.423474018887921
0.308609878336209
0.74946917746293
0.227584290328631
0.261426093855653
0.319206237892311
0.412914580179307
0.852285461169242
0.575151653069915
0.931838187750788
0.870444945624103
0.198927473577001
0.215519006587009
0.242917812121682
0.29726098142224
0.428378799745442
0.876458697334032
2.44459289404645
0.184997171220862
0.195080900772632
0.211805514899148
0.246851076444951
0.347298433665326
0.777566135809413
2.4883289228674
0.177213720102319
0.183879876207401
0.194880386512177
0.217283415930463
0.27670537470156
0.539973240093339
3.34836602331966
0.172589589393999
0.177099496675682
0.184500422479729
0.198940906482843
0.232924821910721
0.341820048471163
1.02529789300631
5.00422891695439
0.169826643682097
0.172847303204793
0.177810835061195
0.187190250664354
0.207291140673481
0.257712907638585
0.432521494272132
0.873448000754602
3.24647938681889
0.168250531823769
0.170201938370716
0.173462623378803
0.179540155078344
0.19181196665251
0.218387876434436
0.282813038712238
0.427311965877556
0.78598027131452
3.000502053889
2.69778070082018
2.46950527578331
2.99984796422445
10.4741931916514
2.06490655067557
1.40635362099089
0.78504768909863
0.816991889198049
0.376587203512513
0.735378410513137
0.496274350287989
0.314922294303838
0.247551670062989
0.91182178673361
0.206009925418579
0.229756631589108
0.273056518927469
0.361390996368852
0.547624737781614
1.15559201515679
1.03676111641174
1.38504548738833
2.54409508040145
0.187681472779823
0.200082375493147
0.220701005324909
0.262468285259532
0.373008978155428
0.819638086151234
2.49759083305358
0.17812471384094
0.185683745505748
0.197962944074707
0.222206892795383
0.28455218954818
0.560722465221829
3.36871168089794
0.172733190766319
0.177619804256948
0.185508360617627
0.200540329324002
0.235298982097072
0.346615971142902
1.05638471000673
5.03088769614648
0.169639626266208
0.172819760891529
0.177982795262537
0.187575833213165
0.207894022341385
0.258713889648979
0.436671823888803
0.881414226102937
3.26605096638241
0.167939738955746
0.169951210635391
0.173284595354446
0.179440829196626
0.191780981615558
0.218450345796323
0.283681273552469
0.429596443994219
0.786664875762336
3.00862548532872
0.167135800443036
0.168312407052944
0.170378541913954
0.174277000034617
0.181912486181529
0.197146480330325
0.228287810647804
0.28965316586782
0.410225447316238
0.749735332284201
2.96446512457301
3.15310057772031
2.52421871146855
3.5396335330284
6.27302031456419
5.35733548304106
1.33194927420924
0.950251371334526
2.96953988047506
0.759596527267957
0.396997229254668
0.840448901434371
0.689276280901382
0.877491005680776
0.267586870329367
0.366339749509496
0.586104570723218
0.33634444325785
0.91022369113884
0.249480355807917
0.214497217279438
1.09503954220812
0.191113920368231
0.207038095969965
0.235055177324044
0.295892696486605
0.453438084979059
0.920134199158989
1.59420788598532
2.4329454725855
2.7347733562053
0.179397133695279
0.188292802201346
0.202749347395232
0.230790880144408
0.300591572758247
0.592371092005007
3.29621422220221
0.173041076928227
0.178491865022787
0.187180715029202
0.203319884093623
0.239706653895009
0.355541053925699
1.10358197980972
5.16089857332425
0.169514712710995
0.172945500918888
0.178439045193324
0.188427519231396
0.209203869589278
0.26083177980789
0.444153028144848
0.903389809803289
3.28400947434604
0.167636146796243
0.169756238056666
0.173229323987372
0.17954468688745
0.192039310456361
0.218889144605276
0.284772019278783
0.431904109652524
0.788732313861629
3.01972191303418
0.166782995673103
0.168000506803749
0.170118532186919
0.17407525249746
0.181771727958395
0.197068406292612
0.228417511292411
0.290363787288548
0.411373837704517
0.74894383035519
2.96995358112709
0.1665895309085
0.167164027956535
0.168340673225893
0.170734225667166
0.175481744796266
0.1846081626307
0.201782870902746
0.232861122829975
0.287581329142632
0.397292038550995
0.733829910983516
2.97051595935764
2.9930254335932
2.70097059624092
6.0387488552431
5.39934121455664
2.84591648111862
3.8295272171754
1.07679145957793
2.8391759928135
3.13344408601852
0.748847136927291
0.403542777840044
0.805205733172037
0.278411308158482
0.3917032834322
0.710411516514539
0.859316666571282
1.40508402353843
0.886926635957759
0.222284745852747
0.267256238593061
0.377653400789566
0.733718003084034
0.364474255437945
0.976707675622237
0.254925264840953
1.04033334185281
0.773950805252428
0.215272072750388
0.19485740429195
1.70936478562918
0.180927691353023
0.191621218449861
0.209394151138043
0.244879461011795
0.338172627124689
0.662447976433087
2.81386086852006
1.45800156197146
2.53142042393016
1.65736100144105
0.173487527262191
0.17971241444882
0.189603111108195
0.207633878145828
0.247310211754478
0.370384772869684
1.16442543810188
5.34335190609877
0.169444260997004
0.173228073433961
0.179217670583745
0.189857369969435
0.211466973944511
0.264517257976471
0.455779435615681
0.925664972280689
3.31567124670207
0.16733569016182
0.169618708221116
0.173311244812535
0.179888108722045
0.192661916757877
0.219838362255483
0.286740371416094
0.436760967013828
0.799014963630735
3.03250704499674
0.166402293308803
0.167691353319539
0.169904117998909
0.173971288502812
0.181779973170566
0.197178790134328
0.22870287266188
0.290971481153954
0.412039926085682
0.74857451444778
2.97738822552747
0.166210319846753
0.166810873640332
0.168022180985875
0.170456494210691
0.175246570222055
0.184420719745348
0.201668120075689
0.232919480311773
0.287901817650293
0.397583568986348
0.732697089587964
2.97406687222342
0.166490274996127
0.16660204193019
0.167116185038795
0.168453766531097
0.171333062409191
0.176905489369891
0.187019924097233
0.204473947552258
0.233387154972618
0.283048808437193
0.387760809255356
0.726313677827993
2.98282621890343
5.85269042442729
5.30173331105683
5.06452468813745
2.90470184727814
4.4451276456072
2.30591657939594
1.5468557321192
1.14969987273639
2.9221856095498
3.0890572444449
0.746756568749927
0.399338695688813
0.762892057160089
0.282941692423574
0.405819410229228
0.878337297687472
0.227174993955551
0.27819974139878
0.429089127305387
0.96281411365909
0.198083197426196
0.22257795453171
0.270321481155203
0.39484933539571
0.747085385937688
0.412832426831723
1.39493192737761
0.26384813687101
0.782336695169226
1.13701897879918
1.10648380963912
0.217152526995687
0.195224190220917
0.182466560405779
1.39600689850004
3.53988496159495
0.173994213951262
0.181177471563488
0.192677981477367
0.213592885663366
0.259562325328425
0.394247690789976
0.718423553061613
1.36429206272113
5.71494772171139
3.50538038823286
1.25509574720122
2.2506197568258
0.169402812066194
0.173641229056716
0.180311547065577
0.191924928932419
0.214898693921704
0.270007859478243
0.471436227195269
0.951926221353727
3.35082822593867
0.167029025215392
0.169531034187077
0.173531801730999
0.180499739857208
0.193720403954493
0.221408946024852
0.289749602236135
0.442957468409415
0.812991036852418
3.04521593189744
0.165989019869153
0.167382124902181
0.169736523566654
0.173975805281085
0.181961443905423
0.197521973984515
0.229277873948574
0.292049681131971
0.414010787580182
0.753142441912265
2.98571121868929
0.16578059749264
0.166426218441763
0.167699354632981
0.17020752176737
0.175073092299702
0.184315698292044
0.201625351850211
0.23295715272159
0.287954766409307
0.397294634492019
0.73127743239238
2.97888949166271
0.166096213586545
0.166222989556587
0.166758262820173
0.16812201341178
0.171029439175965
0.176630130184362
0.186782770183568
0.204296989520482
0.233298056330225
0.283031310473052
0.387680523657893
0.72592398964589
2.98497287033649
0.166736072973184
0.166497169363465
0.166519246623412
0.167108075502464
0.168744424173212
0.172128703363308
0.178288440570128
0.188691123563814
0.205370015626229
0.231905151250358
0.278161528846901
0.379704080395961
0.720373095576027
2.99233231289728
4.66670965139648
5.27348528345378
3.84338424272095
4.08870923691752
2.51200672563214
3.29054270849927
1.21281499206218
2.98822926261178
3.0242910038758
0.738874330018199
0.395091513697071
0.745526836484912
0.282488163223461
0.400558278503058
0.774330846848358
0.229132025487679
0.283180466597308
0.419955180836398
0.839707038347057
0.200045295603246
0.227279603617447
0.2822341003959
0.429704558259976
0.183651976864994
0.198281375167832
0.223647398617375
0.276861952727945
0.487764107551491
0.925665937678243
0.648486186304969
1.15712249150883
0.397745593395424
0.275781868322864
1.26396470811923
1.02706866357213
0.220369137558114
1.12958732872628
0.195960496097638
0.182639744388623
0.174423851651022
2.19138677441484
0.16933975856532
0.174107941851641
0.181616574460859
0.194521335385794
0.21948065456669
0.276519006048187
0.496940065878659
0.938806860351639
1.08258361010165
1.01930083856524
1.59375431299679
3.41634615137671
5.32821746006063
1.65640774678888
0.166697211833105
0.169467998811578
0.173864204227486
0.181364597156165
0.195226755972428
0.223546721396518
0.29338338978578
0.448942301154815
0.806130898733721
3.05783482621379
0.165535687841531
0.167063762953554
0.169607768898213
0.174086675103415
0.182329388264934
0.198116691100157
0.230143265464548
0.293455470793651
0.416530154870963
0.764107836791914
2.99309158620776
0.165296638248609
0.166006710989015
0.167369411516841
0.169987051829211
0.1749670346774
0.184302835777001
0.201677895232095
0.233069787795253
0.288111874490988
0.397612138318168
0.733616141501661
2.98427127953559
0.165637256885261
0.165790370050007
0.166363777200509
0.167774560498834
0.170730706350229
0.176372742964623
0.186557801024949
0.204086718913935
0.233070480269201
0.282670033893524
0.386907098967762
0.724273083763222
2.98790298687904
0.166335470910659
0.16610360737282
0.166136629507826
0.166739978191635
0.168392640953738
0.171792741322247
0.177968361779302
0.188392694605567
0.205106148323981
0.231671917806785
0.27795015658106
0.379652284527167
0.721212613161492
2.99352861764217
0.167242140747898
0.166742892737147
0.16640248955506
0.166458075205587
0.16725256437141
0.169238764619375
0.173029630600101
0.179462180738382
0.189643003768942
0.20522330350243
0.229768364367629
0.273471404484151
0.372411433991521
0.715322962172923
2.99515656166915
3.30228304014156
2.68680285901899
4.05506432130428
2.8344865072736
3.30339902915687
3.37520150592032
1.01006916071403
3.08572948319856
2.97197557148364
3.00376432392816
0.733736651014195
0.389656808087881
0.736322436705096
0.279628602705055
0.39418838849681
0.741389606585339
0.228621246697589
0.282425529727857
0.402868454696068
0.765826401869147
0.200550293459423
0.229132536100837
0.285145368979351
0.416557460870344
0.835723145872938
0.184174707785573
0.200120699835253
0.227947401730454
0.285613179453048
0.45371487863066
0.174606090044557
0.183745111150562
0.198649659579827
0.225718699303275
0.289002335326682
0.41753528632697
1.08064272283402
1.45550765600129
0.487353073702668
0.280477086263514
0.224520953692805
1.21256213700364
0.866603636581112
0.999984151668732
0.197218245553502
0.182893919148031
0.174493428305699
0.169180575190203
0.166309768715336
0.169379932920403
0.174233574421167
0.18238065795953
0.197052338102631
0.225900216548803
0.296376896195582
0.45593810373851
1.26458350141677
0.817302006125484
1.0228786549992
1.2074985231132
3.07173664929819
3.50230193117322
0.165030167933947
0.166717639241015
0.169493084993422
0.174275840545005
0.182856003589294
0.198905966171789
0.231070290711171
0.294503735005398
0.415024600514671
0.752160727681648
2.99793891888654
0.164753653530997
0.165545198963392
0.16702345586051
0.169786173388837
0.174920729890135
0.184376457700417
0.201803371818861
0.233190103380496
0.288178162024867
0.398219423334609
0.739945825405929
2.98886304499422
0.165111001120204
0.165301807721081
0.16592962394302
0.167408098806389
0.170434605150591
0.176133473405753
0.186343186219266
0.203850642220163
0.232755451519256
0.282203225512174
0.386404179039263
0.726424573926775
2.99118124721103
0.165861198805164
0.165642439179057
0.16569667795026
0.166327485286982
0.168009172318722
0.171433008981425
0.177620870809468
0.188045269531831
0.204733908348014
0.231223013485104
0.277335299604782
0.378726185939937
0.719138442603305
2.99516680587994
0.166840858713832
0.16634302140591
0.166006154498772
0.166067339434941
0.166868611096819
0.168861129094005
0.172656550486603
0.179092433198974
0.189276795143766
0.204860770898448
0.229415455337244
0.273198238022093
0.372631261804768
0.717854286835615
2.99576576967777
0.167937806684563
0.167251784409114
0.166648904313669
0.16632606686715
0.166545475053685
0.167618631460584
0.169933620756967
0.173999953823955
0.180473084423184
0.190232610196422
0.204809683459119
0.227811839553272
0.269422149628926
0.366097179883302
0.714785336460893
2.99012765280751
3.33461550202667
3.77006520625492
1.24948015168131
3.28920663366217
3.0693312514865
3.07958676900357
3.01128048455456
3.01301870303033
3.00833689142374
0.723350586208095
0.383650841351936
0.72888795442159
0.275637227872298
0.388016596925533
0.730622841041393
0.226519629724875
0.279082296842747
0.392476129765748
0.735476454531536
0.199747668605173
0.228468273753868
0.282397132346322
0.400671661154537
0.759325695869318
0.183914991873759
0.200528755331865
0.229244454652074
0.285762351541309
0.416177373753045
0.816723881627944
0.174400058676866
0.184198348277575
0.200194947719827
0.228867804977451
0.289816108873659
0.427761553762107
0.168841996261122
0.174631317476102
0.183807504281323
0.199300152220229
0.228429493916881
0.284887350285916
0.451827733570181
0.445556894944464
0.293816993255368
0.227733578987857
0.198843800831659
0.937352890079998
0.183328019442001
0.174511436434342
0.169193772629258
0.165827259773133
0.164455676696848
0.166313858609042
0.169344787717736
0.174472555230487
0.183443007304492
0.199719916354268
0.231606485095022
0.294501615258953
0.413320265844003
0.745985574128854
0.807166753660058
0.883587378953095
3.00008227899588
3.07190656630341
0.16414513120851
0.165029811528652
0.166643463100474
0.169580766507638
0.174904060257056
0.184493079032327
0.201901607770269
0.233062863992819
0.287299970933796
0.39525703671887
0.743568200086975
2.9911503278674
0.164515179188265
0.164752843744409
0.165448963792329
0.167013754934855
0.170130847163436
0.175898932746302
0.186117514386624
0.203546770774086
0.232270814449823
0.281484426123439
0.386084584708933
0.73214396536826
2.99396732118938
0.165311980436862
0.165112615113638
0.165197332815169
0.165867336640016
0.167590031837933
0.171045139287201
0.177240491846528
0.18763726122508
0.20424419282235
0.230591955730598
0.276516165268402
0.378006253430295
0.720623867687592
2.99700730793372
0.166361268757293
0.165866982875218
0.165539262747805
0.165613680263763
0.16642926914743
0.168432556916029
0.172229732647658
0.178653835020056
0.188809300298247
0.204345030563109
0.228815883694175
0.272461052562291
0.37164471495051
0.715430702679148
2.99660128934379
0.16754014754422
0.16685139811903
0.166246786317027
0.165922975676542
0.166141722116811
0.167213595865488
0.169525368881383
0.173585604445919
0.180049578483391
0.189796845856907
0.204360523620424
0.227372810154251
0.269170145762771
0.366784954771379
0.719403788148536
2.99040918117553
0.16876243029652
0.167951636045994
0.16716499026554
0.166577637906669
0.166404983912229
0.166876427334823
0.16825251974477
0.170862824088497
0.175125662171938
0.181571253283564
0.190980046172183
0.204862414201727
0.226796629102304
0.266854244786129
0.362458730279351
0.721134079078149
2.98566187714882
3.05623599970376
3.16170703092804
3.23438980404345
3.06894460210307
2.99976729198843
3.00145019948349
3.00574058123256
3.00813059623584
3.02784121722513
0.713354073826063
0.376502263701231
0.720200860094737
0.271007171318818
0.381608766140701
0.722073852415627
0.223510937268918
0.274822194702483
0.385207565529495
0.725188173280885
0.19798557460078
0.226208789674345
0.277992218395434
0.389543292957853
0.729724330756981
0.182923263673816
0.199639529003801
0.22806324639917
0.281430343143336
0.396999013851221
0.7503115180912
0.173745468520644
0.183880074565549
0.200340878182871
0.229155465420306
0.285287781098639
0.407065222771657
0.791545675609953
0.16825866773601
0.174384719451654
0.184090902598551
0.20028896465309
0.229646339568446
0.286053735837663
0.424554570648128
0.165209900314686
0.168828077601958
0.174540925970774
0.183909550538381
0.200063735849694
0.228968739869146
0.288770333010036
0.419892739991237
0.405397866406846
0.290665896787661
0.230981981850336
0.200283122390924
0.183907537535595
0.794036647915067
0.174560298988798
0.169093388458371
0.165813854422664
0.163793168703705
0.163463509723111
0.164444134033634
0.166200872779149
0.169326606038117
0.174852767713583
0.184557907292062
0.201795951137345
0.232358208824892
0.28548412633144
0.3909250148784
0.733099210509414
0.736103686946454
0.764592690697488
2.99026653716106
2.99792346746927
0.16384755729262
0.164137162195864
0.16491043863181
0.166574449209406
0.169796178638815
0.175636653624764
0.185829149011102
0.203071890813296
0.231392336877172
0.279888016399979
0.384532385866033
0.739577925786257
2.99526277948359
0.164687502435093
0.164512181536151
0.164634452650755
0.165352977974747
0.167126330904014
0.170617543251176
0.176811277084994
0.187140708262042
0.203595316295437
0.229712278283678
0.275435936025398
0.377538787993207
0.725098343004031
2.99858999754695
0.16580256574305
0.16531484806676
0.165001089386254
0.165094998608652
0.165931105633305
0.167948445277308
0.171743060068763
0.178137315802696
0.188229601126228
0.203659651854291
0.227980923940405
0.271488880059494
0.370810690458364
0.71637384753826
2.99754514113207
0.167063021479922
0.166370327640679
0.165766058552141
0.165445139790388
0.165667183996518
0.166739791656066
0.169045758690374
0.173089405323645
0.179522560556791
0.189222728965845
0.203723474999267
0.226672283236993
0.268376279961825
0.365762826221443
0.716451495868876
2.99079652509059
0.168372861921283
0.167555001233742
0.166762722195754
0.166169672094697
0.165990788142394
0.166454919168186
0.167821741692741
0.170419657247417
0.174666066078186
0.181090897794619
0.190475911166673
0.204340594552168
0.226320596666024
0.266688713222566
0.363803527854592
0.728527775254238
2.98577903209545
0.169658058041224
0.168780925190812
0.167875036001837
0.167109267801141
0.166673774707737
0.166750448140327
0.167526130897216
0.169228165798235
0.172144909258788
0.176635377311118
0.183177093692178
0.192542776556854
0.206271236350885
0.227946856896602
0.267742270336467
0.365536134854385
0.738428788124014
2.99888807497721
2.99350576875891
3.03230790940339
3.08245556343003
3.06078317163339
3.00936852486625
2.98457009480461
2.98753400695268
3.01411896062522
3.0215496327272
3.03653468009294
0.702037838673848
0.368704992232853
0.710836881734884
0.26582674284388
0.374465888006599
0.712925841683833
0.219977486710977
0.270049277396691
0.378317516055396
0.716376396242174
0.195606933175032
0.223092813867844
0.273274294146487
0.381822043258772
0.718585040619073
0.181358832676186
0.197806495739427
0.225449908691508
0.276250878236572
0.385666104791663
0.724344059196995
0.172666088113801
0.182839736147152
0.19923565703868
0.227268521145441
0.27941199964859
0.391395220283401
0.738695725391343
0.167405043133452
0.173694445028413
0.18362833850714
0.199971970905485
0.22854191064465
0.281917165086384
0.399400119733509
0.745962469610742
0.164430225537067
0.168219498012152
0.174195269901898
0.183893167577467
0.200244959354035
0.228816130670086
0.283988043654751
0.400466841081109
0.163026446958584
0.165178856634104
0.168662299533241
0.174400275614243
0.184017715942921
0.200373382953746
0.229550409328545
0.28432273733728
0.39290392999848
0.38463452355818
0.281748378049421
0.230584353503055
0.201269814838263
0.184433013337164
0.174669048482074
0.734822409213394
0.168960735016696
0.16565919801897
0.163769612680153
0.162702147377278
0.163106835169215
0.163447426082568
0.164298477804668
0.166063913710648
0.16939123816962
0.175290354929146
0.185393392142803
0.202286885375264
0.229954089813821
0.277403837252971
0.38055911964357
0.739923174715596
0.712184007552781
0.720089551134303
2.99459691151431
2.98727487010692
0.163988649463446
0.163839047962539
0.164002101508763
0.164773842755303
0.166602290594121
0.170128203833448
0.176300261846063
0.186505075628157
0.202702746236785
0.228426344395652
0.273784519211126
0.376774263171656
0.731176217750609
2.99938214100154
0.165165672704587
0.164686600892454
0.164389965006436
0.164507445596565
0.165367899314135
0.167400022319841
0.17118447014049
0.177525619204984
0.187508465684624
0.20276503185596
0.226881080910056
0.270290430840607
0.370210784025429
0.720008061551093
2.99837810078771
0.166504763247349
0.16580911719827
0.165207100823358
0.16489180757693
0.16511973793241
0.166193712152655
0.16848978785583
0.172504280184732
0.178882237210325
0.188497907566821
0.202892935936394
0.225718904679657
0.267327300354941
0.364807817633759
0.716212163862686
2.99123775034206
0.16790574308387
0.167076581689982
0.166277627149651
0.165679775976793
0.165495922454305
0.1659528923378
0.167307702075621
0.169885414950157
0.174100320565596
0.180480502382531
0.189808423822104
0.203610262667278
0.225549190013724
0.265859691494751
0.362742290910584
0.725170330225466
2.98594198261141
0.16928818106774
0.168392482947121
0.167476793840519
0.166701776402674
0.16625599656207
0.166320790194026
0.167082362948199
0.168767135305622
0.171662350397683
0.176126149636679
0.1826363552825
0.19196978407427
0.205683923716223
0.22745602691441
0.267722804351435
0.367843373868682
0.749210655602465
2.99893109267932
0.169681373033264
0.168715539573454
0.167839495752218
0.167235238077775
0.167058965505316
0.167455227806874
0.168592960262941
0.170688082079896
0.174012685895163
0.178917116537401
0.18590771663966
0.195850194835103
0.210459253957811
0.23370456346679
0.276999116590061
0.386387726033157
0.779819977990654
3.0317822479779
2.98505478416789
2.9905910615474
3.0155450962624
3.03341480276552
3.01594593640237
2.99543519391941
2.98366166585928
2.98972233126433
3.02259178430096
3.0212067382113
3.04553202037889
0.690379811195424
0.360209443745933
0.700281172829036
0.260234513078159
0.3666939060963
0.703050308738058
0.216110734627409
0.264818051005833
0.371017959198459
0.706621430688874
0.192866338521797
0.219498386261402
0.268288704643916
0.374709323279684
0.71116195018404
0.17940799393073
0.195377686523178
0.222135605887328
0.271175586612589
0.377923234847792
0.713077705302191
0.171247955553706
0.181235696069645
0.197246551485807
0.224239449825432
0.273800226069468
0.381145587470676
0.717427336159502
0.166301537002329
0.172584766798586
0.182472653622963
0.198528091745389
0.225912844898528
0.276194272627746
0.384922682650752
0.721621501344428
0.163484037460286
0.167343400338266
0.173419819638275
0.183182765211414
0.199313317703686
0.226926872849085
0.278105531595702
0.386374242431572
0.717383181279957
0.162148960146206
0.16438232642309
0.167992773835076
0.173882076612402
0.183582533015003
0.199721154623143
0.227544044963254
0.278406582152051
0.38281104732306
0.161858617297069
0.16299059266432
0.164982176851155
0.168415410131782
0.174241971854901
0.183979550430066
0.200281639945792
0.228012218013215
0.276724302394319
0.377696457158789
0.374259881186668
0.273983308764096
0.22776053209159
0.201054290578466
0.184712127713889
0.174785052805005
0.168863092554207
0.708342186445591
0.165449329659463
0.163595693772591
0.162677264481268
0.162294266807851
0.163218437134249
0.163092046089832
0.163293454355414
0.164115787017699
0.165994874246074
0.169543698554071
0.175660540767334
0.185665001525103
0.201478895604691
0.226647144120176
0.271339331128962
0.374472548744466
0.735490114886024
0.734068310930183
0.702840554280336
2.99913610234045
2.99267310060235
0.164453655630952
0.163983233398784
0.163704061546086
0.163845645814858
0.164730146989551
0.16677314018816
0.170533970472339
0.176790527104761
0.186604240086082
0.201604209529543
0.225425663985182
0.268716620619324
0.369516909766735
0.724588713422454
2.99884994914434
0.165866730843786
0.165168970306778
0.164570139543303
0.164261540606361
0.164495863025951
0.165569574709852
0.167849101859614
0.171818567957914
0.178112093011824
0.187602179988593
0.201837902811875
0.224504986953108
0.26606550230452
0.364054948231867
0.7185196072913