/*--------------------------------*- C++ -*----------------------------------*\
  =========                 |
  \\      /  F ield         | OpenFOAM: The Open Source CFD Toolbox
   \\    /   O peration     | Website:  https://openfoam.org
    \\  /    A nd           | Version:  12
     \\/     M anipulation  |
\*---------------------------------------------------------------------------*/
/*   Windows 32 and 64 bit porting by blueCAPE: http://www.bluecape.com.pt   *\
|  Based on Windows porting (2.0.x v4) by Symscape: http://www.symscape.com   |
\*---------------------------------------------------------------------------*/
FoamFile
{
    format      ascii;
    class       volScalarField;
    location    "400";
    object      p;
}
// * * * * * * * * * * * * * * * * * * * * * * * * * * * * * * * * * * * * * //

dimensions      [0 2 -2 0 0 0 0];

internalField   nonuniform List<scalar> 
10063
(
83333.3333203765
83333.3333217253
83333.3333194423
83333.3333229519
83333.3332872891
83333.3333208855
83333.3333239723
83333.3332917073
83333.3333221669
83333.3332326155
83333.3332847471
83333.3333192948
83333.3333248403
83333.3332950881
83333.3333232971
83333.3332419804
83333.333289402
83333.3333207659
83333.3331606005
83333.3332279465
83333.3332788759
83333.333316465
83333.3333250452
83333.3332974466
83333.333324155
83333.3332490191
83333.3332930086
83333.3333220657
83333.3331763329
83333.3332376867
83333.3332840871
83333.3333182378
83333.333077413
83333.3331552631
83333.3332186869
83333.3332682944
83333.3333122892
83333.3333249358
83333.3332980904
83333.3333243231
83333.3332536748
83333.333295561
83333.3333230019
83333.3331883111
83333.333245075
83333.3332881769
83333.333319794
83333.3331000266
83333.3331713283
83333.3332291464
83333.3332744356
83333.3333144105
83333.3329880949
83333.3330718619
83333.3331456949
83333.333201696
83333.3332533988
83333.3333072274
83333.3333238372
83333.3332968115
83333.3333241634
83333.3332551271
83333.3332960637
83333.3333231556
83333.3331965977
83333.3332500989
83333.3332911139
83333.3333209314
83333.3331173583
83333.3331836339
83333.3332372009
83333.3332793699
83333.3333162617
83333.3330173866
83333.3330947113
83333.3331623272
83333.3332133733
83333.3332606742
83333.3333095204
83333.3328972483
83333.3329830128
83333.3330626038
83333.33312857
83333.3331773535
83333.3332361227
83333.333307569
83333.3333246563
83333.3332924956
83333.3333233002
83333.3332520222
83333.3332949906
83333.3333228201
83333.3332005861
83333.3332518852
83333.3332916947
83333.3333211654
83333.3331296656
83333.3331922827
83333.3332429193
83333.3332829963
83333.3333176255
83333.3330399639
83333.3331122976
83333.3331752269
83333.3332225121
83333.3332665491
83333.3333115087
83333.3329324864
83333.3330124074
83333.3330858149
83333.3331461614
83333.3331907306
83333.33324417
83333.3333096736
83333.3328089914
83333.3328929546
83333.332974402
83333.3330467031
83333.3331006871
83333.3331474507
83333.3332199112
83333.3333231608
83333.3332897738
83333.3333254316
83333.3332431135
83333.3332913346
83333.3333216312
83333.3331981813
83333.3332494196
83333.3332906222
83333.3333208863
83333.3331363138
83333.3331970811
83333.3332455876
83333.3332839237
83333.3333180361
83333.3330562541
83333.3331249251
83333.3331845866
83333.3332292586
83333.3332709651
83333.3333128715
83333.3329598681
83333.3330351205
83333.333103838
83333.3331599972
83333.333201346
83333.333250399
83333.3333117028
83333.3328491701
83333.3329281802
83333.3330039571
83333.3330705421
83333.3331198065
83333.3331623912
83333.3332294103
83333.3327265288
83333.3328054397
83333.332885097
83333.3329597902
83333.333020577
83333.3330578694
83333.3330994461
83333.3333218032
83333.3332865054
83333.3333249705
83333.3332233747
83333.3332875485
83333.3332993548
83333.3331868287
83333.3332414262
83333.3332886498
83333.3332855274
83333.3333207463
83333.3333231145
83333.3331348794
83333.333195427
83333.3332438727
83333.333282911
83333.3333180859
83333.333065909
83333.3331322706
83333.3331907043
83333.3332331581
83333.3332725105
83333.3333132893
83333.3329799208
83333.333051574
83333.333117038
83333.3331703394
83333.3332094205
83333.3332546848
83333.3333134186
83333.3328807895
83333.3329556037
83333.3330269233
83333.3330892449
83333.3331350656
83333.3331739638
83333.3332373568
83333.3327705315
83333.3328455312
83333.3329203181
83333.3329896778
83333.333045513
83333.3330791293
83333.333117288
83333.3326519605
83333.3327235587
83333.3327983733
83333.3328716384
83333.3329358497
83333.332980083
83333.3329597983
83333.3329624532
83333.3333218878
83333.3332800389
83333.3332225953
83333.3332858344
83333.3332994627
83333.3331536552
83333.3332240796
83333.3332638482
83333.333123082
83333.3331864176
83333.3332387014
83333.3332813955
83333.3332867226
83333.3332862166
83333.3333209856
83333.3333188599
83333.3330661462
83333.3331314181
83333.3331902449
83333.333232425
83333.3332716539
83333.3333138537
83333.332992441
83333.3330615456
83333.3331254569
83333.3331778071
83333.3332147518
83333.3332558822
83333.3333146803
83333.3329044983
83333.3329757172
83333.333043708
83333.3331031914
83333.333146725
83333.3331821957
83333.3332439014
83333.3328057163
83333.33287714
83333.3329478502
83333.3330130756
83333.3330652819
83333.3330958402
83333.3331318967
83333.3326986758
83333.3327674322
83333.3328383402
83333.3329069523
83333.3329664132
83333.3330067673
83333.3329859823
83333.3329869061
83333.3325864123
83333.3326494464
83333.3327173161
83333.3327861234
83333.3328499992
83333.3328992992
83333.3329097972
83333.3328482005
83333.3328493291
83333.3333217647
83333.3332776096
83333.3332172085
83333.3331149865
83333.3330535728
83333.3331629244
83333.3330927492
83333.3332291856
83333.3330568033
83333.333121657
83333.3331840817
83333.3332289883
83333.3332800257
83333.3332701795
83333.3333187647
83333.3333155109
83333.3329965376
83333.3330623354
83333.3331256504
83333.3331784735
83333.3332148204
83333.3332555172
83333.3333151702
83333.3329204435
83333.3329883691
83333.3330541764
83333.3331126419
83333.3331553369
83333.3331864768
83333.3332487033
83333.3328327955
83333.332900856
83333.3329681332
83333.3330303407
83333.3330801676
83333.3331079941
83333.3331435543
83333.3327366955
83333.3328025843
83333.3328699613
83333.3329347119
83333.3329905368
83333.333027964
83333.3330071734
83333.3330072918
83333.3326348007
83333.3326960082
83333.3327609836
83333.3328259954
83333.332885629
83333.3329309809
83333.3329395024
83333.3328793564
83333.3328789492
83333.3325302623
83333.3325842824
83333.3326440371
83333.332706426
83333.332766818
83333.3328180405
83333.3328442042
83333.3328233622
83333.3327527034
83333.3327554
83333.3333224299
83333.3332722491
83333.3332155731
83333.3331093098
83333.3330778783
83333.3331002432
83333.3329685717
83333.3330590049
83333.333028997
83333.3331029623
83333.3331687442
83333.3330945756
83333.3330327275
83333.3332218524
83333.3329909491
83333.333054032
83333.3331179317
83333.3331741058
83333.3332118454
83333.3332710846
83333.3332567307
83333.3333169128
83333.3333160457
83333.3329284199
83333.3329926677
83333.3330557888
83333.3331138349
83333.3331563934
83333.3331852129
83333.3332476827
83333.3328521334
83333.3329168234
83333.3329810502
83333.3330413381
83333.3330903255
83333.3331156078
83333.3331507243
83333.3327667308
83333.3328296596
83333.3328937504
83333.3329552827
83333.3330084655
83333.3330436385
83333.3330233841
83333.3330235036
83333.3326749058
83333.3327339851
83333.3327960907
83333.3328576921
83333.3329138252
83333.3329561509
83333.3329633781
83333.3329045989
83333.3329033549
83333.3325794081
83333.3326325055
83333.3326903395
83333.3327498574
83333.3328067129
83333.3328542874
83333.332877756
83333.332856469
83333.3327877895
83333.332789078
83333.3324833534
83333.3325284757
83333.3325796872
83333.3326346051
83333.3326895625
83333.3327391665
83333.3327734786
83333.3327763484
83333.3327364396
83333.3326699341
83333.3326732582
83333.3333278778
83333.3332728646
83333.3332016304
83333.333121294
83333.333024511
83333.3330699125
83333.3330851805
83333.3329661765
83333.3329190119
83333.332964451
83333.3329656139
83333.3330602801
83333.3330264853
83333.3329918108
83333.3330283723
83333.3331610119
83333.3330951279
83333.3331147282
83333.3330310688
83333.3329746574
83333.333207544
83333.3329273868
83333.3329875521
83333.333048559
83333.3331073012
83333.3331513035
83333.3331803535
83333.3332649126
83333.3332450713
83333.3333221289
83333.3328638796
83333.3329248494
83333.3329856813
83333.3330437366
83333.3330914511
83333.3331139833
83333.3331479299
83333.3327892772
83333.3328490063
83333.3329098318
83333.332968515
83333.33301995
83333.3330533705
83333.3330344046
83333.333033404
83333.3327073853
83333.3327640191
83333.3328231982
83333.332881644
83333.3329348416
83333.3329748468
83333.3329813095
83333.3329239424
83333.3329226729
83333.3326208707
83333.3326725613
83333.3327282355
83333.3327849332
83333.3328386183
83333.3328831809
83333.3329046171
83333.3328832959
83333.3328163731
83333.3328168379
83333.3325324902
83333.3325774509
83333.3326276178
83333.3326805692
83333.3327327865
83333.332779263
83333.3328107639
83333.332812189
83333.3327727927
83333.3327078295
83333.3327101069
83333.3324451692
83333.3324818793
83333.3325246486
83333.3325717171
83333.3326202149
83333.3326659882
83333.3327024033
83333.3327189254
83333.3327036157
83333.3326576737
83333.3325977063
83333.3326010979
83333.3332822076
83333.3331945502
83333.3331381944
83333.3330623457
83333.3331151985
83333.332983483
83333.3330874177
83333.3329180433
83333.3329593747
83333.3328826796
83333.332916183
83333.3329150792
83333.3329458753
83333.3329644638
83333.3329678797
83333.3329450925
83333.3329589774
83333.3330022081
83333.3329482201
83333.3329902587
83333.3330290822
83333.3331336035
83333.3330864859
83333.333115301
83333.333027216
83333.3330806003
83333.3330638279
83333.3329718162
83333.332918566
83333.3332052885
83333.3328680727
83333.3329240918
83333.332981152
83333.333036984
83333.3330841979
83333.3331041703
83333.3331400225
83333.3331960221
83333.3332608103
83333.333222189
83333.332804738
83333.3328607931
83333.3329180212
83333.3329735007
83333.3330221922
83333.3330521483
83333.3330324494
83333.3330302433
83333.3327327768
83333.3327865831
83333.3328426237
83333.3328979325
83333.3329484167
83333.3329865833
83333.3329921837
83333.3329363022
83333.3329338806
83333.3326552185
83333.3327050384
83333.3327582824
83333.3328121328
83333.3328628678
83333.3329048239
83333.332924672
83333.3329037169
83333.332838487
83333.3328384625
83333.3325746479
83333.3326188597
83333.3326675672
83333.3327183558
83333.3327678962
83333.3328115652
83333.3328407612
83333.3328412016
83333.3328025488
83333.3327392412
83333.3327408277
83333.3324936866
83333.332530844
83333.3325733127
83333.3326192396
83333.3326657998
83333.3327090778
83333.3327429326
83333.3327575459
83333.332741725
83333.3326964713
83333.3326376579
83333.3326403093
83333.3324149768
83333.3324439759
83333.3324787543
83333.3325180629
83333.3325597075
83333.3326004748
83333.3326356198
83333.332658136
83333.3326589608
83333.3326332237
83333.3325879678
83333.3325360369
83333.3325391455
83333.3331943535
83333.3331046519
83333.3330848123
83333.3331211708
83333.3329638096
83333.3330707808
83333.3329807629
83333.3330347504
83333.332882113
83333.3329153982
83333.3328520103
83333.332879438
83333.3328812584
83333.3329060411
83333.3329150061
83333.3329192333
83333.332916487
83333.3329445559
83333.3329641225
83333.332970722
83333.3329024125
83333.332945896
83333.332987287
83333.3330257969
83333.3331006066
83333.3330619179
83333.3330735137
83333.3330168923
83333.333066583
83333.3330868345
83333.3330798144
83333.3329661726
83333.332915525
83333.3328655306
83333.3331728794
83333.3332034532
83333.3328135284
83333.3328651133
83333.3329176711
83333.3329694243
83333.3330150319
83333.3330391525
83333.3330866512
83333.333017972
83333.3330207647
83333.3331549137
83333.333165175
83333.3331859391
83333.3327516075
83333.3328020902
83333.332854554
83333.3329063953
83333.3329535264
83333.3329875846
83333.3329905033
83333.3329341601
83333.3329301555
83333.3326829721
83333.3327304523
83333.3327809176
83333.3328317323
83333.332879471
83333.3329188033
83333.3329371647
83333.3329165349
83333.3328533729
83333.3328532231
83333.332610285
83333.332653202
83333.3327000405
83333.3327484459
83333.3327952895
83333.3328362983
83333.3328634506
83333.3328631643
83333.3328255476
83333.3327640711
83333.3327651201
83333.3325359673
83333.3325729435
83333.3326145959
83333.3326590197
83333.332703484
83333.3327443339
83333.3327758972
83333.3327889862
83333.3327730251
83333.3327287465
83333.3326714256
83333.3326735804
83333.3324624137
83333.3324923233
83333.3325273998
83333.3325662753
83333.3326067294
83333.3326456707
83333.3326786786
83333.3326992614
83333.3326989587
83333.3326731591
83333.3326285479
83333.3325774542
83333.3325800344
83333.3323919389
83333.3324140296
83333.3324414742
83333.3324734242
83333.3325082423
83333.3325434684
83333.3325755884
83333.3325996679
83333.3326092486
83333.3325988691
83333.3325690422
83333.3325276073
83333.3324842484
83333.3324873853
83333.333107324
83333.3330643447
83333.3329526471
83333.3329570545
83333.333087759
83333.332916974
83333.3329662145
83333.3328520813
83333.3328807466
83333.3328259999
83333.332849464
83333.3328506491
83333.3328721983
83333.3328784751
83333.3328802241
83333.3328858705
83333.3329046983
83333.3329152393
83333.3329138109
83333.3328814533
83333.3329145959
83333.3329420327
83333.3329594586
83333.3328571541
83333.3328997278
83333.332941012
83333.3329790498
83333.3330151781
83333.3330562115
83333.3330571089
83333.3331481778
83333.3330067535
83333.3329948244
83333.3330450992
83333.3329621291
83333.3329552378
83333.3330394681
83333.3329095421
83333.3328627396
83333.3328164947
83333.3331650488
83333.3327644352
83333.3328109794
83333.3328591432
83333.332906489
83333.3329496293
83333.3329784737
83333.3329777993
83333.3330432991
83333.3331406486
83333.3329215025
83333.3329806443
83333.3329168861
83333.3329913734
83333.3331535583
83333.3327046757
83333.3327493304
83333.3327965621
83333.3328439337
83333.3328882473
83333.3329239142
83333.3329385753
83333.3329162565
83333.3328550532
83333.3328523804
83333.3326398642
83333.3326809739
83333.3327255149
83333.3327712332
83333.3328151949
83333.3328533939
83333.3328783375
83333.3328771574
83333.332840832
83333.3327816757
83333.3327827576
83333.3325723571
83333.3326085705
83333.3326489171
83333.3326914909
83333.3327336781
83333.3327720705
83333.3328014297
83333.3328131558
83333.3327972782
83333.3327543043
83333.332698991
83333.3327008263
83333.3325043486
83333.3325345428
83333.3325693598
83333.3326073439
83333.3326463002
83333.3326832975
83333.3327142404
83333.3327331178
83333.3327320136
83333.3327065179
83333.3326629075
83333.3326131147
83333.3326153363
83333.332437967
83333.3324613018
83333.3324895033
83333.3325215958
83333.3325558758
83333.3325899204
83333.3326204103
83333.3326427683
83333.3326510073
83333.3326400295
83333.3326103305
83333.3325694314
83333.3325266058
83333.3325293227
83333.3323751947
83333.3323912023
83333.3324120671
83333.3324372464
83333.3324655461
83333.3324951077
83333.3325232987
83333.3325465032
83333.3325600559
83333.332559318
83333.3325424548
83333.3325127192
83333.3324770073
83333.3324421217
83333.332445409
83333.3329448689
83333.3330681397
83333.3329261733
83333.3330543363
83333.3328980794
83333.3329117931
83333.3329597438
83333.3328796592
83333.3328261898
83333.3328507936
83333.3328044879
83333.3328242504
83333.3328247319
83333.3328436846
83333.33284822
83333.3328483227
83333.3328577461
83333.3328708841
83333.3328771033
83333.3328753345
83333.332859382
83333.3328841759
83333.3329025111
83333.3329097296
83333.3329023814
83333.3328445286
83333.3328791354
83333.332910332
83333.3329347446
83333.3329480477
83333.3328143447
83333.3328546056
83333.3328943288
83333.3329312808
83333.3329605837
83333.3329672938
83333.3330426019
83333.3331313473
83333.3329515904
83333.3329567543
83333.3329360824
83333.3329900039
83333.3330050579
83333.3329236064
83333.3328990064
83333.3328571184
83333.3328140526
83333.3327719523
83333.332720907
83333.3327622384
83333.3328056853
83333.3328489504
83333.3328889407
83333.3329199864
83333.3329302706
83333.3329062903
83333.33312199
83333.332847776
83333.3328997524
83333.3329402036
83333.3328430685
83333.3328919015
83333.3326638971
83333.3327027208
83333.3327445152
83333.3327871397
83333.3328278275
83333.3328626474
83333.3328843528
83333.3328809791
83333.3328448773
83333.3327903838
83333.3327904724
83333.3326032392
83333.3326381623
83333.3326767325
83333.3327170846
83333.332756732
83333.3327924705
83333.3328194286
83333.3328295994
83333.3328137347
83333.3327724659
83333.3327199097
83333.332721596
83333.3325410207
83333.3325709165
83333.3326049485
83333.33264162
83333.3326787901
83333.3327136934
83333.3327425389
83333.3327597694
83333.3327580135
83333.3327330842
83333.3326909263
83333.3326431236
83333.332645203
83333.3324791899
83333.3325031741
83333.3325315741
83333.3325633086
83333.3325966534
83333.3326292713
83333.3326580561
83333.3326787781
83333.3326858929
83333.332674631
83333.3326454426
83333.3326055137
83333.3325636871
83333.3325660997
83333.3324195973
83333.332437073
83333.3324590287
83333.3324847965
83333.3325130957
83333.3325420527
83333.3325691343
83333.3325909588
83333.3326032106
83333.3326016011
83333.3325844718
83333.3325549347
83333.3325196009
83333.3324849209
83333.3324878976
83333.3323639133
83333.3323746342
83333.3323896957
83333.3324087825
83333.3324310463
83333.3324550993
83333.3324789653
83333.3324999453
83333.332514583
83333.3325191933
83333.3325113868
83333.3324918951
83333.3324648577
83333.3324357252
83333.3324092691
83333.3324125918
83333.332867247
83333.3328897484
83333.3329987958
83333.3328790508
83333.3328637879
83333.3328756481
83333.3328485817
83333.3328046812
83333.3328249543
83333.3327867874
83333.3328031991
83333.3328033104
83333.3328197686
83333.3328230187
83333.3328221501
83333.332832965
83333.3328423263
83333.3328458191
83333.3328430211
83333.3328377496
83333.332856131
83333.3328682653
83333.3328718013
83333.3328641093
83333.3328298798
83333.3328573323
83333.3328804524
83333.3328959565
83333.3328972941
83333.3328810292
83333.332808363
83333.3328422574
83333.3328743432
83333.3329017709
83333.3329192092
83333.332914945
83333.33277501
83333.332812093
83333.3328494524
83333.3328847059
83333.3329139552
83333.3329277009
83333.3329184029
83333.3328875754
83333.3329119229
83333.3329072714
83333.3328822999
83333.3328925476
83333.3328475039
83333.3328090185
83333.3327698722
83333.3327323081
83333.332682925
83333.332719022
83333.3327576136
83333.3327966539
83333.3328334881
83333.3328641887
83333.3328817001
83333.3328754994
83333.3328397585
83333.3327889927
83333.3328352241
83333.3328739162
83333.3327877031
83333.3328298854
83333.3326290644
83333.3326622296
83333.3326985802
83333.3327363139
83333.3327730652
83333.3328057665
83333.3328297729
83333.3328377354
83333.3328212523
83333.3327821643
83333.3327338308
83333.3327358106
83333.3325727295
83333.3326018037
83333.3326345635
83333.3326695128
83333.3327045849
83333.332737167
83333.3327637291
83333.3327791401
83333.3327766299
83333.3327523879
83333.3327121926
83333.3326671949
83333.332669207
83333.3325157524
83333.3325398247
83333.3325678939
83333.3325988137
83333.3326308694
83333.3326618268
83333.3326887901
83333.332707859
83333.3327139275
83333.3327025662
83333.3326742222
83333.3326358131
83333.3325956524
83333.3325980771
83333.3324598363
83333.3324782333
83333.332500748
83333.3325265993
83333.3325544591
83333.3325824863
83333.332608279
83333.3326286959
83333.3326397591
83333.3326375108
83333.3326204426
83333.3325915214
83333.3325569849
83333.3325229575
83333.332525606
83333.3324065634
83333.3324188878
83333.3324352687
83333.3324552734
83333.3324779592
83333.3325018929
83333.332525135
83333.3325451259
83333.3325586561
83333.3325623353
83333.332554006
83333.3325344451
83333.3325076055
83333.332478658
83333.3324521228
83333.3324552519
83333.332357325
83333.3323634961
83333.3323735055
83333.3323872015
83333.3324040011
83333.3324228818
83333.3324423606
83333.3324604059
83333.3324744161
83333.3324815051
83333.3324793664
83333.3324675594
83333.3324482334
83333.3324254045
83333.3324033067
83333.3323849419
83333.3323882959
83333.3328168956
83333.3328444275
83333.3328535774
83333.3328475367
83333.3328338179
83333.3328436564
83333.332822489
83333.3327869927
83333.3328035026
83333.3327723427
83333.3327858232
83333.3327857674
83333.3327997558
83333.3328020419
83333.332800898
83333.3328116327
83333.3328184301
83333.3328203628
83333.3328172663
83333.3328177873
83333.332831397
83333.3328393933
83333.3328404172
83333.3328334041
83333.332814558
83333.3328359133
83333.3328526742
83333.3328621861
83333.332860702
83333.3328475933
83333.3328000061
83333.3328278598
83333.3328531339
83333.3328730014
83333.3328827664
83333.3328756214
83333.332855227
83333.3327744412
83333.3328063287
83333.3328376297
83333.3328657718
83333.3328868579
83333.3328932128
83333.3328805056
83333.3327395906
83333.332773058
83333.3328074563
83333.3328406009
83333.3328693889
83333.3328882248
83333.3328883542
83333.3328645894
83333.3328292803
83333.3328628281
83333.3328715102
83333.332858802
83333.3328329141
83333.3328473463
83333.3328004968
83333.332765503
83333.332730519
83333.3326975233
83333.3326503143
83333.3326813138
83333.3327150389
83333.3327497514
83333.332783188
83333.3328123702
83333.332832804
83333.3328375791
83333.3328201169
83333.3327829066
83333.3327403972
83333.3327834604
83333.3328207638
83333.3327420552
83333.33278138
83333.332599853
83333.3326276533
83333.3326587062
83333.3326915427
83333.3327241799
83333.3327541352
83333.3327780779
83333.3327912621
83333.3327876193
83333.3327640709
83333.3327265592
83333.3326853856
83333.3326875651
83333.332547874
83333.3325715307
83333.3325987839
83333.3326284625
83333.3326588865
83333.3326879286
83333.3327128848
83333.332730156
83333.3327350869
83333.3327236633
83333.3326964477
83333.3326601369
83333.3326223175
83333.3326248067
83333.332495977
83333.3325147705
83333.3325373324
83333.3325628038
83333.3325898367
83333.3326166458
83333.3326409711
83333.3326599057
83333.3326698023
83333.3326670363
83333.3326502644
83333.3326223419
83333.3325891742
83333.332556436
83333.3325590751
83333.3324456294
83333.3324590656
83333.3324762761
83333.3324967145
83333.3325193753
83333.3325428237
83333.3325651929
83333.3325840827
83333.3325965301
83333.3325994286
83333.3325908329
83333.3325715485
83333.3325453083
83333.3325169183
83333.3324906795
83333.3324934688
83333.3323981669
83333.3324060057
83333.3324174772
83333.3324323214
83333.332449861
83333.3324690114
83333.3324882868
83333.3325057301
83333.3325189012
83333.3325251432
83333.3325223763
83333.3325102927
83333.3324910049
83333.3324683305
83333.3324462245
83333.3324275886
83333.3324308772
83333.3323547722
83333.3323570216
83333.3323626742
83333.3323716619
83333.3323835983
83333.3323977433
83333.3324129881
83333.3324277964
83333.3324401914
83333.332447921
83333.3324489626
83333.3324423852
83333.3324291
83333.3324118444
83333.3323941837
83333.3323792148
83333.3323683004
83333.3323715424
83333.3327748932
83333.3328039155
83333.3328220287
83333.3328263216
83333.3328205785
83333.3328097589
83333.33281781
83333.3328011627
83333.3327725515
83333.332785951
83333.3327606187
83333.3327716031
83333.3327714963
83333.3327831737
83333.3327848
83333.3327836726
83333.3327935571
83333.3327985316
83333.3327995644
83333.3327966739
83333.3328000536
83333.3328101839
83333.3328155981
83333.3328153584
83333.3328092893
83333.3327997173
83333.3328161298
83333.3328281647
83333.3328337204
83333.332830949
83333.3328201551
83333.3327903686
83333.3328127741
83333.3328322087
83333.3328461206
83333.3328511674
83333.3328441036
83333.3328265144
83333.332771376
83333.3327981872
83333.3328237745
83333.3328456412
83333.3328603496
83333.3328626987
83333.3328493307
83333.3328231163
83333.3327435088
83333.3327726704
83333.3328021348
83333.3328296718
83333.3328522501
83333.3328650513
83333.3328620841
83333.332840854
83333.3327083054
83333.3327379201
83333.3327689898
83333.3327995845
83333.3328271752
83333.3328480227
83333.3328563748
83333.3328462596
83333.3328161654
83333.3327791662
83333.3328137222
83333.3328314378
83333.332829558
83333.3328130652
83333.3327878241
83333.332805434
83333.3327580848
83333.3327267474
83333.332695991
83333.3326674941
83333.3326228032
83333.3326489465
83333.3326779154
83333.3327082806
83333.3327381439
83333.3327651329
83333.3327860802
83333.332796566
83333.3327914051
83333.3327684916
83333.3327341505
83333.3326977387
83333.3327413431
83333.3327764988
83333.3327001387
83333.3327421076
83333.3325758593
83333.3325986681
83333.3326246832
83333.3326527361
83333.3326811994
83333.3327080509
83333.332730754
83333.3327459782
83333.3327495389
83333.332737981
83333.3327121814
83333.3326786122
83333.3326438169
83333.3326463966
83333.3325281669
83333.3325468823
83333.3325690224
83333.3325936869
83333.3326195343
83333.3326448483
83333.3326675079
83333.332684826
83333.3326934794
83333.332690206
83333.3326738861
83333.3326473206
83333.3326160591
83333.3325851404
83333.3325878148
83333.3324811108
83333.3324951783
83333.332512738
83333.3325331595
83333.3325553987
83333.3325780431
83333.3325993167
83333.3326169842
83333.3326283252
83333.3326305138
83333.3326218201
83333.3326030875
83333.3325778425
83333.3325505462
83333.3325251871
83333.332527925
83333.3324359442
83333.3324450129
83333.3324575053
83333.3324730491
83333.3324908959
83333.3325099379
83333.3325287224
83333.3325453917
83333.3325576789
83333.3325631517
83333.3325599435
83333.3325478586
83333.3325289442
83333.3325067753
83333.3324849707
83333.3324663232
83333.3324692756
83333.3323938076
83333.3323977315
83333.3324049189
83333.3324152042
83333.3324281088
83333.3324428227
83333.3324582103
83333.3324727658
83333.3324846123
83333.3324916619
83333.3324920875
83333.3324851174
83333.3324717233
83333.332454558
83333.3324369758
83333.3324218716
83333.3324105989
83333.332413906
83333.3323545566
83333.3323564429
83333.3323613567
83333.3323690224
83333.3323789111
83333.3323902013
83333.332401731
83333.3324119888
83333.3324192175
83333.332421721
83333.3324184275
83333.3324095222
83333.3323967151
83333.3323828793
83333.3323710122
83333.3323628639
83333.3323583638
83333.3323610218
83333.3327409991
83333.3327680894
83333.3327901655
83333.3328021965
83333.3328039002
83333.3327990492
83333.3327905653
83333.3327970764
83333.3327838857
83333.33276081
83333.332771669
83333.3327511524
83333.3327600395
83333.3327599344
83333.332769558
83333.3327707472
83333.332769746
83333.3327784521
83333.3327821199
83333.3327826759
83333.3327801381
83333.3327847176
83333.3327922852
83333.3327960169
83333.3327952527
83333.3327901629
83333.3327860533
83333.3327985937
83333.3328072887
83333.3328105418
83333.3328074605
83333.3327986124
83333.3327804205
83333.332798148
83333.3328128591
83333.332822382
83333.3328244516
83333.3328177995
83333.3328036495
83333.3327666867
83333.3327887641
83333.3328091987
83333.3328257058
83333.3328354775
83333.3328352612
83333.3328232593
83333.3328022856
83333.3327448796
83333.3327697854
83333.332794457
83333.332816762
83333.3328339538
83333.3328423349
83333.332837868
83333.3328190975
83333.3327906984
83333.3327159081
83333.3327419786
83333.3327689729
83333.3327950118
83333.3328176547
83333.3328335392
83333.3328382764
83333.3328278568
83333.3328020585
83333.3326811275
83333.3327068713
83333.3327344062
83333.332762112
83333.3327878947
83333.3328090129
83333.3328216486
83333.332821152
83333.3328040877
83333.3327733419
83333.33273697
83333.3327677659
83333.3327898674
83333.3327963169
83333.3327885948
83333.3327708933
83333.3327471554
83333.3327688351
83333.3327203572
83333.3326927628
83333.3326661875
83333.3326420131
83333.3326000509
83333.3326216494
83333.3326460695
83333.3326721624
83333.3326983638
83333.3327227539
83333.3327429487
83333.3327558649
83333.3327578246
83333.3327460583
83333.3327218768
83333.3326915645
83333.3326604365
83333.3327052744
83333.3327403306
83333.3326631292
83333.3327076761
83333.3325566421
83333.3325748724
83333.3325961858
83333.3326196678
83333.3326440049
83333.3326675579
83333.3326883388
83333.3327038632
83333.3327111291
83333.3327072855
83333.3326915353
83333.3326666876
83333.3326378448
83333.3326092089
83333.3326118732
83333.3325130926
83333.332527353
83333.3325448186
83333.3325648081
83333.3325862639
83333.3326078129
83333.3326277767
83333.3326440812
83333.3326542422
83333.3326557196
83333.3326470233
83333.3326290646
83333.3326051724
83333.3325794206
83333.3325553623
83333.3325580975
83333.3324705969
83333.3324804647
83333.3324935371
83333.3325093555
83333.3325271208
83333.3325457245
83333.3325637676
83333.3325795051
83333.3325908459
83333.3325955792
83333.3325920479
83333.3325801635
83333.3325619046
83333.3325406053
83333.3325195747
83333.332501465
83333.332504313
83333.3324302408
83333.3324354537
83333.3324437819
83333.3324549578
83333.3324684256
83333.3324833377
83333.3324985647
83333.3325126588
83333.3325238589
83333.3325302465
83333.3325301806
83333.3325230317
83333.3325098038
83333.3324930281
83333.3324758175
83333.3324607736
83333.3324492579
83333.3324522674
83333.33239347
83333.3323969058
83333.3324031992
83333.3324119869
83333.3324226654
83333.332434372
83333.3324459463
83333.3324559326
83333.3324626866
83333.3324646649
83333.3324609502
83333.332451831
83333.332439026
83333.3324252989
83333.3324134485
83333.3324051359
83333.3324003215
83333.3324031163
83333.3323541679
83333.3323555435
83333.3323594944
83333.332365613
83333.3323732926
83333.3323816593
83333.3323895559
83333.3323956107
83333.3323984324
83333.3323969817
83333.3323910527
83333.3323816238
83333.3323708445
83333.3323614499
83333.3323555935
83333.3323534837
83333.3323529701
83333.3323549458
83333.3327122406
83333.3327388305
83333.3327608264
83333.3327772968
83333.3327852056
83333.3327859095
83333.3327819536
83333.3327751789
83333.33278043
83333.3327699287
83333.3327513323
83333.3327600968