/*--------------------------------*- C++ -*----------------------------------*\
  =========                 |
  \\      /  F ield         | OpenFOAM: The Open Source CFD Toolbox
   \\    /   O peration     | Website:  https://openfoam.org
    \\  /    A nd           | Version:  12
     \\/     M anipulation  |
\*---------------------------------------------------------------------------*/
/*   Windows 32 and 64 bit porting by blueCAPE: http://www.bluecape.com.pt   *\
|  Based on Windows porting (2.0.x v4) by Symscape: http://www.symscape.com   |
\*---------------------------------------------------------------------------*/
FoamFile
{
    format      ascii;
    class       surfaceScalarField;
    location    "400";
    object      phi;
}
// * * * * * * * * * * * * * * * * * * * * * * * * * * * * * * * * * * * * * //

dimensions      [0 3 -1 0 0 0 0];

internalField   nonuniform List<scalar> 
28680
(
-1.02615615255735e-06
-5.37772380196796e-08
-9.37342019556449e-07
2.43724357726517e-06
-4.57583022088969e-08
-1.01767569239364e-06
-8.29077566644832e-07
2.43247300660233e-06
-4.53231960168333e-08
-1.07823971515067e-06
2.14278262702628e-06
1.56536990666191e-07
-9.27301272355036e-07
3.34301672686886e-06
-1.26508307807422e-07
-7.62019352670345e-07
2.46277405104803e-06
-6.17673903621709e-08
-9.47905569843891e-07
2.1523827427772e-06
1.49754620859324e-07
-8.3034948976626e-07
3.27316983605728e-06
-1.4204044237985e-07
-1.25730338085263e-06
1.66773391834422e-06
2.88211812262666e-07
-1.15774795749819e-06
2.96487796169961e-06
3.83492722224039e-07
-8.76817034652595e-07
4.33089774335944e-06
-2.64054337961468e-07
-6.6417634072659e-07
2.56838373734872e-06
-6.74032640458019e-08
-8.29245980869269e-07
2.20803790458667e-06
1.36074386207543e-07
-7.6472241190241e-07
3.29236495960182e-06
-1.7130353612931e-07
-1.08879049703122e-06
1.70766347801885e-06
2.76204869975086e-07
-1.01624298259836e-06
2.92564409017232e-06
3.55766733481764e-07
-8.11942156595576e-07
4.22188468524984e-06
-2.98379608224545e-07
-1.43530047782362e-06
1.21573493207356e-06
2.28727445575082e-07
-1.44632244179316e-06
2.39490751471097e-06
6.37711564582618e-07
-1.22331569571506e-06
3.8218831409567e-06
7.41347747522932e-07
-6.9539059255899e-07
6.402067821066e-06
-4.26110429189237e-07
-6.15929296126259e-07
2.71707729691141e-06
-8.6476930314998e-08
-6.93886569102074e-07
2.31165281646872e-06
1.21370500864014e-07
-6.87083575571428e-07
3.3799089808662e-06
-2.07036720310517e-07
-9.24269450700297e-07
1.78096925115564e-06
2.62546394408787e-07
-8.75418371203644e-07
2.96521415946561e-06
3.2239345243463e-07
-7.76941500105684e-07
4.23190044892864e-06
-3.48022941721869e-07
-1.23638230802161e-06
1.28350379623263e-06
2.25241922888802e-07
-1.24566205963605e-06
2.39433671003536e-06
6.06846339705205e-07
-1.07489400799634e-06
3.7475733860177e-06
6.81642627787829e-07
-6.9309101556722e-07
6.20722797915716e-06
-4.88712191897544e-07
-1.57742838943547e-06
8.01845158044681e-07
1.70219882244254e-07
-1.69899925533542e-06
1.81978221603113e-06
5.31942597394993e-07
-1.6539085514103e-06
3.0736286900306e-06
1.13827823012454e-06
-1.21803894442658e-06
5.54662850475308e-06
1.45344317416598e-06
-2.33527808027543e-07
1.07137751898057e-05
-9.83883794782238e-07
-5.36980760461408e-07
2.9278670745189e-06
-1.24820428424954e-07
-5.69287684312524e-07
2.46455615012047e-06
1.27920322136326e-07
-6.10483717699485e-07
3.62393838053703e-06
-2.56455980941649e-07
-7.4284754862301e-07
1.88710381814422e-06
2.4312597587142e-07
-7.39940864137077e-07
3.08088990031306e-06
2.84903689247555e-07
-7.31619940334454e-07
4.33103309272342e-06
-4.20707697368861e-07
-1.04402651805649e-06
1.36986746219653e-06
2.18746983672094e-07
-1.0464754822446e-06
2.45340510463085e-06
5.75164075249721e-07
-9.28124363104082e-07
3.78432189296929e-06
6.23187174958106e-07
-7.28699925046092e-07
6.18301059378916e-06
-5.72285288493496e-07
-1.36113153435796e-06
8.93253916834317e-07
1.73955606942408e-07
-1.45691391430234e-06
1.85734164731493e-06
5.20151717435492e-07
-1.42417447547698e-06
3.04629785355676e-06
1.07837058981563e-06
-1.06955825123963e-06
5.4084393284002e-06
1.33192257870505e-06
-3.20503952468945e-07
1.04362497146991e-05
-1.07676342362281e-06
-1.66802815431714e-06
4.2923347535877e-07
1.25647469234316e-07
-1.87295912882645e-06
1.28746923141254e-06
4.03840626783259e-07
-2.00294455639629e-06
2.31097430886094e-06
9.77673669175767e-07
-1.85733531257148e-06
4.27247173959882e-06
2.13759033399863e-06
-1.0960878961099e-06
9.8099434723665e-06
2.20058562787955e-06
7.03119687132867e-07
1.51316966385271e-05
-2.92183507802633e-06
-7.18022072402407e-07
3.19157181084941e-06
-2.88796954500282e-07
-4.19941375486291e-07
2.68786169358641e-06
9.06570449749483e-08
-5.98380068965977e-07
4.11282076530897e-06
-3.07761029695082e-07
-5.27104143516715e-07
2.02740858228383e-06
2.21403145925908e-07
-5.52168776606679e-07
3.29680565341644e-06
2.6727182327151e-07
-6.82774472789955e-07
4.68219509956234e-06
-5.06357790585881e-07
-8.36849245284676e-07
1.47460327042085e-06
2.05325284423895e-07
-8.24227627963477e-07
2.57199091773068e-06
5.29772221543194e-07
-8.10711531211732e-07
3.92719182545823e-06
5.71315164785967e-07
-7.53984999959293e-07
6.31519202812524e-06
-6.95047728994175e-07
-1.15420146314504e-06
9.89143391634233e-07
1.73797064011392e-07
-1.22211133965532e-06
1.93324286924789e-06
5.04108297370806e-07
-1.19525752252975e-06
3.10380713862841e-06
1.0267451545441e-06
-9.44897723118318e-07
5.44420270875053e-06
1.23730561971414e-06
-4.79959499398092e-07
1.03597759625562e-05
-1.24657710886749e-06
-1.44828949378485e-06
5.39932943046417e-07
1.33585424578294e-07
-1.60927959021707e-06
1.35895807526573e-06
4.08664911935489e-07
-1.71952031687634e-06
2.33254260116396e-06
9.50471782483338e-07
-1.5966943322263e-06
4.19776437836599e-06
2.02837397721053e-06
-9.20140353093399e-07
9.57857374335577e-06
2.0136285662385e-06
5.59515793572438e-07
1.49225662726192e-05
-3.07077180676353e-06
-1.71279241988228e-06
1.0071693581348e-07
9.17717377281208e-08
-1.97246225838668e-06
8.08168507231317e-07
3.01864039688381e-07
-2.2070646458671e-06
1.62280237116571e-06
7.43244701956435e-07
-2.33391968868155e-06
3.04615629847211e-06
1.83954358684399e-06
-2.1623326704601e-06
7.29667752983474e-06
4.30116999919146e-06
-4.24273308694833e-07
1.78975389026346e-05
-6.95290501929124e-07
9.65708230896865e-07
2.40650601228752e-05
-6.71820596774038e-07
3.15967228687835e-06
-4.82867037222997e-07
-3.39612153257778e-07
3.15541269918605e-06
-4.4172947470324e-08
-7.87616724323846e-07
4.60122567979123e-06
-5.19558538648882e-07
-2.50067409523368e-07
2.22535049215785e-06
1.85473574520987e-07
-3.5661103801136e-07
3.75820443297418e-06
2.49703352435653e-07
-6.73429595385823e-07
5.59999866919863e-06
-6.14047626529317e-07
-5.82188542105043e-07
1.60064674006905e-06
1.72103693501325e-07
-5.27517904714404e-07
2.75633131892307e-06
4.65162289032113e-07
-6.08197781186428e-07
4.22342726781361e-06
5.23506000302946e-07
-7.70929201432341e-07
6.83971095810065e-06
-8.45857403144574e-07
-9.36351157391559e-07
1.08917981208167e-06
1.67577269789272e-07
-9.66877915380441e-07
2.04744598359498e-06
4.74640756546701e-07
-9.61173978046521e-07
3.25318154809132e-06
9.69681242552358e-07
-8.55077432470044e-07
5.64677192284089e-06
1.1498863142789e-06
-6.36352753840026e-07
1.04970873183375e-05
-1.53443748092026e-06
-1.24003558866831e-06
6.43286125897991e-07
1.37606990864082e-07
-1.35827164296318e-06
1.44903784172384e-06
4.07002185382145e-07
-1.44614160630434e-06
2.40992641496895e-06
9.24599734502409e-07
-1.3370367493247e-06
4.25174881717406e-06
1.95950957734363e-06
-7.98082213002152e-07
9.65035262113306e-06
1.82464942033382e-06
2.33493585595282e-07
1.47271704422092e-05
-3.29177220605826e-06
-1.50083948645396e-06
2.26421117873018e-07
1.01561669886405e-07
-1.70432668697272e-06
9.07872431036526e-07
3.16542796722017e-07
-1.89916382108273e-06
1.68828719229968e-06
7.45015794692926e-07
-2.00559289328865e-06
3.03949369372556e-06
1.78038403268223e-06
-1.82202109770258e-06
7.14293615699986e-06
4.12366280851778e-06
-2.47670159137674e-07
1.77019159135465e-05
-9.42306212614853e-07
6.99994414302048e-07
2.48510567308485e-05
-1.72729853072254e-06
-1.8269328125495e-07
6.49093907567776e-08
-2.02036987650199e-06
3.84113831243645e-07
2.24252777310739e-07
-2.30107746914636e-06
1.02230149950149e-06
5.50779631508039e-07
-2.5575937924034e-06
2.0728034678302e-06
1.31607133143812e-06
-2.77769261055949e-06
4.20367419693998e-06
4.48730501334553e-06
-3.07887314410867e-06
2.03139941336444e-05
1.19951645920876e-06
5.91600261470061e-07
2.34564906187208e-05
-5.44683801021145e-07
7.19815513529262e-06
-3.63216826184787e-07
-3.44344847499266e-07
3.21122611335314e-06
-4.68228415482368e-08
-9.56182167969666e-07
1.54458660015063e-07
1.96309423916658e-07
2.57942841924641e-06
1.29603746425637e-07
4.38270625639921e-06
7.15830403277198e-09
-1.89435896354679e-07
8.65081942424954e-06
-1.13758857248528e-06
-1.12958128246365e-06
-2.52556089409614e-07
1.76292782013852e-06
1.32792262732483e-07
-9.01090931739312e-08
3.11894964477739e-06
3.87310301415044e-07
-3.61153669429236e-07
5.06600403597073e-06
5.36627408170444e-07
-9.85393390351468e-07
8.14014005473415e-06
-1.01041120617103e-06
-6.73229809888547e-07
1.19233436068055e-06
1.45196483052419e-07
-6.52142244899639e-07
2.21174047127834e-06
4.01964464938745e-07
-6.77185250088452e-07
3.50388799923154e-06
9.00693987786237e-07
-6.34132189481327e-07
6.0820516122235e-06
1.06018448416877e-06
-7.63039712843557e-07
1.09878432118941e-05
-1.95716740046446e-06
-1.02769008380426e-06
7.39143154388392e-07
1.37696558551114e-07
-1.09483887453414e-06
1.5570592529844e-06
3.94541764214861e-07
-1.15724974198944e-06
2.54656958661223e-06
8.92351722291446e-07
-1.0947352619479e-06
4.45755672890201e-06
1.91655914437532e-06
-7.43126531028682e-07
1.001591631667e-05
1.5760776255303e-06
-1.09532506098065e-07
1.44650383649727e-05
-3.72033071099758e-06
-1.30116392321716e-06
3.35994126485036e-07
1.07620136937787e-07
-1.4514549988142e-06
1.00945629886438e-06
3.24327133148739e-07
-1.60841347713468e-06
1.78345042524813e-06
7.42726022527732e-07
-1.69110396640831e-06
3.11558912725478e-06
1.74624219383204e-06
-1.48088601027333e-06
7.23146076117185e-06
4.03722979336004e-06
-9.60251949365308e-08
1.77473026009685e-05
-1.3471255005302e-06
3.62372727891354e-07
2.57815385661664e-05
-1.53008511041426e-06
-4.6066145379211e-08
7.52761665529062e-08
-1.76055806182443e-06
5.06141228218175e-07
2.43488603913751e-07
-1.98998928373174e-06
1.12367192167433e-06
5.70073233473202e-07
-2.20338734046024e-06
2.12451151947884e-06
1.30577202014494e-06
-2.37363040582491e-06
4.15296182238772e-06
4.36624763680401e-06
-2.37650576811807e-06
2.01019179018538e-05
1.02128510841257e-06
5.53412297518251e-07
2.3946992624232e-05
-1.725304175688e-06
-4.22364514066146e-07
4.28560127027947e-08
-2.03651201452715e-06
1.66747422533953e-08
1.6192137193353e-07
-2.3396196939002e-06
5.04811891737212e-07
4.04781324538548e-07
-2.61869981104781e-06
1.2900975158361e-06
9.35935826869113e-07
-2.89379360538586e-06
2.55267711224176e-06
2.51266945695583e-06
-4.02942808292516e-06
6.32033455623065e-06
1.77159640123111e-05
-2.43110976952947e-07
2.45173750036631e-05
-7.41656033786958e-07
1.62816997856441e-05
-2.77408753789376e-07
6.87931503182045e-06
2.51894890699568e-07
-6.70190520178598e-07
1.4634633636101e-07
-6.39198596664308e-07
4.16129713924442e-06
-1.1456685941856e-07
-9.24350784989592e-08
-3.13616073331324e-10
-1.11217004981822e-07
1.57141355221699e-07
2.04734118128913e-07
-1.42709880211798e-07
3.70799099028249e-07
1.98781865409336e-06
-3.17446470559836e-08
7.3856101134061e-07
3.75269912972433e-06
-6.90703402104731e-08
7.76055913809051e-06
6.42394779677622e-07
-1.06168559812161e-07
2.58396001814455e-07
-2.43411628351271e-07
1.08474967981747e-05
-1.93601059796444e-06
-1.41925391953885e-06
-1.8933022869452e-06
1.2900196716665e-05
-1.47328317915526e-06
-3.37717321539714e-07
1.30397937628558e-06
1.23440805783811e-07
-1.99591035240467e-07
2.48425929761791e-06
3.1493308497788e-07
-2.36584371122384e-07
4.1330482838662e-06
8.79639062799811e-07
-4.13654956083354e-07
7.43501579170899e-06
1.02123075405885e-06
-1.37745552438165e-06
1.18745621908473e-05
-2.30363375513959e-06
-7.94135218181912e-07
8.27092716163353e-07
1.31692747417228e-07
-7.77465515892035e-07
1.68640213007628e-06
3.53174361413458e-07
-8.60014817335787e-07
2.77470736227557e-06
8.33901254648919e-07
-8.31823871740971e-07
4.82380177013218e-06
1.8959963469375e-06
-4.99056980976517e-07
1.06448441388709e-05
1.15908752981943e-06
-4.04842663781253e-07
1.39189315063989e-05
-4.31880893958622e-06
-1.10187635832048e-06
4.29127700276219e-07
1.10732560026231e-07
-1.19353280256724e-06
1.11171783566715e-06
3.25128856037618e-07
-1.31078828669459e-06
1.90942366276975e-06
7.34064184299752e-07
-1.36687729851518e-06
3.28586261053164e-06
1.73979139500262e-06
-1.16691333021566e-06
7.61110119929763e-06
4.00736222084097e-06
-1.41176824729563e-07
1.80021092027725e-05
-1.91582448139724e-06
2.26332784097323e-07
2.78268239130143e-05
-1.34525642041959e-06
6.90335688566392e-08
8.21346771323374e-08
-1.51659492935461e-06
6.17176371510759e-07
2.55946525728765e-07
-1.69775437535835e-06
1.23310002325106e-06
5.82448282693305e-07
-1.87068783139555e-06
2.22134925362122e-06
1.30424947662718e-06
-1.98426394739741e-06
4.23291775147775e-06
4.35537264574615e-06
-1.6194660117301e-06
2.03475848195398e-05
6.79901866073038e-07
3.87628686391411e-07
2.46002519044073e-05
-1.54588162765305e-06
-2.78685818906007e-07
5.31988420115067e-08
-1.79342720988077e-06
1.5548083268555e-07
1.82857494219725e-07
-2.03901553369323e-06
6.34334287807402e-07
4.32227023285539e-07
-2.26641659842326e-06
1.38679986638051e-06
9.55496516541368e-07
-2.48985851590623e-06
2.58498589259322e-06
2.46977731147493e-06
-3.31474526619183e-06
6.21796725909086e-06
1.75354580480726e-05
-9.50022033428201e-10
2.47261336155667e-05
-1.71490643452112e-06
-6.21680280043821e-07
2.47822191218875e-08
-2.03370804557516e-06
-2.95003298734414e-07
1.09964490603612e-07
-2.35250539847821e-06
6.36092877356708e-08
2.90356025485319e-07
-2.62723371035497e-06
6.54323686593264e-07
6.63703593257269e-07
-2.83750173856969e-06
1.50210966947506e-06
1.55943012665569e-06
-3.20427623353195e-06
3.0306489300225e-06
5.27060278275783e-06
-5.02657878642342e-06
-5.12192037637816e-06
5.07992788398345e-06
1.66534075778492e-05
-5.84601739318248e-07
1.90845594610427e-05
-2.21123947915084e-06
2.15854789606341e-05
3.63098890894155e-08
1.59679742155007e-05
8.1736633748896e-07
-1.93626945537462e-06
7.35903714836949e-06
-3.68243512745654e-08
2.82342850343958e-07
-1.04839761559888e-07
-3.31873515238229e-08
3.29732517089156e-06
-1.26084287911375e-06
2.49561601571094e-06
-1.24013152944406e-06
5.11817884383961e-06
-2.43666098853618e-06
-5.42255008473816e-07
2.14992716403984e-07
1.39309591766574e-06
4.20146227520285e-08
4.90360654316323e-07
2.9924772030201e-06
3.85158376939396e-08
8.15361264022224e-07
5.70523839009742e-06
9.34264259878944e-07
1.09056099767773e-05
-7.72185980286231e-07
9.42756102892734e-07
9.23701946794825e-07
-1.75000344859013e-06
1.34100335531804e-05
2.10255114231415e-07
-3.65851200987917e-06
1.23648601985239e-05
-2.18469485832504e-06
1.22194506914287e-05
-3.30272852916418e-06
-2.78237782722003e-06
-4.96629220647254e-07
8.87717453134677e-07
1.18762278228072e-07
-3.20291163625076e-07
1.8461269012292e-06
3.04409134599671e-07
-4.23573190215561e-07
3.21127368786633e-06
8.00250066987354e-07
-4.2594267251033e-07
5.90368426193892e-06
2.00504298811364e-06
-6.39917654278767e-07
1.23594189033323e-05
6.77205859138888e-07
-1.18790417382035e-06
1.28944771196102e-05
-4.63356653886781e-06
-8.88995344086097e-07
5.03557291538951e-07
1.10659587623726e-07
-9.05691796290699e-07
1.21428357778508e-06
3.15985929632354e-07
-9.73884998695718e-07
2.08208653990463e-06
7.08894114621863e-07
-1.10331981107639e-06
3.61079462151494e-06
1.78331950551729e-06
-8.67533942532279e-07
8.27611074682715e-06
3.96531159117188e-06
-1.64068184056017e-07
1.79392703407881e-05
-2.83834844697123e-06
2.55440975647929e-07
3.2232606743232e-05
-1.16548408286876e-06
1.62878183482691e-07
8.64806113944553e-08
-1.27238076803696e-06
7.15400694303506e-07
2.62846939386128e-07
-1.40116504899848e-06
1.34900587825198e-06
5.88965089240902e-07
-1.53616733256394e-06
2.36813934626469e-06
1.31725043128045e-06
-1.56493404514716e-06
4.46555386418882e-06
4.46596454002582e-06
-9.65820923442807e-07
2.10694428852119e-05
2.8638492022882e-07
4.94786959807935e-07
2.58038969723972e-05
-1.37798043248222e-06
-1.59121549500425e-07
6.02557491742646e-08
-1.56626414407618e-06
2.74887841195688e-07
1.97266759238758e-07
-1.75714423563965e-06
7.55622907815706e-07
4.51559309169248e-07
-1.93545246060279e-06
1.49964740724506e-06
9.73182219756939e-07
-2.10643551856098e-06
2.6807840293681e-06
2.47292598280299e-06
-2.56120507801962e-06
6.29420628991055e-06
1.76551498036074e-05
-9.57384098633731e-09
2.52887914255077e-05
-1.55392621628703e-06
-4.74485685438813e-07
3.48207866986736e-08
-1.81165191976217e-06
-1.44568633603916e-07
1.31196207018967e-07
-2.07087314213958e-06
2.14397207697179e-07
3.21166600084411e-07
-2.29033166320035e-06
7.85592941132118e-07
6.96534214250777e-07
-2.4569672559451e-06
1.58990839505003e-06
1.57002843711262e-06
-2.72866965251092e-06
3.03922802664043e-06
5.17286927230512e-06
-4.95537772268469e-06
-4.22342238378661e-06
5.02345915699003e-06
1.65688238720229e-05
-3.12434027357641e-07
1.94985492068234e-05
-1.69977213702595e-06
-7.85226849172785e-07
1.04051317137258e-08
-2.01960699201305e-06
-5.54679924794842e-07
6.71172242042393e-08
-2.34964409033076e-06
-3.07319981088877e-07
1.97287375987885e-07
-2.62733495775965e-06
1.31773279727909e-07
4.64269771131939e-07
-2.7950795473352e-06
7.42119020733355e-07
1.02739918998659e-06
-2.95449037567999e-06
1.60769864953962e-06
2.53586458695876e-06
-3.40639613817579e-06
2.77742752495917e-06
6.98192777778336e-06
-9.43538407312707e-07
-4.05825470292034e-06
2.31704470332703e-06
1.44201774438002e-05
-1.7036507872441e-06
1.76066738746317e-05
-2.1448429166074e-06
2.93160548478431e-05
-1.41482412594216e-06
2.12865660057235e-05
-6.39295573840298e-07
1.46710767974464e-05
1.33737445143536e-06
5.72705803849926e-06
2.94614034951388e-07
-2.39144217824837e-06
4.30484315818986e-06
-2.37396337997773e-07
1.62131405913087e-06
1.45158040352879e-06
-1.45221386887881e-06
4.34828728092531e-06
1.43564478805635e-06
-1.17633494640966e-07
1.39259030791016e-06
-3.43854648036258e-06
1.32688881966565e-05
1.95830791090549e-06
-1.17905316530063e-07
9.19963318723379e-07
9.44128498047242e-08
5.0557896723853e-07
2.03013201180616e-06
1.78486358671692e-07
3.65699945122896e-07
4.19904839936265e-06
7.55394033549868e-07
4.24624319218634e-07
8.78278546144411e-06
2.20644620989608e-06
-3.71835298829779e-06
1.58180862271756e-05
-2.96874773488117e-07
1.67756459081087e-05
-3.51769408611052e-06
-7.35706885212514e-07
-5.68332577403e-06
1.12774424014389e-05
-3.07901998022888e-06
1.07831472711416e-05
-3.50313247719088e-06
-4.38819616246088e-06
-6.59563924913201e-07
5.50976934957423e-07
1.07314949386027e-07
-5.2002823195898e-07
1.2867458028429e-06
2.9249518331097e-07
-4.54103753556544e-07
2.30478234294623e-06
6.91116269994019e-07
-7.4713765349064e-07
4.32222830814476e-06
2.02547841792615e-06
-5.37601031942015e-07
1.00788568470902e-05
3.95562439191047e-06
-1.43312739826283e-06
1.80788579580831e-05
-3.23809150779195e-06
-7.7076962883852e-07
3.03464686600729e-05
-9.85214068285957e-07
2.34579655279525e-07
8.87114505849856e-08
-1.00733410582928e-06
7.95881518602602e-07
2.64028941619402e-07
-1.06434341153801e-06
1.47189108261561e-06
5.89370552192973e-07
-1.17396886814368e-06
2.59652080811942e-06
1.3609541382799e-06
-1.23317114842062e-06
4.93216356699555e-06
4.79545784031079e-06
-3.85471421871201e-07
2.18451490351546e-05
-5.20914640655762e-07
7.47599082545522e-07
2.91415191438524e-05
-1.21729619223341e-06
-6.28051232603062e-08
6.50012020048601e-08
-1.34490984886654e-06
3.7389649485017e-07
2.06638247257736e-07
-1.47539676725299e-06
8.65683365623487e-07
4.6443159821229e-07
-1.59902912148948e-06
1.62742208307441e-06
9.93258711158178e-07
-1.71072042207467e-06
2.84633878223511e-06
2.54071937803615e-06
-1.71045596727166e-06
6.54983826043542e-06
1.81347618503896e-05
4.39425911688739e-07
2.56412966117662e-05
-1.40289452717346e-06
-3.51966325641244e-07
4.18143350844899e-08
-1.60454796984199e-06
-1.81593463433333e-08
1.46203640386497e-07
-1.80775839692244e-06
3.46302648427293e-07
3.43477645171716e-07
-1.97372491604193e-06
9.12266402596214e-07
7.22338677698442e-07
-2.09617306488057e-06
1.70152464927694e-06
1.59163932680647e-06
-2.25732945693168e-06
3.12653993729818e-06
5.16921205139348e-06
-5.18414211851616e-06
-3.24091294092072e-06
5.10610330835117e-06
1.67506145586506e-05
-1.38746763009866e-08
1.98060486793137e-05
-1.5566553370202e-06
-6.37565673920697e-07
1.99639019864392e-08
-1.82001763832305e-06
-3.97257293350341e-07
8.79228837946536e-08
-2.09168932777209e-06
-1.41545165648407e-07
2.29186711002873e-07
-2.31267888065342e-06
2.89037335210351e-07
5.03069172478698e-07
-2.43887397203585e-06
8.70176249215681e-07
1.06006328740813e-06
-2.55394350765373e-06
1.68573458690073e-06
2.52296695173228e-06
-2.88167664635753e-06
2.79394050278094e-06
6.87763014136895e-06
-8.65061601770104e-07
-3.28213788753654e-06
2.30870547948053e-06
1.43490341142662e-05
-1.13275879059371e-06
1.80625698984962e-05
-1.68134252442909e-06
-9.18048164886064e-07
-5.78991714798784e-10
-1.9984753207807e-06
-7.68074690903365e-07
3.30189874669933e-08
-2.33488986193896e-06
-6.14658591316236e-07
1.21846721758813e-07
-2.6209953110102e-06
-2.9837457619591e-07
3.11161815693089e-07
-2.77493762516173e-06
1.5601110794871e-07
6.8662679671388e-07
-2.86171055069699e-06
7.40055777269049e-07
1.49456609175844e-06
-3.00600424768429e-06
1.45147111554822e-06
3.40321903498518e-06
-3.31529526005223e-06
1.79427081044392e-06
6.91776600868229e-06
-1.002808381438e-07
-4.26817932542384e-06
8.50093228769984e-07
1.27868931857723e-05
-2.85018212850863e-06
1.6786712424702e-05
-1.77188505792014e-06
3.76276946140518e-05
-1.66208376196359e-06
2.58448987599526e-05
-7.00253085816679e-07
1.79089437577995e-05
-2.20007600647225e-06
1.82086535855064e-05
3.12632023396726e-06
2.09464574632536e-07
-6.03188163879733e-08
2.0573313696786e-07
1.49209359483826e-07
8.12202372637859e-07
3.22170107795237e-06
3.06011677042754e-08
2.40348390347426e-07
-4.00084122790626e-07
-1.61312458850002e-07
1.0277463316287e-08
3.13735225747854e-07
1.83837498400755e-06
1.00530533375571e-06
2.132844883565e-07
2.13638477828233e-07
7.77532824655015e-07
6.68619327729293e-07
8.39156060207317e-06
3.12212579223879e-06
2.84944533396103e-06
-2.00128140357457e-07
2.08689201004911e-06
3.28822437125482e-07
8.12313739801307e-08
8.64631180547025e-07
-4.06319976160377e-06
1.86931483340999e-05
3.57097039982979e-06
-4.06059847713768e-07
5.67232941687638e-07
9.92315010806811e-08
1.12416567937906e-08
1.33887399759132e-06
2.54411240149546e-07
6.3557731224218e-07
2.62291210030013e-06
6.64923609756224e-07
8.57487562265615e-08
6.04256257551054e-06
2.66265499895111e-06
-2.18034380804001e-06
1.70145707342503e-05
3.61020069696847e-06
-7.26863166721414e-06
1.80492012125104e-05
-3.31773513078923e-06
1.83165521637576e-05
-7.14702766471343e-06
-2.55518989446548e-06
-5.06010434910973e-06
6.52627981461137e-06
-3.80236446915045e-06
2.71424589385421e-05
-3.52898346078925e-06
-8.05136625293944e-07
2.81510769773524e-07
8.93925523554247e-08
-7.18412226786875e-07
8.46026252655553e-07
2.5912644220343e-07
-6.16136306122454e-07
1.56509603375007e-06
5.83982967812712e-07
-5.96532281309856e-07
2.90968872488994e-06
1.52619492740041e-06
-7.40102553908064e-07
5.98075613736446e-06
5.63045105260862e-06
-8.38943727467998e-07
2.35071461175651e-05
-1.01919493658195e-06
-7.83196844808608e-07
2.86392418894957e-05
-1.06098547177192e-06
1.04355422911518e-08
6.78358461019511e-08
-1.12117401858368e-06
4.49312482819713e-07
2.11553515924322e-07
-1.16858640978786e-06
9.57366363046427e-07
4.71754720332286e-07
-1.20906644075311e-06
1.77191520904615e-06
1.02401584532472e-06
-1.27127976336466e-06
3.11677453219097e-06
2.73686960002487e-06
-8.83140171686744e-07
7.04323784079371e-06
1.87699867220288e-05
1.08491877689012e-06
2.7975130623261e-05
-1.25950931375898e-06
-2.52854215425568e-07
4.66653846148452e-08
-1.40624391382097e-06
8.4179865755611e-08
1.5641901880653e-07
-1.55144365820707e-06
4.5722399338632e-07
3.58789262432704e-07
-1.65609783644249e-06
1.03052961657603e-06
7.43704595641345e-07
-1.72289251843564e-06
1.83507833911962e-06
1.63123486852074e-06
-1.72153443130732e-06
3.28807976801043e-06
5.26664110563381e-06
-5.72182220247675e-06
-1.94302179237662e-06
5.34944008975245e-06
1.72091920522139e-05
-2.61483603954446e-07
2.01670276630327e-05
-1.42155628560005e-06
-5.13821119039793e-07
2.67566037449709e-08
-1.63356151531084e-06
-2.65694112930729e-07
1.02896086135508e-07
-1.85111395351868e-06
-6.88329281108598e-10
2.52622619280245e-07
-2.0179620349948e-06
4.28505362783842e-07
5.32525925189659e-07
-2.10163776777369e-06
9.9687362157281e-07
1.08975857504066e-06
-2.16645301491805e-06
1.7914515177078e-06
2.53923233971289e-06
-2.35594331607845e-06
2.87491952894437e-06
6.874629500474e-06
-8.67739223646394e-07
-2.48454056270933e-06
2.37415994475895e-06
1.44465673014497e-05
-4.57968524197416e-07
1.82634981503147e-05
-1.55490548107737e-06
-7.72396784816399e-07
8.39466818654867e-09
-1.82105404613042e-06
-6.07676254429964e-07
5.2963428845485e-08
-2.10256269182507e-06
-4.39516557743088e-07
1.53568825611173e-07
-2.33276110347999e-06
-1.22642725640784e-07
3.5263353127119e-07
-2.44506427370676e-06
3.1353891315273e-07
7.29836867216367e-07
-2.49898124927138e-06
8.63359368280698e-07
1.51971408793139e-06
-2.59222782650643e-06
1.53090296455e-06
3.37222651024054e-06
-2.79561818923762e-06
1.84201100848373e-06
6.82463654063407e-06
-9.12055954892913e-08
-3.45399867061556e-06
8.86110359599167e-07
1.27399344023302e-05
-2.07055811568611e-06
1.71917255064678e-05
-1.66029821920964e-06
-1.02511487759242e-06
-8.61096049659597e-09
-1.97260960315723e-06
-9.41662224039893e-07
6.96021666090746e-09
-2.31133715873015e-06
-8.66272219707092e-07
6.25875167752633e-08
-2.60476795464052e-06
-6.50396126194248e-07
1.91822612083751e-07
-2.76234062144371e-06
-3.10018699226169e-07
4.47939545993005e-07
-2.82163857438816e-06
1.21587648618976e-07
9.42226081447677e-07
-2.88095413348229e-06
6.14990392677563e-07
1.93279569639665e-06
-3.00826923152743e-06
1.01877601379659e-06
3.72059544518276e-06
-3.30310832777503e-06
9.07290300017288e-07
6.28073108947959e-06
-3.59244148956952e-08
-4.8077910594064e-06
3.65034316536466e-07
1.15313485507848e-05
-4.06079812082006e-06
1.58972298104545e-05
4.62493703929528e-06
6.93714012646949e-05
-3.02562622141648e-06
3.17225942373842e-05
1.19764037800598e-06
1.98837306125155e-05
1.36152904644222e-05
2.09360381649432e-06
1.25553648111564e-05
8.77966828973915e-06
2.53888451560188e-07
3.58812789617723e-07
2.3485332411023e-07
-2.30820205224536e-07
1.09679455420438e-05
2.39956965151873e-06
3.7763050282505e-08
2.56627903610929e-06
-1.51747372338284e-07
7.69394125556849e-07
1.42660300233865e-06
4.92935219009743e-07
-5.05769242096667e-08
-7.2273696827436e-08
2.39170340100467e-07
1.746377709644e-07
-1.01195243910931e-07
1.81590574931143e-07
9.65026348448875e-07
9.84062408253885e-07
5.2977462547773e-07
6.65707368418207e-07
1.38643461809762e-07
2.75456129137857e-06
1.30333097353073e-06
-3.01642742730467e-08
5.20606270528885e-06
1.09790951051055e-05
3.26224659021553e-06
5.30221694284573e-06
6.26642069216698e-07
2.89810043671337e-06
-3.30907752352807e-07
8.15212200446804e-07
1.23261027939465e-06
1.40519793131294e-06
7.16282232945226e-07
1.92149266806586e-07
1.27093215371521e-06
-1.58896416402621e-07
9.30903537239978e-08
5.24380998994792e-07
-6.80845542952665e-06
2.79490490503986e-05
-1.70083520312854e-06
-6.17087957043021e-07
2.9441436706757e-07
8.47737249410778e-08
-3.87961757609169e-07
8.61148015915971e-07
2.46519380298538e-07
3.68115314475339e-08
1.64393166651779e-06
5.80443991731807e-07
8.47009475782033e-07
3.3911456591627e-06
1.87275743043227e-06
1.72638640047897e-06
9.25605985426767e-06
7.9545906687751e-06
2.38626438418188e-05
1.89421367635782e-06
-4.669047960995e-06
-6.77347919116693e-06
-1.86848034865159e-06
4.7035009929023e-06
2.96663245300533e-05
-5.86219174304028e-06
4.14884680069578e-05
-9.08063393940644e-07
5.97816779773226e-08
6.88094470456187e-08
-8.94736085903199e-07
4.9644355397067e-07
2.12546523330597e-07
-8.34001086479027e-07
1.01546426151947e-06
4.74184461426367e-07
-7.00512576791549e-07
1.88698459124708e-06
1.09813375730424e-06
-4.94252831374495e-07
3.47987003064706e-06
3.2500126400528e-06
1.41251510057115e-07
8.02284509939083e-06
2.00902884768941e-05
-7.57982803392882e-08
2.8780778317779e-05
-1.12263031006604e-06
-1.76200234832296e-07
4.97582342354585e-08
-1.21248992419118e-06
1.60958452608904e-07
1.62440979370949e-07
-1.29214488587572e-06
5.41825521006612e-07
3.67803546009736e-07
-1.30681099284126e-06
1.13077709741381e-06
7.63615412939558e-07
-1.27721842040225e-06
1.99018886703401e-06
1.70492489613955e-06
-1.00611605386591e-06
3.53463548626784e-06
5.5300121102753e-06
-6.28359897787461e-06
-3.16460905891589e-07
5.71976009183708e-06
1.77071895033058e-05
-2.67169500311221e-07
2.1697167341447e-05
-1.29346072833184e-06
-4.12560369467848e-07
3.16114813765614e-08
-1.4567621784895e-06
-1.59303307078087e-07
1.1335222451163e-07
-1.62076477934047e-06
1.14392591243687e-07
2.68905114262179e-07
-1.73008405263556e-06
5.47236116475406e-07
5.54210230369449e-07
-1.75922458871258e-06
1.11725798764858e-06
1.11912027353683e-06
-1.75187046954753e-06
1.91906467965003e-06
2.58566644666046e-06
-1.71777161493079e-06
3.01812777375432e-06
6.95974479998839e-06
-1.21226698931229e-06
-1.38389943720803e-06
2.56828694784087e-06
1.47524934691317e-05
-2.44281864276672e-07
1.87410432981347e-05
-1.43448514666213e-06
-6.49130240109516e-07
1.48894225695547e-08
-1.6544632686649e-06
-4.7309361218195e-07
6.75670983761798e-08
-1.8855901821145e-06
-2.91946207367203e-07
1.77182705615744e-07
-2.06335119992046e-06
2.78128900933243e-08
3.83907118451756e-07