/*--------------------------------*- C++ -*----------------------------------*\
  =========                 |
  \\      /  F ield         | OpenFOAM: The Open Source CFD Toolbox
   \\    /   O peration     | Website:  https://openfoam.org
    \\  /    A nd           | Version:  12
     \\/     M anipulation  |
\*---------------------------------------------------------------------------*/
/*   Windows 32 and 64 bit porting by blueCAPE: http://www.bluecape.com.pt   *\
|  Based on Windows porting (2.0.x v4) by Symscape: http://www.symscape.com   |
\*---------------------------------------------------------------------------*/
FoamFile
{
    format      ascii;
    class       volScalarField;
    location    "200";
    object      k;
}
// * * * * * * * * * * * * * * * * * * * * * * * * * * * * * * * * * * * * * //

dimensions      [0 2 -2 0 0 0 0];

internalField   nonuniform List<scalar> 
10103
(
6.30454806072731e-07
6.20575353477651e-07
3.39511662477369e-06
4.12970062653772e-06
6.25427819154774e-07
3.43749805360135e-06
4.12710504881473e-06
9.43713947408495e-06
2.95131669991635e-05
1.24514091168776e-05
6.28185721636037e-07
3.52698598237227e-06
4.17619449386046e-06
9.60932485031542e-06
2.9962530727067e-05
1.24906689968683e-05
1.91813980738917e-05
7.18699941667424e-05
7.45050472758132e-05
2.66238089336193e-05
6.2569674833161e-07
3.57370134443021e-06
4.20036013004341e-06
9.77926091977753e-06
3.0405518438294e-05
1.25959159614587e-05
1.94719492292951e-05
7.25918141101782e-05
7.50590170185266e-05
2.6694542670021e-05
3.13474280591026e-05
0.00012329209328021
0.000154618205156352
0.000130302657208825
4.49416671188282e-05
6.21602618269464e-07
3.57851432975737e-06
4.19706753212e-06
9.84502757255955e-06
3.06354811618726e-05
1.26290113584995e-05
1.9651417545608e-05
7.30922555602069e-05
7.54612002329911e-05
2.68003313597302e-05
3.16976217197025e-05
0.00012401883376552
0.000155194934659158
0.00013071120068643
4.50498744737595e-05
4.48779331379797e-05
0.00017639174192194
0.000235920764313099
0.000238826065238329
0.000189088362346992
6.57483889188403e-05
6.17489458826327e-07
3.55990633839819e-06
4.18561773010649e-06
9.81883792122625e-06
3.06990355219956e-05
1.26021606135639e-05
1.96598469219271e-05
7.32418333546225e-05
7.55844376987384e-05
2.67909425784852e-05
3.18406767027736e-05
0.000124319663416744
0.000155390611419321
0.000130863810045801
4.5121708819393e-05
4.5244321364925e-05
0.000177033127299207
0.000236406898395478
0.000239188074586529
0.000189402921566061
6.59060064307088e-05
5.92920087831954e-05
0.0002274095613547
0.000313326401359498
0.000339350648230457
0.000321060352703794
0.000246406920080984
8.81834561503062e-05
6.13181936154948e-07
3.52627216882451e-06
4.17180446656809e-06
9.72920223653403e-06
3.06632597232833e-05
1.25489667732002e-05
1.95278978798107e-05
7.30852878874031e-05
7.54856700354529e-05
2.6682860848426e-05
3.1750759253063e-05
0.000124135535969522
0.00015514235303282
0.000130706990735935
4.50298078978863e-05
4.53204850069289e-05
0.000177081451237978
0.000236279622518218
0.000239021428859536
0.000189338536369765
6.59278190791943e-05
5.9658325903189e-05
0.000227953002662224
0.000313733900734238
0.000339654267987688
0.000321311022756388
0.000246699104811052
8.83864999736042e-05
7.41545866120342e-05
0.000275320175413652
0.000385608948992317
0.000433171936031075
0.000437793530327444
0.000399790701069164
0.000300948372958817
0.000110958420844104
6.07095687867216e-07
3.47905721640627e-06
4.15258969140885e-06
9.58876795994885e-06
3.05497730972366e-05
1.24748308626333e-05
1.92881848405937e-05
7.2692448924841e-05
7.52195060195439e-05
2.65091372651885e-05
3.14695230144866e-05
0.000123512177575442
0.000154474345459481
0.00013025868179443
4.47877043979029e-05
4.51154674039406e-05
0.000176512850704558
0.000235527992905645
0.000238310436724495
0.000188875114217399
6.57221339548396e-05
5.96547571768775e-05
0.000227758105477839
0.000313319803013545
0.000339162538091183
0.000320867552385031
0.000246449065294027
8.83363000035551e-05
7.44998367014682e-05
0.000275781965316133
0.000385948831684667
0.000433418000017318
0.000437982280584262
0.000399978751297427
0.000301230054276959
0.000111178344930702
8.90018836197135e-05
0.000319973843204638
0.000452738061665192
0.000520692654091656
0.000545292203310965
0.000531773514145254
0.000474385811095382
0.000352623890419125
0.00013178271165421
5.9719224504046e-07
3.41527178991069e-06
4.11933279873645e-06
9.39546183076452e-06
3.0350119869174e-05
1.2370088839482e-05
1.89512463160889e-05
7.2090534318849e-05
7.47928801594345e-05
2.62691371961316e-05
3.10296917617613e-05
0.000122505557619229
0.000153427137386891
0.000129538578175317
4.44179165545603e-05
4.46684648787746e-05
0.000175371492930327
0.000234165751819346
0.000237053348342948
0.000188008038584082
6.5300530382314e-05
5.93200553729349e-05
0.000226832474495254
0.000312102171552079
0.000337892716780478
0.00031973539384238
0.000245669884331049
8.79798978455383e-05
7.4411273669162e-05
0.000275375715865637
0.00038528616834878
0.000432633697907941
0.000437189019010582
0.000399292114753309
0.000300791355494986
0.00011102041704972
8.93231631460385e-05
0.000320366897931525
0.000453022289852003
0.000520883691072315
0.000545415073879531
0.000531867848669952
0.000474512783645465
0.000352876681998375
0.000131961392306601
0.000103469419206962
0.000361323223091567
0.000514922760639156
0.000602119919837875
0.00064523289877031
0.000651632796200129
0.000620981587231459
0.000544853408575006
0.000400021104687408
0.000145897780297056
5.81021052350025e-07
4.06156531336467e-06
3.32801232685623e-06
9.14442561100524e-06
3.00418333491641e-05
1.22179407053505e-05
1.85114373472681e-05
7.12669412417391e-05
7.41840033778331e-05
2.59473989603413e-05
3.04387536247306e-05
0.000121135375326651
0.000152010699445147
0.000128540358660444
4.39141216253109e-05
4.40071171258627e-05
0.000173701751843696
0.000232213987753777
0.000235254309973913
0.000186738348114323
6.46744632869986e-05
5.869736115076e-05
0.000225214771126617
0.000310094927854608
0.000335841643970394
0.000317900585698315
0.000244360515627847
8.7326302514491e-05
7.39424459338513e-05
0.000274137142501379
0.000383657308052582
0.000430854486769597
0.000435436775520857
0.000397748539255825
0.000299679896071403
0.000110475181560237
8.91501770239035e-05
0.000319781520956567
0.000452144379688957
0.000519838869897465
0.000544302624371849
0.00053078781814692
0.000473577635721726
0.000352232896734992
0.000131639845641754
0.000103770587271761
0.000361664712491692
0.000515163810190962
0.000602264693301972
0.000645294157794853
0.000651639239538784
0.000620973629956199
0.000544897177366436
0.000400186635158297
0.00014634740632492
0.000117327188274918
0.000399380229057471
0.000572350135265496
0.000677711838359014
0.000738253357873507
0.00076232519779095
0.000752365623363422
0.000705549354220875
0.000611151593870399
0.000441800761407827
0.000148358681632284
5.56501182359858e-07
3.96729351059286e-06
3.21127560251653e-06
1.19977637282181e-05
2.95913689738325e-05
8.82978859606854e-06
1.79607315746993e-05
7.01960630949028e-05
7.33548502086208e-05
2.55216581400135e-05
2.96913604447419e-05
0.000119387181582794
0.000150205337391211
0.000127237861647303
4.32587185690568e-05
4.3138187078319e-05
0.000171515046152829
0.000229673236351863
0.000232904520326232
0.000185053411679718
6.38312609005325e-05
5.78077758722406e-05
0.000222936753525069
0.000307307415569664
0.000333001800179019
0.000315348326199315
0.000242510226535788
8.63739920944885e-05
7.31407003613745e-05
0.000272104435520168
0.000381076266900666
0.000428079780251031
0.000432713070564034
0.000395331486716423
0.000297900200139792
0.000109536286503807
8.85518102808494e-05
0.000318272164865675
0.000450154162260695
0.000517603568647905
0.000541989167246569
0.000528555525286576
0.00047160708966502
0.000350769071412931
0.000130852994217688
0.000103521436815888
0.000360930863867518
0.000514101064683632
0.00060099056038322
0.000643896625848446
0.000650205001641716
0.000619595894208069
0.000543689124850931
0.000399290199970838
0.000145863416569157
0.000117612220408304
0.000399686166804701
0.000572561340899213
0.000677822885517103
0.000738264565996481
0.000762256404391983
0.000752243934945735
0.000705417797857203
0.000611065383830315
0.000441820215393799
0.000148268808306608
0.000130452946816081
0.000434245692809289
0.000625200657921621
0.000747704230473368
0.000824789521116326
0.000865143791046848
0.000872710005502233
0.000847791974219638
0.000785835267790725
0.000673716654399383
0.000478348360217051
0.000133198698337151
5.22313857902073e-07
3.82595050768994e-06
3.06129150332581e-06
1.16869683367371e-05
2.89601724335829e-05
8.44337857726599e-06
2.4963584823493e-05
7.22566986394763e-05
6.88415443834702e-05
1.72906271555346e-05
2.87802475408656e-05
0.000117233555381866
0.000147974384235448
0.000125587318633381
4.24264736740345e-05
4.20574417934303e-05
0.000168796580283143
0.000226522338700664
0.000229977247662774
0.000182921925327717
6.27516505052403e-05
5.66534958160995e-05
0.000220002909525826
0.000303731624753543
0.000329355000485707
0.000312056173219584
0.000240096926169831
8.5101887407908e-05
7.20214967838544e-05
0.000269298198657899
0.000377544636287775
0.000424295979017263
0.000428994966058568
0.000392014660766644
0.00029542734952498
0.000108182779966408
8.757534867141e-05
0.000315877502521995
0.000447066620320717
0.00051417890864844
0.000538464500607489
0.000525152251608566
0.000468582889507914
0.000348478060804811
0.000129562992082406
0.000102802477418281
0.000359189569541858
0.000511794539014977
0.000598349997685973
0.000641081582522011
0.000647358716059998
0.00061686832282981
0.00054126170381756
0.000397427513600573
0.000144825952573656
0.000117297034893672
0.000398830151461075
0.000571341953155811
0.000676350319223008
0.000736616145040265
0.000760510327528427
0.000750477387264075
0.000703719027662431
0.000609541067388438
0.000440618506141973
0.000147606956253171
0.000130731133991724
0.000434530495102374
0.000625394564671079
0.000747794598598196
0.000824766727271054
0.000865015537474882
0.000872499023525161
0.000847526214435975
0.000785553516863597
0.000673441129504699
0.000478042175046115
0.000132865522651573
0.000142776387035277
0.000466075918493074
0.000673671959717001
0.000812315542426121
0.000905149033815984
0.000960846399328365
0.000984058683949415
0.000976919429665665
0.000938329833505452
0.000862525458778897
0.000734910247913551
0.00052344437870453
4.78648239618681e-07
3.63100681403244e-06
2.87504565139486e-06
1.12642272753811e-05
2.81154110694189e-05
7.97922150208145e-06
2.42400808134564e-05
7.08322317334379e-05
6.71582398547272e-05
1.64948038386725e-05
4.13850660020319e-05
0.000123531588916108
0.000145266828406894
0.000114638113664252
2.76957353542023e-05
4.07591529755897e-05
0.00016552030855991
0.000222725185576538
0.000226431084724835
0.000180300827452421
6.14114947329541e-05
5.52314073861632e-05
0.000216398082413053
0.000299342179286738
0.000324869764647493
0.000307989963575227
0.000237086562160389
8.34927821259509e-05
7.05850461996684e-05
0.000265714082444772
0.000373047596935723
0.00041947746304619
0.000424250662337612
0.000387764786881277
0.000292229034913203
0.000106376649781754
8.62310586888856e-05
0.000312609141872566
0.0004428780459453
0.000509547414625509
0.000533701213941915
0.000520543895317852
0.00046446661665898
0.000345315959028058
0.000127723380908513
0.000101660413115155
0.000356479087098029
0.000508260376047939
0.000594345583276448
0.000636840005037406
0.000643081873859985
0.000612765791244444
0.00053758827310314
0.000394563596660713
0.000143177198624808
0.000116470520918267
0.00039689194461242
0.000568760298779945
0.000673352617532316
0.000733355154324658
0.000757121081716323
0.000747088353941158
0.000700469739904881
0.000606609153141242
0.000438304900644353
0.000146379478516743
0.000130360661372578
0.00043357653187543
0.000624043921015884
0.000746152490212544
0.000822902734874144
0.000862995933188474
0.000870398013454054
0.000845415415751551
0.000783506656027551
0.000671532450308557
0.000476486436411141
0.000132233283103499
0.000143053772121088
0.000466354998219634
0.000673860968347048
0.000812397883020481
0.000905107438016198
0.00096067997306776
0.00098377960145568
0.000976548007517461
0.000937893541666946
0.000862055781065974
0.000734388007945515
0.000522862083570778
0.000106592392057971
0.000154261157643282
0.000495045219814988
0.000717973985130278
0.000871759824469466
0.00097956716970465
0.0010498898182832
0.00108761668862392
0.00109583800279722
0.00107540629805234
0.00102439569538905
0.000936991806852973
0.000802956811036544
4.26442263347922e-07
3.38249078181894e-06
2.65220621673549e-06
1.07136548578014e-05
2.70229755613498e-05
7.43608412558245e-06
2.33188677831082e-05
6.90166588553836e-05
6.51022244519055e-05
1.55705528473143e-05
4.0097087177843e-05
0.00012099804865875
0.000142023067441366
0.000111560060996327
2.64343808597257e-05
5.97816484492711e-05
0.000177135341527154
0.000222211655956858
0.00021823525047377
0.000161651259522172
3.9235646253313e-05
5.35362305234836e-05
0.000212096917799819
0.000294102195267061
0.0003195031644921
0.00030310548751264
0.000233441817680487
8.15258063365452e-05
6.88284613594825e-05
0.000261333806103414
0.000367556038165343
0.000413587023506227
0.00041843911130733
0.000382540681104591
0.000288275998001072
0.000104104145834254
8.45211127212707e-05
0.000308457949703332
0.000437567708763889
0.00050367802986912
0.000527660579088972
0.000514687411420742
0.000459213511883628
0.000341234594314163
0.000125262799111702
0.000100104504569552
0.000352805232313135
0.000503491008144688
0.00058895728320506
0.000631141701480087
0.000637335846863193
0.000607241470598107
0.000532611854726922
0.000390622406993325
0.000140847301211116
0.000115177262399354
0.000393907291269328
0.000564833665811908
0.000668833548989112
0.000728474089723595
0.000752070035011363
0.000742049725866205
0.000695635815720045
0.00060222300481991
0.000434802558576861
0.000144455795013341
0.000129436403017756
0.000431472032762304
0.000621224745659919
0.000742842125484716
0.000819249577674821
0.000859125360557603
0.000866433303710921
0.000841472260339683
0.000779703703325961
0.000668017074546994
0.000473686419559896
0.00013105033555152
0.000142634620265243
0.000465324474406691
0.000672402963622266
0.000810613012121699
0.000903059440579734
0.000958428931072735
0.000981388142329766
0.000974079836347947
0.000935412929729827
0.000859624063487422
0.000732008023581707
0.000520661343674123
0.000105932009808501
0.000154538368281347
0.00049532785655042
0.000718169879733185
0.000871846121269408
0.000979521177509177
0.00104970315629188
0.00108729328434677
0.0010953905889671
0.00107485491326907
0.00102376992516286
0.000936326671186369
0.000802233247972871
0.000638697113911555
0.000423064477856608
0.000164883427445316
0.000521319476073538
0.000758323129547227
0.000926250321933418
0.00104825012438957
0.00113255827088795
0.00118405140347596
0.00120624166410409
0.00120099889133344
0.00116832336767821
0.00110616055363233
0.00101034954091096
3.67664144268796e-07
3.08381531970118e-06
2.3943003646278e-06
1.00335395817049e-05
2.56648464073331e-05
6.82232207742035e-06
2.21756902821277e-05
6.6744958928689e-05
6.26324176752625e-05
1.45240370459045e-05
3.85236332185853e-05
0.000117899587448053
0.000138177758991217
0.00010795850753041
2.49945167968224e-05
5.78282053181568e-05
0.000173352024498481
0.000217252984768763
0.000212999539397578
0.000157154965238483
3.74848848103285e-05
7.91837951428379e-05
0.000229119262255677
0.000297349340936775
0.000313202901296816
0.000287966651461537
0.000207065758568734
5.15649291443163e-05
6.674526622392e-05
0.000256130380908911
0.000361030804651633
0.000406578130581096
0.000411511495019614
0.000376298286044199
0.000283543089404858
0.0001013435425328
8.24409725412193e-05
0.000303402085012436
0.00043110182715067
0.000496528298155413
0.000520294815925476
0.000507532995256883
0.000452775305941671
0.000336200994037996
0.000122163519527259
9.81345304322692e-05
0.000348155532599027
0.000497461423972538
0.000582149461938804
0.000623942871250807
0.000630070530989368
0.000600240416221556
0.000526268585668879
0.000385520861788114
0.000137697770014837
0.000113425990544272
0.000389879118956617
0.000559551569484347
0.000662770954280927
0.00072194096420453
0.000745316702703823
0.000735310417199869
0.000689152548172814
0.000596299922466002
0.000429973921715668
0.000141769984529488
0.000128004989590518
0.000428250591960668
0.000616954577774589
0.00073786840906487
0.000813800404166531
0.000853387414332969
0.000860575364668301
0.000835655381959607
0.000774092610063296
0.00066282337561177
0.000469482262647698
0.00012914878149571
0.000141626341951142
0.000463078785359137
0.000669380402979894
0.000807030567387673
0.000899062299452939
0.000954138997861007
0.000976918149077014
0.000969534594572124
0.000930892576366869
0.000855226485280715
0.000727797906561355
0.000516929873789624
0.000104822808321919
0.00015407832761873
0.000494235211953647
0.000716626036262441
0.000869943429632168
0.000977318423808588
0.0010472551063469
0.00108465503689152
0.00109261796154689
0.00107200358133679
0.00102089329114765
0.000933452158757577
0.000799284145744224
0.000635262427136126
0.000420121456707378
0.000165162289942508
0.000521610013562165
0.00075853416762128
0.00092635121037407
0.00104821274245967
0.00113236822454787
0.00118370563836921
0.00120574638605719
0.00120036849240031
0.00116758459254648
0.00110536473876994
0.00100957481044334
0.000880554469795237
0.000761578186139005
0.000571042921256466
0.000174580504771274
0.00054503951015856
0.000794918024131392
0.000975995360959758
0.00111139122821212
0.0012090596591441
0.00127373563965819
0.00130905932065249
0.00131737871628827
0.00129962296906211
0.0012554106127427
0.00118300668013919
3.05423161849611e-07
2.74198165013195e-06
2.10570710997269e-06
9.23082402154633e-06
2.40279424912042e-05
6.15128411991084e-06
2.08076552123685e-05
6.39699530244851e-05
5.97294633375126e-05
1.33693757640099e-05
3.66317556744337e-05
0.000114166974217624
0.00013366731101409
0.000103801668977715
2.33844587304607e-05
5.55154899172299e-05
0.000168855739504369
0.000211479035155802
0.00020696106059825
0.000151996455891444
3.55112774894446e-05
7.64471652385197e-05
0.00022406254044792
0.0002906576088881
0.000305909800944057
0.00028088667328911
0.000201273094456692
4.93158742027489e-05
9.81097253576355e-05
0.000278013637272669
0.00036899101500445
0.000403412855508048
0.000398397358519084
0.00035342572895703
0.000250073810486878
6.43323795274763e-05
7.99847058621704e-05
0.000297411992929692
0.000423437648079705
0.000488047096991932
0.000511549121440202
0.000499027754633624
0.000445109978104356
0.000330199931876574
0.000118371731462064
9.5745101478052e-05
0.000342505703757318
0.000490133635430486
0.0005738744100017
0.000615189624233492
0.000621228883952643
0.000591703413987153
0.00051850043385294
0.000379201653980862
0.000133715827033045
0.000111215187237516
0.000384791662838785
0.000552885416787066
0.00065512559445837
0.000713707320140023
0.000736806185208644
0.000726808846237405
0.000680948997620912
0.000588745362768807
0.000423672027066688
0.000138070125014855
0.000126074810602604
0.000423913248247401
0.000611221013121539
0.000731207289026781
0.000806521028116128
0.000845740399762519
0.000852774113327361
0.000827903852866219
0.0007665885923994
0.000655833472744157
0.000463596728333782
0.000126490150645864
0.000140073922406858
0.00045965283918416
0.000664811116169816
0.000801656480958192
0.00089311016760446
0.000947793211920945
0.000970343049856918
0.00096287413245845
0.000924281107283587
0.000848790895879679
0.000721649864570518
0.000511475866924097
0.000103008844247185
0.000152995777078409
0.000491871227751417
0.000713430521532091
0.000866126339540774
0.000973020981044701
0.00104259671595821
0.00107974221964829
0.00108754776270757
0.00106686431314944
0.00101576335171759
0.00092838234156115
0.000794222425581111
0.000629927448029489
0.000415825193897335
0.000164669775829963
0.00052046945146861
0.00075692189276883
0.00092435352532595
0.00104588195613549
0.00112975541920609
0.00118085995406624
0.00120271763983948
0.00119720628429252
0.00116433681046992
0.0011020666783993
0.00100620858391692
0.000876946198545978
0.000757822476136141
0.000567523354302608
0.000174880584227926
0.000545343791341147
0.000795150304702706
0.000976120360891887
0.0011113747393971
0.00120888109701238
0.00127338727474546
0.00130854142547547
0.00131670092996166
0.0012988093771141
0.00125451738055685
0.00118214740656406
0.00107980144591419
0.000958243639271733
0.00084384677647544
0.000664433893110602
0.000183231402756853
0.00056630573318266
0.000827935589092706
0.0010211956875368
0.00116917598432985
0.00127956764461714
0.00135690342703138
0.00140478863500559
0.00142575565999389
0.00142116957670675
0.00139139089423327
0.00133590496939438
2.42982214867574e-07
2.36929694495457e-06
1.79337327125239e-06
8.32032277265776e-06
2.21108834379818e-05
5.43704226558189e-06
1.92251514772283e-05
6.06569193599551e-05
5.638085971711e-05
1.21270776769352e-05
3.44109972368543e-05
0.000109730307149772
0.000128439703753259
9.90742493049173e-05
2.16265703858301e-05
5.28076559957319e-05
0.000163572872177829
0.000204817772626922
0.000200067579440754
0.000146149327551758
3.33261867453306e-05
7.33092101844991e-05
0.000218190622347984
0.000282953814050531
0.000297559706559412
0.000272812301089368
0.00019469264978797
4.67979797301769e-05
9.43965555886456e-05
0.000271671015351275
0.000360567955760997
0.000394083348477605
0.000388987174669023
0.000344692754852739
0.000243132602247379
6.15925230942954e-05
0.00011394820315031
0.000323247860955026
0.000436186709477188
0.000489118428773551
0.000501364269955458
0.000478177636382947
0.000414527454319008
0.000290456108733098
7.7151646327745e-05
9.29332448893131e-05
0.000335824065397652
0.000481460911598406
0.000564075847745771
0.000604820666067029
0.000610749346092008
0.00058157436097911
0.000509263720009687
0.000371630849011864
0.00012873165141725
0.000108538618786136
0.000378617299941139
0.000544793639497601
0.000645845255625608
0.000703713139806063
0.000726474888930541
0.000716479234743954
0.000670954483599661
0.000579474983052088
0.000415786933843623
0.000133422278261827
0.000123642274262034
0.000418441110342012
0.000603992224767215
0.000722815899001263
0.000797360162072753
0.000836123653155623
0.000842964255593362
0.000818142403727112
0.000757100261153839
0.00064689535290128
0.000455818747306723
0.000122671377312285
0.00013798335325401
0.000455045327693177
0.000658681014882562
0.000794465147154686
0.00088516716952461
0.000939346085148405
0.000961610076071645
0.000954036041779017
0.000915499672211113
0.000840198234600918
0.000713382176353143
0.000503989564951826
0.00010046251054766
0.000151334217894217
0.000488270769105589
0.000708602049989481
0.000860401485170676
0.000966624207260056
0.00103571236539323
0.00107252949958606
0.00108014477780742
0.00105939064182731
0.00100831989676814
0.000921036578012341
0.000786924460723929
0.000622387205936825
0.000409843444396465
0.000163519497871192
0.000518006986504548
0.000753579525285967
0.000920335919636341
0.00104132432817423
0.0011247756539145
0.00117556031235202
0.0011971903453277
0.00119153349439747
0.00115858879525567
0.00109629199517434
0.00100040749636117
0.000871051806433801
0.000751886646705283
0.000562301850997386
0.000174370168765043
0.000544168311531381
0.000793486239758638
0.000974048716754829
0.0011089421248968
0.00120613281969861
0.00127036985520079
0.00130529949923856
0.00131327993352529
0.00129525365324117
0.00125086312461506
0.00117839600056214
0.00107584940597748
0.000954205535033513
0.000839714345134754
0.000660531702532288
0.000183605036796458
0.000566636792255333
0.000828193880312001
0.00102135014786146
0.00116918930901986
0.00127941434583707
0.00135656984267066
0.00140427024127245
0.00142505798453889
0.00142031418201763
0.00139043531759655
0.00133497773892841
0.00125269103430923
0.00114533117534432
0.00102620725669681
0.000904556596349034
0.00073200108973795
0.000190781038429011
0.000585169980963815
0.000857551160091573
0.00106205851403625
0.00122180640503873
0.00134425534113105
0.00143372458952701
0.00149370571236779
0.00152675153976536
0.00153440470109233
0.00151736741759077
0.00147568646596152
1.83510991522914e-07
1.9798811004862e-06
1.46677653364465e-06
7.32601469310895e-06
1.99225170342558e-05
4.69108086755498e-06
1.74551346983767e-05
5.67880351933899e-05
5.25780059329731e-05
1.08218527432244e-05
3.18719059316453e-05
0.000104532755451929
0.000122452517530864
9.37714591753591e-05
1.97484446859611e-05
4.96752869551918e-05
0.000157404764550863
0.000197197098952364
0.000192274791565649
0.000139605217930961
3.09501850213584e-05
6.9777038895128e-05
0.000211444475273102
0.000274161544144064
0.000288088841888416
0.000263697089043681
0.000187302740599011
4.40251105414975e-05
9.02779260188882e-05
0.000264467130584173
0.000350967029389181
0.000383457901025227
0.000378288225074568
0.000334785778130943
0.000235282956135079
5.85343161940335e-05
0.000108844739589109
0.000315389399449744
0.00042598417979053
0.000477752415030795
0.000489678781293739
0.000466860544313559
0.00040432173400086
0.00028250365788395
7.39428652977298e-05
0.000122882258458905
0.000362836931246461
0.000498545114981934
0.000569806996490742
0.000598570208340045
0.000592770791545345
0.0005526924525879
0.000471392053449518
0.0003280778670919
8.96990018352505e-05
0.000105391463756038
0.000371322817798477
0.000535225655576118
0.000634868396151359
0.000691890531052661
0.000714252511058601
0.000704253549696317
0.000659106858250109
0.000568425823726494
0.000406197063458257
0.000127354037243849
0.000120700539751496
0.000411803088157554
0.000595222631439684
0.000712637597463787
0.000786253296153247
0.000824465746514855
0.000831073760629088
0.000806294251229684
0.000745535886269086
0.000635867704372747
0.000445972305049631
0.000117950853406446
0.000135350172920664
0.000449233949301335
0.000650955127472958
0.000785410350389376
0.000875177776857808
0.000928736244176717
0.000950648599874193
0.000942942051275832
0.000904452401805975
0.000829321554689738
0.000702793289362457
0.000494093385091482
9.68541166565977e-05
0.000149099575142069
0.000483428372406487
0.000702124527467489
0.000852741796928704
0.00095809063011175
0.00102655553609768
0.0010629626161598
0.00107034665327225
0.00104950892684437
0.00099846731743742
0.000911269181949125
0.000777137467904034
0.000612268085039659
0.000401777354797215
0.00016175503781559
0.00051425527785029
0.000748526952455601
0.000914304928241279
0.00103453615756141
0.00111741427615198
0.00116778261108871
0.00118913160848623
0.00118330828542491
0.00115029021633736
0.00108798200413024
0.000992090417260212
0.00086264185602091
0.000743446431916247
0.000554978274721445
0.000173163136233719
0.000541621731301181
0.00079002218798895
0.000969861988283948
0.00110416195402606
0.00120087472629383
0.00126473417203057
0.00129937476950808
0.00130714541791583
0.00128897666283777
0.00124449240617871
0.00117195129955106
0.00106932832688226
0.000947655244514102
0.000833184631379524
0.000654702486175415
0.000183099551510168
0.000565440462859067
0.000826491729832235
0.00101922113190867
0.00116667682465349
0.00127655874160917
0.00135341289996791
0.00140085320272087
0.00142142328465458
0.00141650381935554
0.00138648446923279
0.00133089097237887
0.00124837973240425
0.00114094227477052
0.00102175789876699
0.00090021996882372
0.000728113955894423
0.000191168137267561
0.000585551820649235
0.000857839207321366
0.00106224566444246
0.00122185550653059
0.00134413702456777
0.00143342022758772
0.0014932062693034
0.00152605818176815
0.00153353633449258
0.00151638196902576
0.00147472057028182
0.00140814138597034
0.00131638131698529
0.00120447962045697
0.00108089710066865
0.000947899984948193
0.00077796570906408
0.000197533936543572
0.000601713072443402
0.000883920495424582
0.00109878414372113
0.00126948683072296
0.00140330511063428
0.00150435812942214
0.00157599218026768
0.0016206921078309
0.00164003437188449
0.0016348695588228
0.00160550492669041
1.30387143930563e-07
1.58933445932935e-06
1.13675369642182e-06
6.27432221350966e-06
1.74839900958456e-05
3.9221997341434e-06
1.55370590056329e-05
5.23532698650387e-05
4.83108435535014e-05
9.47209783490397e-06
2.90521558075817e-05
9.85422839846644e-05
0.000115669527845688
8.78908427836444e-05
1.77791964451091e-05
4.61122015132959e-05
0.000150268605614255
0.000188553342295019
0.000183545831665806
0.000132363957245809
2.84146789400437e-05
6.58071224683616e-05
0.000203679068126234
0.000264190783060264
0.000277434697746324
0.00025350282639463
0.000179092232756229
4.10200706848092e-05
8.59187536553069e-05
0.000256421416261555
0.000340122212651857
0.000371468486599745
0.000366241935758257
0.000323661263009533
0.000226506958736106
5.51745613054913e-05
0.000103327119745018
0.000306677834641386
0.000414479379170127
0.000464874791224029
0.000476429749852568
0.000454036485430433
0.000392773453793632
0.000273528618708075
7.03629524153795e-05
0.000115829368485902
0.000352907601184882
0.000486372964518
0.000556367205641476
0.000584631926877111
0.000578973572986434
0.000539660904189437
0.000459874563030244
0.000319233075885775
8.60430906510771e-05
0.00012023608539674
0.000394838089519335
0.000555592039821466
0.000645368365433549
0.000690071038158851
0.000700068293279399
0.000678167707440961
0.000622128116326447
0.000524126301511114
0.000362873282693245
0.000101774427659416
0.000117242548712533
0.000403962259393193
0.000584857925401263
0.000700606066400738
0.000773125846745574
0.0008106892603074
0.000817022991352134
0.000792284851462651
0.000731817069433481
0.000622633740019514
0.000433709534352649
0.000111443684401481
0.00013216634233547
0.000442185103114874
0.000641584021143433
0.000774430869543853
0.000863071867752713
0.000915889372988803
0.00093737488967845
0.000929504354164441
0.000891041387814892
0.000816033912272003
0.000689648840613602
0.000481447122112637
9.22623463627539e-05
0.000146287384266878
0.000477319687176536
0.000693959944997571
0.000843097861732676
0.000947361171273298
0.00101505924458998
0.00105096847127266
0.00105807330506944