/*--------------------------------*- C++ -*----------------------------------*\
  =========                 |
  \\      /  F ield         | OpenFOAM: The Open Source CFD Toolbox
   \\    /   O peration     | Website:  https://openfoam.org
    \\  /    A nd           | Version:  12
     \\/     M anipulation  |
\*---------------------------------------------------------------------------*/
/*   Windows 32 and 64 bit porting by blueCAPE: http://www.bluecape.com.pt   *\
|  Based on Windows porting (2.0.x v4) by Symscape: http://www.symscape.com   |
\*---------------------------------------------------------------------------*/
FoamFile
{
    format      ascii;
    class       volScalarField;
    location    "200";
    object      nut;
}
// * * * * * * * * * * * * * * * * * * * * * * * * * * * * * * * * * * * * * //

dimensions      [0 2 -1 0 0 0 0];

internalField   nonuniform List<scalar> 
10103
(
1.68690365469896e-07
1.66046830247917e-07
8.51582451754528e-07
1.35492845685543e-06
1.67345676170049e-07
8.62207681247957e-07
1.35407743686473e-06
2.24495333646667e-06
2.2830276560739e-05
4.11161853396441e-06
1.68083743416002e-07
8.84665740343009e-07
1.37018206248111e-06
2.28588857536959e-06
2.33259010811037e-05
4.12458185562056e-06
4.422419474559e-06
6.75672771969977e-05
6.89739982929301e-05
8.897031674385e-06
1.67418512887866e-07
8.96379626294851e-07
1.37810934592139e-06
2.3263654731088e-06
2.37261316126655e-05
4.15933132405753e-06
4.4893764230906e-06
6.84693711469592e-05
6.97552383470454e-05
8.92066075286661e-06
7.11426278013975e-06
0.000116973800568805
0.000216274074886281
0.000129035509335879
1.51067261210085e-05
1.66324682062686e-07
8.97590874914834e-07
1.37703506875991e-06
2.34199142376936e-06
2.39526879199093e-05
4.17024890009365e-06
4.53080921460252e-06
6.90732635866657e-05
7.01916670540034e-05
8.95598902517787e-06
7.19372036726931e-06
0.000117869174583356
0.00021775284573163
0.000129568772856731
1.51430625997323e-05
1.01188647428492e-05
0.00016178236452081
0.00037120444785083
0.000388221383292823
0.000192476017702767
2.2108903619888e-05
1.65226563547411e-07
8.92931246913091e-07
1.37326575629858e-06
2.3357654740112e-06
2.40691195415329e-05
4.16138117354592e-06
4.53273907337696e-06
6.9314805284787e-05
7.04002080111353e-05
8.95279470049005e-06
7.22620078874296e-06
0.000118316658116355
0.000218426025922297
0.000129748141312063
1.51671172183039e-05
1.02014530692582e-05
0.000162549933160075
0.000372914656264509
0.000389077644672012
0.000192784956020822
2.21617924388411e-05
1.33549091718495e-05
0.000200770563815515
0.000498966196560203
0.000662749568398247
0.000549416047987637
0.000250178531130903
2.96715380648027e-05
1.6407757818646e-07
8.84507574045229e-07
1.36872543567515e-06
2.31445306848251e-06
2.41331602548286e-05
4.1437535965676e-06
4.50231534101293e-06
6.92820801160543e-05
7.05079559862242e-05
8.91656093125688e-06
7.20580630032002e-06
0.000118286540380515
0.000218482465091034
0.000129733710172965
1.5136017808222e-05
1.02186251260656e-05
0.000162770393511155
0.000373404030746662
0.000389145169955724
0.00019276868265044
2.21688509826137e-05
1.34373913050816e-05
0.000201396358698998
0.000500595672342918
0.000664120727527837
0.000549551102039731
0.000250447828341955
2.97395716777928e-05
1.67274621821257e-05
0.000235119596763003
0.000602760297064603
0.000894533661577777
0.000935558543557475
0.00068593507464501
0.000300225152166947
3.74591351952574e-05
1.62454115968885e-07
8.72682385840314e-07
1.36240816157775e-06
2.28106452248445e-06
2.41600925555959e-05
4.11920501568157e-06
4.44705060976162e-06
6.90653502006265e-05
7.0571391599112e-05
8.85829906861465e-06
7.14197509172274e-06
0.000117861917530114
0.000218109179892179
0.000129610049716943
1.50542203500877e-05
1.01724244243103e-05
0.000162445710143656
0.000372938406812294
0.000388583806538822
0.000192510376025063
2.20990753832178e-05
1.34365630155073e-05
0.000201406805204563
0.000500731060400904
0.000664021499825122
0.000549096976247197
0.00025028922741922
2.97219803982831e-05
1.6805327327462e-05
0.00023562722331506
0.000604127151432651
0.000896171378542661
0.000935947857538332
0.000685911036948627
0.00030050990352686
3.75327895811923e-05
2.0115374802345e-05
0.000265784150292574
0.000689560717382834
0.00108402537856979
0.0012765222789982
0.00116746681254376
0.000799284245025148
0.000344647492406659
4.46229824710581e-05
1.59810917159242e-07
8.56706864982332e-07
1.35147864725791e-06
2.23510507924167e-06
2.41409378126234e-05
4.08451567977012e-06
4.36938413785434e-06
6.86979637710214e-05
7.05866931478714e-05
8.77775864158661e-06
7.04215142262225e-06
0.000117122429139448
0.000217437239821959
0.000129398863643069
1.49291707135893e-05
1.00716288956442e-05
0.000161643979811153
0.000371686593949253
0.000387521952688085
0.000192054439626327
2.19560919059272e-05
1.33612270440037e-05
0.000200832110907421
0.000499714158396475
0.000662782244195334
0.000547977703775953
0.000249777245440852
2.96005239876633e-05
1.67853329842657e-05
0.000235465624837667
0.00060388814067951
0.000895766843924331
0.000935146597936145
0.000685183285679235
0.00030020639263472
3.74779462220803e-05
2.01879883522563e-05
0.000266191952027177
0.000690633063943165
0.00108554145846961
0.00127723857439108
0.00116751504870019
0.00079933499339689
0.000344944792256562
4.46823935300686e-05
2.34185356376451e-05
0.000293161380530796
0.000763751246354888
0.00124095556626082
0.00156250488826671
0.00161012165727533
0.00136036994287117
0.000895056960970442
0.000380191411289575
4.88977973022752e-05
1.55492391791049e-07
1.33250386873161e-06
8.34850090869661e-07
2.17541956376661e-06
2.40575543828254e-05
4.03413698208698e-06
4.26800070733602e-06
6.81682657055522e-05
7.05289430982713e-05
8.66974349454006e-06
6.90804902958041e-06
0.000116096522833616
0.000216504490307076
0.000129088513524182
1.47586114821978e-05
9.92250932281648e-06
0.000160426720302253
0.000369779229694937
0.000386031336275548
0.000191416357457758
2.17433976877157e-05
1.32209523689589e-05
0.000199723945402809
0.000497686463437517
0.000660526887966508
0.000546233159685228
0.000248974750832058
2.93775755411155e-05
1.66796078402018e-05
0.00023468579580452
0.000602387023915767
0.000893824789964058
0.000933121375325997
0.000683636856542971
0.000299435567764721
3.72905235680281e-05
2.01488879978533e-05
0.000265891953625072
0.000690064352776704
0.0010847301555721
0.00127607889059331
0.00116627458611264
0.000798427548244093
0.000344511750624966
4.45706641229964e-05
2.34866810198391e-05
0.000293491083984376
0.000764564106941131
0.00124217883493182
0.00156328470441397
0.00161039945020403
0.00136043772715496
0.000895192170572099
0.000380434474697689
4.90468844481214e-05
2.65765498189945e-05
0.000317481062719788
0.000827817691268337
0.00137295512526417
0.00180119262179623
0.00199239108237289
0.00189233352105153
0.00152356382300203
0.000975142965145338
0.000401389257130799
4.62126664991993e-05
1.48942027095059e-07
1.3015505824232e-06
8.0560283047606e-07
3.96126959912752e-06
2.38810441644588e-05
2.10061236393172e-06
4.14105309419436e-06
6.74527019254457e-05
7.03591398750746e-05
8.52681806135477e-06
6.73843585619496e-06
0.000114770680165592
0.000215293031999417
0.000128654586971093
1.4536540311312e-05
9.72658464258776e-06
0.000158811115632427
0.000367263100830124
0.00038413180703946
0.00019059152162098
2.14563650835816e-05
1.30205782648464e-05
0.000198124350548431
0.000494744606048164
0.000657340562678779
0.000543887454878652
0.000247891579225659
2.90517636841323e-05
1.64987576888294e-05
0.000233333071883978
0.000599735291232728
0.000890467730795481
0.000929891650176863
0.000681303341051207
0.000298282368672881
3.69669590527362e-05
2.00136551175526e-05
0.000264943584314919
0.000688161676103501
0.00108211517320476
0.00127316545591386
0.00116361579297656
0.000796501933127556
0.000343506569967266
4.42980069148638e-05
2.34303116898704e-05
0.000293082380765466
0.000763726203057138
0.00124095547531555
0.00156169292299038
0.00160866820391469
0.00135891991198447
0.000894105124932864
0.000379816462475569
4.88804695889412e-05
2.66410679606347e-05
0.000317753110393128
0.000828427403807431
0.00137387329934333
0.00180185033629556
0.00199274491223383
0.0018925295014657
0.00152370599012771
0.000975267308788531
0.00040125718419039
4.61830606604739e-05
2.95612005218888e-05
0.000339023528145964
0.000883393533908683
0.00148520446821578
0.002001681247577
0.00231649314280869
0.0023635354732065
0.00213334041269225
0.00166582845720658
0.00104031911758593
0.000399935299794744
2.73082481537873e-05
1.39806758526472e-07
1.25515398041495e-06
7.68036747318557e-07
3.85847270938541e-06
2.35765828125264e-05
2.00873011368403e-06
8.33957419229451e-06
7.00283946514415e-05
6.65164323006107e-05
3.98658218776689e-06
6.53166855833048e-06
0.000113118203183369
0.000213756382123069
0.000128052844902546
1.4254520697252e-05
9.4828951055208e-06
0.000156783191271533
0.000364123714703702
0.000381805111412355
0.000189553784569635
2.10883069845744e-05
1.27605810482617e-05
0.000196041556333888
0.00049091738625904
0.000653251754517985
0.000540941295279968
0.000246516978315011
2.86151417236277e-05
1.62462731831557e-05
0.000231434246525041
0.000595994364749023
0.000885761575824896
0.000925477951717371
0.000678182364292459
0.000296734209768899
3.64983661488887e-05
1.97930012117495e-05
0.000263389616118894
0.000685012970937976
0.00107780514223774
0.00126852192023941
0.00115952899739602
0.00079360571525714
0.000341989246980235
4.38488373106185e-05
2.32675965020911e-05
0.000291997614875278
0.000761498553808685
0.00123774847356737
0.00155792584205907
0.00160490986604116
0.00135571946758293
0.000891794303088177
0.000378530888934109
4.85232269084325e-05
2.65697305227637e-05
0.000317260312116241
0.000827379410796887
0.00137228855849736
0.00179980296738951
0.00199048901643818
0.00189039336542745
0.00152192942697107
0.000973907514847603
0.00040034503270204
4.59725262248298e-05
2.962421588168e-05
0.00033925528404255
0.000883852879363146
0.00148586827018222
0.00200215995270405
0.00231677344304082
0.00236374507996237
0.00213355654099608
0.00166600752148501
0.00103991114948494
0.000399060281881762
2.72390672820767e-05
3.2358917179285e-05
0.000358109470479569
0.000931761323870286
0.00158138353991509
0.00217134763752849
0.00259050276554779
0.00276967201425121
0.00268394656851015
0.00234623190896671
0.00179760673374398
0.00109839298203337
0.000392904590057005
1.28137438190992e-07
1.19117355444523e-06
7.21368341064881e-07
3.71871867727157e-06
2.31143060880947e-05
1.89839120451679e-06
8.09705369612911e-06
6.94781331704406e-05
6.53120331856212e-05
3.8031312811129e-06
1.39019383616436e-05
0.000127222440144972
0.000211822405681934
0.00011110309695045
6.28554995684946e-06
9.19017714609577e-06
0.000154317640178701
0.000360313126999379
0.000379002024960325
0.00018826693377234
2.0631312530154e-05
1.24402475199802e-05
0.000193461944088776
0.000486182407439199
0.000648238983763589
0.000537370507669009
0.000244826273847184
2.80615117516764e-05
1.59222330586813e-05
0.000228986504174765
0.00059117319395433
0.000879717250310514
0.000919874079892386
0.000674257314170645
0.000294772748223326
3.58701815687714e-05
1.94891354817256e-05
0.000261244247828553
0.00068065364698846
0.00107183785183581
0.00126215320377038
0.00115399462255076
0.000789713364633508
0.000339923909805861
4.32040340152512e-05
2.30091549290685e-05
0.000290276817968443
0.000757951614342778
0.00123264549260132
0.00155200774582933
0.00159910401683793
0.00135082981699603
0.000888293131937776
0.000376587070274021
4.79514087048823e-05
2.63825288141697e-05
0.000316068733519346
0.000824894496713523
0.00136858885805635
0.00179525990030381
0.00198567681818073
0.00188589926683024
0.001518182367132
0.000971121836862474
0.000398701287763663
4.55794012236438e-05
2.95403101028953e-05
0.00033870066735865
0.000882645600658157
0.00148398988440916
0.00199969572811727
0.00231397465731649
0.00236096884757665
0.00213109175296371
0.0016639189721142
0.00103801139177528
0.0003979255412277
2.71071455965089e-05
3.24218247184496e-05
0.000358318499662521
0.000932116525788079
0.00158185623441331
0.00217165695888953
0.00259065708546444
0.00276977105686861
0.00268407992090309
0.00234640861946564
0.00179742080465653
0.00109671340602007
0.000391767175744915
3.34797353934127e-05
3.49638583967583e-05
0.000375044319878202
0.00097399243452575
0.00166427118751632
0.00231588755031822
0.00282269118162688
0.003116279404622
0.00316503716341694
0.00296751927516157
0.00254665423568368
0.00194089720664078
0.00121445009693214
1.14183879084048e-07
1.10961537723822e-06
6.65528302169973e-07
3.53675864767468e-06
2.24558543312074e-05
1.76923578467975e-06
7.78856006291076e-06
6.86274366435034e-05
6.37906912791496e-05
3.59007608614705e-06
1.34666453043932e-05
0.000126073123747042
0.000209396786184281
0.00010868297217986
5.99929804761865e-06
2.00764148375732e-05
0.00018667943619549
0.00037564254112
0.000355760058576466
0.00015137787763822
8.84667760791443e-06
1.20584559839258e-05
0.000190361170618765
0.000480489654255769
0.000642245190878321
0.00053313228616795
0.000242800685852618
2.73845173583327e-05
1.55259625476492e-05
0.000225973198791899
0.000585243122751905
0.000872298018755429
0.000913042653806698
0.000669495697861893
0.000292400722683134
3.50770788650666e-05
1.91026524574291e-05
0.000258500398440208
0.000675074704485471
0.00106420153967497
0.00125403204313747
0.00114697458760347
0.000784792027242506
0.000337281788212885
4.23363451361576e-05
2.265694781539e-05
0.000287926632384761
0.00075310225596201
0.00122566018630012
0.00154392339018807
0.00159120798306126
0.00134419585305115
0.000883531577112373
0.000373910390471955
4.71357376332952e-05
2.60896380732918e-05
0.00031421255652285
0.0008210302970837
0.00136284112972168
0.00178824042795259
0.00197827940011849
0.00187901120225077
0.00151244817227175
0.000966886273022881
0.000396237696626416
4.49569138342973e-05
2.93308940648392e-05
0.000337426764069892
0.000879963542036017
0.00147989414657885
0.00199448889671621
0.00230818615042045
0.00235522530571291
0.00212591004756771
0.00165955377637617
0.00103452483991454
0.000396050019690632
2.68581626612892e-05
3.23268552003316e-05
0.000357719969535184
0.000930794926933785
0.00157975120352567
0.00216883892561551
0.00258736410730035
0.00276633513474504
0.0026808297134981
0.00234354108078498
0.00179481839034157
0.00109399632086621
0.000390366636434703
3.32709263387254e-05
3.50267728386746e-05
0.000375240475878138
0.000974283645676692
0.00166461266160899
0.00231606516158934
0.00282271703414
0.00311622962815779
0.00316498966623281
0.00296752614019542
0.00254655799198856
0.00193969445727793
0.00121159079104917
0.000891011840359275
0.000481945508413986
3.73721579966624e-05
0.00039008395080312
0.00101098734110294
0.00173604565961154
0.0024397281410535
0.00302019911894057
0.00341126930698407
0.00357912685388387
0.00351469369228134
0.00323010137700453
0.00275631987614465
0.00214858448292254
9.8470037053635e-08
1.01159020368214e-06
6.00886397790949e-07
3.31199651976953e-06
2.1573936929558e-05
1.62327816885592e-06
7.40599033504337e-06
6.73781648326396e-05
6.18982950747801e-05
3.34881647185514e-06
1.29359737420993e-05
0.000124471886569268
0.000206354743101204
0.000105811386694424
5.67253524841681e-06
1.94136196859651e-05
0.000184699049872085
0.000371602309255289
0.000350373360606599
0.000147927852815434
8.45191719292945e-06
2.65806688763995e-05
0.000240414876214462
0.000528160562130296
0.000635181615499165
0.000473765929314569
0.000186703341953615
1.16144689455483e-05
1.50560800281371e-05
0.000222368684929325
0.000578150780304563
0.000863433210345427
0.000904921117397912
0.000663871335832192
0.000289635079670722
3.41134341407013e-05
1.8632482076726e-05
0.000255138317195361
0.000668237445583309
0.00105484333116744
0.00124409710126505
0.00113841262391786
0.00077880736265384
0.000334076126998261
4.12386460259469e-05
2.22110548465518e-05
0.000284937349279602
0.000746930410790557
0.00121675972541058
0.0015336208783387
0.00158115364230034
0.00133574735506175
0.000877435457660062
0.000370432515952756
4.60251185250358e-05
2.56928784159417e-05
0.000311694990428936
0.000815790957555993
0.00135504015624554
0.00177871073267204
0.00196823424609917
0.00186964104826549
0.00150460860012048
0.000961060045419734
0.000392781185716649
4.40788825629916e-05
2.90065894405102e-05
0.00033546264964583
0.000875850976462741
0.00147363129647846
0.0019865491645768
0.00229937730627782
0.00234644680132801
0.00211792599322122
0.00165283178199211
0.00102929019829099
0.000393183346993027
2.64508733615205e-05
3.20983974993123e-05
0.000356380336369762
0.000927965097248555
0.00157534626125728
0.00216308298146342
0.00258073042303083
0.00275941701630239
0.00267419622718452
0.00233759499036873
0.0017896831593935
0.00108956016709965
0.000388027749026072
3.29172740799813e-05
3.49225404296186e-05
0.000374607398195776
0.00097288303206159
0.00166234193893466
0.00231296530084309
0.00281899519822639
0.00311218447581173
0.00316094282827046
0.00296374112889463
0.00254309355194991
0.00193615618645045
0.00120771079806012
0.000885462127717545
0.000478776808362671
3.74354579301159e-05
0.000390272503745987
0.00101124025558339
0.00173630660494269
0.0024398193349119
0.00302012509360028
0.00341108321106728
0.00357888546772128
0.0035144543773291
0.00322984691216657
0.0027555933685172
0.00214633615011043
0.00166367083791589
0.00149242868997625
0.00100832759710818
3.95703718272064e-05
0.000403422351155787
0.00104344965025627
0.00179842050399046
0.00254635282812104
0.00318893347405586
0.00366250448777185
0.00393328522363492
0.00398838595362274
0.00383258780677779
0.00348914902421047
0.00300540774166495
8.18229517174501e-08
8.9937854069526e-07
5.28522756271876e-07
3.04666688910997e-06
2.04384264333064e-05
1.46366139762604e-06
6.94825108243815e-06
6.56338490333652e-05
5.96017491252324e-05
3.08259117676421e-06
1.22989403394363e-05
0.000122330967537216
0.000202551828559945
0.000102448079025503
5.30712173901907e-06
1.863235452828e-05
0.00018216873408518
0.000366698596890554
0.000344036963464327
0.000143927053361696
8.00691176955186e-06
2.56472266647043e-05
0.000237618087744482
0.000522340325215375
0.000626924650014336
0.000465927387097208
0.000182454528984588
1.11078721419574e-05
3.29895374832246e-05
0.00028651823309638
0.000657354542921967
0.000895420817153978
0.000853022909045437
0.00056982087240632
0.000218142913463864
1.45118151847715e-05
1.80773830144778e-05
0.00025113049547364
0.000660082860831378
0.00104367881656119
0.00123225787213892
0.00112824667820993
0.000771759701904189
0.000330366441573056
3.98963153338053e-05
2.16702019250208e-05
0.00028128763282721
0.000739389483157838
0.00120587423924139
0.00152101273965794
0.00156885091347738
0.00132540465747974
0.000869966917524667
0.000366139702656978
4.46129191507179e-05
2.51920421393457e-05
0.000308503519987373
0.000809148579113609
0.00134513764982655
0.00176659450542366
0.00195544340823532
0.00185767536140832
0.00149453738270011
0.000953491382268589
0.000388170327439688
4.28531464780784e-05
2.8569120664169e-05
0.000332809254173745
0.000870304099486107
0.00146518200571124
0.00197582555060491
0.00228746699627108
0.00233452940338411
0.00210701070415025
0.00164354330700146
0.00102203098856556
0.000388892983505129
2.5880219759192e-05
3.17465559340936e-05
0.000354328524735393
0.000923661193250004
0.0015686779106781
0.00215439172950393
0.0025707158607092
0.00274894409856898
0.00266407605990423
0.00232844025436633
0.00178178117063568
0.00108296935333612
0.000384475993587478
3.23302614406295e-05
3.46772718885135e-05
0.000373216551930747
0.00096994197934837
0.00165770253170373
0.00230676902889314
0.00281164413436645
0.00310421698158357
0.00315292042644451
0.00295613676244115
0.00253617365956313
0.00192982593506067
0.00120170745043007
0.000878582437073957
0.000474436988817248
3.73238711717597e-05
0.00038961577786779
0.00100978295879974
0.0017339200097869
0.00243650781454503
0.00301605569246219
0.0034065145932956
0.00357411101720819
0.00350974914441003
0.00322537642636049
0.00275121396534546
0.00214144979981119
0.00165693927125054
0.00148722782732409
0.00100512543008897
3.96384862432322e-05
0.000403610412833334
0.0010436821521955
0.00179864415438791
0.00254640336700087
0.00318879840854934
0.00366221955393034
0.00393288377796346
0.00398791220044994
0.00383207271404765
0.00348846265531049
0.00300400674687249
0.00250775202097663
0.0021531003570179
0.0019143325713983
0.00136593892122214
4.15311308255233e-05
0.000415191392644628
0.00107189714034409
0.0018527301374931
0.00263847699575247
0.00333367047606428
0.00387701120716981
0.0042356913223157
0.00439523676497784
0.00435559014422201
0.00413229699125694
0.00376139758867495
6.51161574533379e-08
7.76988686824262e-07
4.50153285497119e-07
2.74557951282275e-06
1.9029110327931e-05
1.29368837229481e-06
6.41859171977765e-06
6.32967961322821e-05
5.68667724077013e-05
2.79608094344884e-06
1.15516102146204e-05
0.000119500619288117
0.000197835770808918
9.85686249077036e-05
4.90809829625233e-06
1.77210097069707e-05
0.000179012095013477
0.000360754556481951
0.000336630086270243
0.000139342137968306
7.51420253939093e-06
2.45860035273368e-05
0.000234282978536921
0.000515477979795867
0.000617308306223462
0.00045687662338978
0.000177584748612406
1.05407316256063e-05
3.17123275096156e-05
0.000283093384827404
0.000649886658526057
0.000884414909482351
0.000840943560703008
0.000560171857526031
0.000213261108562435
1.38937702103283e-05
3.83400891036606e-05
0.000326273819943483
0.000763695452660996
0.00111640921696077
0.00121839765493819
0.00103059752995755
0.000650538763556196
0.000246445950899401
1.74370978562876e-05
2.10338387186405e-05
0.000276948828512972
0.000730415256228321
0.00119290592774304
0.00150598060685824
0.00155419179547194
0.00131310881806227
0.000861146348460744
0.000361090096081668
4.28484448453144e-05
2.45857465475784e-05
0.000304614342940869
0.000801051678741032
0.00133305073942311
0.00175177863461226
0.00193978035419513
0.0018429905863312
0.00148212033637199
0.000944081539657515
0.000382339164301566
4.1311409238807e-05
2.80178107884021e-05
0.000329451541656054
0.000863288681176447
0.00145448569765986
0.00196222543124499
0.00227232455814334
0.00231932370619691
0.0020929831301927
0.00163147527386786
0.00101241590201347
0.000382940643706883
2.50311887406305e-05
3.12726824965139e-05
0.000351563095645288
0.000917873450226616
0.00155971665736304
0.00214270208365765
0.0025572168215657
0.0027347814220213
0.00265029826070775
0.00231583482599872
0.00177068586406227
0.00107365397306156
0.000379343028883681
3.15052197416259e-05
3.43005994814566e-05
0.000371094897149112
0.000965490255441504
0.00165072032638036
0.00229747394341755
0.00280062215471396
0.00309224802673929
0.0031408057421075
0.00294455499335191
0.00252556233992607
0.0019202480749334
0.00119294574022524
0.000869108164410061
0.000468529478266059
3.70632520395272e-05
0.000388186251358971
0.00100675655671316
0.00172910551161604
0.00242996897487844
0.00300811862535376
0.00339765165494047
0.00356484477113285
0.00350056209463286
0.00321661828659364
0.00274296968248503
0.002133368218128
0.00164833141475319
0.00147960459003896
0.000999313285612525
3.952284541937e-05
0.000402939625890493
0.00104219086031333
0.00179618604318366
0.00254294496671173
0.00318446173200491
0.00365722726525839
0.00392749029023407
0.00398237721757631
0.00382660024885455
0.00348308744238421
0.00299841113413594
0.00250090325575357
0.00214670428192665
0.00191111927604941
0.00136461097709772
4.16159158439644e-05
0.000415393344876675
0.00107212603248787
0.00185293885926484
0.0026385208668232
0.00333351909968815
0.00387667385918704
0.00423518192768636
0.00439458269119203
0.00435482881304837
0.00413142527063091
0.00376025269365596
0.00331574697379815
0.0028992886934816
0.00255410421422084
0.00218863663885233
0.00158412088864488
4.32422933247621e-05
0.000425447880374204
0.00109677810398566
0.00190007370722801
0.00271831540084486
0.00345828521386038
0.00406073086391865
0.00449415099741928
0.00474370690587831
0.00480637803818158
0.00469152440512015
0.00442436220580941
4.91829096850572e-08
6.49027739387521e-07
3.68140169844132e-07
2.41654913366623e-06
1.73348836111077e-05
1.11602918356709e-06
5.82577408939398e-06
6.02818627499383e-05
5.36559088645699e-05
2.49489638796123e-06
1.06967457625634e-05
0.000115814660544684
0.000192039928999011
9.41553316020881e-05
4.48166016423797e-06
1.66683790755485e-05
0.000175010007494823
0.000353512972211945
0.000328031757706705
0.000134158893299477
6.97836489641012e-06
2.34009029684588e-05
0.000230395521619223
0.000507389004717766
0.000606143359619836
0.000446514823781027
0.000172065255413463
9.91613471195517e-06
3.03172537674923e-05
0.000279257192671532
0.000641325124585199
0.00087171905221771
0.000827045291327255
0.000549121043785754
0.000207696361971041
1.32038888295433e-05
3.65720556778767e-05
0.000321979140186691
0.00075467125771286
0.00110281115330452
0.00120237099101816
0.00101547160409666
0.000639522834681933
0.000241052254352692
1.67119090423354e-05
4.0793418485974e-05
0.000355460105909473
0.000851093206048619
0.00129883837564231
0.00153705735598059
0.00148838084526106
0.00117773632669584
0.000719932607260516
0.000271890328494016
2.03018447026856e-05
2.38729028530882e-05
0.000299998732480023
0.000791432118238588
0.0013186700346677
0.00173411989012807
0.00192109044510917
0.00182545724733596
0.00146728176556748
0.000932806797663928
0.000375215483455287
3.92872371556818e-05
2.73512453806404e-05
0.000325363330418764
0.00085474785471888
0.00144144924730579
0.00194561767098414
0.0022537835245226
0.00230065823536247
0.00207566184138589
0.00161641777552907
0.00100019330688523
0.000375282453165224
2.40065311387321e-05
3.06758018667737e-05
0.000348066354071739
0.00091056199587469
0.00154839227940917
0.00212790510458609
0.00254008914819898
0.00271674003392675
0.00263263261566029
0.00229946161571085
0.00175600055761026
0.00106111989954106
0.000372130290386845
3.02959190410742e-05
3.37940660987208e-05
0.000368237616166887
0.000959512499208237
0.00164135796800059
0.00228500790408824
0.00278581560126483
0.0030761231610183
0.0031244000894319
0.00292873049004135
0.0025108561623956
0.00190676638421528
0.00118061365469275
0.00085630433575925
0.000460652399906677
3.66632387447327e-05
0.000386007236518294
0.00100218939045118
0.00172188051846547
0.00242019762536701
0.00299627172125745
0.00338441260493667
0.00355096198627293
0.00348671849689604
0.00320332932570744
0.00273046624079567
0.00212138234369685
0.00163602881279264
0.00146837036542633
0.000990998069256015
3.92493654515634e-05
0.000401478895331148
0.00103910639065939
0.00179124678234311
0.00253614620148668
0.00317605926708196
0.00364762825302943
0.00391716187765121
0.0039717804030191
0.00381611103259556
0.00347290944616934
0.00298844909754505
0.00249078632664832
0.00213727713015217
0.00190430621580957
0.00135991116378197
4.1501389780572e-05
0.000414718691027859
0.00107061927284716
0.00185043553698892
0.00263496731985248
0.00332899556247381
0.00387135633113708
0.00422928846422745
0.00438834835220608
0.00434845986896982
0.00412503634856878
0.00375376438007956
0.00330865322441654
0.002892254989531
0.00254900025556076
0.00218603745855621
0.00158332172257752
4.33301260063701e-05
0.000425695215717276
0.00109702245558292
0.001900285553591
0.00271837398018631
0.00345814713070119
0.0040603836971662
0.00449359079843317
0.00474294136110665
0.00480543579993773
0.00469043849057281
0.004423129791662
0.00405162618876678
0.00364268611418258
0.00324560867715505
0.0028409689766874
0.00236412212255154
0.00172770447222033
4.47728270217036e-05
0.00043426967726757
0.00111840756439324
0.00194131470481163
0.00278762047049089
0.00356589997259975
0.00421860452310756
0.00471556540439568
0.00504221127418652
0.00519387536572201
0.00517554476464652
0.00500403326602882
3.49581470601321e-08
5.20575569671151e-07
2.85200760806705e-07
2.06819574113528e-06
1.53608925236011e-05
9.32734027255362e-07
5.18276075007696e-06
5.65087522583828e-05
4.99223624112396e-05
2.18315287091599e-06
9.74627791943336e-06
0.000111133450585923
0.000184976597618146
8.91860074215779e-05
4.03426751535831e-06
1.54697419970595e-05
0.000169937863184779
0.000344674447453314
0.000318112848447546
0.000128366680614761
6.40638964624024e-06
2.20735021296161e-05
0.000225617644730381
0.000497717182878461
0.000593193549065069
0.000434752736934967
0.000165875518859967
9.23916055420525e-06
2.88648833378505e-05
0.000275210718104898
0.000631539467043596
0.000857102803887006
0.00081115692818188
0.000536581377874556
0.000201424210466693
1.24459693920283e-05
3.47069931679366e-05
0.000317534354767748
0.000744654461391063
0.00108730475535638
0.0011839924430978
0.000998158012771273
0.000626955058937557
0.000234919571448958
1.5902767797892e-05
3.83656179136992e-05
0.000349525192122068
0.000840041689969901
0.00128259391334786
0.00151731104661188
0.00146804612568515
0.00116023056698833
0.000707858587986255
0.000266077554647816
1.94744315934269e-05
3.69548030367491e-05
0.000366821311053782
0.000919815971423622
0.00145003901719666
0.00180496802453451
0.00189920438380544
0.00171345121775388
0.00130186675203944
0.000780211884389287
0.00029462515640335
2.30536098728125e-05
2.65676695198456e-05
0.000320512509419145
0.000844610409710941
0.0014259545398161
0.00192583709811674
0.00223165267960331
0.00227833114667312
0.00205487540600617
0.00159819982692749
0.000985131409283559
0.000365446148405083
2.2537735410341e-05
2.99542693255053e-05
0.000343811002966629
0.00090166474585723
0.00153460256105104
0.00210985193329054
0.0025191467707785
0.00269458271527149
0.00261080719085918
0.00227899080265076
0.0017373209032828
0.00104487875319482
0.000362786811535329
2.87857009052374e-05
3.31565701589772e-05
0.000364625993133059
0.000951963852820595
0.0016295370337936
0.00226925005092109
0.00276705763596312
0.00305563144019984
0.00310344107253303
0.00290831895320987
0.00249156622735003
0.00188857669516653
0.00116380340021323
0.000838971516909192
0.000450029498668846
3.61258021305219e-05
0.000383073794895925
0.000996059346490933
0.00171220279330281
0.00240711440933507
0.00298039253865776
0.00336663096968832
0.00353224631155334
0.0034679357934759
0.00318511185979304