/*--------------------------------*- C++ -*----------------------------------*\
  =========                 |
  \\      /  F ield         | OpenFOAM: The Open Source CFD Toolbox
   \\    /   O peration     | Website:  https://openfoam.org
    \\  /    A nd           | Version:  12
     \\/     M anipulation  |
\*---------------------------------------------------------------------------*/
/*   Windows 32 and 64 bit porting by blueCAPE: http://www.bluecape.com.pt   *\
|  Based on Windows porting (2.0.x v4) by Symscape: http://www.symscape.com   |
\*---------------------------------------------------------------------------*/
FoamFile
{
    format      ascii;
    class       volScalarField;
    location    "200";
    object      omega;
}
// * * * * * * * * * * * * * * * * * * * * * * * * * * * * * * * * * * * * * //

dimensions      [0 0 -1 0 0 0 0];

internalField   nonuniform List<scalar> 
10103
(
3.73734922155493
3.73735139990989
3.98683253486339
3.04791046762875
3.73734077550497
3.98685621615656
3.04790917893939
4.20371297736552
1.29272052051778
3.02834735616194
3.737337763125
3.98680068813873
3.04791210468647
4.20375907813518
1.28451761082617
3.02834794752523
4.33730861222848
1.06368048481811
1.08019034882381
2.99243724289199
3.73732114530662
3.98681679011599
3.04791498764207
4.203664915431
1.28152026359252
3.02835118919333
4.3373393973255
1.06020857055005
1.07603412728796
2.99244006801209
4.40627919263996
1.05401459712073
0.714917889431045
1.00982014857358
2.97494419100702
3.73728427170651
3.9867989189361
3.04790170369421
4.20369924186754
1.27899972079579
3.02835913660116
4.33728647904058
1.05818448072167
1.07507348664242
2.99244799032097
4.40629050079893
1.0521736001283
0.712711395976099
1.00881715404499
2.97495134666853
4.43507589818257
1.09030265718023
0.635554788416503
0.615180089289904
0.982399597642308
2.97384212483954
3.73722872139226
3.98676421136003
3.04792987876444
4.20369169356904
1.27545319923408
3.02836007758106
4.33729950117782
1.05665496792065
1.07363940866173
2.99246698653983
4.40628175629652
1.05073677194707
0.711410697343366
1.00859872613554
2.97496934782962
4.43508596841634
1.08909996982201
0.633943703804964
0.614756663257181
0.98245695865192
2.97385721902173
4.43971636349095
1.13268378109284
0.627951158855094
0.512034506564236
0.584366535851567
0.984924321711898
2.97198803640423
3.73714643361032
3.98670658375187
3.04794837432847
4.20367229261342
1.27058617269772
3.02840564255434
4.33730123297346
1.05489453788018
1.0705979060037
2.99250586118799
4.40627431959321
1.04944768500449
0.710090638020666
1.00750214082116
2.9750102350848
4.43508636903859
1.08792174926973
0.632772019214016
0.614221754022365
0.982205894476675
2.97389427764657
4.43972528214075
1.13186258249543
0.62672116054436
0.511434523737931
0.584679061808446
0.985031918401049
2.97201657546414
4.43310442460738
1.17097927694717
0.639738467961814
0.484243304234126
0.467948834781336
0.582840440512634
1.002408928055
2.96211912703611
3.73702866342576
3.9866247707707
3.04797769752047
4.20363732171202
1.26447251917339
3.02845593145822
4.33729825297123
1.05251690918352
1.06586400402639
2.99257645964016
4.40627734069788
1.04793965823511
0.708243208909616
1.00500448907244
2.97509292121143
4.43507521138449
1.08659594980047
0.6315466270123
0.613279381987541
0.981116540922499
2.97397663997968
4.43973336842385
1.13083619615788
0.625724720896461
0.510770416591187
0.584354979657691
0.984657101846575
2.97208661131671
4.43310833819501
1.17041639516917
0.638853643259392
0.483632941639059
0.467955855720654
0.583135027359802
1.00239642934109
2.96216578014264
4.42456998660237
1.20388609649
0.656560111752767
0.480332531309031
0.427170142098031
0.455493473931465
0.593513276469569
1.02314364151257
2.95324750513219
3.73686764118494
3.98651152396347
3.04801915079783
4.20358842097583
1.25720550314759
3.0285325872903
4.33728088860487
1.04938385887441
1.05958895117457
2.99269304030253
4.40628011236471
1.0459615508262
0.705615733130718
1.00107971993196
2.97524339474053
4.43507851029866
1.08492436981082
0.630008603031072
0.611715921378398
0.97893096847895
2.97414178543704
4.43971614115761
1.12946317932105
0.624561394365089
0.509809548671154
0.583482487771269
0.983555903570988
2.97224123066895
4.43311275021557
1.16949434150095
0.638009164934497
0.482975788669051
0.46750853820722
0.582752269500391
1.0019485356562
2.96228657760098
4.42456977819959
1.20351834641048
0.655952217615351
0.479837676404042
0.427026778563711
0.455555454520338
0.593634443087439
1.0229946644213
2.95331968323941
4.41827024575506
1.23250621359934
0.67420218702974
0.485206671542761
0.412947763309765
0.404710285869225
0.456479938038641
0.60873601606792
1.05215713140539
2.98372909100893
3.73665261468742
3.04807018476487
3.98635918382598
4.20352274260704
1.24874843349043
3.0286380357441
4.33726201484686
1.04545627652567
1.05182355099904
2.99286812541596
4.40627353604342
1.04340226881951
0.702113379863599
0.995753651128416
2.9754914056977
4.43507944353046
1.08274825737528
0.627980073259793
0.609417650503868
0.975561078449276
2.97444144727839
4.43972260943726
1.12763029326502
0.623072859391804
0.508445076330372
0.581986977651645
0.981467055640018
2.97254967116919
4.43310458148978
1.16810283111348
0.636895040598068
0.482034613055342
0.466645376512495
0.581812603356654
1.00081596287477
2.96255378015007
4.42457057845584
1.20267468269267
0.655220600614426
0.479233353315686
0.426543083177858
0.455113936689741
0.593137895558866
1.02241185125332
2.95350873117985
4.41827379458625
1.23228517739553
0.673800673500133
0.484845399362345
0.412780957923309
0.404644474671314
0.456451344711543
0.608692965911669
1.0519200066616
2.98382676028519
4.41468847815087
1.25796551654474
0.691396356109003
0.493615432790358
0.409869188303295
0.382618254285217
0.397586162795102
0.463091433104956
0.626730249527372
1.10067908784081
3.21034670515829
3.73636100712315
3.04812856616502
3.986177159555
3.02876727472946
1.23911537410379
4.20343550655953
4.33723769441154
1.0406708862825
1.04257741551226
2.99310457387179
4.4062689143869
1.04022370008212
0.697678582517327
0.988988147588491
2.97586066853844
4.43508062320651
1.07999396307879
0.625364311940767
0.606314072560794
0.970942516780601
2.97493357574233
4.43972415789802
1.12523651387603
0.621143539136932
0.506589459232483
0.579804375649137
0.978291506687399
2.97310666001544
4.43310349426461
1.16616317319762
0.635407441368643
0.480735871100702
0.465337085758038
0.580257666293625
0.998718769282979
2.96308620753859
4.42456961313311
1.20128277757188
0.654140121271431
0.478325765560595
0.425702067809825
0.454235434476631
0.592097859465577
1.02114224902993
2.95392509349629
4.4182697262471
1.23149969958906
0.67314839090989
0.48429663459956
0.412306809084779
0.404188383943589
0.455947321651396
0.608081879512495
1.05127144139131
2.98408378225068
4.41469615940661
1.25785131201455
0.691142444428729
0.493366372169168
0.409725797490088
0.38251579502843
0.397480691510039
0.462961885316259
0.626561946990078
1.10108985658476
3.21045868736685
4.41297865150931
1.28087184740266
0.707726097060439
0.503435214796793
0.412048382885497
0.373471336935573
0.369239224625754
0.397401169159747
0.471738410033219
0.647605761550115
1.19606436456734
4.87759952916195
3.73597001609313
3.04819214804633
3.98586592895936
3.02891045680058
1.2283447802366
4.2033414642153
2.99338842102497
1.03182000671479
1.03495545389974
4.33720574194912
4.40626270054063
1.03638098982024
0.692257151649638
0.980746025041138
2.97635217452197
4.43508457337518
1.0766242153523
0.622102679813072
0.602341982306242
0.965013311356587
2.97566089829504
4.43972696868825
1.12222588740894
0.618702114154244
0.504177751085764
0.576876226574783
0.973956957492084
2.97401593288769
4.43310881036563
1.16360565776837
0.633470144380915
0.479018271505086
0.463538829058542
0.57803723807479
0.99559585581677
2.96404445955458
4.42456137573636
1.19927849539599
0.652639642295468
0.477061101769194
0.424481825671459
0.452901352866476
0.590447977502387
1.01897373640216
2.95476459648408
4.41826801530798
1.23011131339302
0.672088655264285
0.483418085712877
0.411496853839147
0.403361415963404
0.45501177609377
0.606935592594879
1.04992095815397
2.98467273924207
4.41468665981303
1.25710697565899
0.690544078931727
0.492863046212092
0.409275992087443
0.382072104516959
0.396995356093189
0.462386110151616
0.625871613162179
1.10059691054018
3.21076452338719
4.41298208579994
1.2808363363557
0.707577674150592
0.503271126791402
0.411938479818834
0.373370792933265
0.369117224577809
0.397236350736829
0.471518589642013
0.647594873694976
1.19791970474214
4.87775595528554
4.41227332312209
1.30149006634457
0.723009146718764
0.513673958228841
0.416860487087301
0.370911165240615
0.355297912130386
0.363986169146412
0.39993055670217
0.479818773810701
0.66907769799573
1.3322429718334
3.73542850845234
3.04826009650922
3.98554453769171
3.0290614195225
1.21636405446323
4.20314921555509
2.99369149855641
1.01948956457531
1.02826748118312
4.33716393661953
2.9769277438473
0.970988991999697
0.685795385711096
1.03181744533529
4.40625490917017
4.43507805427943
1.07259486581207
0.618143411624638
0.59744030325046
0.957687172355223
2.97661598811017
4.439735406989
1.11855633123253
0.615699323353598
0.501157401490022
0.573142662613208
0.968386923653358
2.9753486863003
4.43311223617488
1.1603918903534
0.631029283382125
0.476832144530674
0.461205149282219
0.575099118291715
0.991370595397796
2.9656010962143
4.42457074454339
1.19661636369396
0.650665794423942
0.475395988071119
0.422849787448633
0.451080000847191
0.58814582285122
1.01586251824791
2.95628368553332
4.41825931584835
1.22806598746988
0.670571005365102
0.482170735092836
0.410333006873688
0.402151371698519
0.453621754224459
0.60519242328308
1.04773537863
2.98588096766863
4.41468373781182
1.25571403470735
0.689494597243591
0.492005041228088
0.40849525698232
0.381291192395546
0.396144357803818
0.461387086999396
0.624647835230531
1.09933153991759
3.2115270184991
4.41297538578652
1.2801171466731
0.707015273797951
0.502801601312545
0.411513973502816
0.372949604465111
0.368661371515956
0.396705310588261
0.470880294748978
0.646941310692222
1.19742611881876
4.87817068871056
4.41226776602996
1.30150968665828
0.722936403018193
0.513572513953386
0.416781957348835
0.370824829908175
0.355184447110188
0.363829705632942
0.399714497247516
0.479607100815051
0.669626179377692
1.33462453197258
3.18378836646791
4.41201757233935
1.31996458438767
0.737145340846379
0.523808758457471
0.422977000575891
0.371946398216362
0.349011287951519
0.34623227033902
0.362392354804095
0.402251582109277
0.482762200721942
0.661169045204012
3.73469763655541
3.04834526558004
3.98511409370256
3.02922984717811
1.20338220772101
4.20299215625941
2.99398959432219
1.00567152484366
1.02055994607452
4.33710942990764
2.97751119685036
0.95974498816675
0.678248553998234
1.02647230526328
4.40624563905747
2.97770537882038
0.948874418828105
0.591550827268715
0.61343381645206
1.06786580737051
4.43507133324402
4.43972516836721
1.11418162175827
0.612088507342777
0.497478484899442
0.568537106786953
0.961454523329429
2.97707661850531
4.43312040385567
1.15648142125066
0.62803991004121
0.474135002732577
0.458290869065925
0.571386317083554
0.985893589303705
2.96786816926001
4.42457469765671
1.19325908805003
0.648176721563571
0.473291957482936
0.420771209138175
0.448734799343851
0.585140388718205
1.01171959542264
2.95875325819566
4.41826963566356
1.2253303190157
0.668555968540462
0.480522488849814
0.408790815328737
0.400535853042321
0.451750739462369
0.602821527293507
1.0446952450299
2.98812129146836
4.41467459517049
1.2536331954025
0.687957153126015
0.490764135600824
0.407369209607708
0.380163709416535
0.394915009009707
0.45994026669699
0.622847817393369
1.09732759472102
3.21320532689983
4.41297161728593
1.27871312742973
0.705966458817781
0.501956256264668
0.410756649998733
0.372208004281244
0.367877035631908
0.395817434186562
0.469827320105611
0.645723571608174
1.19602675422137
4.87934849469073
4.41226402572497
1.30080653593739
0.722396463673571
0.513127010324524
0.416379210975038
0.370426770769715
0.354761116975155
0.36335013426754
0.399145096025587
0.47894765738601
0.669113789159832
1.33377521303928
3.18392126296775
4.41200703796252
1.32002779122176
0.737126075060387
0.523753147730294
0.422924705985823
0.371876863176864
0.348913082181796
0.346096102825799
0.362205710241289
0.402021052881431
0.482718640388529
0.662132176886372
0.716822251940018
0.877826373460462
4.41193220525402
1.33642892767115
0.750081725771101
0.533540299936971
0.429658578245086
0.374994570319995
0.347099949292127
0.33702121029746
0.341707982681669
0.361698668653449
0.401317917853407
0.470239615403285
3.73376668954166
3.048482783321
3.98461401927223
3.02945354012724
1.18962276060844
4.20280529136216
2.9942910102377
0.990602209105525
1.01186014250628
4.33706569708152
2.97802345510432
0.947198525688312
0.66961271117209
1.0202919638714
4.40623384469903
2.97874411127788
0.938564787520769
0.584638414126516
0.607921615469891
1.06237576120679
4.43507478299561
2.97899934388573
0.953016160494539
0.562990428019537
0.493091886878183
0.607824737161153
1.10906294660851
4.43971475459327
4.43311048421536
1.15182756506527
0.624457869729842
0.470885443957431
0.454748471560603
0.566824120478846
0.978966669808128
2.9707810159132
4.42458348821906
1.18916706964136
0.645132699461879
0.47071283809121
0.418210777435635
0.445825164438357
0.581370089259054
1.00636042766308
2.96235524925807
4.41827419319998
1.22186695945357
0.666007725466716
0.478442415360491
0.406842968861181
0.398487859834236
0.449366726385025
0.599780395326545
1.0407316992585
2.9917960980358
4.4146859961745
1.25083537088642
0.685900676272134
0.489115360327985
0.40587879239926
0.378672764271305
0.393289619888285
0.458027787504093
0.620460631266357
1.09469072692766
3.21627900450719
4.41296243576115
1.2765969398167
0.704405879943475
0.500714399068583
0.409655305128025
0.371138486929931
0.366756818940555
0.394563070019567
0.468343250957035
0.64396161229584
1.19405429105324
4.88259044344408
4.41225584405502
1.29939488265893
0.721342219620789
0.512287734598477
0.415639301477321
0.369716646630786
0.354030631581043
0.3625517771345
0.398226630448087
0.477864744265986
0.667974039927242
1.33219821285227
3.18443161688371
4.41200226911478
1.31934183450203
0.736600405851331
0.52332399806365
0.422539163666809
0.371499428947519
0.348518876474574
0.345662044809816
0.361706213435926
0.401437568179467
0.482116146047532
0.661817503849493
0.717436022671734
0.877489154380965
4.4119211858135
1.33652770450275
0.750102820208314
0.533518220651269
0.429627197170121
0.374940835049311
0.347017520571961
0.336905552561565
0.341551877908445
0.361498431442148
0.401134924840068
0.470371246550264
0.529284068535049
0.510294522782943
0.566326780001045
4.4118995275966
1.35103944686517
0.761817327684344
0.542695859391144
0.436463955795247
0.379142327358229
0.347777222911497
0.332815762453842
0.330303719752014
0.339098028429714
0.359804239954118
0.393626017441421
3.7327321422514
3.04875147233586
3.98413707827086
3.02981072677852
1.1756258520983
4.20266882073121
2.9946608096763
0.974648812565689
1.00214279302461
4.33705768860459
2.97844811532053
0.933263069164327
0.659916585124933
1.01321244834541
4.40624125098417
2.97952090987583
0.926919431879095
0.576710783594627
0.601566350645081
1.05606591909771
4.43507790662619
2.98071858754717
0.942952376120718
0.556452555655652
0.487953059330274
0.602855039363694
1.10314112550034
4.43972288954153
2.97396486408835
0.97031743588601
0.561327245666045
0.450528788006362
0.467041804263973
0.620240054500871
1.14637604548315
4.43310355791921
4.4245732802205
1.18429262192456
0.641491656890443
0.467621924722007
0.415131550794858
0.442303765897525
0.576746851391853
0.999495984835235
2.96698405533615
4.418283770928
1.21763513139489
0.662889649629838
0.475899054251894
0.404460533559924
0.395977003688438
0.446432273078229
0.596000173579288
1.03567477448935
2.9972445107505
4.41469518915327
1.24728451349448
0.683292822923487
0.487032382554192
0.404001777402145
0.376797498769638
0.391246426225088
0.455625269399869
0.617462699419513
1.0914590763832
3.2219366922213
4.41297483687434
1.27374237023497
0.702307404368714
0.49905560276918
0.408194452121144
0.369727913513597
0.365287373160171
0.392928166542045
0.466424334018913
0.641696269566772
1.192093321292
4.88752227851304
4.41225570098546
1.2972504528881
0.719756465929466
0.511039567460764
0.414553284518089
0.368688436714073
0.352987552697798
0.361428919748283
0.396952898211736
0.476372132486313
0.666362221929417
1.33031938392721
3.1861432496099
4.41199000804579
1.31792447362487
0.735539379387817
0.522485984654073
0.421811186493858
0.370813896116743
0.347830781821662
0.344933463460089
0.36089815826668
0.400510173223925
0.481070507290059
0.660911626450244
0.716981607471472
0.876460317594484
4.41191577026331
1.33585311744029
0.749588697425171
0.533100442989614
0.429254505112592
0.374580423706899
0.346647554773524
0.336508192960091
0.341108790125159
0.360992534376448
0.400574688948599
0.469872599397679
0.529256692602936
0.509553722848004
0.56462938585921
4.41188856594604
1.351163830271
0.761870175733118
0.542697875235955
0.436448817889393
0.379102389718744
0.347709157245595
0.332718051015752
0.330172998746839
0.338931297507197
0.359618979623331
0.3935235524337
0.430585415496413
0.445052937801249
0.440804690409182
0.486430163741227
4.41190497621237
1.36396308597701
0.772402087785147
0.551184258770985
0.443125328063135
0.383831471587975
0.349986975668794
0.331655101400915
0.324386543030993
0.326286342297848
0.336711252162455
0.355161861489094
3.73151955475405
3.04933261594638
3.98391687682987
3.03044320290094
1.1619504567971
4.20274494385181
2.99522890948021
0.9582936746623
0.991455244072803
4.33716974658718
2.97889182525409
0.918240489492449
0.649223864966836
1.00512966877328
4.40630343576115
2.97994622591734
0.913753186149313
0.567748262487072
0.594324713092168
1.04885234059635
4.43509295505786
2.98174569539078
0.931312311763186
0.548915424403934
0.482027705701561
0.597124665878605
1.09633654527903
4.43972784740026
2.97665176294687
0.959651584641963
0.55481667615514
0.445586504990358
0.46256038198787
0.615333937650949
1.14007004786904
4.43310362571774
2.97203803679816
0.990725707048819
0.571152686528842
0.438117512237218
0.411494775883241
0.463980964909401
0.63720638575475
1.17857935045426
4.42456921235463
4.41827315177398
1.21258525338706
0.659160535726688
0.472858617454431
0.401612519651762
0.392969096781618
0.442898831368239
0.591378829997909
1.02919147615672
3.00434827639555
4.41469688854442
1.24293983101983
0.680097993619866
0.484486626446869
0.401713507575586
0.374513994514587
0.388759031140921
0.452699060348945
0.613797599794509
1.08748193401311
3.22967143266788
4.41298840925913
1.27011428824596
0.699641079440686
0.496956346950823
0.4063550239316
0.367959607776627
0.36345261049205
0.390897753510219
0.46405867945453
0.638962062542431
1.19031174882451
4.90074117467561
4.41226470640602
1.29434896133779
0.717616371537861
0.50936504614746
0.413107905329333
0.367331419544345
0.351622278961113
0.359973085264843
0.395321661948104
0.474504400613077
0.664443288296052
1.32858528186204
3.18875765259067
4.41199921231785
1.31575716307787
0.733929779193316
0.521227897555084
0.420733479928907
0.369815101137414
0.34684459018542
0.343906903673271
0.359779540276596
0.399245697018771
0.479644578237259
0.659648158494912
0.716121688212759
0.874744201609725
4.41190367474504
1.33442898786625
0.748522093311453
0.532261283914471
0.428534001437745
0.373913330556312
0.345992006167749
0.335832391643592
0.340383476192111
0.360188462549157
0.399673391279025
0.468933345805165
0.528444582586704
0.508167284534773
0.562688257119212
4.41188297337482
1.35049589706839
0.761363652258552
0.542287209307322
0.436085774333831
0.378755633197463
0.347358740122222
0.332349516556225
0.329772862231408
0.338486794806666
0.359124812484991
0.393006811889964
0.43018433580043
0.444497895246717
0.439383535951026
0.484043960966163
4.41189465792056
1.36409694388233
0.772478099790356
0.551205531016108
0.44312301021427
0.383802914450604
0.34993138240294
0.331572590091683
0.324276065482874
0.326146960762716
0.336551002744925
0.355023411373573
0.377800551190516
0.395038678941955
0.401787542960486
0.41329683524962
0.462086634287193
4.41190842946719
1.37542107496017
0.781882093538571
0.558956481528118
0.449471906261868
0.388705748080998
0.353070577089035
0.33236660566713
0.321847780661457
0.319243448788903
0.323427373826462
0.333536540933261
3.73119428472262
3.05053386832833
3.98428819725289
3.03160179573688
1.14927319278279
4.20336756119692
2.99619148125814
0.942041811630117
0.97991082521186
4.33759606027879
2.9795889926814
0.902586554761752
0.637640922745263
0.995922987894608
4.40650204661802
2.98021101692259
0.899404364379099
0.557821393988723
0.586146880746719
1.04059607602253
4.43516288998876
2.98180967585643
0.917745595865176
0.540337968688473
0.475281692550588
0.59056737872828
1.0885564325519
4.43974510435196
2.97777386801731
0.947037847276668
0.547252892386185
0.439887025584316
0.457397229681926
0.609675738927906
1.13282174951088
4.43311186194363
2.97617231439773
0.979533640803169
0.564463235398068
0.433213260130018
0.407260974317985
0.459747512810923
0.632224077193349
1.17196024008392
4.42456125810728
3.01230598021972
1.02075289241844
0.585770291007886
0.43870508230784
0.389426071845041
0.398265533604991
0.469283692843616
0.654772472722491
1.20665515728015
4.41826854400994
4.41468992709466
1.23774795556246
0.676274873412159
0.481445986835778
0.398986560843588
0.371795358660488
0.385795696242184
0.44920265058647
0.609371442350152
1.08257010003336
3.24161347205935
4.412981495787
1.26567148064146
0.696372185263276
0.494389655963105
0.404115005676085
0.365814079987782
0.361233036639252
0.388451642340417
0.461227225755462
0.635744810523626
1.18836439404025
4.91328183671417
4.41227823508888
1.29065606039228
0.714893802313425
0.507242486825798
0.411286093055378
0.365631357795148
0.349922549821646
0.358174568554198
0.393332245959832
0.472278639716584
0.662312797702144
1.32774299178347
3.19693607991513
4.41200460182899
1.31281637503159
0.731751309177173
0.519534320698773
0.419294230185189
0.368493713522029
0.345552684505623
0.34257669396843
0.358349438575193
0.397660101917103
0.477913387551225
0.658248754632847
0.715012244445529
0.872192036508679
4.41191349574454
1.33224258303748
0.746891714867007
0.530992085941075
0.42745937220913
0.372934893796292
0.345047353087305
0.334875904919031
0.339375916489478
0.359092088067879
0.398460155952414
0.467662239297861
0.527277911779812
0.506307161613409
0.560019531761642
4.41187097527514
1.34906650785327
0.760289990602045
0.541445208914922
0.435369993014917
0.378102115014101
0.34672781443125
0.331713319513668
0.329108179526293
0.3377723163262
0.35834288957675
0.392160368571709
0.429313552688875
0.443393713966625
0.437526603895118
0.481430334283498
4.4118896373895
1.36343134537209
0.771975389191617
0.550800669104728
0.442767094629014
0.383466639607219
0.349596571383134
0.331226686136378
0.323908489156293
0.325748394152966
0.336114485321771
0.354548351367397
0.377307516904978
0.394481910792911
0.400846526609003
0.411804457101242
0.459864818066864
4.411898946231
1.37551891360256
0.781970508402708
0.558992653727816
0.449480283226829
0.388687055167379
0.35302580605575
0.332296894907309
0.321753541859534
0.319125340205867
0.323292155322683
0.333411100226316
0.347549680144344
0.361376543496307
0.371110549751416
0.380467759253388
0.400952207970181
0.450288646914418
4.41191565696349
1.38557468766732
0.790338445094589
0.566000010713227
0.455401602966207
0.393534625597248
0.356600890456064
0.334210650285669
0.321424870895036
0.315763135694056
0.315883570361593
0.320842176967487
3.72980706632655
3.05303312703156
3.9858017671708
3.03371779020565
1.13821446696424
4.20505698251919
2.99783450459337
0.926463030463964
0.967719499240378
4.33872403581603
2.98084623152946
0.886702279692798
0.625319793612317
0.985477939024545
4.40704449504757
2.98079964889272
0.88425617927691
0.547047637816431
0.576983396180148
1.03113951854098
4.4353653944105
2.98127239084857
0.902762141540994
0.530805027731537
0.467696754598206
0.583096562385875
1.07967850823978
4.4398049416014
2.97658412991545
0.931727579606179
0.538560502392763
0.433400153301466
0.451505649565428
0.603191382249571
1.12452697821824
4.4331268676292
2.97712680683831
0.965809935323997
0.556606319655767
0.427547832320167
0.402392559707591
0.454874358188892
0.626477844295935
1.16435006679512
4.42457271021127
3.01909300005156
1.00967715386201
0.578986698309493
0.433782820775465
0.385307895953555
0.394383775044005
0.46513246551525
0.649670104785355
1.19977454057828
4.41825941046303
3.2535983286712
1.07637718317147
0.604025214915068
0.445069655216059
0.382317597197776
0.368611350757664
0.395790496055063
0.477873880219964
0.671774311565857
1.23164392044127
4.41468508493501
4.41297828644528
1.26036347263101
0.692458817316051
0.491324265141785
0.401449243812785
0.363268562226048
0.358605900000608
0.385563450293332
0.457900856390647
0.632031152546773
1.18679465153892
4.94475963855479
4.4122706148914
1.28612842317264
0.711554958859423
0.504645886302606
0.409067505702479
0.36357126294224
0.347873859787602
0.356021830113986
0.390980686178504
0.469708221854721
0.660027623784032
1.32708000071759
3.20514503594968
4.41201799720138
1.30906653986775
0.728977201121052
0.517384903962522
0.417477646806161
0.366837044301995
0.343944776011313
0.340935522969617
0.356607564354991
0.395771407720045
0.475963205569215
0.656951624416173
0.714008781104807
0.86900612667882
4.41191902232994
1.32926737578406
0.744679662437503
0.529278662862143
0.426019863933362
0.371636618043599
0.343806947360347
0.33363432784337
0.338085878785373
0.357713683018595
0.396974371483033
0.466167895310504
0.525966964284998
0.503909225378761
0.555972166865622
4.41188085684322
1.34686382913978
0.758641253624968
0.540165139703435
0.434295463473859
0.377137283378459
0.345813202420127
0.330807746208319
0.328179720085904
0.336793753728359
0.357292248882459
0.391037672297885
0.428150870153327
0.441946192730854
0.435172187770181
0.478086426410834
4.41187795539698
1.36200025470764
0.77089308277135
0.549955511712537
0.442053434530218
0.382822629694022
0.348984219567654
0.330620354097079
0.323288459055123
0.325098280449938
0.335420173638704
0.353800699730677
0.376505561225799
0.393554512883542
0.39952649054278
0.409872454418744
0.457220278729717
4.4118952858957
1.37484106501122
0.781469591491479
0.558592164679085
0.449130464076856
0.388359527650622
0.35270367303886
0.331968849287499
0.321410952851486
0.318761123767614
0.32290031983641
0.332984190386918
0.347071696848244
0.360847994765957
0.370403267021059
0.379427522684945
0.399521490820191
0.448437423800608
4.41191028755742
1.38563652679523
0.790419602225138
0.566046385991031
0.455418813535763
0.393524623779872
0.35656568884649
0.334152010693303
0.321344025437873
0.315661804915985
0.315768894091971
0.320737237481795
0.329335434268043
0.339317692094413
0.348371891300547
0.3568955668967
0.370030665307399
0.395242866102334
0.443286755241925
1.3943285434905
0.797845215808516
0.572331002039239
0.460858678431504
0.398171174596024
0.360297559474673
0.33670547779909
0.322321681799542
0.314535645803722
0.311893329474187
0.313430149128651
3.73222390316149
3.05702376403129
3.98802086140757
3.03739650218479
1.12994867654244
4.20832058114266
3.00059479822098
0.912645692818371
0.955244977296479
4.34115802681052
2.9830000182944
0.871125575236012
0.612487480828872
0.973764235353317
4.40834345907444
2.98228923855998
0.868790594726282
0.535571464620921
0.566800789023063
1.02032275915181
4.43591004973567
2.9812211633034
0.887120001322667
0.520449523635616
0.459267470106429
0.574615000914849
1.06952412649643
4.43999119860972
2.97371997420901
0.915106648536212
0.528876573319535
0.426128910168568
0.444837642686473
0.595789141918615
1.11506760577928
4.43317923465626
2.97269085907046
0.948159135288935
0.547429636458985
0.421086180096034
0.396855192761079
0.449309686576675
0.619888894832536
1.15564445227029
4.42458602420099
3.02013570071262
0.995518842650138
0.570865523766989
0.428069365243266
0.380576743788899
0.389930113581981
0.460357061272566
0.643787090412531
1.19186733375378
4.41827085300465
3.26799751162666
1.06881902057854
0.597528202927988
0.440210188081306
0.378279853197758
0.364929148139102
0.392091965416795
0.473728824284947
0.666540480498825
1.22455513055076
4.41467513577452
4.96589621338643
1.18551608498324
0.627771043788426
0.454021659618361
0.382195684112914
0.355543003561493
0.3602972982625
0.398329329715817
0.487724089010669
0.687851136653121
1.2541217768907
4.41297355357068
4.41226721043568
1.28071607763658
0.707558666238744
0.50154446063353
0.406428432229914
0.36113113617001
0.345457338634615
0.353497198847309
0.388252908074678
0.466808221935331
0.657832364061066
1.32804478285847
3.22819544540167
4.41201010782603
1.30446348527756
0.725573705889924
0.514754393422017
0.415264368403979
0.364829566451137
0.342008168506052
0.338974050757249
0.354552360490117
0.393600108867391
0.473866534477271
0.655925026303827
0.713652974056457
0.866041000687724
4.41193244564022
1.3254678965405
0.741859433897702
0.527101472248437
0.424200502493679
0.370006843170875
0.342261684187547
0.332101550173229
0.336512921710256
0.356066583192391
0.395266676681041
0.464587303871496
0.524749519354849
0.501214609609508
0.550393845090465
4.41188593691433
1.3438591611737
0.756399479736015
0.538433009770468
0.432852060176058
0.375853289804335
0.344608773259856
0.329628954156599
0.326987342420703
0.335558671332101
0.355997988669575
0.38970150776712
0.42682475442075
0.440276288344147
0.432129833855226
0.472991712139118
4.41188734811947
1.35979046045263
0.769224812677684
0.548663284000685
0.440976505909604
0.381866497577098
0.348091352272941
0.329752008741432
0.322416838651518
0.324202147396489
0.334483465848185
0.352815208794175
0.375469372159415
0.392377984417599
0.397895242029573
0.407463881711278
0.453834498130382
4.41188423709314
1.37340626119932
0.780382963905694
0.557744422537744
0.448418671137794
0.387722897239031