/*--------------------------------*- C++ -*----------------------------------*\
  =========                 |
  \\      /  F ield         | OpenFOAM: The Open Source CFD Toolbox
   \\    /   O peration     | Website:  https://openfoam.org
    \\  /    A nd           | Version:  12
     \\/     M anipulation  |
\*---------------------------------------------------------------------------*/
/*   Windows 32 and 64 bit porting by blueCAPE: http://www.bluecape.com.pt   *\
|  Based on Windows porting (2.0.x v4) by Symscape: http://www.symscape.com   |
\*---------------------------------------------------------------------------*/
FoamFile
{
    format      ascii;
    class       volScalarField;
    location    "200";
    object      p;
}
// * * * * * * * * * * * * * * * * * * * * * * * * * * * * * * * * * * * * * //

dimensions      [0 2 -2 0 0 0 0];

internalField   nonuniform List<scalar> 
10103
(
83333.3320773822
83333.3320493497
83333.3320654076
83333.3320824092
83333.3320192695
83333.3320371433
83333.332054476
83333.3320425604
83333.3320701596
83333.3320960489
83333.3319871437
83333.3320070009
83333.3320245302
83333.3320140481
83333.3320420727
83333.3320685156
83333.3320087674
83333.3320477367
83333.3320836602
83333.3321215841
83333.3319526883
83333.3319748779
83333.3319925416
83333.3319837937
83333.3320120863
83333.3320389384
83333.3319800216
83333.3320195236
83333.3320559806
83333.3320945847
83333.3319635191
83333.3320140992
83333.3320609961
83333.3321106491
83333.332162017
83333.3319157533
83333.3319404545
83333.3319581961
83333.3319515686
83333.3319800841
83333.3320072354
83333.3319495902
83333.3319894605
83333.3320262604
83333.3320654543
83333.3319345179
83333.3319856947
83333.3320331395
83333.3320835277
83333.3321357563
83333.3319079405
83333.3319680557
83333.3320264932
83333.3320892161
83333.332153718
83333.3322183203
83333.3318762536
83333.3319036109
83333.3319213254
83333.3319170921
83333.3319457442
83333.3319731125
83333.3319172075
83333.3319573274
83333.3319944265
83333.3320341182
83333.331903824
83333.3319554218
83333.3320032587
83333.3320542892
83333.332107333
83333.331878685
83333.3319393645
83333.3319984066
83333.3320618984
83333.3321273958
83333.3321931272
83333.3318435553
83333.3319114813
83333.3319789553
83333.3320543361
83333.3321346889
83333.3322128697
83333.3322904076
83333.3318341426
83333.3318642696
83333.3318818582
83333.3318802746
83333.3319089518
83333.3319364105
83333.3318826534
83333.3319229068
83333.3319602302
83333.3320003182
83333.3318712392
83333.3319230896
83333.3319712221
83333.3320228299
83333.3320766632
83333.3318477489
83333.3319087967
83333.3319682832
83333.3320324528
83333.3320988965
83333.3321657779
83333.3318140948
83333.3318825044
83333.3319505714
83333.3320267679
83333.3321081637
83333.3321876358
83333.332266681
83333.3317719485
83333.3318463937
83333.3319208933
83333.3320050977
83333.3321000973
83333.3321961459
83333.3322872849
83333.3323775615
83333.3317894393
83333.331822398
83333.3318397604
83333.3318410606
83333.3318696422
83333.3318970486
83333.3318458588
83333.3318861217
83333.3319235519
83333.3319638876
83333.3318365919
83333.3318885686
83333.3319368851
83333.3319889494
83333.3320434735
83333.3318150092
83333.3318762521
83333.3319360221
83333.3320007642
83333.3320680917
83333.3321361478
83333.3317829918
83333.3318516867
83333.3319201635
83333.3319970493
83333.3320794277
83333.3321602009
83333.3322407998
83333.3317423451
83333.3318171644
83333.3318922127
83333.3319772143
83333.3320732789
83333.3321707024
83333.3322634794
83333.3323556606
83333.3316943629
83333.3317743102
83333.3318545316
83333.3319446348
83333.3320490951
83333.3321618833
83333.3322723725
83333.3323760772
83333.3324785456
83333.3317422623
83333.3317780235
83333.3317950483
83333.3317994331
83333.3318277847
83333.3318549749
83333.3318067869
83333.3318469115
83333.3318843059
83333.3319247048
83333.3317998329
83333.3318517933
83333.3319001451
83333.3319525135
83333.3320075701
83333.3317803261
83333.331841636
83333.3319015618
83333.3319667054
83333.3320347899
83333.3321039229
83333.331750174
83333.3318189857
83333.3318877018
83333.3319651104
83333.3320483641
83333.3321304061
83333.3322125775
83333.331711158
83333.3317861649
83333.3318615563
83333.3319471864
83333.3320442285
83333.3321430089
83333.3322374934
83333.3323316182
83333.3316646655
83333.3317449007
83333.3318255804
83333.3319164199
83333.3320219175
83333.3321360948
83333.3322483309
83333.3323540655
83333.332458841
83333.3316117251
83333.3316963515
83333.331781331
83333.3318756381
83333.3319853531
83333.332108932
83333.3322375705
83333.3323620715
83333.3324790913
83333.3325927057
83333.3316928351
83333.3317478316
83333.3317312529
83333.3317554341
83333.3317834008
83333.3318101766
83333.3317654438
83333.3318052551
83333.3318424391
83333.3318826691
83333.3317609467
83333.331812714
83333.3318609184
83333.3319133994
83333.3319687671
83333.3317436762
83333.3318049001
83333.3318648122
83333.3319301493
83333.3319988222
83333.3320688533
83333.3317155417
83333.3317843393
83333.3318531547
83333.3319308874
83333.3320148479
83333.3320980295
83333.3321816914
83333.3316783338
83333.3317533845
83333.3318289445
83333.3319150194
83333.3320128859
83333.3321129213
83333.3322091081
83333.3323051979
83333.3316334606
83333.3317137957
83333.3317947335
83333.3318861064
83333.3319925129
83333.3321080326
83333.3322220496
83333.3323299148
83333.332437013
83333.3315819795
83333.3316668174
83333.3317521718
83333.3318471162
83333.3319577878
83333.3320827132
83333.3322131065
83333.3323397667
83333.3324592726
83333.3325756386
83333.3315247709
83333.3316133626
83333.3317023542
83333.3317998193
83333.3319123149
83333.3320413096
83333.3321817413
83333.3323251262
83333.3324637512
83333.3325963485
83333.3327219454
83333.3316415186
83333.3316983221
83333.3316823029
83333.3317627181
83333.3317365905
83333.3317091862
83333.3317218947
83333.3317611838
83333.3317979483
83333.3318377147
83333.3317199613
83333.3317713289
83333.3318191683
83333.331871511
83333.3319268775
83333.3317050657
83333.3317660172
83333.3318257036
83333.3318909856
83333.3319600063
83333.3320306759
83333.3316790897
83333.3317477232
83333.3318164554
83333.3318942768
83333.3319787229
83333.3320628485
83333.3321478292
83333.3316438195
83333.3317187883
83333.3317943762
83333.3318806875
83333.3319791683
83333.3320802839
83333.3321780647
83333.3322760663
83333.3316007114
83333.331681011
83333.3317620412
83333.3318537542
83333.331960889
83333.3320776125
83333.3321933403
83333.332303339
83333.332412812
83333.3315508067
83333.3316356751
83333.3317212028
83333.3318165725
83333.3319280384
83333.3320542214
83333.3321863681
83333.332315262
83333.3324373652
83333.3325564503
83333.3314950174
83333.3315837566
83333.3316730488
83333.3317710445
83333.3318843777
83333.3320146126
83333.3321567383
83333.3323022835
83333.3324435513
83333.3325791831
83333.3327075726
83333.3314341243
83333.3315260834
83333.331618463
83333.3317183743
83333.3318322577
83333.3319632422
83333.3321093449
83333.3322647033
83333.3324223984
83333.3325762407
83333.3327300222
83333.3328740105
83333.3315888195
83333.3316468734
83333.331631517
83333.3317127998
83333.3316875546
83333.3316609145
83333.3317898587
83333.3317509069
83333.3317148083
83333.3316762787
83333.331676962
83333.3317276916
83333.3317749138
83333.3318267971
83333.3318817535
83333.331664542
83333.3317250078
83333.3317842241
83333.3318491445
83333.3319181712
83333.3319891047
83333.3316408459
83333.331709133
83333.3317775609
83333.3318551917
83333.3319398197
83333.3320246053
83333.3321106335
83333.3316076377
83333.3316823753
83333.3317578105
83333.3318441107
83333.3319429412
83333.332044895
83333.3321440755
83333.3322438635
83333.3315663894
83333.3316465379
83333.3317275192
83333.3318193727
83333.3319270023
83333.3320447151
83333.332161993
83333.3322740583
83333.3323858934
83333.3315181883
83333.3316029545
83333.3316884993
83333.3317841024
83333.3318961656
83333.3320234351
83333.3321572329
83333.3322883242
83333.3324130227
83333.332534932
83333.3314639205
83333.3315526336
83333.3316420246
83333.3317403381
83333.3318543299
83333.3319856799
83333.3321294494
83333.3322771937
83333.3324212196
83333.3325599472
83333.3326913648
83333.3314043963
83333.3314964536
83333.3315890668
83333.3316894075
83333.3318039982
83333.3319360728
83333.3320837339
83333.3322411624
83333.3324014781
83333.332558504
83333.3327161335
83333.3328637034
83333.331340315
83333.3314351465
83333.3315303802
83333.3316322303
83333.3317467133
83333.3318777198
83333.3320253446
83333.3321861453
83333.3323548903
83333.3325262766
83333.3326982141
83333.3328860243
83333.3315353649
83333.3315939727
83333.3315793748
83333.3316607797
83333.3316366334
83333.3316109688
83333.3317392591
83333.3317014978
83333.3316663524
83333.331628823
83333.3318333207
83333.331779279
83333.3317282519
83333.3316819331
83333.3316321028
83333.3316222066
83333.3316819495
83333.331740416
83333.3318046009
83333.3318731797
83333.3319438612
83333.3316008753
83333.33166861
83333.3317364793
83333.3318135862
83333.3318979915
83333.3319830273
83333.3320697042
83333.3315698304
83333.3316441629
83333.3317192278
83333.3318052275
83333.3319040643
83333.33200651
83333.3321067928
83333.3322081433
83333.3315305378
83333.3316103954
83333.3316911555
83333.3317829132
83333.3318907459
83333.3320091597
83333.3321277444
83333.3322417356
83333.3323558668
83333.3314841213
83333.3315686695
83333.331654094
83333.3317497404
83333.3318621635
83333.3319902748
83333.3321255287
83333.3322587068
83333.3323859693
83333.3325107557
83333.3314314764
83333.3315200379
83333.3316093767
83333.3317078219
83333.3318222692
83333.3319545389
83333.3320998104
83333.3322496985
83333.3323964629
83333.3325383197
83333.3326729276
83333.3313734094
83333.3314653974
83333.3315580462
83333.3316586054
83333.3317737166
83333.3319067319
83333.3320558609
83333.3322153512
83333.3323783597
83333.3325387092
83333.3326999683
83333.3328513518
83333.3313106445
83333.3314055268
83333.331500944
83333.3316031342
83333.3317181954
83333.3318501255
83333.3319991236
83333.3321618221
83333.3323330407
83333.3325075323
83333.3326832086
83333.3328754422
83333.3330716751
83333.3312438244
83333.3313410964
83333.3314387213
83333.3315421393
83333.3316567855
83333.3317867625
83333.3319334381
83333.3320952061
83333.3322683399
83333.3324484993
83333.3326313334
83333.3328170851
83333.3314818937
83333.3315402515
83333.3315264711
83333.3316071346
83333.3315842959
83333.3315598095
83333.3316862524
83333.3316500503
83333.3316161596
83333.3315798593
83333.3317816325
83333.3317290952
83333.3316793883
83333.3316342818
83333.3315856139
83333.3318947143
83333.3318249557
83333.3317574049
83333.3316943949
83333.3316369874
83333.3315782212
83333.331559292
83333.3316262482
83333.3316932733
83333.331769461
83333.3318531268
83333.3319378446
83333.3320245871
83333.3315304791
83333.3316042092
83333.3316786557
83333.3317640154
83333.3318624206
83333.3319648832
83333.3320658249
83333.3321683776
83333.3314932233
83333.3315726224
83333.3316529577
83333.3317443382
83333.3318520103
83333.331970732
83333.3320902646
83333.3322059343
83333.3323222112
83333.3314486644
83333.3315328602
83333.3316180016
83333.3317134675
83333.3318259584
83333.3319545908
83333.3320910127
83333.3322260847
83333.3323558453
83333.3324834893
83333.3313977019
83333.3314860015
83333.3315751551
83333.3316735514
83333.3317882211
83333.3319211508
83333.3320676948
83333.3322195823
83333.332369023
83333.3325140511
83333.3326519867
83333.3313411709
83333.3314329694
83333.3315255092
83333.3316261121
83333.3317415405
83333.3318752877
83333.3320257082
83333.3321871603
83333.3323528527
83333.3325165358
83333.3326816163
83333.3328370451
83333.3312797909
83333.3313745731
83333.3314699731
83333.3315722998
83333.3316877497
83333.3318204426
83333.3319706906
83333.332135228
83333.3323089502
83333.3324866609
83333.3326662043
83333.3328629096
83333.3330635899
83333.3312142304
83333.3313115155
83333.3314092792
83333.3315129675
83333.3316280744
83333.3317588106
83333.3319066543
83333.3320700951
83333.3322454796
83333.3324285205
83333.3326149028
83333.3328049689
83333.3330026519
83333.333122614
83333.331145088
83333.331244406
83333.3313440462
83333.3314487226
83333.3315633022
83333.3316917532
83333.3318361465
83333.331996166
83333.3321693856
83333.3323521102
83333.3325401197
83333.3327276683
83333.3314291981
83333.3314864396
83333.3314735118
83333.3315525067
83333.3315311312
83333.3315079879
83333.3316312692
83333.3315970317
83333.3315646882
83333.331529819
83333.3317269688
83333.3316765503
83333.3316286552
83333.3315850621
83333.3315378167
83333.3318415403
83333.3317735409
83333.3317077109
83333.3316463726
83333.3315903476
83333.3315328188
83333.331974814
83333.3318888251
83333.3318051735
83333.3317228863
83333.331648079
83333.3315822035
83333.3315162673
83333.3314897126
83333.3315626242
83333.331636176
83333.3317204977
83333.3318179297
83333.3319197732
83333.3320207307
83333.3321239031
83333.3314545427
83333.3315332949
83333.3316129744
83333.3317036452
83333.3318107113
83333.3319292218
83333.332049187
83333.3321661283
83333.3322842785
83333.3314118943
83333.3314955838
83333.3315802517
83333.3316752734
83333.3317874732
83333.3319162075
83333.3320533844
83333.3321900416
83333.3323221554
83333.3324525675
83333.3313626696
83333.3314505804
83333.3315393959
83333.331637534
83333.3317521447
83333.3318854037
83333.3320328957
83333.3321865401
83333.3323385344
83333.3324867668
83333.3326281687
83333.3313077119
83333.3313992204
83333.3314915249
83333.331592
83333.3317075214
83333.331841738
83333.3319931923
83333.3321564179
83333.3323247162
83333.3324917432
83333.3326608118
83333.3328205777
83333.3312477783
83333.331342346
83333.3314375903
83333.3315398854
83333.3316555301
83333.3317887717
83333.3319400703
83333.332106303
83333.3322824809
83333.3324634575
83333.3326470015
83333.3328485412
83333.3330542655
83333.3311835228
83333.3312806867
83333.3313783954
83333.3314821509
83333.3315975339
83333.3317288626
83333.3318777292
83333.3320427429
83333.3322203496
83333.3324063338
83333.3325963857
83333.332790824
83333.3329941729
83333.3331174475
83333.3311155774
83333.3312148866
83333.3313146232
83333.3314195169
83333.3315344578
83333.331663517
83333.3318088762
83333.3319703217
83333.3321455161
83333.3323308335
83333.3325221143
83333.3327135942
83333.3328994223
83333.3330615785
83333.3331588181
83333.3310445169
83333.331145501
83333.3312468243
83333.3313525059
83333.3314668924
83333.331593648
83333.3317351495
83333.3318919294
83333.3320626413
83333.3322443243
83333.3324328983
83333.3326227013
83333.33137809
83333.3314333228
83333.3314212796
83333.3314976561
83333.3314778436
83333.3314561478
83333.3315749728
83333.3315430516
83333.3315124919
83333.3314792338
83333.3316697064
83333.3316220866
83333.3315765043
83333.3315347061
83333.3314891197
83333.3317845276
83333.3317191803
83333.3316558245
83333.3315966704
83333.3315423481
83333.331486313
83333.3319199713
83333.3318358363
83333.3317541924
83333.3316740337
83333.3316011129
83333.3315367043
83333.3314720347
83333.332073934
83333.3319710497
83333.3318709743
83333.3317705753
83333.3316747707
83333.3315919393
83333.331519574
83333.3314477047
83333.3314146281
83333.3314925382
83333.3315713059
83333.3316608808
83333.3317668048
83333.3318844296
83333.3320041045
83333.3321216802
83333.3322411935
83333.3313739163
83333.3314569317
83333.3315409114
83333.3316351806
83333.3317466554
83333.331874956
83333.3320123241
83333.3321500704
83333.3322842507
83333.3324172594
83333.3313264674
83333.3314138465
83333.3315021481
83333.3315997832
83333.3317139955
83333.3318471634
83333.3319951591
83333.3321501871
83333.3323045159
83333.3324559282
83333.3326008889
83333.3312731174
83333.3313642198
83333.3314561467
83333.3315562993
83333.3316716481
83333.3318060076
83333.3319581501
83333.3321228584
83333.3322935975
83333.3324639653
83333.3326371968
83333.3328016828
83333.331214651
83333.3313089088
83333.3314038832
83333.3315059855
83333.3316216117
83333.3317551424
83333.3319072201
83333.3320749194
83333.3322534259
83333.3324376716
83333.3326253393
83333.3328320458
83333.3330434183
83333.3311517451
83333.3312486778
83333.3313462054
83333.3314498637
83333.3315653354
83333.3316970475
83333.3318467237
83333.3320131317
83333.3321928595
83333.3323818035
83333.3325756646
83333.332774802
83333.3329841048
83333.3331109593
83333.331085016
83333.3311841975
83333.3312838558
83333.3313887597
83333.331503882
83333.3316333809
83333.331779548
83333.3319422904
83333.3321193826
83333.332307288
83333.3325018927
83333.3326974172
83333.3328882021
83333.3330551054
83333.3331549318
83333.3310150636
83333.3311160542
83333.3312174491
83333.3313233028
83333.3314379665
83333.3315651989
83333.3317074787
83333.3318654418
83333.332037837
83333.3322217825
83333.3324132831
83333.3326067131
83333.3327933299
83333.3329604737
83333.3331043802
83333.3331913351
83333.3309428117
83333.3310448018
83333.3311474606
83333.331253935
83333.3313680527
83333.3314931175
83333.3316315499
83333.3317844004
83333.3319511555
83333.3321296591
83333.3323162738
83333.3325057824
83333.3313293708
83333.3313817241
83333.3313705895
83333.3314433956
83333.331425214
83333.3314050117
83333.3315181854
83333.3314888343
83333.331460221
83333.3314287152
83333.3316105751
83333.3315663462
83333.331523512
83333.331483749
83333.33144002
83333.3317238821
83333.331662253
83333.3316021808
83333.3315457201
83333.331493399
83333.3314390964
83333.3318600475
83333.3317789929
83333.3317004332
83333.3316232056
83333.3315526925
83333.3314900617
83333.3314268944
83333.3320175981
83333.3319163678
83333.3318183848
83333.331720446
83333.3316270236
83333.331546168
83333.3314752869
83333.3314046831
83333.3321918021
83333.3320718414
83333.3319546
83333.3318361981
83333.3317203123
83333.3316161656
83333.3315281071
83333.3314505232
83333.3313736556
83333.3313348676
83333.3314170349
83333.3315000955
83333.3315932592
83333.3317034955
83333.3318306886
83333.3319674802
83333.3321055748
83333.3322412987
83333.3323765195
83333.3312892107
83333.3313759012
83333.3314634946
83333.3315603451
83333.3316737537
83333.3318063033
83333.3319542127
83333.3321100659
83333.3322663385
83333.3324207999
83333.332569391
83333.3312374864
83333.3313280507
83333.3314194399
83333.3315190446
83333.331633906
83333.331768003
83333.3319203783
83333.3320861462
83333.3322590435
83333.3324326568
83333.3326102387
83333.3327797341
83333.3311804994
83333.3312743429
83333.3313689178
83333.3314706478
83333.3315860086
83333.3317195124
83333.3318720201
83333.3320408582
83333.33222147
83333.3324089245
83333.3326008644
83333.3328130997
83333.3330306964
83333.3311189495
83333.3312155644
83333.3313128071
83333.331416219
83333.3315315786
83333.3316634217
83333.331813633
83333.3319811784
83333.3321628473
83333.3323547015
83333.3325524772
83333.3327565981
83333.332972327
83333.3331031656
83333.3310534743
83333.3311524192
83333.3312518724
83333.3313566411
83333.3314717619
83333.3316014984
83333.3317482558
83333.3319120931
83333.332090935
83333.3322813789
83333.3324793928
83333.3326791911
83333.3328751859
83333.3330470618
83333.3331498313
83333.3309846336
83333.331085509
83333.331186815
83333.3312926452
83333.3314074063
83333.3315349474
83333.3316778412
83333.3318368379
83333.3320108005
83333.3321969465
83333.3323913484
83333.3325884499
83333.3327794904
83333.3329511845
83333.3330990805
83333.3331883288
83333.3309132417
83333.3310154161
83333.3311181542
83333.3312247709
83333.3313390907
83333.3314645192
83333.331603564
83333.3317573729
83333.3319255284
83333.3321059594
83333.3322951234
83333.3324878647
83333.3326764898
83333.3328506497
83333.3330041299
83333.3331318939
83333.3332129334
83333.3308409205
83333.3309429384
83333.331046361
83333.3311534104
83333.3312671948
83333.3313906459
83333.3315260729
83333.331674797
83333.3318369013
83333.3320109858
83333.3321940872
83333.3323816146
83333.3312837775
83333.3313324452
83333.3313222365
83333.3313905563
83333.3313740544
83333.3313553352
83333.3314617852
83333.3314351786
83333.3314086115
83333.3313789462
83333.3315505063
83333.3315101137
83333.3314703597
83333.3314328085
83333.3313910851
83333.3316604831
83333.3316034753
83333.3315474
83333.3314940691
83333.3314440029
83333.3313916309
83333.331794848
83333.3317185334
83333.3316442891
83333.3315708264
83333.331503229
83333.3314426653
83333.3313812167
83333.3319544759
83333.3318565731
83333.3317621209
83333.3316677875
83333.3315775586
83333.3314991686
83333.331430061
83333.331360936
83333.332134658
83333.3320157812
83333.3319003086
83333.3317844667
83333.3316713503
83333.3315696995
83333.3314836031
83333.3314074746
83333.3313318508
83333.3323288722
83333.3321922402
83333.3320558674
83333.3319184923
83333.3317833061
83333.3316580501
83333.3315496417
83333.3314579681
83333.3313760655
83333.3312949292
83333.3312510426
83333.3313368793
83333.3314235587
83333.33151931
83333.331631442
83333.3317627275
83333.331909772
83333.3320656477
83333.3322232066
83333.3323804103
83333.3325326248
83333.3312009448
83333.3312908242
83333.3313815005
83333.3314803007
83333.3315943051
83333.3317276424
83333.3318796601
83333.3320458877
83333.3322204749
83333.3323970959
83333.3325791727
83333.3327540394
83333.3311454299
83333.331238743
83333.3313327729
83333.3314339258
83333.3315487324
83333.3316818277
83333.3318343166
83333.3320038401
83333.3321861997
83333.3323767008
83333.3325730142
83333.3327912557
83333.3330155522
83333.331085232
83333.3311814381
83333.3312782744
83333.331381279
83333.3314962998
83333.3316279749
83333.3317783768
83333.3319467111
83333.3321300411
83333.3323246707
83333.3325264509
83333.3327358355
83333.3329585951
83333.3330939221
83333.3310210078
83333.3311196339
83333.3312187866
83333.3313232868
83333.3314382156
83333.3315679527
83333.3317150274
83333.3318796865
83333.3320600537
83333.3322529205
83333.3324543872
83333.3326586704
83333.3328602084
83333.3330372977
83333.3331434066
83333.3309533232
83333.3310539634
83333.3311550532
83333.3312607207
83333.3313754124
83333.3315030671
83333.3316463594
83333.3318061752
83333.3319815232
83333.3321697618
83333.3323670721
83333.332567946
83333.3327635994
83333.3329401253
83333.333092445
83333.3331844071
83333.3308828833
83333.3309850014
83333.3310876582
83333.3311942329
83333.3313085885
83333.3314342152
83333.3315737068
83333.3317283119
83333.3318977235
83333.3320799725
83333.3322715976
83333.3324675464
83333.3326601277
83333.3328385464
83333.3329960375
83333.3331271777
83333.3332104403
83333.3308112071
83333.3309134821
83333.331017115
83333.3311243033
83333.3312382371
83333.3313619534
83333.3314978498
83333.3316473328
83333.3318105773
83333.3319862703
83333.3321715505
83333.3323618983
83333.3325508652
83333.3327301136
83333.3328928019
83333.3330338265
83333.3331485184
83333.3332248831
83333.3307383682
83333.3308407975
83333.3309440646
83333.3310513093
83333.3311646808
83333.3312866066
83333.3314192041
83333.3315638863
83333.3317211292
83333.3318901615
83333.3320687464
83333.3322530643
83333.3312419837
83333.331286245
83333.3312769599
83333.3313399871
83333.3313251611
83333.3313078711
83333.3314067063
83333.3313829224
83333.3313584365
83333.3313306372
83333.3314905389
83333.3314542738
83333.3314178106
83333.3313825732
83333.3313429457
83333.3315955005
83333.331543763
83333.3314922267
83333.3314423545
83333.3313947356
83333.3313444434
83333.3317255525
83333.3316552918
83333.3315864432
83333.3315174764
83333.3314532314
83333.3313949806
83333.3313354311
83333.331883633
83333.3317915442
83333.331702456
83333.3316129945
83333.3315267883
83333.331451332
83333.3313842655
83333.3313168128
83333.3320686809
83333.3319529802
83333.3318411107
83333.3317293691
83333.3316201716
83333.3315217719
83333.3314380877
83333.3313636785
83333.331289488
83333.3322722657
83333.3321357349
83333.3320001903
83333.331865068
83333.331732795
83333.3316104609
83333.3315045337
83333.3314147488
83333.3313342478
83333.331254327
83333.3324891923
83333.3323334219
83333.3321741251
83333.3320163247
83333.3318615646
83333.3317163932
83333.3315871435
83333.3314768212
83333.3313825049
83333.3312969539
83333.3312121351
83333.331163643
83333.3312526799
83333.3313424561
83333.3314401738
83333.3315528963
83333.3316848773
83333.3318357818
83333.3320016388
83333.3321771698
83333.3323563725
83333.3325430111
83333.3327233623
83333.3311095815
83333.3312022298
83333.3312955546
83333.3313959024
83333.3315098179
83333.3316420485
83333.3317939479
83333.3319635423
83333.3321471009
83333.3323403325
83333.3325409946
83333.3327657771
83333.3329972904
83333.331050707
83333.3311464002
83333.3312426999
83333.3313451143
83333.3314595321
83333.3315906866
83333.3317408482
83333.3319095075
83333.3320940847
83333.3322912375
83333.3324970194
83333.3327119934
83333.332942494
83333.3330828016
83333.3309877137
83333.3310859386
83333.3311846892
83333.3312887718
83333.3314033006
83333.3315327598
83333.3316798186
83333.3318449449
83333.3320265177
83333.3322215983
83333.332426498
83333.332635455
83333.3328429101
83333.333025628
83333.3331355471
83333.3309211894
83333.331021504
83333.3311222854
83333.33122767
83333.3313421179
83333.3314696646
83333.3316130917
83333.3317734477
83333.3319499271
83333.3321400819
83333.3323402573
83333.3325450148
83333.3327455016
83333.3329270698
83333.3330842528
83333.3331794052
83333.3308517825
83333.3309536811
83333.3310561228
83333.3311625152
83333.3312767549
83333.3314023953
83333.3315421249
83333.3316973073
83333.3318677704
83333.3320516827
83333.3322457043
83333.3324448646
83333.332641495
83333.3328244223
83333.332986334
83333.3331213273
83333.3332072174
83333.3307808914
83333.3308831464
83333.330986745
83333.3310938861
83333.3312078198
83333.3313316484
83333.3314678518
83333.3316179258
83333.3317821472
83333.3319593029
83333.3321466211
83333.3323397053
83333.3325321406
83333.332715258
83333.3328818179
83333.3330263865
83333.333144045
83333.333222414
83333.3307088053
83333.3308111576
83333.3309147833
83333.3310222496
83333.3311357498
83333.3312578666
83333.3313908116
83333.3315360806
83333.3316942332
83333.3318645828
83333.3320449985
83333.3322317429
83333.3324194436
83333.3326013588
83333.3327709458
83333.3329227783
83333.3330532004
83333.3331586268
83333.3332319982
83333.3307382161
83333.3308415261
83333.330948136
83333.3310608537
83333.331181311
83333.3313112843
83333.3314521528
83333.331604616
83333.331768378
83333.3319418651
83333.3321220446
83333.3312045848
83333.3312438458
83333.3312354415
83333.3312925178
83333.3312792997
83333.3312633585
83333.3313539081
83333.3313329024
83333.3313104639
83333.3312844799
83333.3314318425
83333.3313997651
83333.3313666656
83333.3313337646
83333.3312962593
83333.331530287
83333.3314841976
83333.3314375055
83333.3313912896
83333.3313462284
83333.3312981063
83333.3316537158
83333.3315904311
83333.3315277636
83333.3314638491
83333.3314032928
83333.3313475317
83333.3312900248
83333.3318067511
83333.3317223355
83333.331640173
83333.3315566993
83333.3314752431
83333.331403133
83333.3313383296
83333.331272714
83333.3319914469
83333.331882559
83333.3317769911
83333.3316712181
83333.3315671679
83333.3314727761
83333.3313919286
83333.3313194789
83333.3312468943
83333.3322047857
83333.3320705958
83333.3319380325
83333.3318071402
83333.3316793142
83333.3315609808
83333.3314582166
83333.3313707212
83333.3312918568
83333.3312133202
83333.3324365425
83333.3322780297
83333.3321178595
83333.3319614682
83333.3318093831
83333.3316673418
83333.3315410179
83333.3314330845
83333.3313405531
83333.331256345
83333.3311727046
83333.3326862797
83333.3325003441
83333.3323092273
83333.3321282411
83333.3319529087
83333.3317885627
83333.3316397119
83333.331509784
83333.3313988147
83333.3313024709
83333.3312137874
83333.3311257447
83333.331073119
83333.3311649484
83333.3312573969
83333.3313566922
83333.3314693389
83333.3316001676
83333.3317507719
83333.3319196135
83333.3321035622
83333.3322989591
83333.3325038915
83333.3327356198
83333.332974498
83333.3310155273
83333.3311105813
83333.3312061973
83333.3313078206
83333.3314213325
83333.3315515497
83333.3317009412
83333.3318693184
83333.3320545477
83333.332253793
83333.3324634311
83333.3326843376
83333.332923372
83333.3330691698
83333.3309537034
83333.3310514415
83333.3311496801
83333.3312531779
83333.3313670699
83333.3314959266
83333.331642565
83333.331807702
83333.3319900347
83333.3321869893
83333.3323951913
83333.3326089856
83333.332822815
83333.3330116956
83333.3331259131
83333.3308883225
83333.3309882284
83333.3310886132
83333.3311935847
83333.3313075965
83333.3314347793
83333.3315780262
83333.3317385721
83333.3319158399
83333.3321076394
83333.3323105535
83333.3325192677
83333.3327248129
83333.3329117372
83333.333074263
83333.3331731727
83333.3308199812
83333.3309215449
83333.3310236759
83333.3311297695
83333.3312437373
83333.3313691849
83333.3315089032
83333.3316643877
83333.3318356317
83333.3320209874
83333.3322172855
83333.3324196682
83333.3326204509
83333.3328080552
83333.3329747164
83333.3331140208
83333.3332028915
83333.330749988
83333.3308520307
83333.3309554266
83333.3310623763
83333.3311761627
83333.3312999329
83333.3314362452
83333.3315866936
83333.3317516752
83333.3319301057
83333.3321193378
83333.332315081
83333.3325109873
83333.3326981633
83333.3328689411
83333.3330174909
83333.3331385554
83333.3332193435
83333.330678673
83333.3307808609
83333.3308844982
83333.3309919466
83333.331105427
83333.3312275971
83333.331360737
83333.331506426
83333.3316653147
83333.3318368107
83333.3320188747
83333.3322079072
83333.3323985915
83333.332583934
83333.3327571069
83333.3329124569
83333.3330461176
83333.3331542608
83333.3332295628
83333.3307087076
83333.33081204
83333.3309190361
83333.3310319486
83333.3311525556
83333.3312827799
83333.331424089
83333.3315772626
83333.3317420845
83333.3319170862
83333.3320993241
83333.3322844034
83333.3324668564
83333.3326408231
83333.3328008498
83333.3329432191
83333.3330653942
83333.3331643645
83333.33323587
83333.3307387673
83333.3308447492
83333.3309561809
83333.3310750639
83333.3312025794
83333.3313399087
83333.3314878327
83333.3316463805
83333.3318145211
83333.3319899396