/*--------------------------------*- C++ -*----------------------------------*\
  =========                 |
  \\      /  F ield         | OpenFOAM: The Open Source CFD Toolbox
   \\    /   O peration     | Website:  https://openfoam.org
    \\  /    A nd           | Version:  12
     \\/     M anipulation  |
\*---------------------------------------------------------------------------*/
/*   Windows 32 and 64 bit porting by blueCAPE: http://www.bluecape.com.pt   *\
|  Based on Windows porting (2.0.x v4) by Symscape: http://www.symscape.com   |
\*---------------------------------------------------------------------------*/
FoamFile
{
    format      ascii;
    class       volVectorField;
    location    "200";
    object      U;
}
// * * * * * * * * * * * * * * * * * * * * * * * * * * * * * * * * * * * * * //

dimensions      [0 1 -1 0 0 0 0];

internalField   nonuniform List<vector> 
10103
(
(-0.000533462135090835 -0.000584275712660329 -0.00143714063797024)
(-0.000531474786284448 -0.000573275795069442 -0.0016821377901512)
(-0.000571909066488543 -0.00133202136377888 -0.00105841986264537)
(-0.000946875003002105 -0.000399117237401063 -0.00163516465931181)
(-0.000503003422777076 -0.000555987670121078 -0.00192309556813573)
(-0.000558090229246896 -0.00134331926825759 -0.00126394364364548)
(-0.000938484879761189 -0.000403027511201432 -0.0018457434262071)
(-0.000420140744355237 -0.00191476026239257 -0.000717978821535416)
(-0.00104304602247989 -0.00083189320634794 -0.000890476330583978)
(-0.00120533445482346 -0.000180769109104129 -0.00142246122618563)
(-0.000475819359868663 -0.000548455644641085 -0.00212250980891716)
(-0.000522822333199668 -0.00131519285639163 -0.00147017044867333)
(-0.00087908183400298 -0.000382054754401247 -0.00205912001181069)
(-0.000391122718737754 -0.00195249088861418 -0.000883589352018818)
(-0.00100439225929315 -0.000857484801773876 -0.00103849700060971)
(-0.00118788588177649 -0.000177960543887433 -0.00156815843577275)
(-0.000227129573485696 -0.00219215099420523 -0.000539993997459983)
(-0.000774669125554066 -0.00102895194307511 -0.000405699836826378)
(-0.0011995373127117 -0.000392246327510788 -0.000656131811557431)
(-0.00140242453697296 -7.43895744412597e-05 -0.00111476293432991)
(-0.000455198672645201 -0.000547418712530459 -0.00228731590314258)
(-0.00049772318305477 -0.00129947607626255 -0.00164862386756539)
(-0.000841663690650207 -0.000370322220188833 -0.00223806998778056)
(-0.000360019293308228 -0.00192290277847853 -0.00105515602188925)
(-0.000940658450877896 -0.000834668808990454 -0.00119829817570381)
(-0.001115144359323 -0.000158667145976386 -0.00173344226525055)
(-0.000202225181205149 -0.00223660294105725 -0.000686998636344118)
(-0.000753762299368774 -0.00105814564769594 -0.000527888033007668)
(-0.00117946004737114 -0.000411906085417413 -0.000771129269137136)
(-0.0013872584627658 -7.55925776186752e-05 -0.00122266554933097)
(-9.81859643696259e-05 -0.00217415619314929 -0.000409640103325135)
(-0.00048532731249744 -0.00103604608718961 -0.000214766769298422)
(-0.000894716823871322 -0.00046674352985105 -0.000268045407750186)
(-0.00123946375127899 -0.000158627419115363 -0.000417260402627026)
(-0.00159067215686318 -7.00742188384305e-05 -0.000854727586555308)
(-0.000432557259632611 -0.000551194533766433 -0.00242478283578034)
(-0.000482289957612687 -0.0012916141698434 -0.00180458961773996)
(-0.000820096113752959 -0.000368637124541255 -0.00238489695342933)
(-0.000346862176734777 -0.00189574545466731 -0.0012045054902361)
(-0.000914139186327054 -0.000818614335521727 -0.00134451595134351)
(-0.00107598655677182 -0.000147357116891191 -0.00188348318836811)
(-0.000182664790007514 -0.00221244680836842 -0.000839918454827112)
(-0.000726538874920596 -0.00103550243557045 -0.000654619020081814)
(-0.00113136289441115 -0.000401786897770194 -0.000905669360329169)
(-0.00131871081386428 -6.55016318343368e-05 -0.00136662163249853)
(-8.1815871527173e-05 -0.0022219192295482 -0.000531647265924188)
(-0.00047702679402157 -0.00106770813173698 -0.000315973665236583)
(-0.00089387784986747 -0.000491452795270924 -0.000369407074005906)
(-0.00124356213850928 -0.000178307906625584 -0.000518198869971731)
(-0.00158729441825946 -7.66354126045168e-05 -0.000952976909531606)
(-2.31503088571013e-05 -0.00206497085402469 -0.000302076885212876)
(-0.000276635611757041 -0.000970728826469442 -0.0001200077249574)
(-0.000573622809938871 -0.000452334344454553 -9.45793122187179e-05)
(-0.000863669814403771 -0.000133723302940553 -0.000112361214921569)
(-0.00125780023922879 -5.78360173404369e-05 -0.000256358372420128)
(-0.00174204443571927 -6.55060322167329e-05 -0.000690879012190475)
(-0.000405239281694057 -0.00055852592161786 -0.00253193263923988)
(-0.000467036275642009 -0.00128745933018465 -0.00195067637203628)
(-0.000793361004590022 -0.000377278916107577 -0.0025072328214354)
(-0.000338966217326133 -0.00187726018263547 -0.00134061666469152)
(-0.000898970390819454 -0.000812677089396597 -0.00147063456497058)
(-0.00104862421652571 -0.000147477464060858 -0.00201219627032818)
(-0.000175734466056134 -0.00218986476441713 -0.000970447921952989)
(-0.000710744122081451 -0.00101811299930254 -0.000768976798737448)
(-0.00110456111535772 -0.000393580257201864 -0.00103279530961367)
(-0.00128101651590926 -6.10547035726463e-05 -0.00151060492079909)
(-6.98567361696371e-05 -0.00220820402071452 -0.000659566814966533)
(-0.000465039090556764 -0.00105377565623985 -0.000421282785941633)
(-0.000875971195282485 -0.000490189132102985 -0.000472295570540978)
(-0.00121257618127986 -0.000180343196960508 -0.000630493046499216)
(-0.00153444170315255 -7.78072249695682e-05 -0.00109075934413281)
(-1.33438191410601e-05 -0.00211568384345182 -0.00040175468077347)
(-0.000273011430523346 -0.00100333892589999 -0.000206684148018801)
(-0.000579987942672398 -0.000482583939772041 -0.000179668917833989)
(-0.000879442935155489 -0.000159646372374472 -0.000198275707009498)
(-0.00127689735156825 -7.79333280679498e-05 -0.000347831952774619)
(-0.00175504107179104 -7.76400376559109e-05 -0.000789477183009514)
(1.67255183064753e-05 -0.00191127134302008 -0.000214435258858979)
(-0.000135591040459048 -0.000909204521802832 -6.01098941126996e-05)
(-0.000322700658717308 -0.000387876327816658 -3.73420266911329e-06)
(-0.000525715546435192 -7.05638497925745e-05 3.14509648828472e-05)
(-0.000811035586936183 4.58069455518314e-05 -1.56910203874943e-05)
(-0.00126077507788491 8.88369254688632e-06 -0.000166715337748713)
(-0.00185382915548243 -2.55677501934952e-05 -0.000571287507909078)
(-0.000373944505995352 -0.000566707134674996 -0.00260533389316566)
(-0.000449841114493885 -0.00128480635174427 -0.00208504142235046)
(-0.000759087604052707 -0.00039380962181468 -0.00260436272169633)
(-0.000331786534397323 -0.00186222112345635 -0.00147376911252025)
(-0.000883115839705266 -0.000814933745198831 -0.00158863608591037)
(-0.00101661138014743 -0.000159284310874983 -0.0021250258988747)
(-0.000172660844317686 -0.00217642666803907 -0.00108908054030127)
(-0.000704104065311122 -0.00101085364640707 -0.000872349296619486)
(-0.00108698976093207 -0.000395094346008552 -0.00114682886686257)
(-0.00125499980234889 -6.53217309682716e-05 -0.00164249501737012)
(-6.79494619670628e-05 -0.00219568433021671 -0.00077072733451234)
(-0.000456647660010428 -0.00104057448719976 -0.000514699433359312)
(-0.000861812513016721 -0.000489932264892258 -0.000568860915105693)
(-0.00118651005385879 -0.000182480150883422 -0.000740193485446473)
(-0.001505895125207 -8.08831701942693e-05 -0.00123437595074299)
(-8.49489899383709e-06 -0.0021079741427546 -0.00050324614013459)
(-0.0002660745948372 -0.000997071388572579 -0.000294419831970368)
(-0.000575551963374499 -0.000487911703116596 -0.000263559858988186)
(-0.000870899393353801 -0.000169442894632103 -0.000283930256467416)
(-0.00125801326115991 -8.74093645981883e-05 -0.00044595725434922)
(-0.00171757412961819 -8.50347346768166e-05 -0.000922390155107834)
(2.52407412632806e-05 -0.00196077452900654 -0.000296143139730711)
(-0.000134206597224477 -0.000943658447372262 -0.00013432998515969)
(-0.00032960054246746 -0.000418794812765646 -7.60068095057826e-05)
(-0.000540771239035252 -9.86243443262158e-05 -3.94362970551449e-05)
(-0.000836118361399638 2.12906998112224e-05 -9.17835069950658e-05)
(-0.00129109472819663 -1.21972129772945e-05 -0.000251942712685839)
(-0.0018871515412466 -4.34774477579863e-05 -0.000670797915161288)
(3.50559682432837e-05 -0.00173546821195882 -0.000145010133599343)
(-4.25465486870466e-05 -0.000849437129896951 -1.670163849947e-05)
(-0.000152060732932685 -0.000319895476874405 5.15879297101489e-05)
(-0.000282233873641166 1.16743480532723e-05 0.000101136098213435)
(-0.000462285712811645 0.000148924704798672 9.81384196859737e-05)
(-0.000744131088502034 0.000166180705136248 3.52473214465474e-05)
(-0.00122154492521647 6.65246474696578e-05 -0.000112374822578797)
(-0.00192914510720218 1.90288407914301e-05 -0.000478531483050735)
(-0.000338668982867496 -0.000573808337828953 -0.00263887495487405)
(-0.000429729898875534 -0.00128194127015278 -0.00220251068859219)
(-0.000715382558736037 -0.000415001799895556 -0.00267493736776469)
(-0.000324352487787864 -0.00184789682405006 -0.00160353547662987)
(-0.00086406812339726 -0.000823407803459472 -0.00169843680457605)
(-0.000975669800737326 -0.000179928288804322 -0.00222260667006224)
(-0.000170187742073686 -0.0021669315128487 -0.00120527786970719)
(-0.000699074718205616 -0.00100991462346271 -0.000971748979454831)
(-0.00107097580546114 -0.000405641055421556 -0.00125524253274697)
(-0.00122063511851768 -7.89601250905119e-05 -0.0017654849267479)
(-6.89852871544233e-05 -0.00219115828527433 -0.000872111489315415)
(-0.000454818334895886 -0.00103656206417786 -0.00060085853546281)
(-0.000852549363435837 -0.000494603356386307 -0.000659927118475022)
(-0.00116545055013652 -0.000191454636528999 -0.000844199895010376)
(-0.00147936402391065 -8.86705444597333e-05 -0.00137071254469681)
(-7.48457384740022e-06 -0.00210361223747934 -0.000595840892423162)
(-0.000261618767566827 -0.000989109467001252 -0.000373000763891867)
(-0.00057009912957792 -0.000489064561570985 -0.000341350671921589)
(-0.00085782250432203 -0.000177062082548902 -0.000365409067624211)
(-0.00123482228755191 -9.79301518182992e-05 -0.000543643223911432)
(-0.0016949720100011 -9.25974383370827e-05 -0.0010620458075967)
(2.7691210445464e-05 -0.00195726317750219 -0.000379430864659829)
(-0.000130516522118912 -0.000943602748537022 -0.000207703453578932)
(-0.0003296171943881 -0.000427918236288578 -0.000145722926230005)
(-0.000541153865615787 -0.00011231379441632 -0.000107628896363826)
(-0.000834969538379787 6.31719691586018e-06 -0.000166230373856334)
(-0.00128208143497667 -2.6408786688185e-05 -0.00034189397821429)
(-0.00186720929190257 -5.56128681658029e-05 -0.000798427141978119)
(4.0850533741321e-05 -0.00178469473894338 -0.000211914602152789)
(-4.15998467292802e-05 -0.000885599383455341 -8.05031334913367e-05)
(-0.000158191199235462 -0.000351412051427014 -1.00779327723776e-05)
(-0.000294608324804769 -1.65692322532585e-05 4.1705907556743e-05)
(-0.00048245819734342 0.000122965434474362 3.65530014133499e-05)
(-0.000775852736581935 0.000141672468876956 -3.4098937355524e-05)
(-0.00126142114962421 4.29427749488331e-05 -0.000192039869879747)
(-0.00197750105066453 -1.8016949685523e-06 -0.000575037809266516)
(4.19507064627798e-05 -0.0015614834503456 -8.87819327932435e-05)
(1.67944042363348e-05 -0.000786826988493896 1.63118641761177e-05)
(-4.02622135377365e-05 -0.000254714471826753 9.04100407550349e-05)
(-0.000117186810723577 8.76617355946191e-05 0.000140942849679691)
(-0.000231765816258701 0.000248309139154114 0.000150922431884047)
(-0.000385915292461936 0.000299212194748509 0.000130131566637175)
(-0.000645262310380121 0.000272813430505911 6.45753011929537e-05)
(-0.00112797676199474 0.000120301222926938 -7.28029307673367e-05)
(-0.00192320161689095 6.80188953332643e-05 -0.000399729532028732)
(-0.000302512365377881 -0.000575925168446177 -0.00262900998437747)
(-0.000406519051406844 -0.00127755219482159 -0.00229687089727317)
(-0.000666791282272964 -0.000438086597068779 -0.00271663994841239)
(-0.000317114808873171 -0.00183230857336113 -0.00172694192205723)
(-0.000840871692286139 -0.000836142141193884 -0.0017991246682386)
(-0.000924637952049844 -0.000206837261049102 -0.00230541178391789)
(-0.000167877508084214 -0.00215824006706093 -0.00131959763228545)
(-0.000692760654825744 -0.00101368294485282 -0.00106690159518519)
(-0.00105240042700983 -0.000423017265057511 -0.00135944082806596)
(-0.00117692737764983 -0.000100803120469975 -0.00187885368435656)
(-7.03174998955711e-05 -0.00219080953529521 -0.000971090788970001)
(-0.000454431677360457 -0.00103881736545449 -0.000683920589672103)
(-0.000844064429300129 -0.000504700548307438 -0.000747368092567288)
(-0.00114511026315721 -0.00020718756887427 -0.000945484598961153)
(-0.00144351057015071 -0.00010360075730313 -0.00150047159770695)
(-8.56889478692105e-06 -0.00210729210024834 -0.000680107445706755)
(-0.000262177419286562 -0.000987977162418701 -0.000446068041178256)
(-0.000566732181041657 -0.000495599824439932 -0.000415853686671493)
(-0.000847151330875646 -0.00018934685146943 -0.000444579231568168)
(-0.00121333132414398 -0.000113177954282767 -0.00063976936315532)
(-0.00167334011745989 -0.000103524137720255 -0.00119880744771852)
(2.73125687097661e-05 -0.00196008012106943 -0.000451833299681947)
(-0.000127977720626437 -0.000940518275244432 -0.000274042784317895)
(-0.000328377191008962 -0.000432132444517904 -0.000210093151870582)
(-0.00053653724351086 -0.00012260033366705 -0.000171803072569039)
(-0.000824882545439815 -7.58443502986455e-06 -0.000238235120196851)
(-0.00126352976382322 -4.22909077697945e-05 -0.000432051704939859)
(-0.00185381926617837 -6.77345791131703e-05 -0.000932498758993505)
(4.38603322460768e-05 -0.00178465977986082 -0.000280217439497946)
(-3.99490378505239e-05 -0.000890256765848436 -0.000142375862362249)
(-0.000159726691906397 -0.000363474384071632 -6.85807378411151e-05)
(-0.000297964888583188 -3.21983768614476e-05 -1.44849172856439e-05)
(-0.000486736150613929 0.000105338398702248 -2.22286270448593e-05)
(-0.000780583881507786 0.000123317425772806 -0.00010162756228346)
(-0.00126109837454227 2.51141416497267e-05 -0.000275777976338816)
(-0.00197012981288303 -1.57346508301487e-05 -0.00069349879601283)
(4.62670681620725e-05 -0.00161170907896808 -0.00014450400435254)
(1.71946334689793e-05 -0.000824710609425931 -3.84738068272481e-05)
(-4.55597934440308e-05 -0.000287072298392108 3.76581613473501e-05)
(-0.000127465071467766 5.94170458414371e-05 9.05143774317713e-05)
(-0.000247274399918998 0.000222119450644471 9.97726385712358e-05)
(-0.000409298429394753 0.000273518211424606 7.47428235568197e-05)
(-0.000682409513987626 0.000246520966270218 7.46820943380857e-07)
(-0.00117654964168259 9.24841927561176e-05 -0.000146736950686289)
(-0.00199385229801961 4.50896898252891e-05 -0.000489347837392775)
(4.42082739171991e-05 -0.00139510080951003 -4.30194516620171e-05)
(5.21441437003464e-05 -0.000721694793894385 4.25845937945592e-05)
(3.03147975057306e-05 -0.00019175085607364 0.000119778792082418)
(-8.05283912400551e-06 0.000154708581816677 0.000168306985775009)
(-7.81097520152188e-05 0.000332822802468955 0.000180465634179596)
(-0.000168914693556171 0.000414444412328461 0.000173566227375517)
(-0.000288711823231393 0.000433248628798794 0.000147212124575881)
(-0.000514847716189486 0.000389148871206059 8.47469985061024e-05)
(-0.000973802484507107 0.000199891209325162 -4.14231753472184e-05)
(-0.00178297937904206 0.000196547522859178 -0.000338336597096834)
(-0.000266365725040706 -0.000573573383359969 -0.00257628249021788)
(-0.000612594292178888 -0.000459300057375068 -0.00272958465572204)
(-0.000382958956669138 -0.00126885266192463 -0.00236398437282062)
(-0.000310047405533293 -0.00181517212509689 -0.00184010500126189)
(-0.000814106266050454 -0.000852105411766956 -0.00188920871348922)
(-0.000866250561622544 -0.000237053383821423 -0.00237417302046564)
(-0.000166225268833758 -0.00214899992138103 -0.00143062404491468)
(-0.000686395331869909 -0.0010210797949852 -0.00115764352326472)
(-0.00103071099550358 -0.000445584256686859 -0.00145934250406672)
(-0.00112504515372938 -0.000129787950784814 -0.00198573766294497)
(-7.17809859210494e-05 -0.00219234026645476 -0.00106866158461348)
(-0.000453423917545106 -0.00104555125299581 -0.000763898957745064)
(-0.000834813357861807 -0.000519381297617662 -0.000831895687110741)
(-0.00112330184834129 -0.00022847183557346 -0.00104495482529026)
(-0.00140014159224429 -0.000125851427231171 -0.00163051580763431)
(-1.05928396079138e-05 -0.00211570489439388 -0.000762327573191996)
(-0.000263964863776977 -0.000992435816876769 -0.000516386564186769)
(-0.000563877858315528 -0.00050767783265752 -0.00048785490423503)
(-0.000837841025195941 -0.000206453613102679 -0.000522193212539622)
(-0.00119193372596698 -0.000133470920429443 -0.000735551544827662)
(-0.00164378353882113 -0.000120290679218145 -0.00133402840313931)
(2.65785791152834e-05 -0.00197098207374581 -0.000521196007167801)
(-0.000129890041522432 -0.000942801246568748 -0.00033599742732736)
(-0.000329133463089855 -0.000440847677178832 -0.000271946041566547)
(-0.000533165046851663 -0.000137031661136499 -0.000234526690983109)
(-0.000815258585845932 -2.5561784125305e-05 -0.000309867056644345)
(-0.00124505757833372 -6.25349738334657e-05 -0.000522591295553291)
(-0.00184244859974431 -8.37752645322099e-05 -0.00106666606550918)
(4.30046712005967e-05 -0.00179167171892429 -0.000340286087548071)
(-3.94124973875412e-05 -0.00089127933039866 -0.000197974377450992)
(-0.000160312222888338 -0.00037049591823412 -0.000122517506140703)
(-0.000297687460004064 -4.43356037236569e-05 -6.70971518315622e-05)
(-0.000483953584438774 8.93839037062476e-05 -7.83830721387387e-05)
(-0.000774123456690477 0.000104926060848397 -0.000167687123201408)
(-0.00124858741800238 5.63044165628076e-06 -0.000360078785466428)
(-0.00197093241697956 -3.02787973247919e-05 -0.0008189563172922)
(4.81853344847936e-05 -0.00161481719350735 -0.000199809427054957)
(1.75273852411588e-05 -0.000832903940453737 -9.06591829566559e-05)
(-4.79027611463818e-05 -0.000301430347983062 -1.16854141442013e-05)
(-0.000131846280236304 4.25125453261775e-05 4.34056351754856e-05)
(-0.000253053833267743 0.00020329959089425 5.14632546681711e-05)
(-0.000416467272853174 0.000253117643848634 2.18019638481942e-05)
(-0.000692166116577897 0.000225132299047528 -6.15452480294827e-05)
(-0.00118440072907162 7.02987953359318e-05 -0.00022369023358453)
(-0.00200707365529489 2.96991071116869e-05 -0.000596311848834625)
(4.78881495445357e-05 -0.00144618262332053 -8.97395945892699e-05)
(5.16611659794188e-05 -0.000761071510509516 -4.52322860688422e-06)
(2.56760041464736e-05 -0.000225119534269 7.46905443703678e-05)
(-1.67686054620836e-05 0.000126311963682457 0.000125319454651994)
(-9.06779304003687e-05 0.000306744898380284 0.000137220242582021)
(-0.00018608819328476 0.000388488017632273 0.00012792197933746)
(-0.000314491141958206 0.000406283818939203 9.66929757646848e-05)
(-0.000556504692212172 0.000359660467945717 2.60754667751689e-05)
(-0.00103038907000239 0.000168074301632824 -0.000108866673104957)
(-0.00188315845143152 0.00017012841258745 -0.000415872122574678)
(4.34951542319843e-05 -0.00124055361936056 -5.58995627659672e-06)
(6.9892865473505e-05 -0.000655653037031344 6.39919695012497e-05)
(7.23993769370004e-05 -0.000130722157665472 0.000143111962384436)
(6.15460161818099e-05 0.000214496411154698 0.000189313041812235)
(2.38970295888041e-05 0.000402937370034025 0.000200890561928386)
(-2.99228354049049e-05 0.000507727699148626 0.000197870096272389)
(-9.13184157144638e-05 0.000560962936587583 0.000185307272049391)
(-0.000174037021165587 0.000576454908267234 0.000158149064544789)
(-0.000355413285190153 0.000538392778149719 0.000100024109503888)
(-0.000739865245767621 0.000332089419042385 -1.85489879843541e-05)
(-0.00154806583731936 0.000699741328252863 -0.000303587836589406)
(-0.000232628201782532 -0.000566358430690993 -0.00248263826959047)
(-0.000555742123709804 -0.00047584754614028 -0.00271450169519266)
(-0.000359124796962706 -0.00125649406604378 -0.00239820152228081)
(-0.000802565398901545 -0.000268360189748487 -0.00242932156626441)
(-0.000785418136697921 -0.000869856631214519 -0.00196779944193845)
(-0.00030301096667092 -0.0017966848063886 -0.00193759751120658)
(-0.000165736824706265 -0.00213814043305283 -0.00153569372459709)
(-0.000679612806647045 -0.00103152349538237 -0.0012428087713361)
(-0.0010050982379104 -0.000472251216593202 -0.00155376565522783)
(-0.00106468545889697 -0.000163310438647032 -0.00208618658854855)
(-7.3527501847146e-05 -0.00219460972325912 -0.00116414579920658)
(-0.000453034766998388 -0.00105568393690041 -0.00084083179235631)
(-0.000825237851192475 -0.000538311051797274 -0.000913545900750679)
(-0.00109932947885071 -0.000254549704408642 -0.00114280320488082)
(-0.0013472468507023 -0.000153189543973602 -0.00175921434283397)
(-1.31041026926043e-05 -0.00212713561298833 -0.000843469626098032)
(-0.000266059313221606 -0.00100141190180359 -0.000584431149804524)
(-0.000561554460249472 -0.000524545682290591 -0.000557714475178077)
(-0.000828512566567974 -0.000228084688866611 -0.000598566838419363)
(-0.00116941875440526 -0.000158251327393095 -0.00083180727661511)
(-0.00160782707717823 -0.000143238823476437 -0.00147156979851744)
(2.46903349926975e-05 -0.00198740956663795 -0.000588472955691014)
(-0.000133451302988662 -0.000950310101893905 -0.000395600840503855)
(-0.000331224976997957 -0.000454754655346409 -0.000332148493711809)
(-0.000531132221388586 -0.000156455450247563 -0.00029624875424232)
(-0.000806574286009275 -4.80313916121932e-05 -0.000381515177025743)
(-0.00122642120610688 -8.7496312165968e-05 -0.00061480751789854)
(-0.00182715405792438 -0.000104102100917846 -0.00120391930950433)
(4.14752562864752e-05 -0.00180820125180973 -0.000394002317616509)
(-4.18461168291414e-05 -0.000897040887344168 -0.000250127894323831)
(-0.000162960813351945 -0.000381447518320984 -0.000174439099296902)
(-0.000298471153084337 -6.0307853431034e-05 -0.000118487837580842)
(-0.000481374253086669 6.95954606349672e-05 -0.000134137577259212)
(-0.00076712702577035 8.23759462231525e-05 -0.000234483106484748)
(-0.00123536302424843 -1.89948270584838e-05 -0.000446002057989812)
(-0.00197543821572276 -4.89315781075542e-05 -0.000948130874155086)
(4.79413014241051e-05 -0.00162589871477197 -0.00024815307365523)
(1.66357680062333e-05 -0.000837117731693561 -0.000137291349508464)
(-4.96745632925043e-05 -0.000310846820808495 -5.68838118952337e-05)
(-0.000133800795902375 2.89252329755927e-05 -5.58657434252522e-07)
(-0.000254062749213994 0.000186197619111897 5.58338629073825e-06)
(-0.000415698447189501 0.000233119891265132 -2.93959941435813e-05)
(-0.000689660294519384 0.000203223413632431 -0.000122993328010183)
(-0.00117872104204073 4.65973707555676e-05 -0.000301959698565489)
(-0.00202619825372916 1.12232041578322e-05 -0.000711911860224993)
(4.91433256410486e-05 -0.00145194692681774 -0.000134982449158095)
(5.11725554933497e-05 -0.000772089152522164 -4.84761779458378e-05)
(2.296104098444e-05 -0.000241292915551996 3.31238535280352e-05)
(-2.14737514811846e-05 0.00010839458458426 8.5593540432013e-05)
(-9.68653804599452e-05 0.000287293213702865 9.67069928007342e-05)
(-0.000193433515724432 0.000367202212663481 8.45690305633948e-05)
(-0.000324023683094682 0.000383304645680115 4.81391937571602e-05)
(-0.000570593243459138 0.000334943436058881 -3.11907551812617e-05)
(-0.00104632176329708 0.000142683454764847 -0.00017856304211188)
(-0.00191880356861645 0.000153296083373539 -0.000510040418954937)
(4.65154983433104e-05 -0.00129251026453876 -4.48789310838409e-05)
(6.92864053681198e-05 -0.00069640350662987 2.35301578800516e-05)
(6.84226733098343e-05 -0.000164931071798574 0.000104605369605403)
(5.40023142314974e-05 0.000185789112388825 0.000152689756567893)
(1.33004438697904e-05 0.000376997572951758 0.00016410630700077)
(-4.35217243751471e-05 0.000481988079079175 0.000159461529659565)
(-0.000109418870714428 0.000534009911902977 0.00014397676286541)
(-0.000201514007364655 0.000547248718325959 0.0001120561600341)
(-0.000400441084846545 0.000504989121405099 4.65739914445306e-05)
(-0.000802431988258773 0.000294853721527375 -7.77387554919651e-05)
(-0.00165676123559561 0.000708695186343047 -0.000351889036998423)
(4.14432723672386e-05 -0.0010983981067949 2.50803501207212e-05)
(7.73315714444919e-05 -0.000590874726111768 8.18968451982572e-05)
(9.58305228572483e-05 -7.17510668438618e-05 0.000162148114306653)
(0.000103505282946448 0.00026870350604199 0.000206458081346035)
(8.94325256409333e-05 0.00046167275213817 0.000216977175103245)
(6.08370758769712e-05 0.000581675427255948 0.000214791550952076)
(2.78331236800729e-05 0.000659692919326647 0.000206844200388787)
(-4.0274604410363e-06 0.000711001061949854 0.000192637035333081)
(-4.95209242024171e-05 0.000743071316546376 0.000166151231076307)
(-0.00017471725105461 0.000739551427150742 0.000111398286700182)
(-0.000432355401352998 0.000518154177741809 -2.92176248238644e-06)
(-0.00123698582367804 0.00196286570157644 -0.00030372227797826)
(-0.000204488687868042 -0.000552854154379091 -0.00235126364952745)
(-0.000500823551912568 -0.000486965389924375 -0.00267096167096802)
(-0.000335928253975826 -0.00123965684376889 -0.00239770399591867)
(-0.000737543092567467 -0.000299929758514526 -0.00246960113753966)
(-0.000755746881893137 -0.000887930816683328 -0.00203211148186776)
(-0.000297111621929015 -0.00177642949641185 -0.00201370812261119)
(-0.000996729033418377 -0.000198173488006774 -0.00217472531168684)
(-0.000975961180452755 -0.000501185583203997 -0.00164065962307084)
(-0.000671479568826653 -0.00104384235894078 -0.0013206493457752)
(-0.000166754245966122 -0.00212461759300375 -0.0016320062874475)
(-7.56679112706779e-05 -0.00219679892754685 -0.00125601193847706)
(-0.00045349198617007 -0.00106829795173184 -0.000914295897268919)
(-0.000814913423575017 -0.000560174562640697 -0.000991528341966901)
(-0.00107277024145964 -0.000284444324819038 -0.00123797509802025)
(-0.00128389082610035 -0.000184081761777332 -0.00188195439610229)
(-1.61451709416067e-05 -0.00214070561616939 -0.000923084572898872)
(-0.000269003752360491 -0.00101407432523185 -0.00065037147185564)
(-0.000559930863892919 -0.000545557441329558 -0.000625529718329555)
(-0.000818852322886571 -0.000253798563052569 -0.000673735371874295)
(-0.001145240055427 -0.000186937741742571 -0.000928414349580836)
(-0.0015627030143917 -0.000170633292478725 -0.00161117517874149)
(2.21212589699911e-05 -0.00200770380888257 -0.000655045271790908)
(-0.000137586519329453 -0.000962327047476913 -0.00045344956970954)
(-0.00033417738910355 -0.00047345167444021 -0.00039097006772734)
(-0.000530023675577679 -0.000180613489605892 -0.000357099331668559)
(-0.000798231671865469 -7.48739465532836e-05 -0.000453257236266524)
(-0.00120626957591701 -0.000117340677664367 -0.00070913458838824)
(-0.00180680960140252 -0.000128294088607931 -0.00134727223743724)
(4.01421994464643e-05 -0.00183092942347622 -0.000447518470598718)
(-4.52643071065614e-05 -0.000907835829463319 -0.0003003372482336)
(-0.000167387606012941 -0.000397424925068604 -0.000225045177204616)
(-0.000300785659527196 -8.12129064245943e-05 -0.00016911569277182)
(-0.000480019925805504 4.51587946370005e-05 -0.000189810585732583)
(-0.00076097747992172 5.52567296638689e-05 -0.00030249234223522)
(-0.00122198628854978 -4.89270819418401e-05 -0.000535845088636907)
(-0.00197945703714648 -7.16120517495819e-05 -0.00108542886321513)
(4.67560002924079e-05 -0.00164573386282256 -0.000293269357686643)
(1.42618885564854e-05 -0.000845994299022368 -0.000180663121113581)
(-5.30390631443513e-05 -0.000324002481115467 -0.00010037403184546)
(-0.000136902767349426 1.16639969282974e-05 -4.34714413270749e-05)
(-0.000255497656430509 0.000165332145468161 -3.97650111137664e-05)
(-0.000414631946541119 0.000209113791940246 -8.08411950525135e-05)
(-0.000686211816423432 0.00017685532861975 -0.000185891318881236)
(-0.00117186777352486 1.73515260086292e-05 -0.000383398016588148)
(-0.00205097580124138 -1.23236286966078e-05 -0.000834110071912688)
(4.83378028976075e-05 -0.00146593872722734 -0.000173805175532958)
(4.9629054149403e-05 -0.000779091822913043 -8.7306866771029e-05)
(2.05132811901882e-05 -0.000252688724200281 -4.62704882097376e-06)
(-2.46181614072536e-05 9.35396792690536e-05 4.87075594870128e-05)
(-9.99271616556993e-05 0.000269374352278108 5.83827440916974e-05)
(-0.000195625962258231 0.000346407395167615 4.28976462244506e-05)
(-0.000325286550905563 0.000360056758805203 7.51729160127222e-07)
(-0.000571973157347308 0.000309458008551718 -8.8123325645439e-05)
(-0.0010477439521215 0.000115445680073216 -0.000250149974092064)
(-0.00196044777241565 0.000131381221014029 -0.000616032919253825)
(4.73813921786017e-05 -0.00130054083423046 -8.18760279469869e-05)
(6.84683365255089e-05 -0.000709774309803141 -1.34938648829074e-05)
(6.57328706188518e-05 -0.000182642875866983 6.96973333269219e-05)
(4.92883113503816e-05 0.000166992234586806 0.000119229929460633)
(7.10065583094596e-06 0.000357108102348691 0.000129914853129888)
(-5.07309533512134e-05 0.000460371212135886 0.000123180441442903)
(-0.000117837189665423 0.000510412001940286 0.000104419718425127)
(-0.000212861959948457 0.000521649843212582 6.75586272355104e-05)
(-0.00041821786852603 0.000476953288370061 -5.36631167325014e-06)
(-0.000825741972318224 0.000265148926105191 -0.000139562355519079)
(-0.00171860250401996 0.000698007515786442 -0.000438595479501609)
(4.40398637588114e-05 -0.00115141253830073 -7.62482920120718e-06)
(7.69002902951262e-05 -0.000632866168163001 4.71125665230702e-05)
(9.21421447027641e-05 -0.00010683503570221 0.000129394928014217)
(9.68892056472275e-05 0.000239635655049165 0.000175364869479011)
(8.02917386875311e-05 0.000435828468618553 0.000185726299512823)
(4.9474521335665e-05 0.000556316001759441 0.000182238338164459)
(1.39096632275734e-05 0.000633196792091573 0.000172265310690611)
(-2.24510163157232e-05 0.000682402161819819 0.00015520795434073)