/*--------------------------------*- C++ -*----------------------------------*\
  =========                 |
  \\      /  F ield         | OpenFOAM: The Open Source CFD Toolbox
   \\    /   O peration     | Website:  https://openfoam.org
    \\  /    A nd           | Version:  12
     \\/     M anipulation  |
\*---------------------------------------------------------------------------*/
/*   Windows 32 and 64 bit porting by blueCAPE: http://www.bluecape.com.pt   *\
|  Based on Windows porting (2.0.x v4) by Symscape: http://www.symscape.com   |
\*---------------------------------------------------------------------------*/
FoamFile
{
    format      ascii;
    class       surfaceScalarField;
    location    "0";
    object      phi;
}
// * * * * * * * * * * * * * * * * * * * * * * * * * * * * * * * * * * * * * //

dimensions      [0 3 -1 0 0 0 0];

internalField   nonuniform List<scalar> 
28903
(
7.23280445688198e-06
3.34644481000308e-08
-1.99259186218492e-07
7.38853139970147e-06
2.91853592388087e-08
-1.84912084892217e-07
7.75989308110061e-06
6.93398279176468e-08
-2.14113030483681e-07
7.32281990292609e-06
3.17479483295312e-08
-3.96681740268255e-07
7.53578844983196e-06
2.53726654731123e-08
-1.72629470499165e-07
7.92730013037803e-06
6.04022558832235e-08
-1.98623717143477e-07
7.47852666561042e-06
2.7612860263823e-08
-3.68231480112576e-07
8.58265392469726e-06
1.09510110785801e-07
-2.38164153894824e-07
8.07973766325087e-06
6.25207153013034e-08
-4.27988176333354e-07
7.54407149014151e-06
3.30258644008687e-08
-5.95533312380112e-07
7.67599119175805e-06
2.1990369319588e-08
-1.62192872939026e-07
8.08559005596e-06
5.24346568380164e-08
-1.85351670542262e-07
7.62585412367539e-06
2.39333343559667e-08
-3.43890005318317e-07
8.76860995960875e-06
9.53559230911603e-08
-2.2090944142648e-07
8.25182454663465e-06
5.39287555520943e-08
-3.97026245161887e-07
7.70012694693392e-06
2.84866584463524e-08
-5.52773323694719e-07
9.42325096856583e-06
1.51096739549378e-07
-2.60532482365226e-07
9.1251783771051e-06
1.03858617417334e-07
-4.87133591382653e-07
8.44774942418242e-06
7.01338205695962e-08
-6.51014673111926e-07
7.78035250490761e-06
2.63880968691912e-08
-7.84898231134128e-07
7.81039651580759e-06
1.8991520958209e-08
-1.53396608810742e-07
8.23628771857004e-06
4.53630088263367e-08
-1.74070057664245e-07
7.76621579554855e-06
2.06712520794036e-08
-3.23225557566186e-07
8.94441791218326e-06
8.27272026739169e-08
-2.0610023042289e-07
8.41464144337906e-06
4.62743241783918e-08
-3.70509306190419e-07
7.84797783704154e-06
2.44463367196171e-08
-5.16186958610625e-07
9.62887526213094e-06
1.31511175521112e-07
-2.41779276369313e-07
9.32031515883835e-06
8.97483197513655e-08
-4.51865532231326e-07
8.62272155072204e-06
6.08016912472537e-08
-6.04313146373635e-07
7.93412701810635e-06
2.19742839846445e-08
-7.28521813238611e-07
1.00348280919383e-05
1.89713071340424e-07
-2.7418731338513e-07
1.0064486512535e-05
1.51528217874987e-07
-5.38844490453258e-07
9.68396390467769e-06
1.10740563626516e-07
-7.41623702038253e-07
8.68103809220713e-06
6.70710528844964e-08
-8.73772678642346e-07
7.93895595765696e-06
2.50032910996858e-08
-9.65022914812805e-07
7.94012000957115e-06
1.63298668901915e-08
-1.46053133045676e-07
8.38073337777001e-06
3.90982794560826e-08
-1.64552178383416e-07
7.90087390741569e-06
1.77796730263551e-08
-3.05834157211728e-07
9.11176023419785e-06
7.14935932322007e-08
-1.93472641025942e-07
8.56974651207749e-06
3.95112401464365e-08
-3.48014861746394e-07
7.98905126089954e-06
2.07614235830569e-08
-4.8506013083848e-07
9.82323716784684e-06
1.14026557241956e-07
-2.25660967073971e-07
9.50493956409363e-06
7.71669179370773e-08
-4.21616944066035e-07
8.78844695155441e-06
5.25629135803276e-08
-5.64350981316882e-07
8.08020966106795e-06
1.80356476556714e-08
-6.80304893569999e-07
1.02560290843858e-05
1.65039068827921e-07
-2.54728590111001e-07
1.0281230837454e-05
1.31304536194475e-07
-5.00079522075296e-07
9.88526187495705e-06
9.56030493677103e-08
-6.87964562886361e-07
8.85282141126863e-06
5.69362545515232e-08
-8.1105811516329e-07
8.08593035779625e-06
2.03030947081853e-08
-8.9579895555091e-07
1.03544450704013e-05
2.22810009120539e-07
-2.79429548097083e-07
1.06647557255338e-05
1.9722560942442e-07
-5.66900791685827e-07
1.07144906627095e-05
1.6075751289938e-07
-8.27202678349987e-07
9.95237391945402e-06
1.18432850524322e-07
-1.00241759577929e-06
8.77808537367045e-06
6.75917499505511e-08
-1.08811851703085e-06
8.00515516546108e-06
3.26389189508135e-08
-1.14012409636984e-06
8.06616862273302e-06
1.39571683786446e-08
-1.400055536925e-07
8.52012642216728e-06
3.35309560709356e-08
-1.56593898384232e-07
8.0309289197546e-06
1.52159444871115e-08
-2.91323871771381e-07
9.27211829162821e-06
6.15085787080407e-08
-1.82768096603544e-07
8.71853369246047e-06
3.35627361021551e-08
-3.29122192511997e-07
8.1246315408776e-06
1.73376080060383e-08
-4.5875181964641e-07
1.00081736583835e-05
9.84484804288275e-08
-2.11891101402762e-07
9.68079518178985e-06
6.59803616600924e-08
-3.95797121458396e-07
8.94654687676576e-06
4.49970942957961e-08
-5.30350202401035e-07
8.21999334714157e-06
1.44230850045158e-08
-6.39266602854205e-07
1.04650487809772e-05
1.43000381183647e-07
-2.37993268957701e-07
1.0486256809797e-05
1.13260004381325e-07
-4.66779749436738e-07
1.00760388289195e-05
8.21897601926687e-08
-6.42020436434001e-07
9.01596409681241e-06
4.79547640769706e-08
-7.57412434316921e-07
8.22616536373411e-06
1.61338443720041e-08
-8.36673353897809e-07
1.05857000229232e-05
1.93733063705653e-07
-2.59948835360442e-07
1.08968393191179e-05
1.71177924791347e-07
-5.26685435760993e-07
1.09387914218225e-05
1.38975886685517e-07
-7.67752834677416e-07
1.01499443419462e-05
1.02211083147316e-07
-9.30809424498236e-07
8.94081897541057e-06
5.65670147789968e-08
-1.01005526116612e-06
8.14097132914619e-06
2.72050568804578e-08
-1.05881985481367e-06
1.04659477232131e-05
2.49494281564231e-07
-2.79654807653e-07
1.09395996840845e-05
2.35679148415134e-07
-5.74818888241567e-07
1.12985601238995e-05
2.09735089027938e-07
-8.70069754124492e-07
1.09784977324843e-05
1.70952029885881e-07
-1.1124801036156e-06
9.99791065064411e-06
1.22737542798475e-07
-1.25395680502537e-06
8.81588625215769e-06
7.81775733123156e-08
-1.29081916622767e-06
8.01820486364983e-06
4.36226070697638e-08
-1.31024663232511e-06
8.18946621403605e-06
1.18262167581218e-08
-1.35123588568638e-07
8.65554942789806e-06
2.85644473726596e-08
-1.50030053075747e-07
8.1573775068365e-06
1.29313332925478e-08
-2.79385254774178e-07
9.42681344342959e-06
5.26225331331194e-08
-1.73786471956148e-07
8.8622162952218e-06
2.82802932414826e-08
-3.13340618534542e-07
8.25577244590545e-06
1.42947789580465e-08
-4.36759328679945e-07
1.01853132505893e-05
8.45795130273247e-08
-2.00210238599459e-07
9.84941233768014e-06
5.60303299979935e-08
-3.73852582493675e-07
9.09853954059904e-06
3.77881361026727e-08
-5.01565130740963e-07
8.35465624780075e-06
1.11865915515886e-08
-6.04601038038123e-07
1.06638347423141e-05
1.23352179254068e-07
-2.23689369012507e-07
1.06814654314945e-05
9.71816778459728e-08
-4.3830074987455e-07
1.02580987347752e-05
7.03476513611478e-08
-6.0320729708337e-07
9.17209509746371e-06
3.9650165679344e-08
-7.11707977669129e-07
8.3608868508753e-06
1.2438265926811e-08
-7.86426011990083e-07
1.08041297664509e-05
1.67753066358322e-07
-2.43182074502855e-07
1.1116289287265e-05
1.47934845656896e-07
-4.92117720329782e-07
1.11513221501462e-05
1.19597484947228e-07
-7.16717851373494e-07
1.03373829794602e-05
8.80374954021528e-08
-8.69541437434607e-07
9.09607787575199e-06
4.68591466171813e-08
-9.43396246272413e-07
8.27138393183137e-06
2.23317458658014e-08
-9.89417335132173e-07
1.07033720551313e-05
2.16849881764443e-07
-2.60540983713094e-07
1.11809378894935e-05
2.04658886869482e-07
-5.34767770144153e-07
1.15377051929182e-05
1.81610218633831e-07
-8.08464572687135e-07
1.11980994919354e-05
1.47454317378262e-07
-1.0325974744507e-06
1.01839648038735e-05
1.0380813473228e-07
-1.16410428675289e-06
8.96569892271309e-06
6.61446473650599e-08
-1.19880719693327e-06
8.13993248839635e-06
3.71314334633766e-08
-1.21767865219121e-06
1.04743857662157e-05
2.69176467955416e-07
-2.77402964428654e-07
1.10222679924794e-05
2.65553600253145e-07
-5.72734404449735e-07
1.15193667672331e-05
2.51406639560842e-07
-8.79595209167569e-07
1.15163984992401e-05
2.20573012895708e-07
-1.16693437102688e-06
1.09742381893744e-05
1.788417141129e-07
-1.38601217053183e-06
1.00019387822256e-05
1.35164190417218e-07
-1.49000681571821e-06
8.84539774354968e-06
9.24350566345379e-08
-1.47956828875582e-06
8.02620217837792e-06
5.30238597585736e-08
-1.47179206023514e-06
8.31087210543537e-06
9.89062534455527e-09
-1.31296298673921e-07
8.78799304053601e-06
2.4103675412017e-08
-1.44720844447538e-07
8.28113683021823e-06
1.08782365079396e-08
-2.69760944821221e-07
9.57705103139197e-06
4.46861123883657e-08
-1.66359001271104e-07
9.00189321479091e-06
2.35596897413872e-08
-3.00335116016933e-07
8.3834487133707e-06
1.15728100066596e-08
-4.18634140516491e-07
1.03561138561246e-05
7.22215737832716e-08
-1.90399374007014e-07
1.00121867082569e-05
4.71676927786741e-08
-3.55448002003836e-07
9.24553840617304e-06
3.14512917434763e-08
-4.77495785435843e-07
8.48522149418451e-06
8.30251790060155e-09
-5.75626869103004e-07
1.0854126570386e-05
1.05844650273684e-07
-2.11556710848079e-07
1.08685576514055e-05
8.28625153315332e-08
-4.14134381711297e-07
1.04328381450452e-05
5.97780526106212e-08
-5.70581645683277e-07
9.32250304362671e-06
3.22964107781941e-08
-6.7308262588851e-07
8.49115300312034e-06
9.17065770838926e-09
-7.44037553864267e-07
1.10117431258558e-05
1.44582243614016e-07
-2.28843260982713e-07
1.1325125636098e-05
1.27227494399921e-07
-4.62571356881591e-07
1.13539606002927e-05
1.02342002652013e-07
-6.7293325478889e-07
1.0516906558518e-05
7.41016810416902e-08
-8.17182024135382e-07
9.24522220750503e-06
3.83238620983681e-08
-8.86737545996561e-07
8.39739936287228e-06
1.80541398806868e-08
-9.30495234670116e-07
1.09275196067951e-05
1.87675021509124e-07
-2.44069255632127e-07
1.14090243656454e-05
1.76978848860927e-07
-5.00312345246532e-07
1.17641607163776e-05
1.56581688954481e-07
-7.55557098175691e-07
1.14069453832468e-05
1.26631478210103e-07
-9.64157236385718e-07
1.0361434630422e-05
8.73662311010319e-08
-1.08751791263809e-06
9.10956628256328e-06
5.52833300755961e-08
-1.12021481935902e-06
8.2578437873055e-06
3.14719717653673e-08
-1.13880028062185e-06
1.07162008595694e-05
2.33899895693929e-07
-2.58864972955044e-07
1.12694166015181e-05
2.3059822571145e-07
-5.33628799433334e-07
1.17667966563477e-05
2.17853083611475e-07
-8.18440233042553e-07
1.17495444741674e-05
1.90488613120974e-07
-1.084644362715e-06
1.11801016546534e-05
1.53386286180831e-07
-1.28803862842014e-06
1.01725459592838e-05
1.15459574273118e-07
-1.38402600729419e-06
8.9800341892608e-06
7.88603113875161e-08
-1.37517222527665e-06
8.1321381389197e-06
4.53447855001913e-08
-1.36895915547702e-06
1.04443732356891e-05
2.81206466586094e-07
-2.73957677326013e-07
1.10228015779568e-05
2.86903558170187e-07
-5.66893817580435e-07
1.15613660527987e-05
2.83968323538851e-07
-8.74169776161899e-07
1.16880622299453e-05
2.6300988385605e-07
-1.17727474328482e-06
1.14683788455779e-05
2.292613588086e-07
-1.44796470046834e-06
1.0953509803466e-05
1.89658790197884e-07
-1.63925294590196e-06
1.00406620786973e-05
1.47507761122548e-07
-1.70500060302936e-06
8.88726675829856e-06
1.0773046589021e-07
-1.65492011244051e-06
8.05910929257365e-06
5.77172979379026e-08
-1.61885351320106e-06
8.43119798808846e-06
8.1011280480372e-09
-1.28426801325404e-07
8.91837713894751e-06
2.00560887434413e-08
-1.40549339960874e-07
8.40306381020019e-06
9.00570778993087e-09
-2.62228782311936e-07
9.72392788683217e-06
3.75575345444167e-08
-1.60330468386598e-07
9.13857468681888e-06
1.93060654486527e-08
-2.89829929693086e-07
8.50856894226989e-06
9.10473374906114e-09
-4.03985708919209e-07
1.05219021732552e-05
6.11756606373113e-08
-1.82277585674619e-07
1.01703689514431e-05
3.92403025706423e-08
-3.4022161137331e-07
9.38863182894075e-06
2.57980384543176e-08
-4.57653548880371e-07
8.61262942948089e-06
5.70690774826316e-09
-5.51748767157116e-07
1.10374872313344e-05
9.02306789615198e-08
-2.0136947437487e-07
1.10490742850568e-05
7.0102218261483e-08
-3.93850259862228e-07
1.06017622769828e-05
5.03979208364763e-08
-5.43318518679112e-07
9.46831516069399e-06
2.5785386605718e-08
-6.40790538817566e-07
8.61790696612399e-06
6.26833635501397e-09
-7.08648916243733e-07
1.12103377230247e-05
1.23927853168101e-07
-2.16677441439148e-07
1.15251586563819e-05
1.08788243949408e-07
-4.37515111362762e-07
1.15484288485535e-05
8.69871581813778e-08
-6.35811419112343e-07
1.06898157803229e-05
6.17166405908961e-08
-7.72910800508967e-07
9.38941684806072e-06
3.08268844595231e-08
-8.38933191722037e-07
8.51989906218955e-06
1.43068531885013e-08
-8.80843812283415e-07
1.11404197025301e-05
1.61649847884593e-07
-2.29967468992391e-07
1.16259413146526e-05
1.52321386585281e-07
-4.70853829111759e-07
1.19799624162107e-05
1.34326505489867e-07
-7.1035727262341e-07
1.16063328477855e-05
1.0792393879937e-07
-9.06142630784266e-07
1.05318741799165e-05
7.31131214208527e-08
-1.0224104477194e-06
9.24856486765363e-06
4.57970670023902e-08
-1.05347873012398e-06
8.3726976976886e-06
2.65663552250125e-08
-1.07191519127521e-06
1.09443695105404e-05
2.02368028933228e-07
-2.42861386778548e-07
1.15028621191789e-05
1.9940529031191e-07
-4.99940948999513e-07
1.20009421299396e-05
1.8799969197962e-07
-7.65875537820702e-07
1.19708793342874e-05
1.6382559434456e-07
-1.01408570420651e-06
1.13763608573996e-05
1.30962665824024e-07
-1.2040123929317e-06
1.03364995959693e-05
9.7142025726639e-08
-1.29332984620269e-06
9.1104083931342e-06
6.70801626800474e-08
-1.2861968792819e-06
8.23607446389589e-06
3.87142580736262e-08
-1.28145058552572e-06
1.06900634165854e-05
2.4432367980378e-07
-2.56113818722219e-07
1.12744968354596e-05
2.4910228595862e-07
-5.29064144831181e-07
1.18141022790996e-05
2.46112844185572e-07
-8.14624591131828e-07
1.19285971430598e-05
2.27279770176487e-07
-1.09576603036195e-06
1.16865904296561e-05
1.97271508408992e-07
-1.34674074787182e-06
1.11428171783343e-05
1.62476404755585e-07
-1.52436241685724e-06
1.01944225386991e-05
1.26359930142318e-07
-1.58528573942314e-06
9.00499588496373e-06
9.17773474544361e-08
-1.53933366469264e-06
8.14824426241143e-06
4.94742441960155e-08
-1.50756815172301e-06
1.04052466322119e-05
2.85075516932812e-07
-2.70002357928558e-07
1.09934326645e-05
2.99692780159994e-07
-5.59524826146997e-07
1.15430499286766e-05
3.07249927747272e-07
-8.6408529668761e-07
1.16993223474055e-05
2.96732313367134e-07
-1.16865698173529e-06
1.16121244389535e-05
2.72479150506849e-07
-1.45871381004926e-06
1.14362139516534e-05
2.40724496682296e-07
-1.71017639834534e-06
1.10037690247646e-05
2.03317623199183e-07
-1.87304364048911e-06
1.01131774510627e-05
1.61299155119989e-07
-1.89723785214577e-06
8.95214024893059e-06
1.13268465548756e-07
-1.81024926710435e-06
8.12452923397317e-06
5.84841820483653e-08
-1.74655744514039e-06
8.55122294733719e-06
6.40637877842765e-09
-1.26431130680573e-07
9.04757195531172e-06
1.63245015437959e-08
-1.37417973858368e-07
8.52396838489337e-06
7.25295657751635e-09
-2.56584143261006e-07
9.86845879936286e-06
3.109771825747e-08
-1.55572303860751e-07
9.27320092297294e-06
1.54252325425873e-08
-2.81594902298442e-07
8.63199603324222e-06
6.79770108103161e-09
-3.92453405088235e-07
1.06838860525245e-05
5.12521596473915e-08
-1.75678243949875e-07
1.03251012940742e-05
3.21030146108176e-08
-3.27859536735375e-07
9.52882722969491e-06
2.06995724012556e-08
-4.41619983434286e-07
8.7377796600858e-06
3.30974850278825e-09
-5.32445504653641e-07
1.12153315626074e-05
7.62670391916794e-08
-1.92935454957622e-07
1.12244010445354e-05
5.86931970598374e-08
-3.77056991720014e-07
1.07661465426034e-05
4.20373497949799e-08
-5.20844958417275e-07
9.61057069285568e-06
1.99690740315642e-08
-6.14171032267596e-07
8.74202001408497e-06
3.65779097883156e-09
-6.79519379888376e-07
1.14015321735074e-05
1.05499557721832e-07
-2.06463147466834e-07
1.17180242814178e-05
9.23542467437369e-08
-4.16486947097349e-07
1.17363225449729e-05
7.33318691570369e-08
-6.04677640363456e-07
1.08573848920195e-05
5.07880167171876e-08
-7.35889962661978e-07
9.52970108349242e-06
2.42129763580732e-08
-7.99019140666939e-07
8.63969528032158e-06
1.10019349620294e-08
-8.39446799628956e-07
1.13438930330183e-05
1.38446816048964e-07
-2.17992014122108e-07
1.18335538129231e-05
1.30366420001202e-07
-4.45867890407575e-07
1.21869486935758e-05
1.14548296189267e-07
-6.72062196045336e-07
1.1798110411719e-05
9.13120103062563e-08
-8.57183928892647e-07
1.06966013312198e-05
6.06579237766701e-08
-9.67468641705116e-07
9.38366000885443e-06
3.75204317860496e-08
-9.97241614068002e-07
8.4851636790304e-06
2.23042513578876e-08
-1.0156137572127e-06
1.11609214207898e-05
1.74237335279655e-07
-2.29139183266644e-07
1.17247063025876e-05
1.71618252224444e-07
-4.71108340552723e-07
1.22239099965654e-05
1.61474408515964e-07
-7.20969294326663e-07
1.21822687622582e-05
1.40174842291577e-07
-9.5399712224607e-07
1.15646697173822e-05
1.11226487972579e-07
-1.13256441945903e-06
1.0494849183347e-05
8.13243984901138e-08
-1.21628699801666e-06
9.23737090726966e-06
5.68813856029412e-08
-1.21075595130865e-06
8.33849340853661e-06
3.30201947891051e-08
-1.20735405481561e-06
1.09217550161815e-05
2.11352503988563e-07
-2.40675789287054e-07
1.15120900223206e-05
2.15366893012157e-07
-4.96415924470228e-07
1.20530964618395e-05
2.12435699529413e-07
-7.6337081089724e-07
1.21567173758383e-05
1.95629196100704e-07
-1.02579885509618e-06
1.18944417398497e-05
1.6907545083044e-07
-1.2600493118419e-06
1.13240255273379e-05
1.3844777128082e-07
-1.42652605542422e-06
1.03432430336766e-05
1.08150437835073e-07
-1.48322024727087e-06
9.12043963307701e-06
7.80470571256897e-08
-1.4409731521255e-06
8.23738635214628e-06
4.23962304597512e-08
-1.41298866747501e-06
1.06548082849406e-05
2.47672024580174e-07
-2.52909833749698e-07
1.12493865292224e-05
2.60176130726807e-07
-5.23141373992941e-07
1.18003881546887e-05
2.66286537231157e-07
-8.06575875830288e-07
1.19448822453792e-05
2.56476716269858e-07
-1.08938109391485e-06
1.18373336994226e-05
2.3467753542229e-07
-1.35838091609759e-06
1.16370728426076e-05
2.06504663002005e-07
-1.5916275071779e-06
1.11746986112331e-05
1.73921222893312e-07
-1.74285289966408e-06
1.02482783772781e-05
1.3766282148092e-07
-1.76627183723463e-06
9.05161533087852e-06
9.71295681568549e-08
-1.686463825564e-06
8.19613506711376e-06
5.01228888277543e-08
-1.62929667500116e-06
1.03677879428138e-05
2.80543289953816e-07
-2.65917441642604e-07
1.095461217054e-05
3.03699964007345e-07
-5.51438790336004e-07
1.15069068677519e-05
3.21172662265453e-07
-8.52433019907109e-07
1.16664449011426e-05
3.21180431761891e-07
-1.15456105998111e-06
1.16093688313176e-05
3.07223817009869e-07
-1.44734326799765e-06
1.15748656631521e-05
2.85449814725279e-07
-1.72238218804195e-06
1.14993556904033e-05
2.56456482907885e-07
-1.95369566159644e-06
1.11030841367263e-05
2.19044892102668e-07
-2.08618493011581e-06
1.0210581275381e-05
1.72694505014293e-07
-2.07222280354392e-06
9.04160928752336e-06
1.18422827669873e-07
-1.94792450613009e-06
8.21635257074301e-06
6.00482671778847e-08
-1.85496756569251e-06
8.67169398562188e-06
4.7646331772983e-09
-1.25235470083255e-07
9.17641950964582e-06
1.2796721054319e-08
-1.35237684990546e-07
8.64462987790522e-06
5.5656670006564e-09
-2.52658099927139e-07
1.00115974860888e-05
2.51669953826061e-08
-1.51980949824106e-07
9.40666953664976e-06
1.18123189203892e-08
-2.75445749068338e-07
8.75452873962622e-06
4.47278214994628e-09
-3.83589454113584e-07
1.08431811220686e-05
4.22643831583173e-08
-1.70461472650234e-07
1.04774393499414e-05
2.56157303891464e-08
-3.18100631200635e-07
9.66705941819021e-06
1.6023151355901e-08
-4.29052346165436e-07
8.86163799572638e-06
8.70841485411473e-10
-5.17182398118432e-07
1.13889522967603e-05
6.37164147830499e-08
-1.86084706551524e-07
1.13958034248909e-05
4.84372810062878e-08
-3.63414636717416e-07
1.09271442726728e-05
3.45351581132835e-08
-5.02692636533951e-07
9.75021887496084e-06
1.47037231122942e-08
-5.92661947635859e-07
8.86440932127798e-06
1.19363217906795e-09
-6.56028240414911e-07
1.15867947887349e-05
8.90109627050202e-08
-1.98006185677051e-07
1.19051987689747e-05
7.76654367717664e-08
-3.99081850688205e-07
1.19190606371154e-05
6.11541197040636e-08
-5.78911568832052e-07
1.1020807419143e-05
4.10639719582828e-08
-7.05362137051576e-07
9.66701206805271e-06
1.83320664512687e-08
-7.66156054595526e-07
8.75752771191806e-06
8.06810422441756e-09
-8.0541968244078e-07
1.15395850898164e-05
1.17738969605836e-07
-2.07931218692089e-07
1.20335426001964e-05
1.10798800774153e-07
-4.2489621677014e-07
1.23867862731845e-05
9.6960134978924e-08
-6.39952526662198e-07
1.19838458958445e-05
7.65973386425247e-08
-8.16222152971843e-07
1.08568027821391e-05
4.9715557625272e-08
-9.2159369089809e-07
9.51575284865309e-06
3.02618554111673e-08
-9.50371648375128e-07
8.5959043461151e-06
1.84922200432807e-08
-9.68679428437602e-07
1.13676864730839e-05
1.49153102783931e-07
-2.17471039325138e-07
1.19368369845421e-05
1.4687640297462e-07
-4.46632402023465e-07
1.24375879728573e-05
1.37914042713306e-07
-6.82911340686365e-07
1.23854869800752e-05
1.19228189721226e-07
-9.03196257874401e-07
1.17465373636854e-05
9.38662001691235e-08
-1.07225944536984e-06
1.06486788009759e-05
6.75763521531288e-08
-1.15135385242799e-06
9.36163984391268e-06
4.80313857173947e-08
-1.14723738701481e-06
8.43982243187385e-06
2.81213755923262e-08
-1.14506389200085e-06
1.1141472002584e-05
1.81934530504288e-07
-2.27413961912792e-07
1.17376854540884e-05
1.85313435519591e-07
-4.68429616205525e-07
1.22804784651741e-05
1.82519939338655e-07
-7.19535680744884e-07
1.23744197987524e-05
1.6761671123408e-07
-9.66113302988029e-07
1.20936959725169e-05
1.44245412680652e-07
-1.18626986468631e-06
1.14988406312274e-05
1.1742883885278e-07
-1.34348356872575e-06
1.04880794700011e-05
9.24249074500313e-08
-1.39666660492314e-06
9.23415997569789e-06
6.62282060188999e-08
-1.35768403615496e-06
8.32668456869854e-06
3.63575804112811e-08
-1.33300960945178e-06
1.08900138115353e-05
2.14231845413176e-07
-2.38084569652561e-07
1.14908429530801e-05
2.24906832172723e-07
-4.91671895057212e-07
1.20435445129232e-05
2.29844995728578e-07
-7.56981291238551e-07
1.21775382697788e-05
2.20826738047214e-07
-1.02122401429102e-06
1.20516106139439e-05
2.01376128213163e-07
-1.27237603643194e-06
1.18293421092663e-05
1.76491449361465e-07
-1.49036185149843e-06
1.13398614522128e-05
1.4835184326001e-07
-1.63188989659998e-06
1.0380631625441e-05
1.17293069577425e-07
-1.65481919688063e-06
9.1510142193422e-06
8.32961968599788e-08
-1.5812717486184e-06
8.26990186616931e-06
4.29861025426339e-08
-1.5297413593457e-06
1.06213245399795e-05
2.43726380298247e-07
-2.49590793543694e-07
1.12148343412189e-05
2.63635915147593e-07
-5.16591621269454e-07
1.17688734944404e-05
2.78340116929257e-07
-7.97161390416927e-07
1.19167626088743e-05
2.77626973345833e-07
-1.0780435329113e-06
1.18397306619452e-05
2.64686413279313e-07
-1.34975145301362e-06
1.17828319259191e-05
2.45015449554849e-07
-1.60485763866719e-06
1.1681863909971e-05
2.19360881020743e-07
-1.81957501889908e-06
1.12541942775222e-05
1.86842372255136e-07
-1.94314225844519e-06
1.03255418313972e-05
1.47166542598871e-07
-1.93126908629178e-06
9.12190503229478e-06
1.00834751513434e-07
-1.81747123475281e-06
8.26987113203707e-06
5.09285249721344e-08
-1.73374358457433e-06
1.03329732451317e-05
2.67667157483627e-07
-2.61872024291001e-07
1.09144988305699e-05
2.98771090454271e-07
-5.43112254325449e-07
1.14648316374202e-05
3.25570935747778e-07
-8.40028170180503e-07
1.16239601686773e-05
3.35945781814853e-07
-1.13877276757277e-06
1.15698421288587e-05
3.32623442167484e-07
-1.42964228111632e-06
1.15686655045527e-05
3.21777189860605e-07
-1.70891513140141e-06
1.16441074541177e-05
3.03516197441041e-07
-1.9681881702955e-06
1.16170152206046e-05
2.75193608671295e-07
-2.17747026900376e-06
1.12281786261732e-05
2.35177806437247e-07
-2.27933869285346e-06
1.03297786997237e-05
1.83830357705961e-07
-2.22846039481376e-06
9.15213505617202e-06
1.24726461642226e-07
-2.06730153250942e-06
8.32525920402637e-06
6.31578123870625e-08
-1.94511050208402e-06
8.79325793477321e-06
3.1325473047737e-09
-1.24696290930669e-07
9.30572028331685e-06
9.32912490389336e-09
-1.33865057105848e-07
8.76586095554581e-06
3.70208142644557e-09
-2.50168449202434e-07
1.01542552598645e-05
1.96181944789861e-08
-1.49479024985114e-07
9.5399029091346e-06
8.32347343543166e-09
-2.71228677854003e-07
8.87707215585791e-06
1.97829305149798e-09
-3.77179655649787e-07
1.10008303768998e-05
3.4026617185306e-08
-1.66508636768789e-07
1.06283720741105e-05
1.9643636394338e-08
-3.10744787330509e-07
9.80423367149424e-06
1.15995578484818e-08
-4.19746610464784e-07
8.98479771622607e-06
-1.04226416335702e-09
-5.05706751397067e-07
1.15595414299317e-05
5.23468880121604e-08
-1.80671394710969e-07
1.1564451762181e-05
3.91427142886148e-08
-3.52636567749116e-07
1.1085810546428e-05
2.7741960495116e-08
-4.8848551003887e-07
9.8880652900743e-06
9.82933283871579e-09
-5.75857068201203e-07
8.98574641256211e-06
-7.68687920879915e-10
-6.37750611290986e-07
1.17674678131777e-05
7.41839726084993e-08
-1.91140396052057e-07
1.20880317170995e-05
6.44681600292166e-08
-3.84948359019862e-07
1.20979292995161e-05
5.02389516494027e-08
-5.57986854332166e-07
1.11811643319727e-05
3.23417168999939e-08
-6.80687286022773e-07
9.80212973075068e-06
1.30317516753067e-08
-7.39617502382234e-07
8.87409431517119e-06
5.41637996315079e-09
-7.78010998935105e-07
1.17289888048999e-05
9.92050654465903e-08
-1.99597531730934e-07
1.22274339071706e-05
9.33081908730066e-08
-4.075400230042e-07
1.25809804993888e-05
8.12756398462177e-08
-6.13397290170699e-07
1.21648856829506e-05
6.35268995968476e-08
-7.8241391005838e-07
1.10135445056617e-05
4.00452663187125e-08
-8.83816773680425e-07
9.64565495452591e-06
2.38649962013854e-08
-9.11854815213435e-07
8.70550971640692e-06
1.50988233025637e-08
-9.30123631910584e-07
1.15663193392162e-05
1.26763844753655e-07
-2.07657504450817e-07
1.2140958312996e-05
1.24822141170867e-07
-4.26075696375182e-07
1.26436798805817e-05
1.16965142918134e-07
-6.50992844401107e-07
1.25821289876172e-05
1.0066993266345e-07
-8.60666694490188e-07
1.19232932871144e-05
7.85733700331894e-08
-1.02183552140879e-06
1.07990286698161e-05
5.56869499588158e-08
-1.09736835765261e-06
9.48399076064926e-06
4.00166261586408e-08
-1.09424669461274e-06
8.5404897416152e-06
2.38801115103702e-08
-1.09322660015249e-06
1.13510451476818e-05
1.55700066402709e-07
-2.1611980032415e-07
1.19531804820167e-05
1.58551809784965e-07
-4.44641212977441e-07
1.24981578909189e-05
1.5595251376341e-07
-6.82349988382656e-07
1.25835015624733e-05
1.42829886772012e-07
-9.15594326358778e-07
1.22859331920483e-05
1.22383611183168e-07
-1.12395045844546e-06
1.16685779240908e-05
9.90493799557343e-08
-1.27346940075172e-06
1.06296191929105e-05
7.89130103405366e-08
-1.32377487247423e-06
9.34664278224175e-06
5.60524422107441e-08
-1.2876510043138e-06
8.41629221366605e-06
3.11894694483624e-08
-1.26586076737975e-06
1.11128781638075e-05
1.84392089868136e-07
-2.25321682324846e-07
1.17199032811801e-05
1.93483811836469e-07
-4.64644478281391e-07
1.22746566924821e-05
1.97474951207501e-07
-7.14496612441815e-07
1.23993242072365e-05
1.89290626203249e-07
-9.62995185610989e-07
1.22567740303411e-05
1.72063282273874e-07
-1.19909418225731e-06
1.20145922728508e-05
1.50218002751796e-07
-1.40430881204932e-06
1.15004539707143e-05
1.26138551599145e-07
-1.5377893458204e-06
1.05108974191498e-05
9.97404619292977e-08
-1.56044435401263e-06
9.2505501323005e-06
7.14460222467483e-08
-1.49230812900737e-06
8.34563035524594e-06
3.6897060726068e-08
-1.44563493901655e-06
1.08601408584356e-05
2.10805998031884e-07
-2.35390165572682e-07
1.14601570749231e-05
2.27874084555856e-07
-4.86374288072276e-07
1.20162019371439e-05
2.40233919909933e-07
-7.49388977252021e-07
1.21536767943478e-05
2.39060158123158e-07
-1.01212854649264e-06
1.20586183273825e-05
2.27225216801344e-07
-1.26596038472096e-06
1.19816260435686e-05
2.09607281375496e-07
-1.50428562408172e-06
1.18579054549957e-05
1.8708175968108e-07
-1.70513293036773e-06
1.14019315183519e-05
1.59022144380835e-07
-1.82135587569066e-06
1.04402197838572e-05
1.25257511177393e-07
-1.81145817288181e-06
9.20451506735749e-06
8.58168759106179e-08
-1.70671234452313e-06
8.32782993143744e-06
4.3172581073574e-08
-1.63087254379084e-06
1.05904707263599e-05
2.32526693674657e-07
-2.46297632034652e-07
1.11790294334258e-05
2.59342867925307e-07
-5.09828182747187e-07
1.17315431632016e-05
2.82142696040152e-07
-7.87105533324068e-07
1.18792865402349e-05
2.90399167926931e-07
-1.06525966827546e-06
1.18053365016005e-05
2.86609491746024e-07
-1.33546066884609e-06
1.17822474788095e-05
2.76273715965847e-07
-1.59459140852437e-06
1.18341930850482e-05
2.59652562197322e-07
-1.83523464037205e-06
1.17795527076906e-05
2.34656239263386e-07
-2.02992605617184e-06
1.13577249562329e-05
2.00036070359745e-07
-2.12555778170742e-06
1.04232516175241e-05
1.56059479188197e-07
-2.0799664824997e-06
9.2124546962075e-06
1.05610049419431e-07
-1.93247218181322e-06
8.3602680380954e-06
5.32951899649331e-08
-1.82204742674253e-06
1.02924677724591e-05
2.46864402770901e-07
-2.57844474151057e-07
1.08742801286192e-05
2.85025493606651e-07
-5.34845572448291e-07
1.14213801560719e-05
3.20366898991811e-07
-8.27355004963381e-07
1.15784880962442e-05
3.4073083320869e-07
-1.12216424981408e-06
1.15236092056827e-05
3.48061595536909e-07
-1.41003924134232e-06
1.1525959654367e-05
3.48432601980821e-07
-1.68801247907251e-06
1.16374472806579e-05
3.41936346610487e-07
-1.95320953948405e-06
1.1768528127697e-05
3.2517755298699e-07
-2.19476317173575e-06
1.17576566902045e-05
2.95511625965455e-07
-2.38034851661054e-06
1.13712849119929e-05
2.51819679454895e-07
-2.45137108676903e-06
1.04657992069168e-05
1.95635119765162e-07
-2.36419477892975e-06
9.27676836433318e-06
1.32112847653899e-07
-2.16725275803783e-06
8.44302843483644e-06
6.67898458710384e-08
-2.01731570281878e-06
8.91661321686079e-06
1.46601414087569e-09
-1.24821085058645e-07
9.43614517032966e-06
5.74650301486951e-09