/*--------------------------------*- C++ -*----------------------------------*\
  =========                 |
  \\      /  F ield         | OpenFOAM: The Open Source CFD Toolbox
   \\    /   O peration     | Website:  https://openfoam.org
    \\  /    A nd           | Version:  12
     \\/     M anipulation  |
\*---------------------------------------------------------------------------*/
/*   Windows 32 and 64 bit porting by blueCAPE: http://www.bluecape.com.pt   *\
|  Based on Windows porting (2.0.x v4) by Symscape: http://www.symscape.com   |
\*---------------------------------------------------------------------------*/
FoamFile
{
    format      ascii;
    class       volVectorField;
    location    "0";
    object      U;
}
// * * * * * * * * * * * * * * * * * * * * * * * * * * * * * * * * * * * * * //

dimensions      [0 1 -1 0 0 0 0];

internalField   nonuniform List<vector> 
10116
(
(8.61235107854605e-06 0.00447693297512911 5.51382194464744e-05)
(7.57094412730774e-06 0.00457759360845846 5.1178568599327e-05)
(2.49680654951447e-05 0.00447537973835301 5.59303092001519e-05)
(1.00324726808821e-05 0.0044848624247067 0.000170771625454066)
(6.64576885602685e-06 0.00467245092391363 4.77889360700952e-05)
(2.18771865937141e-05 0.00457620810117995 5.19000547656013e-05)
(8.91260869866397e-06 0.00458440370577181 0.000158529080134365)
(4.12791318103097e-05 0.00447197737017428 5.70659876932011e-05)
(2.62784826416145e-05 0.00448356572813596 0.000170089622217858)
(9.91837286889689e-06 0.00450200753580978 0.000293228299654965)
(5.82732038718486e-06 0.00476244765723775 4.49094684076882e-05)
(1.91277896931386e-05 0.00467122003725309 4.84458959885869e-05)
(7.92421104762235e-06 0.00467826159162089 0.000148053472066765)
(3.6071920881812e-05 0.00457317159736321 5.29529041410036e-05)
(2.31319463954316e-05 0.0045832452844187 0.000157826788497124)
(8.76456026956798e-06 0.00459911767668596 0.000272219833916488)
(5.74115305577046e-05 0.00446630966580184 5.77150569225537e-05)
(4.16937770647512e-05 0.00448043396298926 0.000172385764202085)
(2.69122020272807e-05 0.00450104736097062 0.000289936440960078)
(6.83340250768028e-06 0.00452963355898071 0.000415710462806094)
(5.10415006950633e-06 0.0048484206060092 4.24833758447171e-05)
(1.66924383923618e-05 0.00476135723425744 4.55103412455892e-05)
(7.05484785923326e-06 0.00476736672081722 0.000139158480359691)
(3.14347901055895e-05 0.00466852121550011 4.94232169471023e-05)
(2.03462417588916e-05 0.00467723086226515 0.000147325170595159)
(7.74574322586031e-06 0.00469080481234543 0.000254247155897495)
(5.00515661297932e-05 0.00456810795252432 5.3576523665701e-05)
(3.64624625024237e-05 0.00458045151279933 0.000159964381005873)
(2.36895893143462e-05 0.00459826047996717 0.000269136043106666)
(5.85116400057416e-06 0.00462281467280472 0.000385904023844155)
(7.31507868582802e-05 0.00445808435037216 5.75592215079718e-05)
(5.77734858406306e-05 0.00447489052603699 0.000174243682597483)
(4.24827056077889e-05 0.00449836451741639 0.000291064286667204)
(2.17058676638717e-05 0.00452873771972098 0.000413135906000201)
(5.08318969218324e-06 0.00456758927712764 0.000531363424409731)
(4.46462706235908e-06 0.00493111295305259 4.04587703421693e-05)
(1.45388293552005e-05 0.00484745477873327 4.30351336546649e-05)
(6.29173796355036e-06 0.00485254831454402 0.000131670642298653)
(2.73174856983083e-05 0.00475896570759156 4.64125172414996e-05)
(1.78955779061957e-05 0.00476645113630594 0.000138411251654183)
(6.82841741960467e-06 0.0047779717887701 0.000238973490875487)
(4.34860632374735e-05 0.004664012276748 5.00213398908717e-05)
(3.1817476396062e-05 0.00467475486058322 0.000149312912162905)
(2.08505937349097e-05 0.00469003362361586 0.000251335076690568)
(4.97925128980963e-06 0.00471102544543809 0.000360410161801972)
(6.36679998671757e-05 0.00456075156464604 5.34792158277155e-05)
(5.03402257434753e-05 0.00457550329430113 0.000161757815690575)
(3.71651495956803e-05 0.00459587093712773 0.000270091654243799)
(1.86275519429216e-05 0.00462201708729037 0.000383591395210897)
(4.16257906329578e-06 0.00465535069638073 0.000493274726466591)
(8.78607437839789e-05 0.00444732353971401 5.69169679910262e-05)
(7.38615110360484e-05 0.00446655161571366 0.000174375783760441)
(5.83608491713121e-05 0.00449303496956281 0.000294303802017996)
(3.93770692384402e-05 0.00452643597341177 0.000412733561726198)
(1.89031382156927e-05 0.00456665010322133 0.000533034171167145)
(5.79998891360348e-06 0.00461502465680979 0.00064065261321724)
(3.89716780137203e-06 0.00501118937076032 3.87924210352997e-05)
(1.26307078701811e-05 0.00493025528065492 4.0966979364573e-05)
(5.62253577501739e-06 0.0049345377128193 0.000125423602617158)
(2.36668920708028e-05 0.00484533543065862 4.38633546457746e-05)
(1.57482790711751e-05 0.00485173518264254 0.000130916762290496)
(5.98998080128409e-06 0.00486143703427822 0.000226091293473867)
(3.76435827759321e-05 0.00475495750360547 4.69827456719024e-05)
(2.77122160109172e-05 0.00476427046447823 0.000140225085535709)
(1.82749377669716e-05 0.00477726198293192 0.00023621551927894)
(4.18634803606164e-06 0.00479512030338058 0.000338720652963331)
(5.51996464682012e-05 0.00465745139731149 4.99709610973559e-05)
(4.37223923948102e-05 0.00467035387895746 0.000151034662806963)
(3.24738582460486e-05 0.00468795037729963 0.000252127929062257)
(1.59023314938294e-05 0.00471030529729515 0.000358321310035674)
(3.34665273688445e-06 0.00473878768952312 0.000460725630094876)
(7.64003080563996e-05 0.00455112185045305 5.29475112336219e-05)
(6.4230266089063e-05 0.00456805411075834 0.000162024622676171)
(5.0755906595892e-05 0.00459112887137318 0.000273223968718828)
(3.4028544339732e-05 0.00461997468224062 0.000383205582824692)
(1.57946403672806e-05 0.00465451639675417 0.000494899876846774)
(4.79175429897404e-06 0.00469596051916959 0.000594880976168151)
(0.000100636994513209 0.00443434578186313 5.61724754360835e-05)
(8.89065252222179e-05 0.00445553200762674 0.000173062041774457)
(7.51368877676109e-05 0.00448453308136001 0.000294697285071311)
(5.84149382017288e-05 0.00452130722444963 0.000415686599189987)
(3.76976591702343e-05 0.00456413721796912 0.000533844501480782)
(2.10802080379697e-05 0.00461393539914362 0.000646500657910765)
(7.77074295693888e-06 0.00467074310516668 0.000745511016733696)
(3.39065111187494e-06 0.00508925417147811 3.74484036299207e-05)
(1.09340973286162e-05 0.00501042384827686 3.92623958983981e-05)
(5.03419861530583e-06 0.00501398449580318 0.000120284087409804)
(2.04244883854296e-05 0.00492837126712625 4.17265615391427e-05)
(1.38576814902934e-05 0.00493381352332816 0.000124657914537622)
(5.25231316763498e-06 0.0049419058451 0.000215333766338153)
(3.2447243491004e-05 0.00484177205731658 4.4407478412915e-05)
(2.40894216116583e-05 0.00484981166241551 0.000132511956433584)
(1.58737840564857e-05 0.00486079148771948 0.000223467789530701)
(3.48047476752112e-06 0.00487585579550949 0.000320398200529923)
(4.76525392645666e-05 0.00474911423674972 4.69719962507132e-05)
(3.78433066209793e-05 0.00476036131494784 0.000141868418691451)
(2.82895220217228e-05 0.00477551168715413 0.000236897441536184)
(1.34042162688232e-05 0.00479446744194817 0.000336816053494091)
(2.62397182545659e-06 0.00481866501757115 0.000433048203982557)
(6.61601458100588e-05 0.00464885654673543 4.95306960661869e-05)
(5.56421464611916e-05 0.00466371578956394 0.000151408040042936)
(4.4012129101516e-05 0.00468374977920261 0.000255128210160955)
(2.93354523846485e-05 0.00470845858211041 0.000357938927987404)
(1.30535899530627e-05 0.00473804875325035 0.00046231692548659)
(3.88641140397428e-06 0.00477339152081274 0.00055580252326379)
(8.7469073376398e-05 0.00453950508592264 5.2331517097055e-05)
(7.72387335282761e-05 0.00455820724457632 0.000161001162629934)
(6.51925102104789e-05 0.00458355257352668 0.000273853810696162)
(5.05545934218895e-05 0.00461545377545796 0.000385919277667097)
(3.18265489176215e-05 0.00465229860654093 0.000495777164580706)
(1.77204462567978e-05 0.00469498780773714 0.000600376463206575)
(6.56221367615538e-06 0.00474361677497564 0.000692635373351761)
(0.000110712278440328 0.00441962062360423 5.54486794357029e-05)
(0.000101897397878506 0.00444226416769034 0.000171097728511877)
(9.09215251331694e-05 0.00447307655176687 0.000292842327297722)
(7.70285937164605e-05 0.00451246634461776 0.00041566295200431)
(5.92289438981751e-05 0.00455920493655629 0.000534795966943932)
(4.12238028364199e-05 0.00461118376337361 0.000649252257562342)
(2.56574955296525e-05 0.00466941061997335 0.000752818294072656)
(9.7894635436559e-06 0.00473361877107274 0.000845586167984353)
(2.9339356106292e-06 0.00516586528178806 3.6396171231985e-05)
(9.41644521567865e-06 0.00508856497442913 3.78852105151003e-05)
(4.51439177252115e-06 0.00509148133729898 0.000116141308340247)
(1.75356006196556e-05 0.00500874055545409 3.99608844014191e-05)
(1.21858648104231e-05 0.00501333483727884 0.000119502095603402)
(4.6007576746495e-06 0.00501999002577642 0.000206477429402353)
(2.78221902799823e-05 0.00492519673322483 4.22462830393268e-05)
(2.08830016040347e-05 0.00493210407689676 0.000126048168064351)
(1.37686460704523e-05 0.00494133080540183 0.000212818112949665)
(2.85559321475681e-06 0.00495387946582866 0.000305086285744207)
(4.09308033155002e-05 0.00483656769009568 4.44283928756615e-05)
(3.26217323996629e-05 0.00484633652467122 0.000134094634081311)
(2.44824873646072e-05 0.0048593068037392 0.000224049480063984)
(1.11923116917007e-05 0.0048752727235273 0.00031863457448604)
(1.98551331271221e-06 0.00489564626964872 0.0004096882474842)
(5.70281134587992e-05 0.00474145334690179 4.66082181470239e-05)
(4.79968331709124e-05 0.00475445227676874 0.000142334191262253)
(3.80378885921515e-05 0.00477177757052495 0.000239626508546394)
(2.48514964599732e-05 0.00479279485831996 0.000336474875945124)
(1.06395505175806e-05 0.0048180114544816 0.000434598572845075)
(3.09078689788427e-06 0.00484797194552867 0.000522611808093046)
(7.57007082791754e-05 0.00463848465531651 4.90208159757097e-05)
(6.68285314698471e-05 0.00465493761162502 0.000150623614245061)
(5.63498976812629e-05 0.0046770047397097 0.000255949386209211)
(4.36329976740925e-05 0.00470462340996248 0.000360398771594112)
(2.67019798849522e-05 0.00473609764747559 0.000463280103990583)
(1.46929925404459e-05 0.00477253010623473 0.000560992656103618)
(5.50793146712051e-06 0.00481396870108086 0.000647543814847902)
(9.62038592049124e-05 0.00452632237794268 5.17428210173156e-05)
(8.84852973824933e-05 0.00454634961000308 0.000159407736180506)
(7.88244688368369e-05 0.00457334416601773 0.000272471693930259)
(6.65638270110899e-05 0.00460760307983946 0.00038634720739042)
(5.0530043099627e-05 0.00464801219497159 0.000496822954188149)
(3.50409233572765e-05 0.00469251595512817 0.000603018182180814)
(2.17985163029215e-05 0.00474246062833598 0.000699516790534006)
(8.3277423166234e-06 0.00479728922053671 0.000786207643482149)
(0.00011760736920172 0.00440365495222929 5.47113111445861e-05)
(0.000112110476199288 0.00442725139373694 0.000168911008245246)
(0.000104461808865087 0.00445924562597615 0.000289810387967927)
(9.40791560258264e-05 0.00450035283413271 0.00041294055467225)
(8.01330627997887e-05 0.00454957734662724 0.000533007415190293)
(6.36543698010339e-05 0.004605223583146 0.000647866458149474)
(4.6441791722663e-05 0.00466622623965312 0.000756383331248318)
(3.07356266808028e-05 0.00473202325006033 0.000851842647796378)
(1.09916761185216e-05 0.00480270238941455 0.000938476053338706)
(2.51525287282821e-06 0.00524154581947611 3.56090606801058e-05)
(8.04549726254245e-06 0.00516523602207979 3.6805109541286e-05)
(4.05033964440947e-06 0.00516757764015786 0.000112900202304163)
(1.49470124432166e-05 0.00508704895960299 3.8529883193951e-05)
(1.06987871243275e-05 0.00509089141621661 0.000115339905933637)
(4.01953868549941e-06 0.00509625774648331 0.000199331558885525)
(2.36934250122021e-05 0.00500590007683221 4.0458182301268e-05)
(1.80340004264841e-05 0.00501180501483239 0.000120706234100188)
(1.19050733640161e-05 0.00501947285065001 0.000204046783240122)
(2.2979612355921e-06 0.00502976882344721 0.000292471463267158)
(3.49392306407995e-05 0.00492055334873372 4.22934800070363e-05)
(2.79813572749667e-05 0.00492900743596717 0.000127573709521267)
(2.11313352039033e-05 0.00494001699306679 0.000213304622238161)
(9.23815504550421e-06 0.00495335792653763 0.000303440148010306)
(1.41909536692131e-06 0.00497031276629851 0.000390178676801955)
(4.88893120828598e-05 0.00482973881809237 4.41284334904613e-05)
(4.11946541155195e-05 0.00484107604517751 0.000134640011134667)
(3.27269035834663e-05 0.00485597584632122 0.000226484784753439)
(2.0879980528898e-05 0.004873792016447 0.00031838034361847)
(8.51675510184781e-06 0.00489506772345439 0.000411200211554127)
(2.39286224497664e-06 0.00492025087095326 0.000494630537642054)
(6.52029271431684e-05 0.00473220497615752 4.61859936766908e-05)
(5.75562049946939e-05 0.00474663574936321 0.000141749708257874)
(4.84882929843466e-05 0.00476577154349706 0.000240652535292577)
(3.71886897574264e-05 0.00478958596113396 0.000338668156306208)
(2.22367422889066e-05 0.0048162972422582 0.000435593237031645)
(1.20439118292196e-05 0.00484721736560329 0.000527539049072395)
(4.59285424095587e-06 0.00488230292061189 0.000609288754531923)
(8.32357879011789e-05 0.00462671277837648 4.8543127908538e-05)
(7.65165169991303e-05 0.00464436545981846 0.000149335112156504)
(6.80623201426304e-05 0.00466792398946639 0.000254956649176578)
(5.72919668554976e-05 0.00469760865487948 0.000361196148723598)
(4.29132951548131e-05 0.00473237808439649 0.000464274103817021)
(2.93541832907472e-05 0.00477033365053448 0.000563537257147047)
(1.84439734104125e-05 0.00481296689118277 0.000654044188941193)
(7.0655920538331e-06 0.00485959898867811 0.000735648258717901)
(0.000102183636758891 0.00451202792006802 5.11481272069807e-05)
(9.73340416873897e-05 0.0045329312456046 0.000157633055611249)
(9.05380139847229e-05 0.00456102201403218 0.000270049239600968)
(8.12986253334288e-05 0.00459685326389281 0.000384311322183867)
(6.88528419052441e-05 0.00463950691130107 0.000495645303969205)
(5.44206679921769e-05 0.00468754590659146 0.000602352986415773)
(3.96469819290498e-05 0.00473970042940892 0.000703024017803085)
(2.61425127611338e-05 0.00479591771886001 0.000792107588091759)
(9.39140324275272e-06 0.00485617991417411 0.000873462190926726)
(0.000121060779362938 0.00438695368720853 5.39304244121538e-05)
(0.000119100357908789 0.0044109896855835 0.000166593497997772)
(0.000115050552724954 0.00444361463173354 0.000286226956580204)
(0.00010847595900329 0.00448568473222401 0.000408722283131174)
(9.85957126844444e-05 0.00453651241634013 0.00052888520994385)
(8.5175352353807e-05 0.0045947125063447 0.000644019617059024)
(6.91013846527006e-05 0.00465896482221526 0.000752885740866911)
(5.25648563920219e-05 0.00472822763569833 0.000853378328119961)
(3.31861486512575e-05 0.00480097359017161 0.000941898854369639)
(1.13788392851935e-05 0.00487684424163517 0.00102117533633248)
(2.12253051744565e-06 0.00531679397416935 3.50640021148678e-05)
(6.78745224290205e-06 0.00524095935437977 3.59968117511084e-05)
(3.62726089569289e-06 0.00524278966412998 0.00011047481804843)
(1.26066303457509e-05 0.00516385324874127 3.74030734792984e-05)
(9.36237251903005e-06 0.00516703055633948 0.000112080127084407)
(3.48776538728143e-06 0.00517124349471738 0.000193725123378754)
(1.99879798660981e-05 0.00508448920413921 3.90069072733352e-05)
(1.54880761437137e-05 0.00508950905732159 0.000116375861296321)
(1.02398401764456e-05 0.00509578223204847 0.000196968521195691)
(1.78886516518474e-06 0.00510406515975864 0.000282280607487884)
(2.95834917356976e-05 0.00500174069713577 4.05263847196689e-05)
(2.38453400339674e-05 0.00500903204553353 0.000122179331192875)
(1.81602024440717e-05 0.00501829514569745 0.000204442942441761)
(7.49796052694901e-06 0.00502929408676232 0.00029092324358102)
(9.10465412947402e-07 0.00504319153977676 0.000374114974711702)
(4.16291795438752e-05 0.00491445532211027 4.20463302815578e-05)
(3.51384449634884e-05 0.00492431626873842 0.000128183920499347)
(2.80192376984132e-05 0.00493704786288048 0.000215465683198576)
(1.73784368933725e-05 0.00495204180242635 0.000303262207399171)
(6.64234775098279e-06 0.00496979649400064 0.000391659015966853)
(1.77638100622762e-06 0.00499072092279928 0.000471288833842177)
(5.58441650703361e-05 0.00482149128469731 4.37785283691932e-05)
(4.93018581025449e-05 0.00483411519020409 0.0001342220570038)
(4.15037895440669e-05 0.0048506309013009 0.000227690171283501)
(3.14696311351529e-05 0.00487099627610347 0.000320299711179893)
(1.83283110295079e-05 0.00489355942029942 0.000412214521858808)
(9.7288289412515e-06 0.00491958831827788 0.00049933632358435)
(3.79674725890751e-06 0.00494903931267215 0.000577070009182)
(7.16663640412177e-05 0.00472170638775699 4.57989070306256e-05)
(6.5854389949791e-05 0.00473722068683482 0.000140712445128904)
(5.84986172489564e-05 0.00475769956615631 0.000239988983375912)
(4.90240685748161e-05 0.00478330553917496 0.000339751394511785)
(3.62527223357442e-05 0.00481306098641817 0.000436640284073615)
(2.44219152805653e-05 0.00484530035372279 0.000529991011227134)
(1.55371292553932e-05 0.00488143187987719 0.000615463731633888)
(5.98056524655119e-06 0.0049208650693344 0.000692810878845598)
(8.83962461828791e-05 0.00461394686738413 4.80648956291772e-05)
(8.4146761434024e-05 0.00463240068345533 0.00014789771564732)
(7.81505051782074e-05 0.00465696802395955 0.000253033748343809)
(6.99753162986614e-05 0.00468807423490827 0.000359722644623506)
(5.89129040937136e-05 0.00472487609754237 0.000463632445129371)
(4.60787912665171e-05 0.00476614762557416 0.00056347484861517)
(3.377754796129e-05 0.00481057455764695 0.000657452240027496)
(2.21852234799103e-05 0.00485841847778222 0.000741238475459861)
(8.01749519697617e-06 0.0049095963091214 0.000818179354164585)
(0.000105178563989785 0.00449707360508994 5.05167898928429e-05)
(0.00010339310064726 0.00451839560856579 0.000155755558448657)
(9.97053544811824e-05 0.00454709689585616 0.000267156243739573)
(9.37505660575929e-05 0.00458384462432673 0.000380948235433229)
(8.48755819315493e-05 0.00462797490319615 0.000492412670713597)
(7.29977235120828e-05 0.00467824908660651 0.000599235593891476)
(5.90932004588655e-05 0.00473343098001368 0.000700398132750079)
(4.47615939893461e-05 0.00479266730758039 0.000794040168160936)
(2.83987798987353e-05 0.00485470143304502 0.00087685873010618)
(9.73350706749613e-06 0.0049192896166966 0.000951826642976207)
(0.000120953168354466 0.00437001689412351 5.31157906455437e-05)
(0.000122608235579086 0.00439397813492629 0.000164168648142645)
(0.000122282826008803 0.00442669736535943 0.000282319763561796)
(0.000119646526269434 0.0044691045945613 0.000403704419895299)
(0.000113964628979929 0.00452072240207153 0.000523295948262866)
(0.00010459308773933 0.00458048055775141 0.000638371543615801)
(9.14595443946945e-05 0.00464727075155406 0.000747663848147678)
(7.53248963727791e-05 0.00471970984181575 0.000849391588622883)
(5.63510166197315e-05 0.00479595600436514 0.000940956242565968)
(3.4760929930457e-05 0.00487454135676216 0.00102168099144054)
(1.18458579167871e-05 0.0049545668816069 0.00109233631881386)
(1.7460075387214e-06 0.00539208762650585 3.47407088721261e-05)
(5.6049900599695e-06 0.00531623454247204 3.54373152100174e-05)
(3.23210254846473e-06 0.00531760970156027 0.000108793078145975)
(1.04615569952881e-05 0.0052396724855911 3.65559482725984e-05)
(8.13882805252345e-06 0.00524226796791124 0.00010964889295431)
(2.96649348196675e-06 0.0052454486119896 0.000189467931803731)
(1.6634710746353e-05 0.0051615215164095 3.78616914078223e-05)
(1.31926719369603e-05 0.00516576187632269 0.000112965403142882)
(8.72454373861158e-06 0.00517078215270523 0.000191431147292923)
(1.28024352038278e-06 0.00517731732707067 0.000274248200580586)
(2.47712977170175e-05 0.00508073859064558 3.90915181335325e-05)
(2.01395649669551e-05 0.00508700703562702 0.000117802055265753)
(1.55075138162204e-05 0.00509471176342896 0.000197280380538349)
(5.92403064255639e-06 0.00510360542110714 0.000280820364493365)
(4.31622843583437e-07 0.00511480217379088 0.000361152804248017)
(3.51346950908396e-05 0.00499627396714443 4.03225466512137e-05)
(2.97316134363207e-05 0.00500483175618884 0.000122841621305577)
(2.38343513875892e-05 0.00501563260637389 0.000206351843864795)
(1.42668779742448e-05 0.00502811132001024 0.000290807960119265)
(4.97245790387918e-06 0.0050427168924827 0.000375569459780483)
(1.22802825625079e-06 0.0050598333811537 0.00045209285372534)
(4.74928016620682e-05 0.0049070869283651 4.17556816607732e-05)
(4.19471737322628e-05 0.00491810656115314 0.00012790323798237)
(3.52986849058009e-05 0.00493228617855183 0.000216820654031605)
(2.64170191414486e-05 0.00494956534630255 0.000304922170534912)
(1.48905934847537e-05 0.00496846149905205 0.000392688046675706)
(7.69408262824288e-06 0.00499013570270678 0.000475816939333788)
(3.08325232862463e-06 0.00501456773303149 0.000550211909830367)
(6.13508886899535e-05 0.00481212682063777 4.34657109901361e-05)
(5.6360948204818e-05 0.00482572906647604 0.000133391423673225)
(5.00039618777081e-05 0.00484345565225333 0.000227300245418522)
(4.16954874760969e-05 0.00486541468322532 0.000321607735813577)
(3.04105115678291e-05 0.00489072453259506 0.000413322653784535)
(2.01278057936643e-05 0.00491791220249588 0.000501705746179377)
(1.30121223324518e-05 0.00494827230996134 0.000582969658781259)
(5.0463458533374e-06 0.00498135703349004 0.000656773409775992)
(7.60949053868017e-05 0.00471032006751337 4.54154007240921e-05)
(7.23984018549639e-05 0.00472656436284231 0.000139550826942306)
(6.71454755758895e-05 0.00474796699725954 0.000238476492456806)
(5.99440327090121e-05 0.00477485100584773 0.000338734656175706)
(5.01616527279861e-05 0.00480644684232371 0.000436381944893904)
(3.88214712424433e-05 0.00484167494700276 0.000530450836792157)
(2.87026740724681e-05 0.00487935851835122 0.000618777368603101)
(1.87799320000734e-05 0.00491984523284785 0.000698137724573164)
(6.84427750807107e-06 0.00496306193463963 0.000771401057561478)
(9.09800424376636e-05 0.00460059054929943 4.75555336573131e-05)
(8.93742423255872e-05 0.00461943879384936 0.000146379410108286)
(8.60536308115553e-05 0.00464458836063205 0.000250704602716051)
(8.07082375708636e-05 0.00467655495799654 0.000357057490202963)
(7.278580465008e-05 0.00471471164537389 0.000461129401995446)
(6.22791917130376e-05 0.00475795819881593 0.000560936368791693)
(5.04240391011178e-05 0.00480516138611914 0.00065568205162244)
(3.80398471599896e-05 0.00485562060914537 0.000743499484727139)
(2.42931343837785e-05 0.00490832784900556 0.000821551664970464)
(8.32936803890172e-06 0.00496310578553473 0.000892925473993822)
(0.000105082775826863 0.00448190677443048 4.98549060293932e-05)
(0.00010643468159974 0.00450318859509188 0.000153789415750617)
(0.000105969876552374 0.00453202586305705 0.000263993778013837)
(0.000103413102117659 0.00456914421107006 0.000376900603100045)
(9.81651977982544e-05 0.00461405053512648 0.000487917496580161)
(8.97431740763938e-05 0.0046657567845634 0.00059466158083222)
(7.82081656261569e-05 0.00472324809255452 0.000696123789540693)
(6.42241114971603e-05 0.00478531387044678 0.000790802817314583)
(4.80921126537658e-05 0.00485040201823987 0.000876525149877751)
(2.96244920538052e-05 0.00491732384481636 0.000952578260765268)
(1.0036002844261e-05 0.00498537465756587 0.00102000294060735)
(0.000117279223924294 0.00435334259648944 5.22966027250487e-05)
(0.000122510270725386 0.00437672501630541 0.00016168952451799)
(0.00012591799655778 0.00440900375943597 0.000278206785502181)
(0.00012725297946593 0.00445116127017745 0.00039819779401715)
(0.000125822460633417 0.0045028782974541 0.000516811405318682)
(0.000120857910198461 0.00456331497223077 0.000631406642377811)
(0.000111820736523725 0.00463164533745543 0.000740801188981218)
(9.85529049148022e-05 0.00470666671827513 0.000843456279031852)
(8.11114267878134e-05 0.00478645510021712 0.000937086272977708)
(5.99455135321356e-05 0.00486877151481604 0.00101990354052663)
(3.66190328066756e-05 0.00495189076353408 0.00109163280441215)
(1.25552280683248e-05 0.00503469534010153 0.0011522880482648)
(1.37519395267033e-06 0.00546786311375037 3.45995791072395e-05)
(4.45558433988364e-06 0.00539154070514745 3.50894570788216e-05)
(2.81055635462489e-06 0.0053925308534029 0.000107755410412331)
(8.45437650468148e-06 0.0053149982173442 3.59703710520537e-05)
(6.98401445965034e-06 0.00531711441791904 0.00010798296522445)
(2.42377368782137e-06 0.00531938713989905 0.000186449022672723)
(1.3563040130681e-05 0.00523751477749296 3.69964902369172e-05)
(1.10950129085162e-05 0.00524107113819167 0.000110403687153819)
(7.28759205308118e-06 0.00524496819146736 0.000187333449002626)
(8.82259365964923e-07 0.00524998398050018 0.000268152039634097)
(2.04125858414912e-05 0.00515810580226941 3.79582520090334e-05)
(1.67928684001172e-05 0.00516348019497621 0.000114349641990651)
(1.31140906471532e-05 0.00516978553546859 0.000191667572994462)
(4.43694317199296e-06 0.00517675452245983 0.000272932944915289)
(4.98923075788381e-08 0.00518560637114399 0.000350994167678579)
(2.92951713887615e-05 0.0050758058456953 3.89229989986642e-05)
(2.48799298075039e-05 0.00508322157583745 0.000118505175532397)
(2.0095249313677e-05 0.00509230373620147 0.000198957343735793)
(1.147601588554e-05 0.00510252332869141 0.000280757281306311)
(3.44898323679107e-06 0.00511428011128996 0.000362584559285994)
(7.31384204639139e-07 0.00512800566502088 0.000436625921673461)
(4.0019579661825e-05 0.00498966514183364 4.00807196053734e-05)
(3.53757010725034e-05 0.00499927048125021 0.000122673396146578)
(2.97717461707545e-05 0.00501137378183343 0.000207831799720785)
(2.19313230599726e-05 0.00502589961679618 0.000292223274358988)
(1.18471548294245e-05 0.00504152277710321 0.000376607468899136)
(5.89586187061925e-06 0.00505931175068278 0.000456478656730164)
(2.4465058012024e-06 0.00507925628328865 0.00052814408481827)
(5.21443550181517e-05 0.00489871853160223 4.1503274511791e-05)
(4.78996099222271e-05 0.00491062309845688 0.000127241861611753)
(4.24526941597283e-05 0.00492589752969983 0.000216655770420438)
(3.5205601346664e-05 0.00494460329928608 0.000306411395217295)
(2.52703265463618e-05 0.00496596426111325 0.00039382577258055)
(1.6393325620573e-05 0.00498866323920248 0.000478147966882204)
(1.0732213479439e-05 0.00501388560153982 0.000555879762407669)
(4.23690845673412e-06 0.00504132917267245 0.000626760221029765)
(6.51257311467216e-05 0.00480196935672343 4.31594647534381e-05)
(6.19368845123653e-05 0.00481623588492366 0.000132454954557592)
(5.73717571508727e-05 0.00483480732444337 0.000226123821527414)
(5.10648229209172e-05 0.00485792216115497 0.000320961016225802)
(4.24598000103899e-05 0.00488488905242936 0.000413357309166468)
(3.24909861117333e-05 0.00491476877190376 0.000502596840513987)
(2.4324023742349e-05 0.00494643699581896 0.000586196990872526)
(1.5847432510022e-05 0.00498047794144244 0.000661874632540733)
(5.83979752300984e-06 0.00501666818859055 0.000732098680696948)
(7.83108349065573e-05 0.00469840613126972 4.50052682095755e-05)
(7.6884365315394e-05 0.0047150191335409 0.00013832515154491)
(7.39265807751922e-05 0.00473697135190317 0.000236607249028476)
(6.91681427355612e-05 0.00476465633514317 0.000336637292006584)
(6.21417290440968e-05 0.00479749215879188 0.00043446074524392)
(5.28988061232615e-05 0.00483450254688155 0.00052836937142304)
(4.29105553867207e-05 0.00487468563618288 0.000617746856570438)
(3.22492830140449e-05 0.00491743598177842 0.000700673868128496)
(2.07794492867772e-05 0.00496197125724465 0.000774749128845081)
(7.13024614490658e-06 0.0050081652331968 0.000843141130548502)
(9.08932184294263e-05 0.00458704313271657 4.70182485494759e-05)
(9.19984938023725e-05 0.00460587729766651 0.000144787324836934)
(9.14570333077674e-05 0.00463119017483824 0.000248149154780944)
(8.90374776054608e-05 0.00466354303127867 0.000353799832547266)
(8.42489329518517e-05 0.00470244873081591 0.000457523667979886)
(7.67296182533651e-05 0.00474700814502297 0.000557227945279585)
(6.66790078648771e-05 0.00479630375662082 0.000652123900964984)
(5.46435454347633e-05 0.00484927868907996 0.000740895497798882)
(4.10073493496501e-05 0.00490464020337714 0.000821727786526765)
(2.5239505199853e-05 0.00496142671937403 0.000893882870976719)
(8.49695092756459e-06 0.00501908284680911 0.000958612690371045)
(0.000101889562576052 0.00446697298630027 4.91865892884765e-05)
(0.000106348971178712 0.00448776405124268 0.000151775480886148)
(0.000109120727545902 0.00451626248872098 0.000260658895774828)
(0.0001099941803278 0.00455323659016913 0.00037244390427883)
(0.000108405449209393 0.00459832119593196 0.000482673688449019)
(0.000103749869262848 0.00465071442879192 0.000589014293728384)
(9.56471063748693e-05 0.00470964335023515 0.000690528554752176)
(8.40307871248469e-05 0.00477403615909681 0.000785960745991217)
(6.90180378559582e-05 0.00484224363336466 0.000873387697541122)
(5.09173682204734e-05 0.0049123972121987 0.000951276223537039)
(3.10005535272466e-05 0.00498309921359462 0.0010195161316127)
(1.05895296619195e-05 0.0050534708458246 0.00107821068057535)
(0.000110146201632416 0.00433742888001849 5.15160621503684e-05)
(0.000118799915301753 0.00435974220539207 0.000159236262763519)
(0.000125840025933036 0.00439105950145305 0.000274008835763672)
(0.000131081295084354 0.00443239465937307 0.000392397090714172)
(0.000133881162465215 0.00448356588100658 0.000509742515786982)
(0.000133432703731529 0.00454392302105654 0.000623520110223658)
(0.000129008524927942 0.00461286423306869 0.000732645771507144)
(0.000120005381311113 0.00468946300934728 0.000835764098112855)
(0.000105969305931786 0.00477205060720838 0.000930850114784937)
(8.68698571163924e-05 0.00485823296565588 0.00101582187680472)
(6.38010960029884e-05 0.00494544248452928 0.00108941517381372)
(3.88916065171898e-05 0.00503172732539948 0.00115129087589385)
(1.33256535073432e-05 0.00511591647218248 0.00120138592547381)
(1.00019471674048e-06 0.00554454153530919 3.46429565870707e-05)
(3.28817486360733e-06 0.00546730699169072 3.48852297618822e-05)