/*--------------------------------*- C++ -*----------------------------------*\
  =========                 |
  \\      /  F ield         | OpenFOAM: The Open Source CFD Toolbox
   \\    /   O peration     | Website:  https://openfoam.org
    \\  /    A nd           | Version:  12
     \\/     M anipulation  |
\*---------------------------------------------------------------------------*/
/*   Windows 32 and 64 bit porting by blueCAPE: http://www.bluecape.com.pt   *\
|  Based on Windows porting (2.0.x v4) by Symscape: http://www.symscape.com   |
\*---------------------------------------------------------------------------*/
FoamFile
{
    format      ascii;
    class       volScalarField;
    location    "300";
    object      k;
}
// * * * * * * * * * * * * * * * * * * * * * * * * * * * * * * * * * * * * * //

dimensions      [0 2 -2 0 0 0 0];

internalField   nonuniform List<scalar> 
10244
(
0.000130165448254608
0.000130015513650577
0.000381613981414735
0.000132995004662135
0.000129711880804978
0.000381315564830641
0.000132845380312641
0.000563226878516361
0.000382254572402792
0.000136574574037956
0.000129245953682494
0.000380721145324195
0.000132537497585264
0.000562789463343335
0.000381964447340575
0.000136424552052718
0.000708849370783054
0.000562851929940198
0.00038231959281316
0.000137472998513133
0.00012860589656819
0.000379815887688189
0.00013206271591653
0.00056194809026869
0.000381371938657745
0.00013611056926972
0.000708284722022301
0.000562426556327665
0.000382034964806161
0.000137325237457348
0.000834666680787382
0.000707961434376935
0.000560182031718015
0.000379362299470781
0.000134121178426416
0.000127780909162959
0.000378576548907932
0.00013141088994918
0.00056069225232067
0.000380465896458164
0.000135625089523921
0.000707226595935668
0.000561589849582635
0.00038144493544432
0.000137009666045394
0.000833985495878329
0.000707412361801801
0.000559766016429231
0.000379082774817497
0.000133978811404295
0.000947426418880305
0.000833190510759069
0.000703524446663208
0.000553824865031205
0.000371816780515593
0.000127462749445655
0.000126758412548336
0.000376982747793183
0.000130570556607528
0.000558995495640137
0.000379225909316009
0.000134958639692544
0.000705667444687447
0.000560336424217123
0.000380538948759247
0.00013652159570191
0.000832731411812739
0.000706360293247401
0.00055893594519691
0.000378498680726506
0.000133671197044263
0.000946637112729578
0.000832528041485122
0.00070298826190091
0.000553416429567923
0.000371545136734287
0.00012732941438577
0.00105049574850243
0.000945250375322505
0.000827251101313878
0.000694498435904925
0.000542753760489776
0.000359993634919871
0.00011913587653837
0.000125522679423247
0.000375006089342328
0.000129528686070784
0.000556823330159618
0.000377629368308897
0.000134099230454197
0.000703575632483626
0.000558640612452193
0.000379298004316745
0.000135851141457005
0.000830899530705899
0.000704804600862166
0.0005576878144344
0.00037759892314519
0.00013319384104648
0.00094520301984913
0.000831281680761136
0.000701945952694162
0.000552596522748668
0.000370973628014891
0.000127037289773836
0.00104960487618453
0.000944482698300729
0.000826604593253136
0.000693972345396739
0.000542354865515143
0.000359733718195213
0.000119013931538258
0.00114587365568151
0.00104771805203365
0.000937865195934116
0.000815917741529229
0.000680311870521577
0.000527086629060297
0.000345032661040049
0.00011000031894105
0.000124059910435882
0.000372616138252389
0.000128269787423965
0.000554141175332563
0.000375649466213054
0.000133033879128631
0.000700912967741087
0.000556470395093022
0.000377699527129317
0.00013498621164162
0.000828455440186721
0.000702715928568439
0.000555997208520844
0.000376365101326007
0.000132537121131115
0.000943121575197913
0.000829454829556401
0.000700398941725532
0.000551360387648182
0.000370090428623933
0.000126581804736976
0.00104800361069844
0.000943058152488353
0.000825370888099961
0.000692943948247194
0.000541551211237446
0.000359181941242465
0.000118741796410716
0.00114488676565926
0.0010468515179084
0.000937116318445075
0.000815283691052857
0.000679797195511728
0.000526701116251629
0.000344787875445717
0.000109891130802439
0.00123490778547183
0.00114269059634878
0.00103909169112612
0.000924454919185739
0.000798921033565919
0.000661195081226608
0.000507534202056418
0.000327734031472608
0.000100200704704235
0.000122353529510227
0.000369781541786516
0.000126779306567963
0.000550910042196187
0.000373256208756641
0.000131745055099021
0.000697636337599393
0.000553790404285322
0.000375717137689439
0.000133913556313962
0.000825356153406355
0.000700056733596327
0.000553833329861481
0.000374775048016143
0.000131689123033778
0.000940356157751912
0.000827015668039301
0.000698319757041816
0.000549684284499365
0.000368877521991388
0.000125953877129984
0.00104569130202298
0.000940983557868161
0.000823555852032861
0.00069141372617977
0.000540337104235192
0.000358325829487296
0.000118314895806586
0.00114312890071711
0.00104526140304257
0.000935707248196316
0.000814067414120284
0.000678788813217163
0.000525920885019111
0.000344261769374354
0.000109641876373541
0.00123382941218488
0.00114173033709681
0.00103824653423324
0.000923720761356853
0.000798300391253193
0.000660695661406823
0.000507165997996162
0.000327507197697983
0.000100105545339295
0.00131849764994533
0.00123147278685415
0.00113311835835688
0.00102391995096923
0.000904952155765889
0.000776658681369025
0.000637711715722037
0.000484661335159439
0.0003083677284559
8.97284277242202e-05
0.000120385813942806
0.000366465849877994
0.000125040362572918
0.000547084272712184
0.000370417090662492
0.000130219863866207
0.000693697421920251
0.000550560959409288
0.000373320885218297
0.0001326158025439
0.000821552407227475
0.000696784149154473
0.000551160979890577
0.000372802773969793
0.000130636553506696
0.00093685949641011
0.000823921992989989
0.000695671895086479
0.000547538215140294
0.000367313271072391
0.000125142153999798
0.00104262900677037
0.000938225102097099
0.000821129912491932
0.000689355096384871
0.000538689181355124
0.00035714787404819
0.000117724717918428
0.00114060110466433
0.00104295740147665
0.000933647560230878
0.000812273588411434
0.000677285967404162
0.00052473963168308
0.000343441346935192
0.000109247688905677
0.00123192387368025
0.00113998487182027
0.00103667434669686
0.000922332406596564
0.000797107857211215
0.000659714631150352
0.00050641596968506
0.000327011653377609
9.98814305890539e-05
0.00131733162487833
0.00123042306383584
0.00113218169150501
0.00102309158351231
0.000904233403087321
0.000776055339815487
0.00063723185826245
0.000484313960436695
0.000308161451598576
8.96486992831651e-05
0.00139718744598065
0.00131489123648153
0.00122119496673085
0.00111652889306929
0.00100226314433446
0.000879876706348871
0.000749671578501489
0.000610283155461049
0.000458738597127753
0.000286975557386989
7.86711544934366e-05
0.00011813948356935
0.00036263011544904
0.000123034937678104
0.000542615596235738
0.000367095977737282
0.000128440333267207
0.000689042611795781
0.000546737418057986
0.000370478128819263
0.000131079843756482
0.000816988814943491
0.000692849982296223
0.000547940542654351
0.000370418600818491
0.000129364553097723
0.000932577147305147
0.00082012486386032
0.000692413037214507
0.000544887531103249
0.000365372373971161
0.000124134223826561
0.00103876597798136
0.000934736562132825
0.000818052045684281
0.000686732489030196
0.000536578160458646
0.000355627171738033
0.000116960694247564
0.00113726231522338
0.00103990382578162
0.000930905971086148
0.000809873678041392
0.000675262489118229
0.000523134452823143
0.000342309780696598
0.000108700535140102
0.00122919345541564
0.00113746636445885
0.00103438784907581
0.000920298022603969
0.000795346558309009
0.000658250479708687
0.000505277455256217
0.000326233953528233
9.95232495201624e-05
0.00131528596975472
0.00122853083042902
0.00113045609381767
0.00102154295231007
0.000902872292295276
0.000774894120167884
0.000636285553645372
0.000483600271526122
0.00030770101208972
8.94518126636127e-05
0.00139593714480927
0.00131375565841154
0.00122017072197076
0.00111561079631331
0.00100145203894826
0.000879177307533036
0.000749090148818693
0.000609826911435116
0.000458415276377751
0.000286792346531968
7.86073591621462e-05
0.00147126096428371
0.00139344186493614
0.00130405333113024
0.0012034578825019
0.00109305549773125
0.000974719542130435
0.000849777440188778
0.000718316063048133
0.000579140683593756
0.000429883488025047
0.000263585047403793
6.72093481938044e-05
0.000115598244636034
0.000358233603990471
0.000120745425293854
0.000537452069399318
0.000363253985977736
0.000126387981696816
0.000683613341760749
0.000542271347571043
0.0003671528323485
0.000129287681633604
0.000811603813185545
0.000688200693993516
0.000544127856662761
0.000367590079687461
0.000127857829348294
0.00092744775158948
0.0008155690686296
0.000688495391296163
0.000541693111267052
0.000363025800719406
0.00012291554084376
0.00103404323317388
0.00093046386945057
0.000814274021835505
0.000683504373646252
0.000533970203766551
0.000353739294918174
0.000116011356940334
0.0011330584571841
0.0010360509836924
0.000927437647369857
0.00080682774337334
0.00067268364666458
0.000521076875187938
0.000340847108121492
0.000107990996955936
0.00122559522391166
0.00113413737235782
0.00103135421206278
0.000917587480016005
0.000792988389659495
0.000656277497519345
0.000503728183897949
0.000325158102317185
9.90240340486306e-05
0.00131236410309494
0.00122581036913153
0.00112795700399751
0.00101928519947437
0.000900875169659258
0.000773177196595445
0.000634870879730303
0.000482513353268038
0.000306972535542829
8.91327636750572e-05
0.00139375804669875
0.00131172406221866
0.00121829985883978
0.00111391106255987
0.000999933732322402
0.000877851254314131
0.000747968070196787
0.00060892234224859
0.000457743690434856
0.000286371490629335
7.84394679582813e-05
0.00146992906632586
0.00139222355396105
0.0013029448746918
0.00120245371244518
0.00109215628291444
0.000973929713644183
0.000849102246020813
0.000717760991357785
0.000578711806931393
0.00042958726851993
0.000263426993634428
6.71611737380764e-05
0.00154083544874437
0.00146738674280621
0.00138212033255024
0.00128534584191965
0.00117843327238664
0.00106335630997264
0.000941862906842045
0.000814984864616807
0.000682792665857541
0.000544426087130057
0.000398169305295478
0.000238262432600662
5.55951440809908e-05
0.000112746588778705
0.00035323444977144
0.000118155031571435
0.000531538580973708
0.000358850388086132
0.000124044789266696
0.000677346943175926
0.000537110782276964
0.000363306295661212
0.000127220890102357
0.000805330761135102
0.000682777898122797
0.000539674841606685
0.000364281535895263
0.000126099839075832
0.000921403049153704
0.000810193316505646
0.000683865908212535
0.000537911483177851
0.000360241584271914
0.000121472054302195
0.00102839385325785
0.000925345817441222
0.000809741229522496
0.000679623750921672
0.000530827021714428
0.00035145613272741
0.000114862870442304
0.00112792651656544
0.0010313403118257
0.000923189368082361
0.000803088536974205
0.000669508895740643
0.000518534077937577
0.000339029793910524
0.000107108187982215
0.0012210721700205
0.00112994502584321
0.00102752526818061
0.000914157184713498
0.000789994361500897
0.000653761869258025
0.000501740673509815
0.000323765170233963
9.83747649670295e-05
0.0013085212816798
0.00122222260232866
0.00112465013142115
0.00101628679201252
0.000898212350771077
0.000770876923408872
0.000632962790675745
0.000481031738003535
0.000305960960046587
8.86859108626434e-05
0.00139065469015902
0.00130881261621296
0.00121560019341602
0.00111144340551072
0.000997717310144111
0.000875903749923117
0.000746306993804672
0.000607567245816564
0.000456716685474303
0.000285698557025374
7.81625671173792e-05
0.00146762271782637
0.00139005920393063
0.00130093588261612
0.00120061057547292
0.00109048947629695
0.000972449835661975
0.00084781946654419
0.000716685692698829
0.000577855668557675
0.000428963362259224
0.000263050086784984
6.70239477548308e-05
0.00153942453483849
0.00146608838704582
0.00138093060489344
0.00128425875797079
0.00117744937531675
0.00106248009890894
0.000941099428569573
0.000814338636110683
0.000682268114199128
0.000544028121434206
0.000397903072429133
0.000238131023554858
5.55644465215108e-05
0.0016059364317001
0.00153683702213609
0.00145562242408739
0.00136255250825571
0.0012589596086214
0.00114683281328738
0.00102804583336381
0.00090402476074749
0.000775682545106286
0.000643245093613205
0.000506247085735076
0.000363661408827309
0.00021110467841119
4.41309968887827e-05
0.000109568818402294
0.000347591654812763
0.000115247603335455
0.00052481883831482
0.000353843418407122
0.000121393396348119
0.000670177505423455
0.000531200848601175
0.000358897934985693
0.000124861320903087
0.000798097629518829
0.000676519008220014
0.00053452985723011
0.000360454658581462
0.000124072524311386
0.000914368573008805
0.000803930882970529
0.000678466708551358
0.000533495123198319
0.000356984892963433
0.00011978747558433
0.00102174379245692
0.000919314392006163
0.00080439298578881
0.000675038368699454
0.000527106137251151
0.000348746747390477
0.000113502341813957
0.00112179495175676
0.00102570525050387
0.000918100604366625
0.000798602408065937
0.000665692334671256
0.000515468919615071
0.000336830968138886
0.000106039992544574
0.00121555746550207
0.00112482673232644
0.00102284339828684
0.000909955048686088
0.000786318385421587
0.000650664227866486
0.000499283284063358
0.00032203260225388
9.75655228721122e-05
0.00130369771022356
0.00121771176213959
0.00112048428266736
0.00101250092644101
0.000894841292914716
0.00076795532303188
0.000630528569659035
0.00047912909175726
0.000304648399959866
8.81026762114313e-05
0.00138658061575698
0.00130498067836121
0.00121203603802059
0.00110817496213361
0.000994771712241498
0.000873305571115115
0.000744079962696216
0.000605737437979185
0.000455313726780713
0.000284759559537173
7.7771880030464e-05
0.00146434707407283
0.00138696666809456
0.00129804628053057
0.00119794443368217
0.00108806651566023
0.000970287667446747
0.000845933647196212
0.000715091446212773
0.000576569795197493
0.000428004315504701
0.000262438886371807
6.67918309577653e-05
0.00153699660508406
0.00146379736892303
0.00137878993910638
0.00128227905238266
0.00117564136061969
0.00106085467945563
0.000939666583228569
0.000813107267929548
0.000681246979887396
0.000543226874470617
0.000397332292218852
0.000237802828596279
5.54598674498892e-05
0.00160444886917333
0.00153546106956279
0.00145435402810988
0.00136138530764463
0.00125789401360294
0.00114587345241681
0.00102719793618054
0.000903292677676172
0.000775069775919811
0.000642755000559863
0.000505883427428844
0.00036342795358534
0.000211000747178674
4.41183912690111e-05
0.00166654589281925
0.00160181819807624
0.00152465739316075
0.00143526655454987
0.00133493920899718
0.00122565484112524
0.00110931905636923
0.000987475446689552
0.000861384832545418
0.000732011451703054
0.000599797388524323
0.000464690427695842
0.000326414371777501
0.000182196531750957
3.30731700965025e-05
0.000106052475834028
0.000341259140203516
0.000112007705783201
0.000517232730170677
0.000348190633681855
0.000118417210178065
0.000662035725704532
0.000524484683491961
0.000353885981556244
0.000122191322288102
0.000789828819708731
0.000669357982916638
0.000528638397253539
0.000356069268900845
0.000121758012428867
0.000906264792487774
0.000796710082956462
0.000672235700304265
0.000528393149942452
0.000353217847062027
0.000117844834421865
0.00101401198383705
0.000912295401568063
0.000798163121502578
0.000669691259646458
0.00052276092381552
0.000345577331177552
0.000111914009647705
0.0011145839313907
0.00101907184427303
0.000912104041009962
0.000793309689391323
0.000661182854189624
0.000511840233698963
0.000334220979312831
0.000104773753450371
0.00120897509015876
0.00111871118270248
0.00101724283734958
0.000904921645219799
0.00078190807080069
0.000646940048032177
0.000496320279112724
0.000319935030015582
9.65857158658285e-05
0.00129782307357651
0.00121221152338038
0.00111539787129149
0.00100787122815984
0.000890711198059426
0.000764367639765207
0.000627530226211778
0.000476775139026167
0.000303013543638578
8.73741932667916e-05
0.00138147340535662
0.00130016976589761
0.00120755340788757
0.00110405602096795
0.000991051273822555
0.000870015253293706
0.000741250195499366
0.000603401492149051
0.000453509781772141
0.000283537835588504
7.72600098675467e-05
0.00146005423744256
0.00138290381850531
0.00129423903300414
0.00119442113551454
0.00108485503610354
0.000967412603817374
0.000843416270320591
0.000712952204270744
0.000574831022210846
0.000426690658567462
0.000261580744467914
6.64604648214502e-05
0.00153355763792843
0.00146053296717449
0.00137572013387901
0.00127942467083118
0.00117302270737733
0.0010584899863547
0.000937571334942355
0.00081129482038762
0.000679730174079552
0.000542019553684231
0.000396449094272597
0.000237260311152564
5.52743772280265e-05
0.0016019049157001
0.00153304909301973
0.00145208767678845
0.00135927529632277
0.00125595132396891
0.00114410941324023
0.00102562292378155
0.000901915457614775
0.000773897751116546
0.000641795174909303
0.00050514335317856
0.000362915807186938
0.000210726993399205
4.40465397159657e-05
0.00166498388603491
0.00160036690934184
0.00152331268954266
0.00143402175334006
0.0013337945917638
0.00122461515858252
0.0011083897957692
0.000986661187714565
0.000860688934050648
0.000731436403808974
0.000599345524137159
0.000464364386844251
0.000326216757987286
0.000182126138949605
3.30785755893934e-05
0.00172262968928992
0.00166231367713028
0.00158924797578812
0.00150356853649952
0.00140652690184088
0.00130008303300392
0.00118614108192501
0.00106627095245617
0.000941830840948622
0.000814082768013535
0.000684101449766352
0.00055255288857098
0.000419814020622244
0.000286447132096542
0.000151577242211621
2.26169527876144e-05
0.000102189264705504
0.000334196497539816
0.000108422191833276
0.000508723837841442
0.00034184848841954
0.00011510064483498
0.000652851253238022
0.000516903648904507
0.000348228154870742
0.000119194078613423
0.000780445393863465
0.00066122592047075
0.000521943879378094
0.000351083848302048
0.000119139265010772
0.000897007475808418
0.000788455298998229
0.000665107295272963
0.000522551742897703
0.000348901152162677
0.000115627083135057
0.00100511169207067
0.000904209352759523
0.000790980614916059
0.000663521266404961
0.000517741627492754
0.000341910806416244
0.000110082141004579
0.00110620667347185
0.00101135933919231
0.00090512621877891
0.000787145283481633
0.00065592480625543
0.000507602629983044
0.000331167323956446
0.000103295054299718
0.0012012404220687
0.001111518937884
0.00101065036684079
0.000898990823643282
0.000776705144805238
0.00064253967818727
0.00049281200086394
0.000317444115523265
9.54234727275344e-05
0.001290817282918
0.00120564618497223
0.00110932041619833
0.00100233315655874
0.000885764061260026
0.000760062994750173
0.000623924862384343
0.000473935742756447
0.000301032606209205
8.64909751363429e-05
0.00137525948329055
0.00129431009974379
0.00120208706591335
0.00109902632692535
0.000986501013846056
0.000865983451717252
0.000737774479798924
0.000600523005455996
0.000451276132616079
0.000282013544959363
7.66187231152453e-05
0.00145467922240381
0.00137780961656515
0.00128945754413481
0.00118998827510626
0.00108080654249301
0.000963780124909707
0.000840227133406528
0.000710232597369229
0.000572609402434228
0.000424998819687413
0.000260460409397745
6.60241451639081e-05
0.00152905793288709
0.00145625165516478
0.0013716828550353
0.00127566020892933
0.00116955978031299
0.00105535409882818
0.000934783781723843
0.000808873716557802
0.000677692730717203
0.000540384146657253
0.000395235179031727
0.000236491499713956
5.50042433917268e-05
0.00159831114932568
0.00152962167918836
0.00144884681801954
0.00135624217282188
0.0012531468103802
0.0011415525065898
0.00102332980094147
0.000899899461918476
0.000772170050406835
0.000640366105055312
0.000504023670091346
0.000362116396308655
0.000210260742151045
4.39077595460155e-05
0.00166232927255298
0.00159783947619351
0.00152092631737572
0.00143178730207385
0.00133172327893623
0.00122271873738346
0.00110667918775988
0.000985145624006532
0.00085937575743742
0.000730331423497946
0.000598453940855288
0.00046369167592713
0.000325768982978918
0.00018191389271219
3.30413981889841e-05
0.00172099531747146
0.00166078915471829
0.00158782913982158
0.0015022484334152
0.00140530570058849
0.00129896559080746
0.00118513313870061
0.00106537739869345
0.000941055295295586
0.000813427607729085
0.0006835682029841
0.000552142906208788
0.000419528956104021
0.000286289110710782
0.000151550398636164
2.26416991300469e-05
0.00177415190285291
0.0017182905797089
0.00164937838432473
0.0015674751314467
0.00147378484022014
0.00137024234207288
0.00125873491607174
0.00114082423198282
0.00101788412606025
0.000891251909904427
0.000762248161480926
0.000632060756079488
0.000501575458501878
0.000371622838083296
0.00024373376143172
0.000119246238262172
1.31575506853329e-05
9.797638659999e-05
0.000326363800099567
0.000104482328579437
0.000499232876076252
0.000334774932594124
0.000111430137124709
0.000642553156710678
0.000508399559451423
0.000341881372550289
0.000115854380468829
0.000769866617028723
0.000652052401110163
0.000514388386196848
0.000345456524241309
0.000116199609142522
0.000886509212999292
0.000779087792594422
0.000657013230545103
0.000515915069645201
0.000343994039541581
0.00011311801084285
0.000994951366621736
0.000894972264721873
0.000782770460420329
0.000656463770363847
0.00051199549676569
0.000337709075353103
0.000107990813376827
0.00109657005745465
0.00100248119117296
0.000897088342471236
0.000780039308716957
0.000649858364489671
0.000502707796712603
0.000327633981851113
0.000101589017193032
0.00119226118605306
0.00110316337787403
0.00100298604888856
0.000892090359388422
0.000770646017847711
0.000637409129107187
0.000488714849631849
0.000314528641515326
9.40656505447535e-05
0.00128259119007531
0.00119793140821583
0.00110217334172845
0.000995814764888572
0.000879935298589001
0.000754984858449917
0.000619664571870459
0.000470572980150257
0.000298678772500186
8.54424093738193e-05
0.00136785498359039
0.00128732193359616
0.0011955622043734
0.00109301670725169
0.000981057945042666
0.000861153841291736
0.000733603685356189
0.00059706087820785
0.000448580439616778
0.000280164444583829
7.58398064606438e-05
0.00144814543215628
0.00137161105708267
0.00128363318878579
0.00118458202806351
0.00107586225963652
0.00095933679583353
0.000836318548412821
0.000706891181797721
0.000569870329793956
0.000422901830241628
0.000259059683502951
6.5475363477364e-05
0.00152343039870799
0.00145088997556567
0.00136661904988454
0.00127093073631541
0.00116520145324219
0.00105139972559183
0.000931260727655278
0.000805805241081117
0.000675100901493631
0.000538292369045166
0.000393668595419278
0.000235483071492298
5.46452231881723e-05
0.00159361634841361
0.00152513386109366
0.00144459186402761
0.00135224931504584
0.0012494455951478
0.00113816952803676
0.00102028734012505
0.000897215737344852
0.000769860214887827
0.000638444050019606
0.000502503628893504
0.000361012518215171
0.00020958960170325
4.36990672330069e-05
0.00165858909808583
0.00159425760719715
0.00151752318618602
0.00142858444366607
0.00132874211694675
0.00121997902792872
0.00110419798781736
0.000982937041462464
0.000857451065660708
0.000728699547027152
0.000597122617809415
0.000462668555522279
0.000325061250342805
0.000181530745125768
3.29491754363674e-05
0.00171823525324522
0.00165815158955281
0.00158532819092466
0.00149989512640613
0.00140311148378815
0.00129694261499875
0.00118329287924198
0.00106372971410235
0.000939608061966074
0.000812186669774669
0.000682537748840624
0.000551326353904623
0.000418929804260649
0.000285911671714901
0.000151407222339528
2.26347909623314e-05
0.00177244704441921
0.00171669478004625
0.00164788743534741
0.0015660818520182
0.00147248930457463
0.00136904950207591
0.00125765073956082
0.00113985391966938
0.00101703163473881
0.000890519909653958
0.000761638100693234
0.000631573258235984
0.000501210976624322
0.000371382339999391
0.000243620347204825
0.000119269823304228
1.31940317231205e-05
0.00182108175723842
0.00176971376460265
0.00170501704884597
0.00162696929145638
0.0015367208337773
0.00143617639370132
0.00132719837952898
0.00121132328159828
0.00108990901432541
0.000964298326673974
0.000835863144476575
0.000705982169550546
0.000575943889298134
0.000446849656482931
0.00032006249551773
0.000198339877531504
8.54690976126999e-05
5.59120075686029e-06
9.34130752608485e-05
0.000317727854851976
0.000100183841837082
0.000488704758331156
0.000326930417605067
0.000107395934804976
0.000631071304010238
0.000498914234772141
0.000334803465313984
0.000112158763757867
0.000758011405412285
0.000641766609386036
0.000505913713360107
0.000339145170195008
0.000112924382212942
0.000874680425716397
0.000768526984238073
0.000647883642812786
0.000508426058093069
0.000338455100783224
0.0001103014367068
0.000983435908489568
0.000884496858516792
0.000773454624430813
0.000648451555821499
0.000505467858499578
0.000332932519755547
0.000105624475770979
0.00108557592701382
0.000992346074998243
0.000887907207753691
0.000771917940212022
0.000642920338823932
0.000497104434467909
0.000323584219272264
9.96409254109265e-05
0.00118193853574877
0.0010935516388827
0.000994164155829635
0.000884142746283268
0.000763662403519448
0.000631490272453109
0.000483981930012463
0.000311155182488615
9.24982074788994e-05
0.00127304756957684
0.00118897517187958
0.00109387086709729
0.000988237471551498
0.000873154371767297
0.000749071479298847
0.000614697324538645
0.000466645414361054
0.000295922624683407
8.42167101506227e-05
0.0013591665846794
0.00127911640691947
0.00118789536902784
0.00108594995839157
0.000974651817927955
0.000855463735209763
0.000728683318155815
0.000592969430303544
0.000445386790101141
0.000277965618410188
7.49143134726728e-05
0.00144036539606087
0.00136422463819493
0.00127668716365926
0.00117812896996494
0.00106995466490808
0.000954021442735729
0.00083163611129898
0.000702880816574068
0.000566574754207438
0.000420369348617491
0.000257357944736164
6.48071428366326e-05
0.00151659539684965
0.00144437190066597
0.00136045693045118
0.0012651691140761
0.00115988545570568
0.00104656971556229
0.000926950481051992
0.000802043590259063
0.000671915237424657
0.000535711619482712
0.000391724339580962
0.000234218866967898
5.41909720766023e-05
0.00158775112063222
0.00151951995791202
0.00143926144494309
0.00134723941427477
0.00124479408108509
0.00113391059858999
0.00101644962585289
0.000893822639946145
0.000766931242294954
0.000635997074704731
0.000500556774819519
0.000359584065870011
0.000208702932854924
4.34174035437096e-05
0.00165371069550471
0.00158957498729226
0.00151306247870974
0.00142437537200886
0.00132481501596012
0.00121636156747185
0.00110091367161161
0.000980005157222315
0.000854887038236528
0.000726515570720591
0.000595329166866683
0.000461275597897707
0.000324077420064189
0.000180965139082351
3.28008055669388e-05
0.0017143569271647
0.00165442364599091
0.00158177131364239
0.00149653121384756
0.00139996248071831
0.00129402899229631
0.00118063258325337
0.00106133782636243
0.000937496717227617
0.000810365050243774
0.000681012484906247
0.000550102580030667
0.000418012046973919
0.000285303210884443
0.000151113248880109
2.25840070457776e-05
0.00176958658100102
0.00171395225343151
0.0016452771812117
0.00156361506763855
0.00147017766475853
0.00136690552362959
0.00125568642012709
0.00113807976210483
0.00101545621116354
0.000889149671923432
0.000760477377484874
0.000630624647428785
0.000500476192532104
0.000370863070299648
0.000243320902692764
0.000119202507768039
1.32107936757048e-05
0.0018193081184582
0.0017680484828621
0.00170345586499142
0.00162550481555964
0.00153535306035563
0.00143491035826345
0.00132604025175995
0.00121027854568083
0.00108898196947788
0.000963492005005635
0.000835179325667776
0.000705421427920718
0.000575506036516051
0.000446534463598824
0.000319870725079847
0.000198279761340374
8.55509370936345e-05
5.62801434845631e-06
0.00186339621137034
0.00181655281389307
0.00175612972871482
0.00168201971434537
0.00159531408242902
0.00149788244199977
0.00139155713395484
0.00127784069535908
0.00115805884213249
0.0010335329329948
0.000905628609931801
0.000775748653807413
0.000645312225315131
0.00051569012877429
0.000388244532153401
0.000265132163532554
0.000150651683850459
5.11223960126626e-05
1.16701861032448e-06
8.85155702708073e-05
0.000308255112781325
9.55241288835243e-05
0.000477087049322057
0.000318281253544311
0.000102992298342399
0.000618337811598123
0.000488392174154317
0.000326954925471681
0.00010809661922547
0.00074479929932118
0.000630298438644004
0.000496462274275576
0.000332108163165622
0.000109300906651483
0.00086143115822046
0.000756691804946038
0.00063764821349647
0.000500027264960847
0.000332243444662665
0.000107163473321051
0.000970468145598968
0.000872693808199264
0.000762953229357745
0.000639415810410522
0.000498102789289695
0.000327540440853191
0.000102968215906473
0.00107312241600378
0.000980859135446437
0.000877496326041465
0.000762704388555627
0.000635044994094351
0.000490739344242116
0.000318979664720504
9.74362350395192e-05
0.00117016835496565
0.00108258581002479
0.000984094226436342
0.000875066139212094
0.000755682156629692
0.000624721733671032
0.000478563900691654
0.000307287022778805
9.07079528545498e-05
0.0012620823304511
0.00117867888640027
0.00108432101972474
0.000979516970409219
0.000865345565283995
0.000742256567171251
0.000608966990902952
0.000462107753000223
0.000292732640132873
8.28010111766475e-05
0.00134909249337909
0.00126959655728456
0.00117899544019002
0.00107774174198027
0.000967205879493661
0.000848844650953637
0.000722953775445015
0.000588198649390674
0.000441656017153346
0.000275389495911782
7.38315786311148e-05
0.00143124208217859
0.00135555732252401
0.00126853152165902
0.00117054708521408
0.00106300835840553
0.000947765849250711
0.000826119324626531
0.000698149331650401
0.000562679444968539
0.0004173677130695
0.000255332365123985
6.40125897130974e-05
0.00150846243034344
0.00143661042416432
0.00135311398231934