/*--------------------------------*- C++ -*----------------------------------*\
  =========                 |
  \\      /  F ield         | OpenFOAM: The Open Source CFD Toolbox
   \\    /   O peration     | Website:  https://openfoam.org
    \\  /    A nd           | Version:  12
     \\/     M anipulation  |
\*---------------------------------------------------------------------------*/
/*   Windows 32 and 64 bit porting by blueCAPE: http://www.bluecape.com.pt   *\
|  Based on Windows porting (2.0.x v4) by Symscape: http://www.symscape.com   |
\*---------------------------------------------------------------------------*/
FoamFile
{
    format      ascii;
    class       volScalarField;
    location    "300";
    object      nut;
}
// * * * * * * * * * * * * * * * * * * * * * * * * * * * * * * * * * * * * * //

dimensions      [0 2 -1 0 0 0 0];

internalField   nonuniform List<scalar> 
10244
(
5.27660467462985e-05
5.27051937066376e-05
0.000460585233617198
5.58408508306871e-05
5.25821908064321e-05
0.000460412896111048
5.57777065119214e-05
0.0011251213144614
0.000470962008415492
5.97179101359184e-05
5.23933891607641e-05
0.000459953461819334
5.56487797959096e-05
0.00112493817320787
0.000470796967185906
5.96520043151316e-05
0.00187486650435167
0.00113659876220256
0.000484207537240872
6.20334977903906e-05
5.21339090291971e-05
0.000459192049984779
5.54494829722739e-05
0.00112413955761646
0.000470336071103746
5.95150462681238e-05
0.00187470463808978
0.00113643021259605
0.000484047345423398
6.1966836855193e-05
0.00262247296750109
0.00188294653151267
0.00115025417271046
0.000492200987470331
6.13204029067114e-05
5.17993811790477e-05
0.000458106583255119
5.51757947057722e-05
0.001122747118095
0.000469561727232139
5.93027946909296e-05
0.0018735849594186
0.00113563467653177
0.000483583003532662
6.18244547362712e-05
0.0026223131981793
0.0018828051841015
0.00115009796265143
0.000492044177438845
6.12553224180803e-05
0.00332682571798688
0.00262508285686939
0.00188966753433233
0.001157053273592
0.000489949941361736
5.83034902216647e-05
5.1384965906511e-05
0.00045668507324851
5.48229472066607e-05
0.00112074189959795
0.00046845871965298
5.90114125065342e-05
0.00187155964096183
0.00113423546915619
0.000482792059176924
6.16042365315091e-05
0.00262087000833653
0.0018816917418737
0.00114930349372439
0.000491578277383076
6.11147006460974e-05
0.00332663467682648
0.00262494805451324
0.00188954434662689
0.00115690454762814
0.000489798192544912
5.82425027334412e-05
0.00397201874365922
0.00332374878595142
0.00262186508099455
0.00188780146366391
0.00115059020752642
0.000478875679026895
5.43520413116273e-05
5.08839209969708e-05
0.000454897359005856
5.43855313588883e-05
0.00111807528465293
0.000467008934436783
5.86356648766475e-05
0.0018686002435924
0.00113221232430385
0.000481662008185459
6.13017275613247e-05
0.0026182152100096
0.00187966358706832
0.00114789261934475
0.000490777183566703
6.08964766651024e-05
0.00332485793691555
0.00262351526147343
0.00188843713725249
0.00115611244846609
0.000489339032947798
5.81089045542097e-05
0.00397176207588946
0.0033235861990588
0.00262175318271069
0.00188768781753253
0.00115044845029088
0.000478732775038984
5.42963999902178e-05
0.00455518980177262
0.00396467807799004
0.00331038178382787
0.00260740977196237
0.00187177081527935
0.00113121171373446
0.000462930679943332
5.01173823578481e-05
5.02909478027252e-05
0.000452711527704087
5.38568587615657e-05
0.00111470541751572
0.00046518607881917
5.81701190311806e-05
0.001864653797729
0.00112952590529675
0.00048017462527549
6.09114618707665e-05
0.00261431441306194
0.00187669595310331
0.00114584657027293
0.000489628706666101
6.05962474858921e-05
0.00332158331316352
0.00262086345218294
0.00188640462562297
0.00115469511296651
0.000488542193375798
5.79005875328062e-05
0.00396964251540199
0.00332182433357082
0.00262033243743027
0.00188658749833784
0.00114966556824234
0.000478289065298163
5.41722765473457e-05
0.00455483892548712
0.00396445379276363
0.00331024645617598
0.00260730837935563
0.00187166382035965
0.00113107987755048
0.000462800134414684
5.00675727969528e-05
0.00507948076291399
0.00454527903417864
0.00394302146319129
0.0032826693092499
0.00257769755431152
0.00184096564473709
0.00110265618650661
0.000444444595980741
4.56468855022547e-05
4.95992901314446e-05
0.00045009925214679
5.32310144260732e-05
0.00111058119536377
0.000462959154709286
5.76061588909654e-05
0.00185965336415642
0.00112613003806369
0.000478304164402088
6.0427726531712e-05
0.00260910161880135
0.00187273695256727
0.00114312898404253
0.000488115136752473
6.02085520059738e-05
0.00331676946323488
0.00261696243620802
0.00188342479887014
0.00115263426070487
0.000487395528011592
5.7613382419927e-05
0.00396576199912218
0.00331855876523821
0.00261768478961193
0.0018845560740173
0.00114825553232038
0.000477510355109128
5.39775506214036e-05
0.00455237035132532
0.00396235321211567
0.00330850267798507
0.00260589985619303
0.00187057574553055
0.0011303154236714
0.000462378255167833
4.99540920512255e-05
0.00507901266753255
0.00454496411196725
0.0039428289515475
0.00328254550036408
0.0025776012098298
0.00184086730521073
0.00110253814512888
0.000444329335737702
4.56034333591863e-05
0.00554987159370928
0.00506804040129383
0.00451766737620624
0.00390364859110678
0.00323784345770232
0.00253185949635691
0.00179762623545598
0.00106760094777927
0.000423803352625119
4.08821527420931e-05
4.88016409785969e-05
0.000447021967910106
5.2500943994707e-05
0.00110563377411026
0.000460295945586611
5.69392350922686e-05
0.00185351843115932
0.00112196975755303
0.000476018144074857
5.98417090537549e-05
0.00260249002930023
0.00186771958290489
0.00113969267622419
0.000486210892463107
5.97272833271977e-05
0.00331033507985152
0.00261174741947427
0.00187944746489748
0.00114989457270761
0.00048588189015447
5.72420903880794e-05
0.00396006960507296
0.00331375242675535
0.00261378376775582
0.00188157229131643
0.0011461998477012
0.000476384853875818
5.37083103241505e-05
0.00454789924373934
0.00395848632913952
0.00330524990742322
0.00260326296685269
0.00186855832335382
0.00112892850248032
0.00046162710600252
4.97745809522462e-05
0.00507619320005927
0.00454251808300444
0.00394075213244136
0.00328081977913154
0.00257620909682096
0.00183980039192739
0.00110180074302284
0.000443934216289155
4.55014573685082e-05
0.00554926959092969
0.00506761182357918
0.00451738872920384
0.00390346918155722
0.00323772317447294
0.0025317691185397
0.00179754014430772
0.00106750043635651
0.000423706590879983
4.08458180801647e-05
0.0059713122204182
0.00553730762726123
0.00503609757447256
0.00446881879945388
0.00384438018461123
0.00317506665412864
0.00247075641816243
0.00174354772331113
0.00102679785748312
0.000400711944699241
3.58442821456709e-05
4.78909945979647e-05
0.00044343781015705
5.16589392863238e-05
0.00109979216459426
0.000457158284332792
5.61611997648498e-05
0.00184615471501352
0.00111697999186827
0.000473283287517543
5.91486070338267e-05
0.00259437414022337
0.00186156303339486
0.00113548064486031
0.000483882603458944
5.91456647798226e-05
0.00330217443926868
0.00260513198841677
0.00187440561368327
0.00114642875812205
0.000483976208010952
5.67810650905003e-05
0.00395247050592973
0.00330732648195742
0.00260856629401233
0.00187758688456776
0.00114346373122545
0.000474896319601802
5.33597385375765e-05
0.00454136565811259
0.00395280809991573
0.00330045568638573
0.00259937239651535
0.0018655899338596
0.00112690042191774
0.000460535605979606
4.95252461120741e-05
0.00507114802237517
0.00453806394839336
0.00393690555974921
0.00327758811831483
0.00257359585320428
0.00183781338959995
0.00110045051386417
0.000443217335715278
4.53383656720525e-05
0.00554610093195871
0.00506481763760453
0.0045149715606852
0.00390141633142752
0.00323601900612337
0.00253040195494005
0.00179650416364041
0.00106679786466378
0.000423343284698719
4.07562188635201e-05
0.00597056573137932
0.00553674832060081
0.00503570959609756
0.00446855533486647
0.00384420353841411
0.00317494957161175
0.00247067512975589
0.00174347746038448
0.0010267186006291
0.000400637426432819
3.58152809970135e-05
0.00634822536960293
0.00595771364691963
0.00550184758550006
0.00497944514192688
0.00439655623583912
0.00376444294039399
0.00309427835169087
0.00239498843136993
0.00167919073119613
0.000979989509978799
0.000374890622693217
3.06175003485036e-05
4.68608467010975e-05
0.000439302503031259
5.06976013213552e-05
0.00109297711322098
0.000453503786042656
5.52638216619152e-05
0.00183745478795718
0.00111108803552754
0.000470060797410096
5.83399824635062e-05
0.00258462915034404
0.0018541725297492
0.00113042819237442
0.000481095988978431
5.84567502998017e-05
0.0032921588329303
0.00259701055460474
0.00186821784641014
0.00114217905982121
0.000481645783779692
5.62235107201056e-05
0.00394284060402495
0.0032991757733019
0.00260194664008104
0.00187253313486711
0.00114000024522377
0.000473020413084709
5.29266487414371e-05
0.00453266044036546
0.00394522592316717
0.00329404368402144
0.00259416624900526
0.00186162175931804
0.0011241970159013
0.000459088869428375
4.92019478675593e-05
0.00506380946497063
0.00453154884450663
0.00393125007422546
0.003272819751704
0.00256973587115625
0.00183488420497685
0.00109846886558543
0.000442168626374093
4.51109445819469e-05
0.0055405008786907
0.00505979222446631
0.00451054393503749
0.00389760074279644
0.00323282225636283
0.00252782935317956
0.00179456387471926
0.00106549598980669
0.000422667347412985
4.06108392394138e-05
0.00596705374534959
0.00553360746466844
0.00503294882814654
0.00446616793739568
0.00384217810826405
0.0031732753595937
0.00246934342018055
0.00174248206077008
0.0010260587464199
0.00040031149237606
3.57388432988844e-05
0.00634732700187484
0.00595701210909703
0.00550133292490569
0.00497907475047219
0.00439629564966754
0.00376426750520493
0.00309416699985651
0.00239491944119615
0.00167913956185263
0.000979935224843758
0.000374840449078786
3.05956140044924e-05
0.00668454023211466
0.00633359235338018
0.00591908304528589
0.00543841185439956
0.00489554741371511
0.00430014299464632
0.00366332862019979
0.00299506211846979
0.00230426155119621
0.00160405408889277
0.000926577687637426
0.000346162894648586
2.53297749163341e-05
4.57048934396499e-05
0.000434569736832849
4.96099695625604e-05
0.0010851011013855
0.000449287404434013
5.42392167406859e-05
0.00182730018692922
0.0011042136843561
0.000466307334321218
5.7407384076088e-05
0.0025731157836106
0.00184544070418115
0.00112446186620913
0.00047781145388136
5.76530857275753e-05
0.00328013535887933
0.00258725901296407
0.00186078935588182
0.00113707976760931
0.000478854758183395
5.55632464025803e-05
0.00393102694725637
0.00328917131909095
0.00259381954652546
0.00186632943968672
0.00113575175332873
0.000470724820721579
5.24026013651034e-05
0.00452164208864893
0.00393561644386238
0.00328590995456332
0.00258755962353361
0.00185658759292577
0.00112077196752289
0.000457262462188905
4.87997009465798e-05
0.00505405552851982
0.00452286653539288
0.00392369606681575
0.00326644011665154
0.00256456793326506
0.0018309644753065
0.00109582245449047
0.000440774323414756
4.48150958646852e-05
0.00553239434282719
0.00505247552040866
0.00450405999841922
0.00389198567785629
0.00322810213223971
0.00252402528589795
0.00179169697791382
0.00106357654432892
0.000421669862665124
4.04072795129529e-05
0.00596092065738035
0.00552802950913528
0.00502795533795679
0.00446178043915785
0.00383840931260807
0.0031701316964356
0.00246682987078822
0.00174060412152978
0.00102481681206855
0.000399683221839474
3.56126589956668e-05
0.00634348192939709
0.00595353038669444
0.00549822980066622
0.00497634949961291
0.00439394211587277
0.00376227826672497
0.00309253395385668
0.00239363425377862
0.0016781945143913
0.000979326475581722
0.000374557872806527
3.05331461552995e-05
0.00668348739388197
0.00633274152178293
0.00591842981484976
0.00543791740661378
0.00489518083336387
0.00429988275681851
0.00366315635139206
0.00299495930840037
0.00230420759533528
0.00160402485740632
0.000926550821169828
0.000346137024392666
2.53158162343616e-05
0.00698381653465685
0.00666888334212603
0.00629196813450131
0.0058494797705853
0.00534394538026463
0.00478366040944339
0.00417896286695099
0.00353996423451624
0.00287628622142867
0.00219744984717653
0.00151699626335396
0.000865765570405378
0.000314396673856959
2.01334177640273e-05
4.44167075350176e-05
0.000429195673952182
4.83892563103895e-05
0.001076075353498
0.000444462650215421
5.30798717000822e-05
0.00181556281654178
0.0010962696993092
0.00046197684740043
5.63426180756409e-05
0.00255967472219304
0.0018352485401482
0.00111750052281203
0.000473985533707292
5.6726246375857e-05
0.00326592867740554
0.00257573651744822
0.00185201259872717
0.00113105728527114
0.000475563991467028
5.47927614408438e-05
0.00391685057742876
0.00327716074121114
0.00258406137834045
0.0018588809383905
0.00113065210315054
0.000467974548106226
5.17819599120191e-05
0.0045081368140902
0.00392382770682571
0.00327592623438466
0.00257944795274214
0.00185040628706334
0.00111656822911
0.000455025702762326
4.83129682066973e-05
0.00504172732380438
0.00451187619902521
0.00391412182059268
0.00325834676513403
0.00255800811024587
0.00182598877688529
0.00109246549939058
0.000439009885703969
4.44464071526238e-05
0.005521646916468
0.00504274847529843
0.00449541714086958
0.00388448388346701
0.00322178522532139
0.00251892921732349
0.00178785579237185
0.0010610069656954
0.000420337274216493
4.01414848979685e-05
0.0059520844734781
0.00551994760947209
0.00502067689302547
0.00445535008060505
0.00383286078605831
0.00316548763191302
0.00246310839105436
0.00173782137342152
0.00102297486325419
0.000398745296522208
3.54346492463113e-05
0.00633684057401029
0.00594742170739379
0.00549268881989273
0.00497140487614468
0.00438961355516982
0.00375857656668837
0.00308946396689083
0.00239119869881954
0.00167639481866298
0.000978156645885161
0.000373984602954673
3.04273781560288e-05
0.00667932193817461
0.00632892874270461
0.00591499001389692
0.00543485560335905
0.00489249642790106
0.00429757283894019
0.00366121547064844
0.00299337980120795
0.00230298031750278
0.00160314031041218
0.000926002041158627
0.00034590669544929
2.52682030792957e-05
0.00698260953732654
0.00666788021461332
0.00629116915965447
0.00584884951827405
0.00534345639078087
0.00478329451053132
0.00417870455141879
0.00353979762852715
0.00287619427462488
0.00219741303361315
0.00151699093186453
0.000865766639292262
0.000314392108057015
2.01276826799015e-05
0.0072493135862146
0.00696717801085323
0.00662442523574566
0.00621664458735043
0.005745300763397
0.00521765224380302
0.00464322658169176
0.00403162249190897
0.00339253885138483
0.00273607765397001
0.00207263975561329
0.00141624555971057
0.000796409851521877
0.000279322789706429
1.5128217880564e-05
4.29911664292584e-05
0.000423119723651452
4.7028939818422e-05
0.00106579365404614
0.000438980628592099
5.17785267990477e-05
0.00180210025547717
0.00108716358124767
0.000457021487741563
5.5137788129331e-05
0.00254413363307885
0.00182346618695547
0.00110945612116311
0.000469571150634901
5.56679870641804e-05
0.00324934357892857
0.00256228488761817
0.00184176806842777
0.00112402989202549
0.000471729530210482
5.39042067952413e-05
0.00390010346224551
0.00326296935242416
0.00257253118962219
0.00185008014262044
0.00112462741435965
0.000464730389976843
5.10573625751181e-05
0.00449193692895396
0.00390968025269172
0.00326394105816959
0.0025697083047207
0.00184298318101174
0.0011115204182813
0.000452344559071084
4.77361386340758e-05
0.00502662957857666
0.0044984042435611
0.00390237674978056
0.00324841279307411
0.00254995292267942
0.00181987695368096
0.00108834221278483
0.000436847037734937
4.39999633092588e-05
0.00550808347142568
0.00503045330757451
0.00448447644862567
0.00387497572237957
0.00321377071355929
0.00251245847496004
0.00178297591767916
0.00105774215160716
0.00041864648080557
3.98095401852246e-05
0.00594039907019288
0.00550923055226302
0.0050109984766997
0.00444677720479524
0.00382544699152103
0.0031592708962549
0.00245811944475196
0.00173408702308602
0.00102050097949533
0.000397485184586308
3.52014489958875e-05
0.00632731551403745
0.00593861289938859
0.00548465169599293
0.00496419227794001
0.00438326797224187
0.00375312624237407
0.00308492640149789
0.00238758698851803
0.00167371833093227
0.0009764082410625
0.00037311576768665
3.02763887564866e-05
0.00667220080399716
0.00632231435197142
0.00590892332533735
0.00542937212737656
0.00488762317656397
0.00429332659156849
0.00365760410028913
0.00299040552527151
0.0023006425112593
0.00160143567326292
0.000924917694854038
0.000345400131034522
2.51836656907783e-05
0.00697813945033753
0.00666374933772769
0.0062874023465593
0.00584545692020099
0.00534044290484767
0.0047806622261448
0.00417645176393315
0.00353791888346357
0.00287468128083631
0.00219625542625295
0.00151617747055121
0.000865288723238461
0.000314226328943864
2.00948894736751e-05
0.00724795481787752
0.006966022639961
0.00662347727754734
0.00621587148023046
0.00574467820187869
0.00521716538444814
0.00464286285271433
0.00403136847105362
0.00339237998205108
0.00273599820896259
0.00207262137720182
0.00141626498015693
0.000796439608827539
0.000279358455570011
1.51307003679674e-05
0.00748401025512045
0.00723176076660195
0.00692007648410064
0.00654379396546956
0.00610351108511837
0.00560566910717111
0.00505908755583182
0.00447275173139835
0.0038558684368114
0.00321853447501298
0.00257174632756222
0.00192700245522777
0.00129913642257441
0.000716605993812015
0.000240208293777826
1.03405249663246e-05
4.1425076656578e-05
0.00041629272838392
4.55234049716259e-05
0.00105416112020942
0.000432787098100299
5.03283397381044e-05
0.00178676299806108
0.00107679467599215
0.000451392254043934
5.37853085084205e-05
0.00252630273883482
0.00180995224127114
0.00110023462089887
0.000464518972172947
5.44706752716827e-05
0.00323016198688342
0.00254673050334918
0.00182992501664244
0.00111590863027119
0.000467304095526119
5.28897176810063e-05
0.00388055164748765
0.00324640116482141
0.00255907117538044
0.00183980739763452
0.00111759598319526
0.000460948683614599
5.02216308159142e-05
0.0044728043580385
0.00389296698706058
0.00324978064576916
0.00255820036507021
0.00183421122679033
0.00110555456620664
0.000449180024045625
4.70625127626895e-05
0.00500853013423123
0.00448224434449111
0.00388828248090706
0.00323648819599397
0.00254028059204848
0.00181253519998706
0.00108338837576231
0.000434252228599089
4.34706252076459e-05
0.00549148869697679
0.00501539543189712
0.00447106587913333
0.0038633126511413
0.00320393355415056
0.00250451108915818
0.00177697868412765
0.00105372806193794
0.000416570979030057
3.94070452458492e-05
0.0059256739515622
0.00549570447722248
0.00499876462899248
0.00443592548028951
0.00381605059669909
0.00315138260586086
0.00245178201371911
0.00172933800044263
0.00101735140679104
0.000395881590890413
3.49092055178045e-05
0.00631474912634687
0.00592696126901687
0.00547399165370348
0.00495460014856199
0.00437480801468685
0.00374584349817729
0.00307885052939967
0.00238274099786916
0.00167011937209916
0.000974050548575103
0.000371941214444028
3.0077699638261e-05
0.0066620293504786
0.00631281933858975
0.00590016571818896
0.00542141278283014
0.00488051358362147
0.00428710258438893
0.00365228684674037
0.00298600667493994
0.00229716896937271
0.00159888898479091
0.000923280784186195
0.000344612946186744
2.50605612624868e-05
0.00697056817037627
0.00665665721597598
0.00628083499352055
0.00583945641123665
0.00533504354539584
0.00477588748234918
0.00417231427956196
0.00353442307624679
0.00287182611823904
0.00219403632865906
0.00151458609052138
0.000864306642255528
0.000313802182755151
2.00315561117034e-05
0.00724319728218153
0.0069615891816716
0.00661939635203223
0.00621215776744549
0.00574134175582619
0.00521421341805387
0.00464029794102407
0.00402918821780196
0.00339057801566323
0.00273456519363167
0.00207154560039087
0.00141553411033803
0.000796045493488718
0.000279274113151532
1.51136767414004e-05
0.00748250351011432
0.00723045532236269
0.00691897932110336
0.00654287480825126
0.00610274835347525
0.00560505106555819
0.00505860455088675
0.00447239267634763
0.00385562076658259
0.00321838476062217
0.00257168021152101
0.00192700291550053
0.001299181616668
0.000716678331359157
0.000240311166257222
1.03518358436719e-05
0.00769060501039979
0.00746562422220324
0.00718223652079038
0.00683456474930776
0.00642243596977013
0.00595160310413586
0.00543025846385503
0.0048667731253348
0.00426974889488129
0.00364873825022311
0.00301465822992141
0.00237961154642705
0.00175649551581168
0.00116157493147562
0.000623015565203775
0.000195391631274688
5.93724101149544e-06
3.97173898040666e-05
0.000408660101799876
4.38691647566877e-05
0.00104106162421714
0.000425827435591762
4.87233826552639e-05
0.00176939164848769
0.00106505920709187
0.000445033562484142
5.22783000497689e-05
0.00250597770863015
0.00179455571661135
0.00108973610097667
0.000458779789496439
5.31266561058229e-05
0.00320814560039905
0.00252888359654612
0.001816341838787
0.00110659834607042
0.000462238067392062
5.17420092959644e-05
0.00385793404204706
0.00322723853763553
0.00254350745823315
0.00182793155871443
0.00110946837695583
0.000456582636480561
4.92675050719384e-05
0.00445046817055143
0.00387345415103177
0.00323324954061911
0.00254476697300372
0.00182397108691068
0.00109858948136255
0.000445489010298448
4.62851793092084e-05
0.00498716033569505
0.00446315846800949
0.00387163337519548
0.00322240070422752
0.00252885202073263
0.00180385737007613
0.00107753073436599
0.000431187161071936
4.28521902749483e-05
0.00547160648946617
0.00499734346372239
0.00445498098457865
0.00384931842586921
0.00319212583093787
0.00249496706556568
0.00176977171791512
0.00104890175856977
0.000414078056754658
3.89294111374803e-05
0.00590767487907652
0.00547915490126062
0.00498378270756447
0.00442262546532933
0.00380452574527187
0.00314170008595742
0.00244399610800346
0.00172349747493229
0.00101347395783479
0.000393908722680543
3.4554239279077e-05
0.00629893662919684
0.00591227775637287
0.00546053750130172
0.00494247612798623
0.00436410032417483
0.00373661370004086
0.00307113990819306
0.0023765818481767
0.00166553666791234
0.000971041658069185
0.000370440929205666
2.98276240353217e-05
0.00664864076266932
0.0063002901708079
0.00588857932952663
0.00541085471973338
0.00487105894218162
0.00427880586494627
0.00364518216613317
0.00298011463886047
0.00229250344363634
0.00159545614547637
0.000921062757411528
0.000343539075760573
2.48970327057931e-05
0.00695979514346706
0.00664651881435767
0.00627139759331208
0.00583078844089872
0.00532720552165903
0.00476892368889313
0.00416625189171373
0.00352927624307234
0.00286760026595448
0.00219073137305948
0.00151219499367178
0.000862802194019197
0.000313111042650798
1.99363590218322e-05
0.00723520675656019
0.00695404909095942
0.00661235610855762
0.00620566524983935
0.00573543830584894
0.00520892946554946
0.00463565183355766
0.00402518815942474
0.00338722477613947
0.00273185406230397
0.00206946763690372
0.00141407623503667
0.000795184591537889
0.000278945319266502
1.50714720873705e-05
0.0074774763704706
0.00722573629664815
0.00691459957538474
0.00653885280857607
0.00609909881266865
0.00560178616834361
0.00505573140276252
0.00446991241094749
0.00385352949785421
0.00321667484895304
0.00257034109345664
0.00192602164732036
0.00129854581441974
0.000716383786467497
0.000240328767750123
1.03486684304386e-05
0.00768895455288811
0.00746417220733918
0.00718099204588747
0.00683349929017303
0.00642153018888514
0.00595084801703536
0.00542964719050964
0.00486629689240466
0.00426939679692582
0.00364849840249544
0.0030145183302926
0.00237955869031725
0.00175651486276713
0.00116165253681212
0.000623151708431789
0.000195576920455156
5.95366700832213e-06
0.00787151432084962
0.00767147170908925
0.00741391391783585
0.0070922902216044
0.00670571078124494
0.00625930989928081
0.00576070686811143
0.00521766325787993
0.00463813694521735
0.0040310157388502
0.00340657631807446
0.00277671188478652
0.00215478269646167
0.00155545570800006
0.000997453066281979
0.000510436376034122
0.000143011603671553
2.4447834010271e-06
3.78674997536506e-05
0.000400177510825166
4.20643901260224e-05
0.00102638612488168
0.000418047221530112
4.69594084506882e-05
0.00174981787230695
0.00105184496975669
0.000437888800092666
5.06106863701609e-05
0.00248294102782767
0.00177711650824725
0.00107785379163102
0.000452299300704493
5.16292199230469e-05
0.00318303407396564
0.0025085395067765
0.00180086698034369
0.00109599883719185
0.000456480961536052
5.04536528990939e-05
0.00383196227505694
0.00320524272891085
0.00252565036533594
0.00181431066861589
0.00110014900094956
0.000451582841765336
4.81879106626775e-05
0.00442462494774561
0.00385088097882842
0.00321413082695465
0.00252923469702083
0.00181213177687757
0.00109053590154197
0.000441225711302002
4.53975764838112e-05
0.00496221419061508
0.00444087634014224
0.00385219695954114
0.00320595632110622
0.00251551126858517
0.00179372494210073
0.00107068851974919
0.000427610250725831
4.21380530452408e-05
0.00544813966712991
0.00497602938015609
0.00443598539183693
0.00383278973359468
0.00317817750512039
0.00248368908659124
0.00176125029283333
0.00104319150649028
0.000411131127819263
3.83710710125636e-05
0.00588612322772086
0.0054593265677346
0.00496582340683239
0.00440667556970315
0.00379069920210306
0.00313007818992723
0.0024346441655034
0.00171647530518923
0.00100880738841928
0.000391536391622113
3.41326621894088e-05
0.00627962554500129
0.00589432909474754
0.00544407701623257
0.00492763072708466
0.00435097892897352
0.00372529433890213
0.00306167482624918
0.00236901205694155
0.00165989568041925
0.000967331185496494
0.000368589778806536
2.95231478815458e-05
0.00663181582807614
0.0062845234986499
0.00587397810671527
0.00539753033346839
0.00485911051874911
0.00426830657463081
0.00363617874656874
0.00297263605139969
0.00228656978689647
0.00159107829222957
0.000918224046603425
0.000342160715153045
2.46900353324086e-05
0.00694564351914858
0.00663317074312123
0.00625894186269135
0.00581931950586462
0.0053168093400168
0.00475966516678141
0.00415817268771692
0.00352239981586099
0.00286193789980178
0.00218628677827641
0.00150896236451936
0.000860750422134386
0.000312153229047707
1.98078618147889e-05
0.0072238771190061
0.00694331174986084
0.00660228170420326
0.00619632923384124
0.00572690997315701
0.00520126195437549
0.00462887960089903
0.00401933009520291
0.00338228833698626
0.00272783802249562
0.00206636427458683
0.00141186921489383
0.000793835450514834
0.000278364519944723
1.50036042179786e-05
0.00746909769623772
0.00721777903336522
0.00690711604320572
0.00653189586028276
0.0060927162809686
0.00559601539135478
0.00505059694590578
0.00446542724669965
0.00384969750239775
0.00321349293832645
0.00256780053901344
0.00192410893743928
0.00129724313642504
0.000715661518963135
0.000240109436928781
1.03254394785202e-05
0.00768367564135859
0.00745918528869871
0.00717633023356942
0.00682918409588976
0.006417580380888
0.00594728039645332
0.00542647339948557
0.00486352191672198
0.00426701957870307
0.00364651331106524
0.00301291628979077
0.00237832781814649
0.00175564136541356
0.00116112639131501
0.000622983389801259
0.000195716960054023
5.96125936380713e-06
0.00786972483713631
0.00766987730731771
0.007412525376383
0.00709108028475731
0.00670466189938621
0.00625841542410892
0.00575996243136935
0.00521706233505979
0.00463767026746861
0.0040306723851114
0.00340634512135281
0.00277658160916427
0.00215474232858865
0.00155549614255872
0.000997575183856831
0.000510673721878155
0.000143309088899054
2.46086511422117e-06
0.00802887543918613
0.0078517190522351
0.00761781436638217
0.00731998518703993
0.00695666685763513
0.00653241496885774
0.0060543102858544
0.0055295162222428
0.00496532135637725
0.00436990022096787
0.00375275967663901
0.00312499868281931
0.00249952382809474
0.00189105183758423
0.00131660164180519
0.000799201768467029
0.000372923583195793
8.27845832591717e-05
4.89998915460298e-07
3.58821934206811e-05
0.000390785395886896
4.0107916212874e-05
0.00101002237557098
0.000409405473017752
4.50339072178973e-05
0.00172786843443622
0.00103703978295221
0.000429902647747896
4.87776829613822e-05
0.00245696014342243
0.00175746531669012
0.00106447506426635
0.00044502006064671
4.99725692911349e-05
0.00315454745910837
0.00248547951612022
0.00178333916147852
0.00108400301973007
0.0004499806745963
4.9018301346327e-05
0.00380232027185308
0.00318015376228523
0.00250529517221354
0.00179879284107085
0.00108953703554258
0.000445897784896177
4.6976058198956e-05
0.00439493762478909
0.00382495942206712
0.00319218635967386
0.00251141432758419
0.0017985513919023
0.00108129824680079
0.00043634092671207
4.43930610796559e-05
0.00493334754110371
0.00441509505385261
0.00382971381972155
0.0031869396134912
0.00250008602982712
0.00178200769258524
0.00106277342812116
0.000423475365584145
4.13224603077908e-05
0.00542074882157344
0.0049511479129817
0.00441381066996513
0.00381349648970278
0.00316189689356541
0.00247052309798325
0.00175129717806209
0.00103651689357775
0.000407688691915102
3.77259718526397e-05
0.00586069490640771
0.00543592304383379
0.00494462082203133
0.00438784244381689
0.0037743709435182
0.0031163498820241
0.00242359127489452
0.00170816840547861
0.00100328189059294
0.000388728675636086
3.36394419114605e-05
0.00625651701403971
0.00587283754253289
0.00542435727174475
0.00490983807208767
0.00433524616490001
0.00371171605131032
0.00305031365829214
0.00235991718030547
0.00165310901760856
0.000962860321349073
0.000366360377917349
2.91612655303826e-05
0.00661128671135272
0.00626526838047924
0.00585613134010038
0.00538123106481081
0.00484448305113565
0.00425544306580297
0.00362513820138636
0.00296345490103518
0.00227927369869818
0.00158568373339178
0.000914716360497757
0.000340454413413145
2.44375889394713e-05
0.00692788259206048
0.00661639620640767
0.00624326779421155
0.00580486760585538
0.00530369164686323
0.00474796748423899
0.00414795108253846
0.0035136865978487
0.00285474946504508
0.00218062990403996
0.00150483264672254
0.000858115558341189
0.000310916184238778
1.96447244325748e-05
0.0072090226912375
0.00692920431318391
0.00658901514810809
0.00618400620681769
0.00571562708488173