/*--------------------------------*- C++ -*----------------------------------*\
  =========                 |
  \\      /  F ield         | OpenFOAM: The Open Source CFD Toolbox
   \\    /   O peration     | Website:  https://openfoam.org
    \\  /    A nd           | Version:  12
     \\/     M anipulation  |
\*---------------------------------------------------------------------------*/
/*   Windows 32 and 64 bit porting by blueCAPE: http://www.bluecape.com.pt   *\
|  Based on Windows porting (2.0.x v4) by Symscape: http://www.symscape.com   |
\*---------------------------------------------------------------------------*/
FoamFile
{
    format      ascii;
    class       volScalarField;
    location    "300";
    object      omega;
}
// * * * * * * * * * * * * * * * * * * * * * * * * * * * * * * * * * * * * * //

dimensions      [0 0 -1 0 0 0 0];

internalField   nonuniform List<scalar> 
10244
(
2.46684101389004
2.46684443233918
0.828541502335488
2.38167941003234
2.46684055600649
0.82820348441906
2.38169312831549
0.500592132845674
0.81164630176615
2.28699520340065
2.46683705239826
0.827738406007996
2.38167841363892
0.500284794975429
0.811314587737663
2.28700701039331
0.378079916163511
0.495207234652864
0.789577946249467
2.21610909282675
2.46683778299006
0.827139511018929
2.38167623641441
0.499891749615325
0.810849862658359
2.28699426119106
0.377811366991658
0.494906374446755
0.789251234240307
2.21610855784451
0.318274655689863
0.375985946774703
0.487007171987041
0.77074672568317
2.18721945826839
2.46684238796747
0.826394037426664
2.3816764334784
0.499393178823752
0.810257468599162
2.28699322233907
0.37747239183385
0.494516292244379
0.788788962097087
2.21610795646877
0.318034282273138
0.375722548341818
0.486711597278853
0.770424267167783
2.18721910383333
0.284783904897071
0.317395890411136
0.372300647537865
0.478651137049108
0.758887284448261
2.18619415340407
2.46683850640202
0.825476394732183
2.3816770761216
0.498772728886701
0.809518306323615
2.28699219286779
0.377047799729638
0.494021249956136
0.788204655660658
2.21610725801435
0.317730909646021
0.375385764590772
0.486325803627067
0.769966245745132
2.18721838822913
0.284562990737728
0.317159815811861
0.37204115540122
0.478359628460729
0.758567798716853
2.18619407494419
0.264474015934443
0.284392845607894
0.315520088089383
0.367887433754299
0.471717694918166
0.751747584365529
2.19193012191216
2.46684368979191
0.824375173691654
2.38167547203002
0.498019532139524
0.808612727643681
2.28699087383596
0.376525495432344
0.493406228196356
0.787477521313452
2.21610624792104
0.317353412175332
0.374963161339651
0.485836222862677
0.7693897267208
2.18721752621212
0.284283731149725
0.316857955037878
0.371707344050345
0.477978178923551
0.758111662951002
2.186193161761
0.264266805546118
0.28417577933384
0.31528696091769
0.367630886289163
0.471429089567652
0.751429058029125
2.19193043295136
0.251553438066533
0.264263083010465
0.283310281767452
0.312922713684224
0.363458958205867
0.465948701432935
0.745322520171454
2.19485363692034
2.46684375332373
0.823076320017962
2.3816797038208
0.497118939789085
0.807525167491263
2.28697966145336
0.375894425332329
0.492658373290542
0.786587852101973
2.21610526977689
0.31689204483114
0.374443141632199
0.485228321963221
0.768674500089445
2.18721664508965
0.283937353448368
0.316481512558596
0.371287756726228
0.477494345872558
0.757540359137927
2.18619206005906
0.264004531045867
0.28389765917411
0.314987089542498
0.367300190877819
0.471051083199261
0.750972512864272
2.19192922983285
0.251356147690079
0.264059457527096
0.28309563376971
0.312691700570665
0.36320475296739
0.465662175329543
0.745003836011803
2.19485636437976
0.243116933228307
0.251401638437644
0.263526765153628
0.28161682828691
0.309935908590061
0.359156664936587
0.460283276208123
0.737401319391471
2.19512686575924
2.46684033553654
0.821555556963956
2.38168120474264
0.496055618892177
0.806240042906218
2.28699600243061
0.375143212733012
0.491764170714716
0.785519269227169
2.21609456453215
0.316337296891308
0.373814770214601
0.484488922591151
0.7678005040155
2.18721624497317
0.283515682405847
0.31602122239005
0.370771244734984
0.476893931786495
0.756834030661469
2.18619132985359
0.263679792749651
0.283551874303066
0.314612307524984
0.366884135586311
0.470572175814633
0.75040431197645
2.1919278374901
0.251106305615999
0.263798138905558
0.282818948409066
0.312393974843515
0.362876945688525
0.465286834104111
0.744545759941488
2.19485275122424
0.242927020062797
0.251207778316785
0.263325279131306
0.281403795089634
0.309706710335501
0.358904555226044
0.459998595274795
0.737082095095603
2.19513176893577
0.237572640678721
0.24298795773999
0.250819341929603
0.262298187726708
0.27949225081069
0.306754258080497
0.354752118735227
0.453972372512024
0.727619841952197
2.19480682170227
2.46683946541069
0.819793827116094
2.38167836725992
0.494815087529719
0.804736809468145
2.28699707074023
0.374259791679742
0.49070926885769
0.784257679807244
2.21610987789091
0.315679367827733
0.373066789860796
0.483604915069364
0.766751176801495
2.1872174026574
0.28301047290117
0.315467715923249
0.370147028889913
0.476163839830141
0.755972343310874
2.18619119517443
0.263285525444991
0.283130717467557
0.314153727106871
0.366371836769858
0.469978409468044
0.749704511263261
2.19192741696609
0.250797355775743
0.263473791433646
0.282474120378617
0.312021335821275
0.362464451304105
0.464812103273321
0.743980027319533
2.19484899351518
0.242686561588292
0.250958796638687
0.263065098198557
0.281128641220491
0.309411164720614
0.358579460057202
0.459625728964099
0.736621871841956
2.19512596662854
0.237388291070146
0.242801364167393
0.250627466302761
0.262098030220433
0.279280640857914
0.306526900155536
0.354502156895007
0.453689707228325
0.727299169358128
2.19480728987284
0.233983317972076
0.237460391401784
0.242488345126781
0.249848772835841
0.260708643839764
0.277120703971597
0.303417841188506
0.350023774687438
0.446766219645422
0.716164220166637
2.19480346052734
2.46684130411379
0.817769949117802
2.38167758335442
0.493380125540285
0.802995352633818
2.28699411346257
0.373231239068029
0.489478255687917
0.782783036270916
2.21611040952357
0.314907862469347
0.372187226468877
0.482562644404881
0.765513366611288
2.18721952960203
0.282413047661916
0.314811252369113
0.369404056496551
0.475291226988952
0.754938709637752
2.18619047791213
0.2628143528011
0.282626032607343
0.313602168195621
0.365752708795838
0.46925682538579
0.748852237971069
2.19192779899397
0.250422978645598
0.263079764940724
0.282053770612981
0.311565083605214
0.361956546217646
0.464224205305452
0.743286243782326
2.1948509835593
0.242389583185529
0.250650140102489
0.262741341740923
0.280785135100239
0.30904096978504
0.358170466835033
0.459155090474687
0.736058649424771
2.1951221232818
0.237155072706223
0.242561710673965
0.250379449487853
0.261839000385864
0.279007104280541
0.306233607927419
0.354179838000492
0.453319497108796
0.726835698619151
2.1948015580925
0.233803161645584
0.237279280606524
0.242303631431871
0.249658046664124
0.260509629352613
0.276910636752799
0.303192491718935
0.349776194583345
0.446485800585347
0.715840127782118
2.19479945358243
0.23175940969716
0.233888694139672
0.237020984472022
0.241685137239248
0.248616289454246
0.258927962932125
0.274628635049725
0.2999246483363
0.344892734836154
0.438661315909745
0.703098534474392
2.19512851894486
2.46684071616074
0.815459965555854
2.3816792539846
0.491732226501485
0.800994384517814
2.28699315204825
0.372043625911889
0.488054348738961
0.78107520212579
2.21610765334869
0.314011707667041
0.371163245572733
0.481346679367435
0.764068061486043
2.18722095724722
0.281714157382854
0.314041491738845
0.368530571859773
0.47426286326055
0.753719461365525
2.18619469452314
0.262258441824482
0.282029189526734
0.312948009498821
0.365015903280536
0.468394814828955
0.747830928926161
2.19192712365154
0.249976470130805
0.262608784355923
0.281549893181022
0.311016205566131
0.361342814832053
0.463510281398654
0.742442543958626
2.19485206656093
0.242030280244514
0.250275879456243
0.262347648353554
0.280366029793807
0.308587508374038
0.357666982875154
0.458573018935302
0.735371265445883
2.19512215863153
0.236867411779036
0.242264961633049
0.25007117107
0.26151606250543
0.278665233724544
0.305866056829717
0.353774467810249
0.452853279490597
0.726274545269967
2.19480230757092
0.233575581212918
0.237046821733181
0.242064821328303
0.249410921885176
0.260251790559024
0.276638852553448
0.302901598896316
0.34945687875804
0.446118404069948
0.715371644540028
2.19479593400075
0.231582375682185
0.233711721323341
0.236841669551228
0.24150143805958
0.24842648673936
0.258730207748921
0.274420303125264
0.299701517725914
0.344647830400046
0.438383331498695
0.702770990382255
2.19512423343474
0.230507319163359
0.231683168245439
0.233502439816417
0.236345807623936
0.240715322066988
0.247283941789033
0.257105764863289
0.272109503035346
0.296317345356513
0.339406314849306
0.42972036841371
0.688295702064021
2.19485345861246
2.46683845631494
0.812837203864721
2.3816791788682
0.489851664784986
0.7987101008055
2.28699447965383
0.370681811352631
0.486419241027761
0.779113406376204
2.21610672825186
0.312978827561759
0.369980946326724
0.479940545628354
0.762395988911797
2.18721751809928
0.28090397143504
0.313147354959817
0.36751387579195
0.473063982405388
0.752298224285258
2.1861943310885
0.261609464156843
0.281330988164206
0.312181019148838
0.364149938628066
0.46737944287442
0.746627577846137
2.19193069523443
0.249450640818514
0.262053054848392
0.280953946044772
0.310365229720772
0.360612609010047
0.462657965191288
0.741433688406428
2.19485336804552
0.241602444438934
0.249829398458042
0.261876875956523
0.279863445239158
0.308041893238181
0.357058740393413
0.457866757022341
0.734537274598251
2.19512561713719
0.236519886435123
0.241905695018549
0.249696969360059
0.261122952685758
0.278247810625459
0.30541568965884
0.353275580903609
0.452277497626697
0.725593615139554
2.1948003412161
0.233295286095986
0.236759339661645
0.24176829579994
0.249103114926136
0.259929889933024
0.276298852476052
0.302536872381153
0.349055387322986
0.445656901892971
0.714812485023752
2.19479728056503
0.231359170588172
0.233484859174865
0.236609950798798
0.24126331471821
0.24818020982972
0.258473660564317
0.274150414900661
0.299413200478502
0.344331758686071
0.43801875365865
0.702294907897609
2.19512091593607
0.230332526137128
0.231509273195957
0.23332719117976
0.236167389451122
0.240532355269015
0.24709513235544
0.25690943500458
0.271903071880341
0.29609663451346
0.339164395690159
0.429445491102966
0.687967500652911
2.19485107677833
0.22995111966798
0.230448928747666
0.231346121431488
0.232935673204213
0.23558616696772
0.239739595859152
0.24600501753534
0.255376806334042
0.269681973694885
0.292723446880802
0.333716765139424
0.420046050869212
0.671459643072548
2.19192773954317
2.4668379194003
0.809867563696575
2.38167750701121
0.487715694452802
0.79611508016618
2.28699490899355
0.369129340674637
0.484553070230715
0.776874289274955
2.216107897852
0.311796503906968
0.368625280674727
0.478326270385129
0.760476075634957
2.1872154820417
0.279971996735453
0.312116894536629
0.366340223072805
0.471678251973266
0.750655851512644
2.18619161426381
0.260858506664721
0.280521605316928
0.311290200972475
0.363142337283813
0.466196574332971
0.745225886326012
2.19192827013123
0.248837823255627
0.261404252974614
0.280256800269216
0.309602063192228
0.359754687024832
0.461654654123506
0.740246025870814
2.19485567707004
0.241099406499603
0.249303545289974
0.261321298919604
0.279268940440309
0.307394797644331
0.356335283164428
0.457024303597574
0.73354294001259
2.19512732574949
0.236106677943378
0.241477790951595
0.24925034708806
0.260652626401767
0.277747034743898
0.304873720845509
0.352673058056067
0.451579591132307
0.724771317337319
2.19480361614351
0.232957146682889
0.236411786974553
0.241408890443499
0.248729043079623
0.2595376581012
0.275883425451056
0.302089816834128
0.348561392582356
0.445087893296137
0.714138980499079
2.19479751273564
0.231084726997654
0.233204695468339
0.236322559513925
0.240966982880536
0.247872962388403
0.258152960364369
0.273812433568384
0.299051453384359
0.343934369623823
0.43756214028213
0.701737141845957
2.19512278104485
0.23011267001514
0.231286751428566
0.233100974958029
0.235936176775358
0.240294781599679
0.246849726395153
0.256654269807874
0.271635182278382
0.295811030042194
0.338851734275803
0.429083603014205
0.687476801475043
2.19484809726466
0.22977783027914
0.230277242563187
0.231173886952002
0.232761212848978
0.23540830533832
0.239557369903516
0.245817315759204
0.255182011083503
0.269477546338867
0.292505319085597
0.333478214538213
0.419775880810597
0.671138816055804
2.19192601406945
0.229890164496177
0.229909182108019
0.230156932700159
0.230874796585659
0.23235323335934
0.234905429464169
0.238911247782581
0.244932517533898
0.253905664836764
0.267540451800012
0.289388151944835
0.328114305114438
0.409857275313393
0.652279507670844
2.18619075674427
2.46684341557787
0.806530920512301
2.38167618099964
0.485302880353127
0.793179951467505
2.28699458054574
0.367368976111284
0.482434007667956
0.774331166144993
2.21610852436609
0.310450995749346
0.367080008231041
0.476484276547443
0.758286083843543
2.18721780416617
0.278907037829039
0.310937353924396
0.364994763362426
0.470088165529383
0.748771964528962
2.18618993633477
0.259996175397158
0.279590551744009
0.310263729638123
0.361979594407144
0.464830322594594
0.743608205167671
2.19192696220945
0.248129915673204
0.260653500646612
0.279448686344069
0.308715852275516
0.358756857361366
0.460486577916761
0.738863710440495
2.194851876343
0.240514060417616
0.248690673877026
0.260672636850551
0.278573476606535
0.306636277025493
0.355485598476122
0.456033289237901
0.732373124639813
2.19513173651907
0.235621533389833
0.240974609893529
0.248724212083513
0.260097430375879
0.277154556889017
0.304230954415024
0.351956647304924
0.450747980783165
0.723793361538624
2.1948053873584
0.232555656452179
0.235998430917643
0.240980597679782
0.248282288525131
0.259068097406443
0.275384821961627
0.301551739921314
0.34796494300224
0.444399163630802
0.71332931788037
2.19479629593011
0.230754138023204
0.232866469314356
0.235974698985846
0.240607347306496
0.24749913602674
0.257761807448669
0.273399154647926
0.298607844530628
0.343445495928017
0.437000263438117
0.701071268281525
2.19512522963001
0.229842848406138
0.23101239290942
0.232820779376159
0.235648734478878
0.239998597478206
0.246543085828464
0.256334832648575
0.271299264775789
0.295452322885005
0.338458523644517
0.428631754455904
0.686914363471536
2.19485034095997
0.229560461939839
0.230058037198395
0.230951925254646
0.232535337250597
0.235177371305449
0.239320278053372
0.245572792828253
0.254928246611413
0.269211670968756
0.292222465218573
0.333169014175441
0.419415852120061
0.670621695220362
2.19192744372483
0.229717751817123
0.229738976178636
0.229986852179063
0.230703250204087
0.232179165636746
0.234728069428847
0.238729816264378
0.24474597020815
0.253712419777417
0.26733804189379
0.289172702129666
0.327879594108721
0.409593840350958
0.651944250543588
2.18618932269802
0.230174683166866
0.229862924228253
0.229657573791204
0.229770152366285
0.230445539006276
0.23192289950557
0.234457512117516
0.238392608507875
0.244259070656328
0.252935854605146
0.266006581766879
0.286742181916768
0.323148526457543
0.399727513543077
0.631024182503116
2.18721514248742
2.46684551854118
0.802792061339128
2.38168019068113
0.482586416904066
0.789876800671901
2.28699467206615
0.365382120598238
0.480039194499393
0.771453545671274
2.21610848610755
0.308927897621415
0.365327827659346
0.474393251642706
0.755800880768622
2.18721843297412
0.277697366092121
0.309595105552527
0.363461502096577
0.468274667586996
0.746625496123383
2.18619210320687
0.259012579492764
0.278526684427574
0.309088947007685
0.360647134726201
0.463263679610323
0.74175459995915
2.19192684937058
0.247318367834217
0.259791398836378
0.278519173273212
0.307694930479001
0.357605927101006
0.459138468148814
0.737270818443183
2.19484783612337
0.239838912789747
0.247982673958885
0.259922053452513
0.277767372906235
0.305755650472811
0.354497765445801
0.4548802736758
0.731013209874247
2.19512538114475
0.235057805659989
0.240389058319212
0.248110953000173
0.259449143020469
0.276461432888505
0.303477592109862
0.351115558085964
0.449770448254761
0.722644210381934
2.19480995331547
0.23208490621189
0.23551304570837
0.240476828803126
0.247755813709841
0.258513609515394
0.274794767892264
0.30091357048492
0.347256005073785
0.443579405900177
0.712368423914486
2.19479996690752
0.230362155851051
0.232464757913576
0.235560743550351
0.240178468377844
0.24705233666588
0.257293217236299
0.272902865983026
0.298073772182699
0.342855374292509
0.436321113220588
0.700273051985049
2.19511950574574
0.229518342301696
0.230681661720118
0.232482089580415
0.235300328536024
0.239638669224877
0.246169546460388
0.25594478773159
0.270888113997291
0.295012138746704
0.337974776108625
0.428076903365966
0.686252511203691
2.19485281337504
0.229294242629781
0.229788260016945
0.230677420998036
0.232254867116075
0.234889706094653
0.239024162694112
0.245266711080285
0.254610000700335
0.268877717039609
0.291866682739336
0.332779809114608
0.418967503667057
0.670042318714857
2.19192953863242
0.229502139427067
0.229522230412602
0.229768129371612
0.230481477720522
0.231953319550229
0.23449725574137
0.238493131653449
0.244502259699339
0.25345995681781
0.267074058135005
0.288892477550274
0.327573650497479
0.409234127500949
0.651381149005691
2.18619193425482
0.230002607435484
0.229693578159832
0.229488926925766
0.229600669039351
0.230274233704594
0.231749109082935
0.234280645339803
0.238211954045923
0.244073614151032
0.2527440527564
0.265806067146975
0.286529356944627
0.322917866695177
0.399466675890484
0.630642350068529
2.18721582064962
0.230690810469889
0.230160336037085
0.229646904491419
0.229345274928511
0.229474431065896
0.230230799684991
0.23180018491756
0.234410810326059
0.238394376606204
0.244263043491796
0.252847289259983
0.265615098829268
0.285554647869454
0.319930146573671
0.391216167050337
0.6102934782019
2.21610520102819
2.46683850785074
0.798619191504508
2.38168037068699
0.479542098626166
0.786175113702797
2.28699509459594
0.36314919721695
0.477343941131313
0.768214807534816
2.21610841130135
0.307212077097668
0.36335032402417
0.472030233499497
0.752989848616665
2.18721857651015
0.276330729156751
0.308075782396026
0.361723336717209
0.466217098080109
0.744192362784805
2.18619285145683
0.257897453864661
0.277318287534328
0.307752374732206
0.359129294110735
0.461478224526335
0.739645024515689
2.19192778727364
0.246394315256676
0.258808069512306
0.277457193204908
0.306526812471256
0.356287645759977
0.457593855795078
0.735447955565998
2.19484981389758
0.239066143015211
0.247171008105842
0.259060182535471
0.276840294324065
0.304741444548601
0.353358940502201
0.45355072857333
0.729448067826054
2.19511884786307
0.234408521984271
0.239713643241067
0.247402479504118
0.258698983746378
0.275658086551829
0.302603136077366
0.350138136799053
0.448633989127739
0.721310312459164
2.19480353997848
0.231538636026668
0.234948994287418
0.239890515804141
0.247142046239337
0.257866028705914
0.274104407718888
0.300165652045772
0.346423993589724
0.442616641650206
0.71124204276898
2.19480469091287
0.229903159438664
0.231993677158385
0.235074512075009
0.239673798595798
0.246525556178626
0.256739623853287
0.272315353065396
0.297440284810743
0.342154178153434
0.435513581448734
0.699327917296965
2.19512500894568
0.229134112232642
0.230289389255165
0.23207958548372
0.234885392816097
0.23920906461467
0.2457226989907
0.25547714358626
0.270394041414877
0.294481957428511
0.337390890104625
0.427406919074232
0.685462260649545
2.19484883334942
0.228974605654807
0.229463558848144
0.23034608195917
0.231915345369213
0.234540527874865
0.238663816468182
0.244893339779647
0.254220887102847
0.268468455672841
0.291429637549757
0.332300815037992
0.418418637223746
0.669377866487443
2.19192818433658
0.229238659500915
0.229256018521605
0.229498103440325
0.230206494574139
0.231672288339623
0.234209166393469
0.238196919756576
0.244196544989077
0.253142652858714
0.26674175501622
0.288539239348925
0.327187844656961
0.408787159361496
0.650775376346556
2.18619490155696
0.229788122103698
0.229478564049173
0.229272595418001
0.229381998695387
0.230052262946405
0.231523049260239
0.234049791212288
0.237975516365178
0.243830509793498
0.252492622945405
0.265543647330765
0.286251379714072
0.322614573632005
0.399104051649099
0.630000410508289
2.18721771931116
0.230518600705404
0.229991314825012
0.229479078213316
0.229177144171261
0.229305050550619
0.230059564310291
0.231626603982491
0.234234356199776
0.238214362148566
0.244078470486619
0.252656649335851
0.265416129808414
0.285343999785312
0.319701742328702
0.390948695010266
0.609835879543749
2.21611852068275
0.231350879006196
0.230687647913225
0.229975296144748
0.229399705965265
0.229165987604972
0.229446443267865
0.230388112069325
0.232158194526811
0.234988536819568
0.239219687827126
0.245367508733531
0.254251142662151
0.267286297705974
0.287278933231389
0.320879754985131
0.388569245539517
0.59763750226165
2.28699227690736
2.46684032134557
0.793967292656756
2.38167822086419
0.476141236211169
0.782041838260412
2.28699505271137
0.360649707605419
0.474322974504074
0.764585587124249
2.21610833209316
0.305287720053291
0.361128044451628
0.469371372340357
0.749824661826277
2.18721844686507
0.274794553055683
0.306364313642259
0.359762075647108
0.463892880941142
0.741444067337063
2.18619327578521
0.256640289725961
0.27595315965894
0.306239784827832
0.357409327431334
0.459453999470342
0.737256797565738
2.19192893649957
0.245348688269484
0.257693260439369
0.276251109726909
0.305198225028804
0.354786747314663
0.455835001640041
0.733375709945386
2.19485120414872
0.238187730385388
0.246246811467773
0.258077187192437
0.275781282627766
0.303581388426442
0.352055244163319
0.452028690964051
0.727660718985237
2.19512295405747
0.233666471007981
0.238940544969669
0.246590277125399
0.257837643137458
0.274734299881158
0.301596316279231
0.349011907643052
0.447324783089003
0.719776744351737
2.1947969636565
0.230910317724639
0.234299302496252
0.239214178940281
0.246432926866165
0.257116633624537
0.273304270149766
0.29929766677224
0.345457594706364
0.441498342710421
0.709935588001392
2.19479843256757
0.229371223767862
0.231446974925543
0.234509386963588
0.239086294248748
0.245911249485299
0.256092903256843
0.271627837211507
0.296697863784409
0.341331543235498
0.434566108195645
0.69822322683355
2.1951298383443
0.228684788022771
0.229829978514086
0.231607422727006
0.2343977774856
0.238703246454306
0.245195535340104
0.25492434383945
0.269808875486595
0.293852932578383
0.336697208489987
0.426610848441595
0.684528809402137
2.19485194520845
0.22859669032177
0.229078975464004
0.229952838118264
0.231511504552559
0.234124265415385
0.238233270378716
0.244446227270801
0.25375388560985
0.26797619974496
0.290902859141895
0.331722504543019
0.417756479257201
0.668591298868249
2.19192782894383
0.228922871784983
0.228936139490513
0.229172662800266
0.229874062247957
0.231331559631589
0.233858932340179
0.237835883957273
0.243823008812328
0.252754039000195
0.266333838273844
0.288104655209314
0.326712696212726
0.408242564443314
0.65010131003149
2.18619506955762
0.22952664389813
0.22921505886272
0.229006043006664
0.229111309466402
0.229776411071573
0.231241142455654
0.233760998135169
0.237678897836003
0.243524774776124
0.252175768173868
0.265212377113954
0.285899914150795
0.322231072369272
0.398656632115411
0.62935156074241
2.18721993313298
0.230304695772938
0.229777406927844
0.22926441895266
0.228960743433412
0.229085975944582
0.229837073840465
0.231400087623414
0.234003214459018
0.237977865447755
0.243835575541527
0.252405743917195
0.265154636218422
0.285067441672071
0.31939939792397
0.390573660030306
0.609055585857944
2.21610785061829
0.231178110557703
0.230518483154252
0.22980776165958
0.229232324312243
0.228997835147539
0.229276943287567
0.230216823036587
0.23198468179065
0.234812288643426
0.239040019368631
0.245183413868554
0.254061118028166
0.267088100920636
0.287068833783345
0.32064823810388
0.388270930822797
0.596967978450385
2.28700643360434
0.232086825295078
0.231357337394282
0.230529341390191
0.229784578980214
0.229321615520243
0.229299952489346
0.229845691458223
0.231094483495481
0.233229384165664
0.236511792199659
0.241323369457776
0.248239673850853
0.258174064220472
0.272700154763114
0.294883828050739
0.331746217280164
0.403974676418798
0.617535222139308
2.38167590478889
2.46683833491044
0.788809193039912
2.38167768119707
0.472352950648598
0.777423054944138
2.28699450491978
0.357861628394107
0.470948349506883
0.760532476793244
2.21610811876921
0.303138535362527
0.358640613079672
0.466391643112605
0.746276836785734
2.18721807187275
0.273075986139686
0.304444997449513
0.357558577341965
0.461278479727261
0.738350474630354
2.18619312333803
0.25523051090223
0.274418746209351
0.304536262960041
0.355469399149858
0.457169213198561
0.734563956018431
2.19192967341736
0.244172388238451
0.256436481335625
0.274888815116395
0.303695164982712
0.353086932602283
0.453842726272843
0.731033110105187
2.19485281415233
0.23719560505641
0.245201019869353
0.256962862699723
0.274578826504178
0.302262461216963
0.350571850093823
0.450297201669493
0.725631400907892
2.19512468954923
0.232824351762671
0.238061739846193
0.245665503303817
0.256855348642411
0.273679248379354
0.300445103216065
0.347723389571613
0.445827517007624
0.718029825055418
2.19480127642765
0.230193264608277
0.233556756975197
0.238440010392074
0.245619972863649
0.256256179895265
0.272384258215032
0.298298555096292
0.344344648633087
0.440211291855697
0.708436277465653
2.19479201900675
0.228760199799164
0.230818120322016
0.233858401670323
0.238408490876434
0.245201383721204
0.255344384147092
0.270830943034584
0.295836369800076
0.340376489980393
0.433466520340897
0.696943175393241
2.19512385861319
0.228164727412766
0.229297507612025
0.231059363893321
0.233830877992619
0.238114176795992
0.24458051574085
0.254278286444587
0.269123900009076
0.293115675909361
0.335883605113427
0.425677650282981
0.683440235984585
2.19485478838229
0.228155337736579
0.228629158236032
0.229492128287685
0.231037523606526
0.233634764430902
0.237725962095104
0.243918336494071
0.253201424577271
0.267392793030192
0.290277569300924
0.33103531560546
0.416969866279603
0.667663578604153
2.19192832024727
0.22855006739792
0.228557812864545
0.228786945509201
0.229479157695153
0.230925850922613
0.233440928706655
0.2374039860561
0.243375128858387
0.252287034622158
0.265842581248155
0.287580237921585
0.326138588758697
0.407586412696392
0.649314941200053
2.18619235870255
0.229213838498589
0.22889898743523
0.228685307057456
0.228784539764113
0.229442378101477
0.230898778550196
0.233409290710498
0.237316688695855
0.24315046737933
0.251786881686048
0.264804827149011
0.285466558635467
0.321758233732548
0.39811458387664
0.628662661858087
2.18722233102636
0.230044583303271
0.229515874951419
0.229000492708727
0.228693363589357
0.228814140800789
0.229559935631463
0.23111691875908
0.233713295099025
0.237680325093371
0.243529166497067
0.252088503495852
0.264823338300793
0.28471639773851
0.319016326590637
0.390118347195092
0.608324356327215
2.21609760029436
0.230964302855669
0.230305137918267
0.229594157381209
0.229017488872479
0.228780845968833
0.229057071615959
0.229993493890972
0.231757379760197
0.234580460502997
0.238802953216694
0.244940064617023
0.253809876209472
0.266826399328272
0.28679193239742
0.32034272526163
0.387865386296686
0.595865713573126
2.28699445525235
0.231913108151417
0.231187608797344
0.230361635519785
0.229617426637972
0.229154101079875
0.229131509318696
0.229675896738013
0.230922942131744
0.233055666971553
0.236335376504941
0.24114353965446
0.248055361729342
0.257983669454819
0.27250100411025
0.294670107199662
0.331494893650652
0.403566314536555
0.61615107718773
2.38167938551781
0.232845542182768
0.232101494068351
0.231221937013562
0.230387308528707
0.229794053437688
0.229595810182997
0.229908357139775
0.230852425344573
0.23258951241679
0.235348272366777
0.23945900692113
0.245414006235772
0.253982412802323
0.266450118167513
0.285176071013024
0.315033821280543
0.367784457789379
0.47880773687845
0.859362317489772
3.68517148169645
0.783067200119577
2.38167800349871
0.46813919557648
0.77231715121972
2.28699409963451
0.354760514187855
0.467187786028499
0.755999624419904
2.21610782139199
0.300747427984611
0.355866144047258
0.463063707972518
0.742316876685896
2.18721758950687
0.271162106405573
0.302301586758638
0.355092729978271
0.458349464408729
0.734884320118004
2.18619238516641
0.25365765541048
0.272702251067782
0.302626292989139
0.353290726513528
0.454600725886123
0.731537650640448
2.191929432067
0.242856508600643
0.255027173643893
0.273357850009804
0.302002960959676
0.351170846432339
0.451596277703799
0.72839740452417
2.19485576884127
0.236081857427178
0.244024544083949
0.255706773672631
0.273220959924031
0.300770943675101
0.348892960125065
0.448337899982794
0.723341105873932
2.19512657720208
0.231874951400208
0.237069159336539
0.244619121114726
0.255741969939623
0.272481575052006
0.299136754952289
0.346258237127284
0.444126006639967
0.716049203032737
2.19480328767915
0.229380798930877
0.232714051047561
0.237559997450978
0.244694375910397
0.255274969821305
0.271333689699464
0.297156537650238
0.343072127416318
0.438741021420072
0.706732810949172
2.19479658425639
0.228063861742393
0.230100422375026
0.233114347322995
0.237632593726908
0.24438750406531
0.254484880934788
0.269914687846508
0.29484494941295
0.339277175682091
0.432202370560049
0.695478173425411
2.19511769020642
0.227568119387245
0.228685828275737
0.230428881120042
0.233177731108383
0.237434393009725
0.243869615706345
0.253530331650934
0.268329818687955
0.292260213829286
0.334939401680593
0.424595559231918
0.682183873674505
2.19485139070601
0.227645154286472
0.228108469371017
0.228958040469955
0.230487169230156
0.233065409290573
0.237134830426996
0.24330210554227