/*--------------------------------*- C++ -*----------------------------------*\
  =========                 |
  \\      /  F ield         | OpenFOAM: The Open Source CFD Toolbox
   \\    /   O peration     | Website:  https://openfoam.org
    \\  /    A nd           | Version:  12
     \\/     M anipulation  |
\*---------------------------------------------------------------------------*/
/*   Windows 32 and 64 bit porting by blueCAPE: http://www.bluecape.com.pt   *\
|  Based on Windows porting (2.0.x v4) by Symscape: http://www.symscape.com   |
\*---------------------------------------------------------------------------*/
FoamFile
{
    format      ascii;
    class       volScalarField;
    location    "300";
    object      p;
}
// * * * * * * * * * * * * * * * * * * * * * * * * * * * * * * * * * * * * * //

dimensions      [0 2 -2 0 0 0 0];

internalField   nonuniform List<scalar> 
10244
(
83333.3332312057
83333.3332316558
83333.3332316531
83333.3332312351
83333.3332321274
83333.3332320865
83333.3332316826
83333.3332323722
83333.3332316883
83333.3332312802
83333.3332326158
83333.3332325444
83333.333232154
83333.3332327868
83333.3332321187
83333.3332317252
83333.3332330739
83333.3332324191
83333.333231751
83333.3332313488
83333.3332331152
83333.3332330197
83333.3332326438
83333.3332332243
83333.3332325765
83333.3332321971
83333.3332334791
83333.3332328325
83333.3332321773
83333.3332317928
83333.3332337278
83333.3332331312
83333.3332324861
83333.3332318329
83333.3332314467
83333.3332336228
83333.3332335073
83333.3332331442
83333.333233681
83333.3332330532
83333.3332326887
83333.3332339047
83333.3332332712
83333.3332326349
83333.3332322656
83333.33323413
83333.3332335349
83333.3332328975
83333.3332322569
83333.3332318908
83333.3332342941
83333.3332337836
83333.3332332
83333.3332325638
83333.3332319327
83333.3332315768
83333.333234137
83333.3332340048
83333.3332336526
83333.333234153
83333.3332335417
83333.3332331908
83333.3332343509
83333.3332337292
83333.3332331128
83333.3332327594
83333.3332345526
83333.3332339624
83333.3332333371
83333.3332327149
83333.3332323651
83333.3332346993
83333.3332341847
83333.3332336026
83333.3332329742
83333.3332323565
83333.3332320222
83333.3332347542
83333.3332343428
83333.3332338436
83333.3332332686
83333.3332326528
83333.3332320532
83333.3332317396
83333.333234657
83333.3332345108
83333.3332341676
83333.3332346378
83333.33323404
83333.3332337006
83333.3332348158
83333.3332342019
83333.3332336023
83333.3332332639
83333.3332349979
83333.3332344107
83333.3332337968
83333.3332331945
83333.3332328617
83333.3332351268
83333.3332346094
83333.3332340316
83333.3332334149
83333.3332328158
83333.3332324988
83333.3332351685
83333.3332347466
83333.3332342433
83333.3332336712
83333.3332330636
83333.3332324782
83333.333232187
83333.3332351058
83333.3332347942
83333.3332343891
83333.3332338983
83333.3332333421
83333.3332327558
83333.3332321982
83333.3332319334
83333.3332351827
83333.3332350245
83333.3332346884
83333.333235134
83333.3332345466
83333.3332342167
83333.3332352971
83333.3332346873
83333.3332341012
83333.3332337757
83333.3332354656
83333.333234877
83333.3332342708
83333.3332336854
83333.3332333691
83333.3332355802
83333.3332350568
83333.333234482
83333.3332338765
83333.3332332979
83333.3332329991
83333.3332356081
83333.3332351763
83333.33323467
83333.333234102
83333.3332335061
83333.3332329402
83333.333232667
83333.3332355349
83333.3332352076
83333.3332347925
83333.3332342991
83333.3332337462
83333.3332331685
83333.3332326255
83333.3332323835
83333.3332353538
83333.3332351357
83333.3332348248
83333.3332344289
83333.333233954
83333.3332334252
83333.3332328758
83333.3332323683
83333.3332321549
83333.333235715
83333.3332355458
83333.3332352149
83333.333235641
83333.333235061
83333.3332347385
83333.3332357934
83333.333235184
83333.3332346083
83333.3332342937
83333.3332359537
83333.3332353594
83333.3332347574
83333.3332341855
83333.3332338837
83333.3332360597
83333.333235526
83333.3332349502
83333.3332343525
83333.3332337914
83333.3332335103
83333.3332360769
83333.333235632
83333.3332351206
83333.3332345549
83333.3332339704
83333.3332334259
83333.333233172
83333.3332359923
83333.3332356497
83333.333235225
83333.3332347282
83333.3332341794
83333.333233614
83333.3332330914
83333.3332328678
83333.3332358037
83333.3332355638
83333.3332352377
83333.3332348339
83333.3332343572
83333.3332338321
83333.3332332917
83333.3332327988
83333.3332326081
83333.3332355043
83333.333235372
83333.3332351544
83333.3332348501
83333.3332344669
83333.3332340159
83333.3332335204
83333.3332330131
83333.3332325613
83333.3332324002
83333.3332362562
83333.3332360756
83333.3332357481
83333.3332361588
83333.3332355829
83333.3332352657
83333.3332363041
83333.3332356915
83333.333235123
83333.333234817
83333.3332364607
83333.3332358566
83333.3332352552
83333.3332346934
83333.3332344043
83333.3332365635
83333.3332360154
83333.3332354344
83333.3332348409
83333.3332342938
83333.3332340288
83333.3332365752
83333.3332361133
83333.3332355924
83333.3332350256
83333.3332344491
83333.3332339233
83333.3332336884
83333.3332364823
83333.3332361211
83333.3332356843
83333.3332351816
83333.3332346354
83333.3332340821
83333.3332335821
83333.3332333787
83333.3332362841
83333.333236024
83333.3332356824
83333.3332352689
83333.3332347893
83333.333234269
83333.3332337416
83333.3332332697
83333.3332330976
83333.3332359773
83333.3332358198
83333.3332355832
83333.333235265
83333.3332348747
83333.3332344227
83333.3332339315
83333.3332334331
83333.3332329953
83333.3332328567
83333.3332355633
83333.3332355136
83333.333235383
83333.333235167
83333.3332348727
83333.3332345081
83333.3332340855
83333.3332336271
83333.333233165
83333.3332327723
83333.3332326643
83333.3332368096
83333.3332366166
83333.3332362899
83333.333236688
83333.3332361135
83333.3332357992
83333.3332368296
83333.3332362098
83333.3332356451
83333.333235345
83333.3332369858
83333.333236368
83333.3332357637
83333.3332352085
83333.3332349296
83333.33323709
83333.3332365232
83333.3332359334
83333.3332353403
83333.3332348035
83333.3332345528
83333.3332371015
83333.3332366185
83333.3332360838
83333.3332355124
83333.3332349402
83333.3332344295
83333.3332342119
83333.3332370053
83333.3332366212
83333.3332361681
83333.3332356564
83333.3332351095
83333.3332345648
83333.3332340848
83333.3332339015
83333.3332368002
83333.3332365166
83333.3332361568
83333.3332357308
83333.3332352461
83333.3332347291
83333.3332342149
83333.3332337668
83333.3332336156
83333.3332364852
83333.333236303
83333.3332360459
83333.3332357126
83333.3332353132
83333.3332348589
83333.3332343733
83333.3332338889
83333.3332334722
83333.3332333519
83333.333236064
83333.3332359864
83333.3332358321
83333.3332355974
83333.3332352908
83333.3332349201
83333.3332344974
83333.3332340436
83333.3332335899
83333.3332332101
83333.3332331236
83333.3332355383
83333.333235568
83333.3332355191
83333.3332353871
83333.3332351764
83333.3332348951
83333.3332345532
83333.3332341618
83333.3332337423
83333.3332333267
83333.3332329956
83333.3332329396
83333.3332373804
83333.3332371719
83333.333236844
83333.3332372308
83333.3332366549
83333.3332363409
83333.3332373706
83333.3332367396
83333.3332361758
83333.3332358782
83333.3332375292
83333.3332368937
83333.333236283
83333.333235731
83333.3332354588
83333.3332376389
83333.333237049
83333.3332364466
83333.3332358502
83333.3332353198
83333.333235081
83333.3332376545
83333.3332371464
83333.3332365937
83333.3332360137
83333.333235442
83333.3332349426
83333.3332347407
83333.33323756
83333.3332371489
83333.3332366752
83333.3332361508
83333.3332355996
83333.3332350598
83333.3332345963
83333.3332344316
83333.3332373527
83333.3332370414
83333.3332366597
83333.3332362179
83333.3332357247
83333.3332352077
83333.3332347032
83333.3332342762
83333.3332341464
83333.3332370316
83333.3332368218
83333.3332365412
83333.3332361903
83333.3332357791
83333.3332353203
83333.333234839
83333.3332343689
83333.3332339769
83333.3332338782
83333.333236602
83333.3332364964
83333.3332363178
83333.3332360634
83333.3332357422
83333.3332353633
83333.3332349391
83333.3332344917
83333.3332340527
83333.3332336936
83333.3332336248
83333.3332360694
83333.3332360686
83333.3332359926
83333.3332358381
83333.3332356102
83333.3332353179
83333.3332349709
83333.3332345801
83333.3332341652
83333.3332337571
83333.333233437
83333.3332334011
83333.333235434
83333.3332355399
83333.3332355686
83333.3332355157
83333.3332353845
83333.333235182
83333.3332349174
83333.3332346005
83333.3332342415
83333.3332338615
83333.3332334921
83333.333233224
83333.3332332179
83333.3332379752
83333.3332377463
83333.3332374154
83333.3332377915
83333.3332372104
83333.3332368944
83333.3332379293
83333.3332372831
83333.3332367171
83333.3332364188
83333.3332380923
83333.3332374347
83333.3332368138
83333.3332362612
83333.3332359921
83333.3332382102
83333.3332375929
83333.333236974
83333.3332363705
83333.3332358429
83333.3332356122
83333.333238234
83333.3332376962
83333.3332371216
83333.3332365291
83333.3332359537
83333.3332354618
83333.3332352731
83333.3332381453
83333.3332377029
83333.3332372047
83333.3332366637
83333.3332361041
83333.3332355654
83333.3332351146
83333.3332349668
83333.3332379403
83333.3332375973
83333.3332371896
83333.3332367284
83333.3332362231
83333.3332357022
83333.3332352038
83333.3332347947
83333.3332346848
83333.3332376168
83333.3332373758
83333.3332370683
83333.3332366964
83333.3332362703
83333.3332358038
83333.3332353234
83333.3332348643
83333.3332344947
83333.3332344184
83333.3332371812
83333.3332370447
83333.3332368392
83333.3332365627
83333.3332362241
83333.3332358341
83333.3332354065
83333.3332349645
83333.3332345409
83333.3332342074
83333.3332341604
83333.33323664
83333.3332366086
83333.3332365052
83333.333236327
83333.3332360801
83333.3332357743
83333.3332354201
83333.3332350289
83333.3332346211
83333.3332342279
83333.3332339279
83333.3332339085
83333.3332359978
83333.3332360709
83333.3332360699
83333.3332359912
83333.333235839
83333.3332356208
83333.3332353464
83333.3332350255
83333.3332346676
83333.3332342918
83333.3332339286
83333.3332336692
83333.3332336799
83333.3332352538
83333.3332354334
83333.3332355367
83333.3332355591
83333.3332355032
83333.3332353754
83333.333235184
83333.3332349383
83333.3332346472
83333.3332343206
83333.3332339795
83333.3332336574
83333.333233452
83333.3332334891
83333.3332386034
83333.3332383463
83333.3332380109
83333.3332383741
83333.3332377847
83333.3332374647
83333.3332385096
83333.3332378438
83333.3332372719
83333.3332369701
83333.3332386778
83333.3332379933
83333.333237358
83333.3332368011
83333.3332365316
83333.3332388056
83333.3332381563
83333.3332375167
83333.3332369017
83333.3332363729
83333.3332361464
83333.3332388406
83333.3332382683
83333.3332376677
83333.3332370584
83333.3332364754
83333.3332359864
83333.3332358076
83333.333238761
83333.3332382832
83333.3332377559
83333.3332371943
83333.3332366221
83333.3332360803
83333.3332356383
83333.3332355052
83333.3332385619
83333.3332381834
83333.3332377459
83333.333237261
83333.3332367397
83333.3332362109
83333.3332357148
83333.33323532
83333.3332352282
83333.3332382398
83333.333237964
83333.3332376263
83333.3332372298
83333.3332367851
83333.3332363071
83333.333235824
83333.3332353724
83333.333235022
83333.3332349668
83333.3332378017
83333.3332376312
83333.3332373954
83333.3332370935
83333.3332367345
83333.3332363306
83333.3332358963
83333.3332354565
83333.3332350453
83333.3332347355
83333.3332347115
83333.3332372541
83333.3332371896
83333.3332370562
83333.3332368519
83333.3332365834
83333.3332362614
83333.3332358974
83333.3332355038
83333.3332351026
83333.3332347262
83333.3332344522
83333.3332344543
83333.333236603
83333.3332366435
83333.3332366125
83333.3332365069
83333.3332363319
83333.3332360959
83333.3332358093
83333.3332354824
83333.333235125
83333.3332347567
83333.3332344085
83333.3332341682
83333.3332341928
83333.3332358523
83333.3332359971
83333.3332360683
83333.3332360622
83333.3332359822
83333.333235835
83333.3332356295
83333.3332353751
83333.3332350809
83333.3332347557
83333.333234418
83333.3332340999
83333.3332338998
83333.3332339493
83333.3332350005
83333.3332352515
83333.333235427
83333.333235522
83333.3332355384
83333.3332354818
83333.33323536
83333.3332351816
83333.3332349552
83333.3332346894
83333.3332343944
83333.3332340916
83333.333233817
83333.3332336709
83333.333233742
83333.3332392769
83333.3332389807
83333.3332386392
83333.3332389842
83333.3332383838
83333.333238058
83333.3332391155
83333.3332384261
83333.3332378446
83333.333237537
83333.3332392895
83333.3332385728
83333.333237919
83333.3332373536
83333.3332370802
83333.3332394279
83333.3332387415
83333.3332380766
83333.3332374456
83333.3332369112
83333.3332366849
83333.3332394757
83333.3332388639
83333.3332382331
83333.3332376023
83333.3332370072
83333.3332365168
83333.3332363438
83333.3332394076
83333.3332388902
83333.3332383297
83333.3332377427
83333.3332371533
83333.3332366042
83333.3332361662
83333.3332360448
83333.3332392174
83333.3332387995
83333.3332383279
83333.3332378152
83333.3332372736
83333.3332367325
83333.3332362346
83333.3332358503
83333.3332357746
83333.3332388996
83333.3332385858
83333.3332382143
83333.333237789
83333.3332373217
83333.3332368284
83333.3332363383
83333.3332358907
83333.3332355566
83333.3332355206
83333.3332384625
83333.333238255
83333.3332379856
83333.3332376547
83333.333237272
83333.3332368506
83333.3332364061
83333.3332359649
83333.3332355629
83333.3332352738
83333.3332352717
83333.3332379119
83333.3332378112
83333.3332376447
83333.3332374113
83333.3332371183
83333.3332367771
83333.3332364005
83333.3332360017
83333.3332356042
83333.3332352416
83333.3332349923
83333.3332350177
83333.333237254
83333.3332372594
83333.3332371959
83333.3332370612
83333.3332368608
83333.3332366044
83333.3332363031
83333.3332359678
83333.3332356094
83333.333235249
83333.3332349186
83333.3332347039
83333.3332347496
83333.333236494
83333.3332366043
83333.3332366433
83333.3332366078
83333.3332365018
83333.3332363331
83333.3332361112
83333.3332358461
83333.333235547
83333.3332352233
83333.3332348933
83333.3332345892
83333.3332344057
83333.3332344661
83333.3332356354
83333.3332358498
83333.3332359912
83333.3332360555
83333.3332360449
83333.3332359658
83333.3332358262
83333.333235635
83333.3332354012
83333.3332351331
83333.3332348396
83333.3332345388
83333.3332342646
83333.3332341187
83333.3332341965
83333.3332346761
83333.3332349969
83333.3332352427
83333.3332354084
83333.3332354949
83333.333235507
83333.3332354521
83333.3332353379
83333.3332351727
83333.3332349649
83333.3332347231
83333.3332344585
83333.3332341923
83333.3332339631
83333.3332338728
83333.333233965
83333.33324001
83333.3332396607
83333.3332393115
83333.3332396297
83333.333239016
83333.3332386824
83333.3332397504
83333.3332390355
83333.3332384402
83333.3332381252
83333.3332399322
83333.3332391779
83333.333238501
83333.3332379225
83333.333237642
83333.3332400811
83333.3332393525
83333.3332386573
83333.3332380055
83333.3332374606
83333.3332372304
83333.3332401423
83333.3332394861
83333.3332388204
83333.3332381629
83333.3332375507
83333.333237054
83333.3332368825
83333.3332400872
83333.3332395255
83333.3332389273
83333.3332383099
83333.3332376985
83333.3332371373
83333.3332366985
83333.3332365849
83333.3332399075
83333.3332394465
83333.3332389366
83333.3332383914
83333.3332378246
83333.3332372666
83333.3332367623
83333.3332363839
83333.3332363219
83333.3332395967
83333.3332392412
83333.333238832
83333.3332383736
83333.3332378795
83333.3332373664
83333.3332368651
83333.3332364175
83333.3332360958
83333.3332360775
83333.3332391629
83333.3332389154
83333.333238609
83333.3332382453
83333.333237835
83333.3332373922
83333.3332369335
83333.333236487
83333.333236091
83333.3332358198
83333.3332358381
83333.3332386123
83333.3332384728
83333.3332382701
83333.3332380042
83333.3332376834
83333.3332373198
83333.3332369272
83333.3332365198
83333.3332361225
83333.3332357707
83333.3332355436
83333.3332355917
83333.3332379507
83333.3332379182
83333.3332378195
83333.3332376526
83333.3332374242
83333.3332371445
83333.3332368257
83333.3332364792
83333.3332361174
83333.3332357621
83333.3332354469
83333.3332352573
83333.3332353265
83333.3332371834
83333.3332372569
83333.3332372616
83333.3332371943
83333.33323706
83333.3332368673
83333.3332366265
83333.3332363481
83333.3332360423
83333.3332357191
83333.3332353978
83333.3332351114
83333.3332349531
83333.333235034
83333.3332363153
83333.3332364936
83333.3332366009
83333.3332366334
83333.3332365943
83333.3332364906
83333.3332363311
83333.333236125
83333.3332358818
83333.3332356102
83333.3332353188
83333.3332350253
83333.3332347622
83333.3332346301
83333.3332347142
83333.3332353492
83333.3332356316
83333.3332358414
83333.3332359743
83333.3332360315
83333.3332360185
83333.3332359426
83333.3332358121
83333.3332356356
83333.3332354215
83333.3332351781
83333.3332349148
83333.3332346484
83333.3332344135
83333.333234316
83333.3332344073
83333.3332342825
83333.3332346715
83333.3332349862
83333.3332352211
83333.3332353763
83333.3332354558
83333.3332354659
83333.333235414
83333.3332353077
83333.3332351549
83333.333234964
83333.3332347446
83333.3332345092
83333.3332342786
83333.3332340944
83333.3332340553
83333.3332341493
83333.3332408255
83333.3332404008
83333.3332400409
83333.3332403219
83333.3332396923
83333.3332393483
83333.3332404229
83333.3332396793
83333.3332390669
83333.3332387421
83333.3332406106
83333.3332398143
83333.3332391088
83333.3332385126
83333.3332382222
83333.3332407701
83333.3332399937
83333.3332392629
83333.3332385854
83333.3332380246
83333.3332377862
83333.3332408449
83333.333240139
83333.3332394332
83333.3332387437
83333.3332381086
83333.3332376002
83333.3332374255
83333.333240803
83333.3332401922
83333.3332395515
83333.3332388985
83333.3332382594
83333.3332376806
83333.3332372356
83333.3332371257
83333.3332406344
83333.3332401263
83333.3332395735
83333.333238991
83333.3332383937
83333.3332378135
83333.333237298
83333.33323692
83333.3332368684
83333.3332403321
83333.3332399315
83333.3332394803
83333.3332389843
83333.3332384585
83333.3332379207
83333.3332374036
83333.3332369512
83333.3332366376
83333.3332366351
83333.3332399035
83333.3332396129
83333.3332392657
83333.3332388651
83333.3332384229
83333.3332379543
83333.3332374771
83333.333237021
83333.3332366272
83333.3332363705
83333.3332364079
83333.3332393549
83333.3332391738
83333.3332389319
83333.3332386299
83333.3332382775
83333.3332378877
83333.3332374752
83333.3332370553
83333.3332366547
83333.333236311
83333.3332361032
83333.3332361729
83333.3332386921
83333.3332386194
83333.3332384825
83333.3332382805
83333.3332380208
83333.3332377147
83333.3332373751
83333.3332370144
83333.3332366457
83333.3332362925
83333.3332359898
83333.3332358232
83333.3332359157
83333.3332379203
83333.3332379546
83333.3332379222
83333.3332378205
83333.3332376552
83333.3332374357
83333.3332371733
83333.3332368792
83333.3332365641
83333.3332362391
83333.3332359244
83333.333235654
83333.333235521
83333.3332356252
83333.3332370444
83333.3332371846
83333.3332372557
83333.3332372545
83333.3332371846
83333.3332370539
83333.3332368719
83333.3332366486
83333.333236394
83333.3332361171
83333.3332358276
83333.333235543
83333.333235297
83333.3332351892
83333.3332352924
83333.3332360688
83333.3332363135
83333.3332364875
83333.3332365866
83333.3332366131
83333.3332365728
83333.3332364739
83333.3332363251
83333.3332361353
83333.3332359133
83333.3332356675
83333.3332354067
83333.3332351463
83333.3332349192
83333.3332348317
83333.3332349215
83333.3332349955
83333.3332353444
83333.3332356213
83333.3332358214
83333.3332359452
83333.3332359971
83333.3332359837
83333.3332359124
83333.3332357913
83333.3332356285
83333.3332354325
83333.333235212
83333.3332349772
83333.3332347428
83333.3332345444
83333.3332344889
83333.3332345737
83333.3332338209
83333.3332342771
83333.3332346595
83333.3332349625
83333.3332351855
83333.3332353315
83333.3332354061
83333.3332354157
83333.3332353672
83333.3332352679
83333.333235126
83333.3332349505
83333.3332347525
83333.3332345466
83333.3332343547
83333.333234218
83333.3332342167
83333.3332342883
83333.3332417747
83333.3332412188
83333.333240853
83333.3332410763
83333.3332404263
83333.3332400686
83333.3332411422
83333.3332403681
83333.3332397352
83333.3332393973
83333.3332413313
83333.333240487
83333.3332397494
83333.3332391304
83333.3332388275
83333.3332415003
83333.3332406705
83333.3332398982
83333.3332391894
83333.3332386073
83333.3332383567
83333.3332415884
83333.3332408273
83333.3332400759
83333.3332393486
83333.3332386846
83333.3332381582
83333.3332379755
83333.3332415596
83333.3332408946
83333.3332402062
83333.333239512
83333.3332388393
83333.3332382363
83333.3332377794
83333.333237668
83333.3332414018
83333.3332408422
83333.3332402418
83333.3332396166
83333.3332389831
83333.333238375
83333.3332378423
83333.3332374591
83333.3332374141
83333.3332411081
83333.3332406587
83333.3332401613
83333.3332396229
83333.3332390601
83333.3332384922
83333.3332379537
83333.3332374917
83333.3332371804
83333.3332371913
83333.3332406855
83333.3332403485
83333.333239957
83333.3332395151
83333.3332390362
83333.3332385369
83333.3332380362
83333.333237566
83333.3332371696
83333.3332369233
83333.3332369789
83333.3332401402
83333.3332399148
83333.3332396303
83333.3332392884
83333.3332389002
83333.3332384799
83333.3332380431
83333.3332376065
83333.3332371984
83333.3332368593
83333.333236668
83333.3332367583
83333.3332394779
83333.3332393624
83333.3332391846
83333.3332389441
83333.3332386496
83333.3332383134
83333.3332379492
83333.3332375706
83333.3332371916
83333.3332368371
83333.3332365443
83333.3332363985
83333.3332365135
83333.3332387038
83333.3332386967
83333.3332386246
83333.3332384856
83333.3332382863
83333.3332380371
83333.3332377499
83333.333237437
83333.3332371097
83333.3332367799
83333.333236469
83333.3332362126
83333.3332361033
83333.3332362305
83333.3332378227
83333.3332379224
83333.333237955
83333.3332379175
83333.3332378142
83333.3332376538
83333.3332374468
83333.3332372037
83333.3332369353
83333.3332366511
83333.3332363615
83333.3332360845
83333.3332358553
83333.3332357725
83333.333235898
83333.333236839
83333.3332370442
83333.3332371806
83333.3332372442
83333.3332372376
83333.3332371678
83333.3332370435
83333.333236874
83333.3332366688
83333.3332364371
83333.3332361877
83333.3332359297
83333.3332356785
83333.3332354686
83333.3332354038
83333.3332355089
83333.3332357562
83333.3332360659
83333.3332363054
83333.33323647
83333.3332365609
83333.3332365833
83333.3332365442
83333.3332364516
83333.3332363138
83333.3332361393
83333.3332359368
83333.3332357149
83333.3332354827
83333.3332352529
83333.3332350595
83333.3332350078
83333.3332350798
83333.3332345755
83333.3332349898
83333.3332353326
83333.3332355989
83333.3332357885
83333.3332359048
83333.3332359534
83333.3332359409
83333.3332358746
83333.3332357621
83333.3332356115
83333.3332354318
83333.3332352331
83333.3332350264
83333.3332348252
83333.3332346631
83333.3332346344
83333.3332346915
83333.3332332928
83333.333233815
83333.3332342641
83333.3332346344
83333.3332349245
83333.3332351367
83333.3332352757
83333.3332353469
83333.3332353564
83333.3332353109
83333.3332352177
83333.3332350854
83333.3332349246
83333.3332347491
83333.333234577
83333.33323443
83333.3332343339
83333.3332343201
83333.3332343852
83333.3332428623
83333.3332421647
83333.333241809
83333.3332419063
83333.3332412348
83333.3332408705
83333.3332419217
83333.3332411164
83333.3332404578
83333.3332401033
83333.3332421033
83333.3332412049
83333.333240433
83333.3332397851
83333.3332394671
83333.3332422789
83333.3332413891
83333.3332405694
83333.3332398235
83333.3332392143
83333.3332389479
83333.3332423789
83333.3332415566
83333.3332407537
83333.3332399818
83333.3332392826
83333.3332387317
83333.3332385361
83333.3332423634
83333.3332416377
83333.3332408961
83333.3332401547
83333.3332394417
83333.3332388077
83333.3332383317
83333.3332382139
83333.3332422144
83333.3332415985
83333.3332409455
83333.333240272
83333.3332395962
83333.3332389536
83333.3332383967
83333.3332380024
83333.3332379587
83333.3332419284
83333.3332414264
83333.3332408781
83333.3332402921
83333.3332396866
83333.3332390826
83333.3332385169
83333.3332380392
83333.3332377246
83333.3332377453
83333.3332415114
83333.3332411247
83333.3332406848
83333.3332401971
83333.3332396764
83333.3332391409
83333.3332386113
83333.3332381216
83333.3332377176
83333.3332374762
83333.3332375482
83333.3332409696
83333.3332406969
83333.3332403664
83333.3332399808
83333.3332395522
83333.3332390965
83333.3332386306
83333.3332381725
83333.3332377524
83333.3332374133
83333.3332372349
83333.3332373452
83333.3332403085
83333.333240148
83333.3332399261
83333.3332396437
83333.3332393104
83333.33323894
83333.333238547
83333.3332381462
83333.3332377528
83333.3332373931
83333.3332371073
83333.3332369798
83333.3332371168
83333.3332395334
83333.3332394828
83333.3332393685
83333.3332391892
83333.3332389525
83333.33323867
83333.3332383546
83333.3332380192
83333.3332376762
83333.3332373384
83333.3332370282
83333.3332367837
83333.3332366963
83333.3332368462
83333.333238649
83333.3332387064
83333.3332386982
83333.3332386216
83333.3332384821
83333.3332382892
83333.3332380541
83333.3332377885
83333.3332375033
83333.3332372092
83333.3332369169
83333.3332366453
83333.3332364312
83333.3332363724
83333.3332365198
83333.3332376595
83333.3332378233
83333.3332379199
83333.3332379455
83333.3332379036
83333.3332378017
83333.3332376494
83333.3332374568
83333.3332372339
83333.3332369905
83333.3332367358
83333.3332364791
83333.3332362364
83333.3332360439
83333.3332360038
83333.3332361289
83333.3332365685
83333.3332368376
83333.3332370381
83333.3332371655
83333.3332372216
83333.3332372122
83333.3332371451
83333.3332370288
83333.3332368722
83333.3332366842
83333.3332364739
83333.3332362498
83333.3332360211
83333.333235801
83333.3332356246
83333.3332355937
83333.3332356756
83333.3332353788
83333.3332357524
83333.3332360563
83333.3332362854
83333.3332364401
83333.3332365247
83333.3332365453
83333.3332365088
83333.3332364229
83333.3332362954
83333.3332361347
83333.3332359499
83333.3332357504
83333.333235546
83333.3332353478
83333.333235186
83333.3332351521
83333.3332351857
83333.3332340908
83333.3332345692
83333.333234977
83333.3332353087
83333.3332355634
83333.3332357438
83333.3332358544
83333.3332359011
83333.3332358902
83333.3332358284
83333.3332357234
83333.3332355837
83333.3332354196
83333.3332352431
83333.333235067
83333.3332349025
83333.3332347682
83333.3332347195
83333.3332347665
83333.3332326998
83333.3332332865
83333.3332338015
83333.3332342384
83333.3332345951
83333.3332348733
83333.3332350768
83333.3332352103
83333.333235279
83333.3332352885
83333.3332352454
83333.3332351578
83333.3332350354
83333.3332348914
83333.3332347427
83333.3332346101
83333.3332345012
83333.3332343985
83333.3332343827
83333.3332343895
83333.3332432522
83333.3332429013
83333.3332428596
83333.3332421799
83333.3332418213
83333.3332427793
83333.3332419392
83333.3332412527
83333.3332408887
83333.3332429398
83333.3332419816
83333.3332411727
83333.3332404893
83333.333240153
83333.3332431154
83333.3332421584
83333.3332412849
83333.3332404966
83333.3332398533
83333.333239568
83333.3332432237
83333.3332423339
83333.333241473
83333.3332406489
83333.3332399075
83333.3332393259
83333.3332391125
83333.3332432191
83333.3332424275
83333.3332416268
83333.3332408313
83333.3332400704
83333.333239398
83333.3332388959
83333.3332387661
83333.3332430777
83333.3332424002
83333.3332416897
83333.3332409618
83333.333240237
83333.3332395525
83333.3332389639
83333.333238551
83333.3332385033
83333.3332427978
83333.333242239
83333.3332416352
83333.3332409961
83333.3332403417
83333.333239695
83333.3332390951
83333.3332385946
83333.3332382703
83333.333238296
83333.3332423849
83333.333241945
83333.3332414527
83333.3332409143
83333.3332403463
83333.3332397686
83333.3332392039
83333.3332386885
83333.3332382713
83333.3332380292
83333.3332381144
83333.3332418456
83333.3332415228
83333.3332411428
83333.333240709
83333.3332402354
83333.333239739
83333.3332392383
83333.3332387532
83333.333238316
83333.3332379722
83333.3332378016
83333.3332379309
83333.3332411855
83333.3332409774
83333.3332407085
83333.3332403805
83333.3332400042
83333.3332395948
83333.3332391683
83333.3332387404
83333.3332383279
83333.3332379589
83333.3332376764
83333.3332375641
83333.3332377228
83333.3332404098
83333.3332403136
83333.3332401543
83333.3332399316
83333.3332396539
83333.3332393341
83333.3332389862
83333.3332386243
83333.3332382616
83333.3332379119
83333.3332375992
83333.3332373638
83333.3332372968
83333.333237469
83333.333239523
83333.3332395363
83333.3332394849
83333.3332393666
83333.3332391878
83333.333238959
83333.3332386924
83333.3332384007
83333.3332380955
83333.3332377883
83333.3332374902
83333.3332372215
83333.3332370209
83333.333236985
83333.3332371539
83333.3332385293
83333.3332386501
83333.3332387048
83333.3332386901
83333.3332386102
83333.3332384734
83333.3332382903
83333.3332380717
83333.3332378284
83333.3332375707
83333.3332373084
83333.333237051
83333.3332368151
83333.3332366387
83333.3332366223
83333.3332367671
83333.3332374322
83333.3332376589
83333.3332378185
83333.3332379066
83333.3332379256
83333.333237882
83333.3332377844
83333.333237642
83333.3332374644
83333.3332372609
83333.333237041
83333.3332368136
83333.3332365876
83333.3332363769
83333.333236218
83333.33323621
83333.3332363094
83333.3332362345
83333.3332365663
83333.3332368298
83333.3332370203
83333.3332371385
83333.3332371892
83333.3332371794
83333.3332371167
83333.333237009
83333.3332368647
83333.3332366924
83333.3332365015
83333.3332363012
83333.3332361011
83333.3332359129
83333.3332357672
83333.3332357498
83333.3332357901
83333.3332349382
83333.3332353744
83333.3332357417
83333.3332360345
83333.3332362526
83333.3332363992
83333.3332364795
83333.3332364998
83333.3332364665
83333.3332363869
83333.3332362685
83333.3332361203