/*--------------------------------*- C++ -*----------------------------------*\
  =========                 |
  \\      /  F ield         | OpenFOAM: The Open Source CFD Toolbox
   \\    /   O peration     | Website:  https://openfoam.org
    \\  /    A nd           | Version:  12
     \\/     M anipulation  |
\*---------------------------------------------------------------------------*/
/*   Windows 32 and 64 bit porting by blueCAPE: http://www.bluecape.com.pt   *\
|  Based on Windows porting (2.0.x v4) by Symscape: http://www.symscape.com   |
\*---------------------------------------------------------------------------*/
FoamFile
{
    format      ascii;
    class       surfaceScalarField;
    location    "300";
    object      phi;
}
// * * * * * * * * * * * * * * * * * * * * * * * * * * * * * * * * * * * * * //

dimensions      [0 3 -1 0 0 0 0];

internalField   nonuniform List<scalar> 
29275
(
-1.89928505503225e-06
5.66588482268594e-08
-4.79992367178116e-09
-1.95071063675809e-06
5.47578972175895e-08
-3.32599007574935e-09
-1.35939949152291e-06
9.85996913378639e-08
-7.91176564430162e-09
-2.17133445035191e-06
6.32955024094222e-08
-8.67728977660746e-09
-2.00066771194157e-06
5.28334155643678e-08
-2.87959986924407e-09
-1.39268044654839e-06
9.5130678849191e-08
-7.09190025468703e-09
-2.22951321515045e-06
6.11748850701294e-08
-6.31210422416196e-09
-1.34226507996777e-06
1.37427724932615e-07
-5.43149119642834e-09
-1.52392911793465e-06
1.11705300623983e-07
-1.86313143897981e-08
-2.41598631810929e-06
7.28161946351035e-08
-1.49985636773406e-08
-2.04949612781852e-06
5.12822391081992e-08
-2.45565098784798e-09
-1.42535683225219e-06
9.19101626895028e-08
-6.39756560195956e-09
-2.28575005754463e-06
5.84161096524937e-08
-5.0502040818947e-09
-1.37492797517582e-06
1.32631347467356e-07
-4.83749996787821e-09
-1.56049916596746e-06
1.07713770373571e-07
-1.70605061512458e-08
-2.48049932778056e-06
7.0308631416854e-08
-1.21076559153504e-08
-1.35946531395792e-06
1.75337792277756e-07
-4.04341505774253e-09
-1.52119934957835e-06
1.57237805900581e-07
-1.33470255144193e-08
-1.73018703718769e-06
1.29498355037959e-07
-3.28893823532609e-08
-2.69629731482652e-06
8.19908934109907e-08
-2.24355173709564e-08
-2.09793267017477e-06
5.00625205812283e-08
-1.62389880457225e-09
-1.45752360998864e-06
8.90900149793646e-08
-5.6377148551683e-09
-2.34085237342443e-06
5.64499012686621e-08
-3.79924304116257e-09
-1.4069550698293e-06
1.2821855366285e-07
-4.28117873567431e-09
-1.59683051663783e-06
1.03863622955946e-07
-1.55128672388069e-08
-2.54252694682629e-06
6.674395347487e-08
-9.76688454618534e-09
-1.39258541486593e-06
1.69309990674753e-07
-3.55867201936536e-09
-1.5578926540659e-06
1.51695712163322e-07
-1.21247676123466e-08
-1.7711294017552e-06
1.24805315836135e-07
-3.06151681703905e-08
-2.76849331282348e-06
7.91885756312088e-08
-1.90991372442784e-08
-1.36862427717251e-06
2.12193914381826e-07
-2.72823084887706e-09
-1.53099137997822e-06
2.01104192692938e-07
-9.830535262986e-09
-1.75301537659507e-06
1.8381114961087e-07
-2.45201819003725e-08
-1.92386395875664e-06
1.45676508061076e-07
-4.95965116337615e-08
-2.92899281816984e-06
8.85088798792371e-08
-2.98078865708755e-08
-2.14664724146468e-06
4.91355652557906e-08
-4.12211019886474e-10
-1.48946261409807e-06
8.6663330850348e-08
-4.66026484042803e-09
-2.39555594339297e-06
5.50421738322056e-08
-1.95903135809803e-09
-1.43851952481349e-06
1.24241878830693e-07
-3.5876285144106e-09
-1.63281329979175e-06
1.00578594991517e-07
-1.37831473929846e-08
-2.60331565929463e-06
6.4322971828817e-08
-7.33660946551053e-09
-1.42507208340289e-06
1.63726482335494e-07
-3.02080355098164e-09
-1.59406860817058e-06
1.46550960719177e-07
-1.07917800427541e-08
-1.81200269983195e-06
1.20185562156354e-07
-2.807716991958e-08
-2.83748234704225e-06
7.49875257460656e-08
-1.5756338813872e-08
-1.4019954425224e-06
2.04979966097307e-07
-2.29872650787016e-09
-1.56818028074654e-06
1.94111481188461e-07
-8.78526930947028e-09
-1.79500193909928e-06
1.77285192022759e-07
-2.26170315219944e-08
-1.96908268811751e-06
1.40374539642036e-07
-4.65814555891517e-08
-3.00753486796964e-06
8.54948363692979e-08
-2.60519744637367e-08
-1.36301221656351e-06
2.47625251464847e-07
-1.48262007878941e-09
-1.52469924145922e-06
2.42905068162144e-07
-6.54099486385335e-09
-1.76313533719938e-06
2.35229770687971e-07
-1.75175318445814e-08
-1.95089725860903e-06
2.06834830440591e-07
-3.78451325744113e-08
-2.05243907296071e-06
1.55737966283952e-07
-6.69913839191492e-08
-3.08694010831071e-06
9.22703432722164e-08
-3.65718790824451e-08
-2.19629588084635e-06
4.85031295116286e-08
1.14182783597755e-09
-1.52154607682451e-06
8.46523551679066e-08
-3.43458302414646e-09
-2.450517754805e-06
5.39847081987064e-08
5.64772856881746e-10
-1.46989849608459e-06
1.20724784603855e-07
-2.68207120896546e-09
-1.66856307009289e-06
9.77889994603002e-08
-1.1656784264722e-08
-2.66372327255928e-06
6.26833238399831e-08
-4.22769024578676e-09
-1.45711791917639e-06
1.58639072814918e-07
-2.35125733909433e-09
-1.62982246276552e-06
1.41941218039215e-07
-9.19609345575088e-09
-1.852587668634e-06
1.1631585955215e-07
-2.51874712254689e-08
-2.90488746029731e-06
7.21590561103836e-08
-1.20902265791263e-08
-1.43474070481395e-06
1.98277785525903e-07
-1.80575802399886e-09
-1.60471953528016e-06
1.8765200611689e-07
-7.5824452922455e-09
-1.83646887544607e-06
1.71219025749086e-07
-2.03574968237898e-08
-2.01420894664149e-06
1.35077396200794e-07
-4.30392989045157e-08
-3.08222637553502e-06
8.08504294113274e-08
-2.19017166450228e-08
-1.39621139736435e-06
2.39277340233037e-07
-1.09817841791629e-09
-1.56181178768564e-06
2.34569865553416e-07
-5.64405848848549e-09
-1.80578651944421e-06
2.27033367919934e-07
-1.58821643539568e-08
-1.99738715476399e-06
1.99466776509154e-07
-3.52195103860095e-08
-2.10032460582171e-06
1.50032091434504e-07
-6.32313608695248e-08
-3.16965863647646e-06
8.90766441472433e-08
-3.24091375144936e-08
-1.34870172080295e-06
2.81365916848127e-07
-2.68875717000857e-10
-1.51073073572611e-06
2.82305539061784e-07
-3.27745026243929e-09
-1.74346522089888e-06
2.83161638092863e-07
-1.11008561549214e-08
-1.95437852470967e-06
2.64031623728005e-07
-2.63723227130253e-08
-2.06639300954251e-06
2.19913625102073e-07
-5.16435452166652e-08
-2.11778477957207e-06
1.60304762705302e-07
-8.39888911173045e-08
-3.18591706616788e-06
9.42873908730136e-08
-4.26723351611129e-08
-2.24756159635079e-06
4.81944662850354e-08
3.07421402230557e-09
-1.55419126855543e-06
8.30747377354142e-08
-1.92520081234391e-09
-2.50640757228849e-06
5.32434138041927e-08
3.79023646033112e-09
-1.50140261461672e-06
1.17705776607793e-07
-1.54868950319316e-09
-1.70443956297863e-06
9.54643916964548e-08
-9.03807054510186e-09
-2.72441785578975e-06
6.14737982129401e-08
-2.11277219425242e-10
-1.48897946185336e-06
1.54090215441313e-07
-1.50387219883411e-09
-1.66537138691146e-06
1.3786757762755e-07
-7.21058022456275e-09
-1.89290466767408e-06
1.1307360541717e-07
-2.172876744119e-08
-2.97180435717851e-06
7.03040789912458e-08
-7.60746523763528e-09
-1.46705401706806e-06
1.9213661679223e-07
-1.18412549630099e-09
-1.64079904256105e-06
1.81780492908098e-07
-6.11046838842797e-09
-1.8774932893418e-06
1.65819875012773e-07
-1.7675856772768e-08
-2.05899121042089e-06
1.30684758088629e-07
-3.89273889089e-08
-3.15490564758244e-06
7.7745171187124e-08
-1.71517753313669e-08
-1.42879389599155e-06
2.31507591272435e-07
-6.4726839230804e-10
-1.5982602130011e-06
2.26855688893369e-07
-4.56130579183245e-09
-1.84771803715409e-06
2.19454848211046e-07
-1.38863312181539e-08
-2.04326165918188e-06
1.92605290492339e-07
-3.20100160864749e-08
-2.1480621606394e-06
1.44294243054571e-07
-5.87423938851471e-08
-3.24802150023286e-06
8.41243625789365e-08
-2.76569717935216e-08
-1.38143755137202e-06
2.71938279338292e-07
7.51175395695133e-11
-1.54747677607539e-06
2.72716720936305e-07
-2.49863863190162e-09
-1.78578711807772e-06
2.73413381403867e-07
-9.70201356409755e-09
-2.00147840415365e-06
2.54805171314102e-07
-2.41203250337354e-08
-2.11530225564059e-06
2.12034072041929e-07
-4.831261263485e-08
-2.16674205465303e-06
1.54342159685631e-07
-7.95361695254388e-08
-3.27109671163804e-06
9.0911150767035e-08
-3.81384202357559e-08
-1.33377764478693e-06
3.13350578320114e-07
9.16753694642379e-10
-1.49636787747234e-06
3.1946752757044e-07
-3.15956855803189e-10
-1.72023852758909e-06
3.27888819488032e-07
-5.24469123698548e-09
-1.92191199526326e-06
3.16634710010321e-07
-1.60156201590534e-08
-2.0582278504539e-06
2.79650665374785e-07
-3.54329314584131e-08
-2.11442807849507e-06
2.24719035171469e-07
-6.48925305679513e-08
-2.14547969671206e-06
1.61821657050326e-07
-1.00267729522701e-07
-3.25573186003978e-06
9.5315727287182e-08
-4.79388733114953e-08
-2.30124308164673e-06
4.82325430840085e-08
5.45027394868714e-09
-1.58786026055835e-06
8.19546022868598e-08
-8.8840859524829e-11
-2.56397590320643e-06
5.28417305583166e-08
7.80949766768868e-09
-1.53339391613208e-06
1.15222224159727e-07
-1.56034889230128e-10
-1.74089003061126e-06
9.3615222353488e-08
-5.84249004455537e-09
-2.7860779008292e-06
6.06292117262402e-08
4.82119993251245e-09
-1.52094639591585e-06
1.50128043690993e-07
-4.54988971493417e-10
-1.70104338755644e-06
1.34355093153849e-07
-4.76730936725839e-09
-1.93331491179611e-06
1.10384794551347e-07
-1.75373560755835e-08
-3.03898771008124e-06
6.89702610220932e-08
-2.00097167827424e-09
-1.4991739795381e-06
1.86610101075321e-07
-3.99814216792094e-10
-1.6766720628386e-06
1.76516223302085e-07
-4.2794518428364e-09
-1.91827057853182e-06
1.6106794404724e-07
-1.44277161747571e-08
-2.10340853534166e-06
1.27051759379249e-07
-3.40555406064522e-08
-3.22687254160008e-06
7.57667199657223e-08
-1.14015902716112e-08
-1.46094426443459e-06
2.24364428227667e-07
-7.73067848607627e-11
-1.63424952661713e-06
2.19796569586953e-07
-3.21036975681484e-09
-1.88913297868992e-06
2.12588060152266e-07
-1.14629168730777e-08
-2.0886047975881e-06
1.86535199086122e-07
-2.81826424721682e-08
-2.19534865971852e-06
1.3958195058859e-07
-5.34770745073852e-08
-3.32395199077743e-06
8.08567976521058e-08
-2.20701510327852e-08
-1.41356471308388e-06
2.63154651041664e-07
4.80072649390401e-10
-1.58356381251783e-06
2.63824117575163e-07
-1.52842588749591e-09
-1.82734908397049e-06
2.64411243109286e-07
-7.95535040687959e-09
-2.04773540015007e-06
2.46289566596151e-07
-2.1312986504812e-08
-2.16350651962421e-06
2.04699633384477e-07
-4.42096760860065e-08
-2.21549970459756e-06
1.48344665456091e-07
-7.4204512565621e-08
-3.35149613810706e-06
8.57091585243134e-08
-3.29570414613111e-08
-1.3659556276712e-06
3.02897261812285e-07
1.21911589552256e-09
-1.53264714836077e-06
3.08694754290121e-07
3.76491910705667e-10
-1.76198599176369e-06
3.1670627067492e-07
-4.04374272199283e-09
-1.96840776407847e-06
3.05709699516523e-07
-1.41107211186277e-08
-2.10755558573536e-06
2.69832798928452e-07
-3.25908101888217e-08
-2.16404372562311e-06
2.16572914903241e-07
-6.09277264301821e-08
-2.19455980185918e-06
1.55650111006919e-07
-9.51918306004448e-08
-3.34252733851052e-06
9.17300582657478e-08
-4.30675255336503e-08
-1.32323458527053e-06
3.43722254597251e-07
1.9916882598862e-09
-1.48463145069007e-06
3.54628384788597e-07
2.36292412145844e-09
-1.70453064478474e-06
3.69913851323966e-07
-1.21910384191283e-10
-1.89175610955631e-06
3.65441776996211e-07
-7.14168915835978e-09
-2.0163079715559e-06
3.34450853019649e-07
-2.09852481660584e-08
-2.0960106793179e-06
2.84694846078583e-07
-4.41147476774414e-08
-2.12898949441124e-06
2.25333486673485e-07
-7.73206348176669e-08
-2.15698846486842e-06
1.6178984891652e-07
-1.15697602587066e-07
-3.31985450973721e-06
9.57077885885696e-08
-5.18222162726936e-08
-2.35825070764894e-06
4.8659802911027e-08
8.34561581503473e-09
-1.62308055897702e-06
8.1325514279382e-08
2.1270881287263e-09
-2.62414355187364e-06
5.28059659844898e-08
1.28076195960335e-08
-1.56628237902901e-06
1.13308689587212e-07
1.53474881096394e-09
-1.77842994664453e-06
9.22688605314552e-08
-1.9753574365335e-09
-2.84954080903225e-06
6.01604910477323e-08
1.1108215160245e-08
-1.55334604938975e-06
1.46795631419356e-07
8.26499734598657e-10
-1.73723317549743e-06
1.31441298646659e-07
-1.79245942278843e-09
-1.97430880434756e-06
1.08247123099261e-07
-1.24662606346167e-08
-3.10711757549351e-06
6.80452818485658e-08
4.91306077682931e-09
-1.53136600666191e-06
1.81752154867822e-07
5.68054481622683e-10
-1.71264744065688e-06
1.71905767298966e-07
-2.03000802411339e-09
-1.95914762278006e-06
1.56979723366132e-07
-1.04864537142517e-08
-2.14783266740238e-06
1.24072352549391e-07
-2.82133509834479e-08
-3.29894093973583e-06
7.43963697950621e-08
-4.32215711220766e-09
-1.49288551444048e-06
2.17909289171607e-07
6.42058612935697e-10
-1.6700202836912e-06
2.13430035719975e-07
-1.54258854925109e-09
-1.93029216244619e-06
2.06451632788695e-07
-8.50412213109964e-09
-2.13361135076005e-06
1.81226405448963e-07
-2.35947430553968e-08
-2.24211660900706e-06
1.35739298935316e-07
-4.72588672308319e-08
-3.39886240236276e-06
7.88313252222815e-08
-1.53139854024756e-08
-1.44525789976308e-06
2.55062654832032e-07
9.95015453183698e-10
-1.6191873070611e-06
2.55659718178461e-07
-3.16699447629735e-10
-1.86837623689934e-06
2.56202107948179e-07
-5.79709135665661e-09
-2.09337558463178e-06
2.38609646854433e-07
-1.78972768439204e-08
-2.21106474140952e-06
1.98254141642965e-07
-3.92982632957247e-08
-2.26366811787313e-06
1.43469559178889e-07
-6.79217294954172e-08
-3.42908347696628e-06
8.23250631717826e-08
-2.6803200359027e-08
-1.39752834235161e-06
2.93148049733109e-07
1.57936454542447e-09
-1.56826659389952e-06
2.98695547673146e-07
1.22848324159514e-09
-1.80296979378217e-06
3.06380715428999e-07
-2.51399657719638e-09
-2.01402702021961e-06
2.95644250924199e-07
-1.1690775400771e-08
-2.15593579209759e-06
2.60789851762914e-07
-2.90223892088998e-08
-2.2128802581089e-06
2.0900558302759e-07
-5.60341275148273e-08
-2.24338364664164e-06
1.49461642006118e-07
-8.91329890687368e-08
-3.42415656768734e-06
8.62791297671831e-08
-3.76052693464985e-08
-1.35487985922812e-06
3.32287755051753e-07
2.25482333242175e-09
-1.52041268758576e-06
3.42726588866647e-07
2.96851976172924e-09
-1.74575811277309e-06
3.57391222895881e-07
9.19444858597502e-10
-1.93751733498508e-06
3.52950797818853e-07
-5.52350162267922e-09
-2.06484839336535e-06
3.22867650606069e-07
-1.86051753885443e-08
-2.14588246202678e-06
2.7460681683276e-07
-4.07534256654544e-08
-2.17845931579519e-06
2.1700707592326e-07
-7.2814241922473e-08
-2.20578424613376e-06
1.55394772425611e-07
-1.10059549053838e-07
-3.40814136505578e-06
9.18475877790996e-08
-4.66204276196958e-08
-1.31841457847263e-06
3.72686149930626e-07
2.92487672638707e-09
-1.47710111242134e-06
3.88104533759419e-07
4.62175365817491e-09
-1.6953038425658e-06
4.09774638096864e-07
4.22558351027736e-09
-1.87600780963063e-06
4.1141721101052e-07
2.5861543859057e-10
-1.98310739439243e-06
3.85356498696692e-07
-9.04995983499192e-09
-2.04890385731373e-06
3.39879143541221e-07
-2.57958597122819e-08
-2.10459975631481e-06
2.84584518153848e-07
-5.22189951104191e-08
-2.13189816149984e-06
2.24026611264255e-07
-8.88698066429607e-08
-2.16277725137644e-06
1.60611372667557e-07
-1.29920846291669e-07
-3.39179120905164e-06
9.54484936216586e-08
-5.33595895009573e-08
-2.41964537155887e-06
4.95368281885474e-08
1.18586923895206e-08
-1.66044830335037e-06
8.12414104862142e-08
4.78551639284549e-09
-2.68794382429998e-06
5.3207908108394e-08
1.89381483433794e-08
-1.60052981641039e-06
1.12003555945934e-07
3.56959492881576e-09
-1.81764238275855e-06
9.14630071501111e-08
2.6870485074e-09
-2.91583432458055e-06
6.01328856683127e-08
1.89776889996098e-08
-1.58654797159545e-06
1.44134241085466e-07
2.37659832234036e-09
-1.77439643374244e-06
1.29163460433281e-07
1.80336644055703e-09
-2.01645568390666e-06
1.06693768995324e-07
-6.35859587294396e-09
-3.17713517547364e-06
6.75836241279337e-08
1.35448316215072e-08
-1.56393044425369e-06
1.77611382398847e-07
1.74860715333513e-09
-1.74908348389627e-06
1.68001159240034e-07
7.0313595409015e-10
-2.00056419053051e-06
1.53594755070544e-07
-5.72296150377317e-09
-2.19279406578129e-06
1.21732640754166e-07
-2.11897037624712e-08
-3.37180535017444e-06
7.34515457393285e-08
4.33295268411913e-09
-1.52486225449209e-06
2.12199390470324e-07
1.52948911722903e-09
-1.70585515969818e-06
2.07811745827172e-07
4.97346836186628e-10
-1.97153170152669e-06
2.01094067120837e-07
-4.90370685551081e-09
-2.17864302838133e-06
1.76691883280789e-07
-1.80741744181363e-08
-2.28873044560437e-06
1.3263985446117e-07
-3.98441048916088e-08
-3.47361402397147e-06
7.7479158390549e-08
-7.057105849821e-09
-1.47672267292216e-06
2.47725178989831e-07
1.64888836935687e-09
-1.65457479548602e-06
2.48270473038779e-07
1.18904631699369e-09
-1.90913525665342e-06
2.48811722772712e-07
-3.1437482654147e-09
-2.13867325040205e-06
2.31775868161112e-07
-1.37550305768907e-08
-2.25815359186414e-06
1.92664182960116e-07
-3.34305064932843e-08
-2.31112589718867e-06
1.39549249497015e-07
-6.05162458848177e-08
-3.50529208035349e-06
8.02731645690723e-08
-1.93712251874984e-08
-1.42866158023401e-06
2.84153192163434e-07
2.04278289198796e-09
-1.6034145652726e-06
2.89496045133376e-07
2.30674901944592e-09
-1.84341461883549e-06
2.969279840231e-07
-5.97479176732608e-10
-2.05901825132164e-06
2.86497836896383e-07
-8.69399849790551e-09
-2.20358659467901e-06
2.5267442340283e-07
-2.46674569678604e-08
-2.26093980871383e-06
2.02400188493141e-07
-5.01667336395407e-08
-2.29145782859201e-06
1.44481354612841e-07
-8.19991137957812e-08
-3.50258556237941e-06
8.27809009146364e-08
-3.11538730769576e-08
-1.38591840190735e-06
3.21611670706572e-07
2.57510550290742e-09
-1.55553214230561e-06
3.31674065761912e-07
3.72053544770683e-09
-1.78622758518696e-06
3.45817042026566e-07
2.26186782749423e-09
-1.98240730415169e-06
3.41447953680905e-07
-3.42782573594339e-09
-2.11241366731917e-06
3.12218961003328e-07
-1.55542959922909e-08
-2.19472043604928e-06
2.65337001797195e-07
-3.65152617837798e-08
-2.22707340666811e-06
2.09293339749558e-07
-6.725126592744e-08
-2.25426149202515e-06
1.49011320453388e-07
-1.03384184729954e-07
-3.49084821628019e-06
8.60989524277748e-08
-4.09977858401205e-08
-1.34958372039074e-06
3.6029538133775e-07
3.16152100139208e-09
-1.51238827128829e-06
3.75119482150024e-07
5.14924410539472e-09
-1.73605782295478e-06
3.95980387202464e-07
5.13326451720466e-09
-1.9212484828777e-06
3.97461974544733e-07
1.64919725079623e-09
-2.03086429909159e-06
3.72143998587756e-07
-7.04285956935916e-09
-2.09791719701225e-06
3.28018190293546e-07
-2.30024114955402e-08
-2.15426285395548e-06
2.74346107601556e-07
-4.84286465663501e-08
-2.18092004744507e-06
2.15515942043972e-07
-8.39130295613654e-08
-2.21115615121587e-06
1.53936692201042e-07
-1.23772861914989e-07
-3.48188734463689e-06
9.1210743533727e-08
-4.77236951247168e-08
-1.31855219903393e-06
4.00488884246001e-07
3.63685699678374e-09
-1.47426501827742e-06
4.2020946594859e-07
6.44443580661155e-09
-1.69083963225801e-06
4.47875658407523e-07
7.76895940800796e-09
-1.86944424207944e-06
4.55201081314228e-07
6.34827411654409e-09
-1.96885664330581e-06
4.33451015300596e-07
6.49637473451722e-10
-2.01500400090519e-06
3.91321458643176e-07
-1.09356545427085e-08
-2.05546259281119e-06
3.39301028286071e-07
-3.02734518369377e-08
-2.10480745608094e-06
2.82218002583895e-07
-5.9635924816541e-08
-2.13082437783339e-06
2.21264660317513e-07
-9.93439192470935e-08
-2.16718916330262e-06
1.58192059163282e-07
-1.42365610010058e-07
-3.47819738872563e-06
9.4451795857653e-08
-5.1201338678974e-08
-2.48665262638882e-06
5.09399062550122e-08
1.60681838821473e-08
-1.70061502608891e-06
8.17326334633049e-08
7.97046969414637e-09
-2.75653895186383e-06
5.40862065620877e-08
2.63751920086952e-08
-1.63665009238552e-06
1.11354953699769e-07
6.0061005643492e-09
-1.85917962270261e-06
9.12519240317732e-08
8.28031781386355e-09
-2.98612208595283e-06
6.06098705345733e-08
2.86171626520432e-08
-1.62097023965176e-06
1.42188339580596e-07
4.23758218292364e-09
-1.81304929128427e-06
1.27563370614402e-07
6.12090062580339e-09
-2.06039820085524e-06
1.05776829497539e-07
9.88341655219921e-10
-3.25014622370827e-06
6.76653321357532e-08
2.43251026710843e-08
-1.59720422747742e-06
1.74234809817821e-07
3.17334620916071e-09
-1.78639008073952e-06
1.64849290389762e-07
3.99756582721843e-09
-2.04303155750823e-06
1.50957700748773e-07
6.8523099757607e-12
-2.23889673451787e-06
1.20076626922464e-07
-1.27520712420796e-08
-3.44647337636175e-06
7.30694629720416e-08
1.51536615080129e-08
-1.55714666852343e-06
2.07286693137572e-07
2.60923950726594e-09
-1.74208321444108e-06
2.02996627414871e-07
2.98136814747442e-09
-2.01325306184547e-06
1.96569563060611e-07
-5.50434106648914e-10
-2.22416986424016e-06
1.72973124171224e-07
-1.14361076747143e-08
-2.33575125920411e-06
1.30257435270501e-07
-3.09748228834709e-08
-3.5489166647748e-06
7.65989259585537e-08
3.04007945957407e-09
-1.50818445950936e-06
2.41201364467968e-07
2.45972959565058e-09
-1.68998897212961e-06
2.41718250851015e-07
3.03717014346697e-09
-1.94994180596995e-06
2.42302985414456e-07
9.52340719609839e-11
-2.18398490343009e-06
2.25842123842534e-07
-8.74177322265056e-09
-2.30513041337499e-06
1.87941415414056e-07
-2.63990078144295e-08
-2.35821736267541e-06
1.36442175354423e-07
-5.17133391836467e-08
-3.5809650610048e-06
7.89091435552339e-08
-1.02986159833643e-08
-1.45954600747375e-06
2.75974078868342e-07
2.63556286310468e-09
-1.63830567716044e-06
2.81145102803631e-07
3.66567024240116e-09
-1.88357303974619e-06
2.88381948822426e-07
1.77768242107489e-09
-2.10366118721947e-06
2.78295204106785e-07
-5.01933201430358e-09
-2.25077744836858e-06
2.45495509604563e-07
-1.93958977247773e-08
-2.30836971217379e-06
1.96719676329068e-07
-4.31705670562076e-08
-2.33860208139619e-06
1.40518554460819e-07
-7.36162635773975e-08
-3.57923546260853e-06
8.06680695698742e-08
-2.33810761600473e-08
-1.41650586207519e-06
3.11747969531163e-07
2.9926296341876e-09
-1.59016996015464e-06
3.21490284418909e-07
4.68683672107752e-09
-1.82615398282017e-06
3.35195226856589e-07
3.96595084593911e-09
-2.02667164856907e-06
3.30955010730256e-07
-7.89933876917517e-10
-2.15924982368382e-06
3.02579205572286e-07
-1.17616330991218e-08
-2.24271130236296e-06
2.5705728080344e-07
-3.13329190037158e-08
-2.27477089660261e-06
2.02601552396143e-07
-6.05873775704684e-08
-2.30181754110383e-06
1.43920312896941e-07
-9.55743350088552e-08
-3.56993868751063e-06
8.24202141900575e-08
-3.44759096976092e-08
-1.3801350897984e-06
3.48723772515813e-07
3.43938946727938e-09
-1.5470102461688e-06
3.63053595388376e-07
5.81768203113538e-09
-1.77605646388213e-06
3.83217578915609e-07
6.31915001916577e-09
-1.96562407796483e-06
3.84600952122272e-07
3.48487535289229e-09
-2.07765677572475e-06
3.59999119564144e-07
-4.41466442852056e-09
-2.14587359362861e-06
3.17137751164249e-07
-1.9398964045828e-08
-2.20280896533928e-06
2.64958849765545e-07
-4.36343899876268e-08
-2.22900785200662e-06
2.07652645992923e-07
-7.78048718143163e-08
-2.2591601835462e-06
1.47314116289263e-07
-1.16592851091922e-07
-3.56594539337254e-06
8.50938432574389e-08
-4.20152801758992e-08
-1.34926821901245e-06
3.87164434560206e-07
3.84699792756831e-09
-1.50906976480767e-06
4.06173096530671e-07
6.91267543359351e-09
-1.73112771132293e-06
4.32853961413822e-07
8.56392701632003e-09
-1.9142582595572e-06
4.39853849484164e-07
7.55578325295995e-09
-2.01613856523417e-06
4.18709022857743e-07
2.36577808900582e-09
-2.06325284548587e-06
3.77818756774188e-07
-8.59490650405273e-09
-2.1042793181515e-06
3.2731074620881e-07
-2.71505888379785e-08
-2.15404027479291e-06
2.71836116260049e-07
-5.5515009843922e-08
-2.17930320891147e-06
2.12527128910521e-07
-9.40240456607254e-08
-2.21515273561599e-06
1.51153517252053e-07
-1.35750801503779e-07
-3.57069938713981e-06
8.97749992386346e-08
-4.49901215596568e-08
-1.32235301804846e-06
4.27333440048346e-07
4.13922271024347e-09
-1.47560394720018e-06
4.51162979368915e-07
7.83037511180463e-09
-1.69050781551282e-06
4.84524423535423e-07
1.05598107414594e-08
-1.86773728560368e-06
4.97180889511176e-07
1.12464567379793e-08
-1.96482901749474e-06
4.79370798680715e-07
8.51983189774165e-09
-2.00219044300821e-06
4.40051283253223e-07
1.01804616185621e-09
-2.02173774689153e-06
3.90467889523343e-07
-1.26346989341359e-08
-2.05523107625276e-06
3.36134502184058e-07
-3.42634461712153e-08
-2.10262452047847e-06
2.78152553989889e-07
-6.6185891931048e-08
-2.12769854674926e-06
2.1685989935003e-07
-1.08391049527082e-07
-2.17227528310555e-06
1.54281030461384e-07
-1.52250556125432e-07
-3.58170884640474e-06
9.30049604338499e-08
-4.40321432644605e-08
-2.56063761778854e-06
5.29215595177373e-08
2.10654487827529e-08
-1.74432697206683e-06
8.28917585326548e-08
1.1759381305303e-08
-2.83134110466832e-06
5.5521565531406e-08
3.53527151971021e-08
-1.67522988849414e-06
1.11410929787729e-07
8.9014353705152e-09
-1.90376818406538e-06
9.16835673133387e-08
1.49643758867461e-08
-3.06169673276016e-06
6.16393962075842e-08
4.03141013391215e-08
-1.65707782298425e-06
1.4100412438594e-07
6.45833450661826e-09
-1.85376064957945e-06
1.26690045726359e-07
1.12805577806938e-08
-2.10685637008611e-06
1.05554724611942e-07
9.79246810118933e-09
-3.32734039757325e-06
6.83148465896073e-08
3.74994194460102e-08
-1.63156328121814e-06
1.71668289410065e-07
4.87910822095011e-09
-1.8250285350482e-06
1.6249551502554e-07
7.94414939052809e-09
-2.08712394568587e-06
1.49120714974985e-07
6.86905872074757e-09
-2.28680518839151e-06
1.19175111492344e-07
-2.61404713372523e-09
-3.52413510031252e-06
7.33349566838318e-08
2.86601486433585e-08
-1.59004355424326e-06
2.03220855946385e-07
3.91066627951641e-09
-1.77907411497499e-06
1.99035813486254e-07
5.97793942283421e-09
-2.05591401012151e-06
1.92932246169466e-07
4.68397156465194e-09
-2.27073574156314e-06
1.7012616309397e-07
-3.47732168506613e-09
-2.38377291264806e-06
1.28662499641085e-07
-2.03216737393597e-08
-3.62575359240088e-06
7.63456453541891e-08
1.56477841997414e-08
-1.53989045572682e-06
2.35544517602602e-07
3.44830163923697e-09
-1.72572660299509e-06
2.36061948969231e-07
5.28162796270452e-09
-1.99115624323788e-06
2.36746645944783e-07
4.01899596521812e-09
-2.22973568557873e-06
2.20870776023904e-07
-2.69725392376616e-09
-2.35247213036033e-06
1.84132316934985e-07
-1.7970348003275e-08
-2.40548833416277e-06
1.34119767567255e-07
-4.12256328732977e-08
-3.65687763914061e-06
7.81259545773694e-08
8.32138265917273e-10
-1.49038713587402e-06
2.68668434996756e-07
3.37408592789611e-09
-1.67318281176419e-06
2.7370658381836e-07
5.34864263710633e-09
-1.92373634315285e-06
2.80812650962581e-07
4.69083156757247e-09
-2.14828945228539e-06
2.71108148504413e-07
-5.42734674520862e-10
-2.29786229048767e-06
2.39312128367491e-07
-1.30280979076319e-08
-2.35550091007807e-06
1.91977797233733e-07
-3.48032764650493e-08
-2.38513901093211e-06
1.37423120395019e-07
-6.36883540871136e-08
-3.6549199134123e-06
7.92713473478368e-08
-1.38782180479613e-08
-1.44682097994397e-06
3.02758082540508e-07
3.5313158374364e-09
-1.62452750156577e-06
3.12221882058867e-07
5.91655289842608e-09
-1.86577255945343e-06
3.25564529549826e-07
6.10178390037171e-09
-2.07057629329629e-06
3.2149639255076e-07
2.48124142365523e-09
-2.20563461610183e-06
2.93971593243741e-07
-7.11049185525235e-09
-2.29010275673686e-06
2.49778868494634e-07
-2.50631605763687e-08
-2.32165339769161e-06
1.96890417146635e-07
-5.26575410288216e-08
-2.34820972600604e-06
1.39900773217079e-07
-8.64560807456571e-08
-3.64681249346837e-06
8.01911344358798e-08
-2.66885849974175e-08
-1.41021949156446e-06
3.38020552243224e-07
3.81181375210177e-09
-1.58113681493007e-06
3.51920888959821e-07
6.68889639648282e-09
-1.81550228125188e-06
3.71484388849914e-07
7.84379151261794e-09
-2.00936866526783e-06
3.72835226007744e-07
5.83100844154913e-09
-2.12373054736273e-06
3.48952954035242e-07
-1.08963995191114e-09
-2.19299795746276e-06
3.07324231761209e-07
-1.49039316763366e-08
-2.25038470531531e-06
2.56611308038504e-07
-3.77677988099519e-08
-2.27603024622221e-06
2.00870084773382e-07
-7.05144072867795e-08
-2.30607962996108e-06
1.42072370267133e-07
-1.08302173105117e-07
-3.64595215197002e-06
8.1207980674918e-08
-3.56700425932789e-08
-1.37935482605037e-06
3.74711512304373e-07
4.09884530260004e-09
-1.54320393413529e-06
3.93116317271506e-07
7.51101003546921e-09
-1.77065536916076e-06
4.18941468142496e-07
9.62142272335151e-09
-1.95820716576729e-06
4.2568950214608e-07
9.17966233865396e-09
-2.0624645144993e-06
4.05146870018117e-07
4.663329801251e-09
-2.11046007246878e-06
3.65432221359028e-07
-5.50158551617458e-09
-2.15195885411964e-06
3.16335038490801e-07
-2.30954323284005e-08
-2.20207155931479e-06
2.62337060504463e-07
-5.0286879335591e-08
-2.22677519730469e-06
2.04476794730565e-07
-8.74934361547007e-08
-2.26271377821723e-06
1.44227271077103e-07
-1.28164141102115e-07
-3.65664311373615e-06
8.31907078960332e-08
-3.92621807083228e-08
-1.35260020227287e-06
4.13079691850981e-07
4.33192920863807e-09
-1.50992448140349e-06
4.36088441677755e-07
8.25235285325973e-09
-1.73031240415764e-06
4.68305058055018e-07
1.12664664092999e-08
-1.91211245659189e-06
4.80487473522935e-07
1.23055537939688e-08
-2.01174079686151e-06
4.63171540969158e-07
1.000484174746e-08
-2.05001987424147e-06
4.25004994529531e-07
3.00945322930247e-09
-2.06983697158733e-06
3.76852540573684e-07
-1.00376490432003e-08
-2.10367268060117e-06
3.24034434756765e-07
-3.09069630552019e-08
-2.15137322861993e-06
2.67596086898024e-07
-6.1835975680181e-08
-2.17560878697622e-06
2.07829160269278e-07
-1.02788875067162e-07
-2.21986440596521e-06
1.4677950104577e-07
-1.45158976312792e-07
-3.67748453789757e-06
8.77885051599076e-08
-3.70031952214459e-08
-1.32877784288492e-06
4.53355765444979e-07
4.46079140340824e-09
-1.48025380328215e-06
4.81127822637751e-07
8.81454987895765e-09
-1.69371378738043e-06
5.19941710130525e-07
1.26627878454093e-08
-1.86958311410267e-06
5.37641136407372e-07
1.50697202282781e-08
-1.9651677078751e-06
5.23481343429629e-07
1.48073057308828e-08
-1.99977021107636e-06
4.86658631167082e-07
1.0662574600767e-08
-2.00978143050359e-06
4.39061154053883e-07
1.48201492780353e-09
-2.02199453855243e-06
3.86708706611868e-07
-1.39934568321396e-08
-2.05330390700559e-06
3.31070085935446e-07
-3.76041176023359e-08
-2.09893556118037e-06
2.72159212104129e-07
-7.16124323398502e-08