/*--------------------------------*- C++ -*----------------------------------*\
  =========                 |
  \\      /  F ield         | OpenFOAM: The Open Source CFD Toolbox
   \\    /   O peration     | Website:  https://openfoam.org
    \\  /    A nd           | Version:  12
     \\/     M anipulation  |
\*---------------------------------------------------------------------------*/
/*   Windows 32 and 64 bit porting by blueCAPE: http://www.bluecape.com.pt   *\
|  Based on Windows porting (2.0.x v4) by Symscape: http://www.symscape.com   |
\*---------------------------------------------------------------------------*/
FoamFile
{
    format      ascii;
    class       volVectorField;
    location    "300";
    object      U;
}
// * * * * * * * * * * * * * * * * * * * * * * * * * * * * * * * * * * * * * //

dimensions      [0 1 -1 0 0 0 0];

internalField   nonuniform List<vector> 
10244
(
(-4.87580521346252e-06 0.000646515904426101 2.1856520540021e-05)
(-4.54447759390636e-06 0.000661689268762157 2.10753129788825e-05)
(-2.8623012058287e-06 0.000739198348728073 4.24708217688535e-05)
(-1.52961965824748e-05 0.00059301915371062 2.30798667099971e-05)
(-4.24896988082896e-06 0.00067735629495606 2.04742387555325e-05)
(-2.66077361787421e-06 0.000756786964373081 4.08609290273237e-05)
(-1.45125326257323e-05 0.000605345479963688 2.22162955831711e-05)
(-1.81021368085494e-06 0.000761113308476677 6.60581401589015e-05)
(-9.51980845285804e-06 0.000713530179104292 4.27877259723725e-05)
(-2.56781107347627e-05 0.000585529996744169 2.4340525707735e-05)
(-4.0355917987364e-06 0.000692881808348153 1.99890432708172e-05)
(-2.44245006999813e-06 0.000774413822270596 3.9467373223732e-05)
(-1.37679686485877e-05 0.00061874959061011 2.12049488338378e-05)
(-1.68192225933071e-06 0.000779611310017936 6.36555009919844e-05)
(-8.97682387214927e-06 0.000729339203105156 4.10577094766536e-05)
(-2.4645625415533e-05 0.000596817856060471 2.33369092965418e-05)
(-1.14972468745347e-06 0.000766711374075957 9.00743937541661e-05)
(-6.06616588421096e-06 0.000751522442633947 6.65013801544165e-05)
(-1.67433118272409e-05 0.000708417235460239 4.37643919544072e-05)
(-3.68754555851767e-05 0.000584864245492208 2.5483338766449e-05)
(-3.81176018577249e-06 0.000708143315644876 1.96136290836348e-05)
(-2.23329647320207e-06 0.000791819107623713 3.83187728650216e-05)
(-1.31445262217606e-05 0.000632510636956227 2.0593841064808e-05)
(-1.52266776735443e-06 0.000797916220377581 6.14935956097453e-05)
(-8.33735697929103e-06 0.000745808316801842 3.95668611651098e-05)
(-2.35679912970384e-05 0.000609588153783969 2.20934928994276e-05)
(-1.05170704599521e-06 0.000785553182508945 8.68991198189255e-05)
(-5.68920744423517e-06 0.000769173285288902 6.39939665227643e-05)
(-1.5905020654934e-05 0.000723403836552579 4.19152394564077e-05)
(-3.56214837942167e-05 0.000595732041783986 2.44188412733727e-05)
(-6.64075873059458e-07 0.000768723467736289 0.000113228320232242)
(-3.92977016957884e-06 0.000761569011828022 9.06253338619182e-05)
(-1.09347588553762e-05 0.000749493048273247 6.76221280864058e-05)
(-2.44584608697216e-05 0.000706334419119902 4.47801253783878e-05)
(-4.91766726279556e-05 0.000582170100399286 2.63734361577904e-05)
(-3.5415809198054e-06 0.000723375698456055 1.93648822923424e-05)
(-2.00061211448734e-06 0.000809025669973817 3.73708363893332e-05)
(-1.24713602401474e-05 0.000646052213726009 2.01873719149631e-05)
(-1.34665162397095e-06 0.000815965867931001 5.96058627577115e-05)
(-7.68992423325364e-06 0.000762407253178136 3.84161783684792e-05)
(-2.25190233145879e-05 0.000622973949865132 2.14123410739221e-05)
(-9.24353877999569e-07 0.000804093255483833 8.39870137090991e-05)
(-5.19930871711822e-06 0.000786989932488651 6.17576144226622e-05)
(-1.49083842493701e-05 0.000739423646108406 4.03337543686258e-05)
(-3.42321884790734e-05 0.00060824682369018 2.30413862220353e-05)
(-5.83701014266977e-07 0.000787708445002304 0.000109312145179604)
(-3.63379659772771e-06 0.000779934506900229 8.73601434346016e-05)
(-1.02937998366998e-05 0.000766685708450621 6.50207715414873e-05)
(-2.33401057640072e-05 0.000720875158123771 4.28361124467229e-05)
(-4.76431457574664e-05 0.000592685893266957 2.5272683845176e-05)
(-2.97386983160399e-07 0.000769855457857719 0.000135271566082751)
(-2.36228055619351e-06 0.000765344294578771 0.000113624357963344)
(-7.17880379220914e-06 0.000760668432406959 9.18118743081688e-05)
(-1.6253631200158e-05 0.000748690753915617 6.86700333846282e-05)
(-3.2739570024326e-05 0.000703839828718158 4.55406116540884e-05)
(-6.23886937559345e-05 0.000577089792883237 2.68548258360964e-05)
(-3.2199620993749e-06 0.000738862472598421 1.92688200953536e-05)
(-1.72641459884506e-06 0.000826223941994969 3.66278307595731e-05)
(-1.16696503542697e-05 0.000659542437303996 1.99229747836241e-05)
(-1.14277451718276e-06 0.000833843096777379 5.79840397115923e-05)
(-6.97115411558469e-06 0.000778833432231937 3.74893209369276e-05)
(-2.13518971478366e-05 0.000636129968707652 2.09943371665509e-05)
(-7.7495728481816e-07 0.000822372049438541 8.13761229992654e-05)
(-4.64824715307217e-06 0.000804734367496455 5.98512850390798e-05)
(-1.38242332823942e-05 0.000755766130174165 3.91693208435014e-05)
(-3.27580271142494e-05 0.000621502674043197 2.22959087714888e-05)
(-4.76084535372406e-07 0.000806351345343204 0.000105695197249723)
(-3.23690405405255e-06 0.00079819782266782 8.43864093639781e-05)
(-9.48008189683349e-06 0.000784260461149383 6.2713798424882e-05)
(-2.19983924589551e-05 0.000736595737692329 4.11762306527121e-05)
(-4.59244654139496e-05 0.000604910251730339 2.38117928009414e-05)
(-2.28325276346362e-07 0.000788884765138466 0.000130650656985472)
(-2.11582979228398e-06 0.000784002756556811 0.000109630048198027)
(-6.66097967001236e-06 0.000778752400516863 8.84709619307708e-05)
(-1.53403321698746e-05 0.000765589032903076 6.59902374482566e-05)
(-3.13281098442747e-05 0.000718001893058677 4.35190954290796e-05)
(-6.05485888133665e-05 0.000587204198186397 2.57034928852846e-05)
(-8.91209220592903e-09 0.000770985691562196 0.000156074816073587)
(-1.15111907111892e-06 0.000767405799506596 0.000135332505854585)
(-4.38013481227107e-06 0.000764999267267887 0.000114713625238902)
(-1.07698116740525e-05 0.000760527952044036 9.27883889301012e-05)
(-2.19366427415421e-05 0.000747769344188528 6.93388433829337e-05)
(-4.14546559365771e-05 0.000700645716108844 4.59393248332273e-05)
(-7.61340657945115e-05 0.000570057245562748 2.69991525642115e-05)
(-2.83707676067732e-06 0.000754917637486953 1.93392384691355e-05)
(-1.39928198833579e-06 0.000843643292877943 3.61051502477548e-05)
(-1.07120174648015e-05 0.000673257163551746 1.98078294882737e-05)
(-9.00835947059624e-07 0.000851708806392169 5.66389156948863e-05)
(-6.12924235774315e-06 0.000795232310066513 3.67700411653638e-05)
(-1.99708924045131e-05 0.000649209539457719 2.07245780632988e-05)
(-5.9742107291456e-07 0.000840491743400163 7.90844759304248e-05)
(-4.01361361670908e-06 0.000822321387004143 5.82311265602926e-05)
(-1.25912947691565e-05 0.000771930254874222 3.82544004704895e-05)
(-3.10774385310767e-05 0.000634495772142468 2.18465952428177e-05)
(-3.44969472004905e-07 0.000824729322184567 0.000102411992082064)
(-2.76764690358657e-06 0.000816307192051685 8.17496306141235e-05)
(-8.53800730289185e-06 0.000801873589585312 6.07824817601462e-05)
(-2.04728398625424e-05 0.000752738549461518 3.99884270484376e-05)
(-4.40201481093479e-05 0.000617953534361632 2.30222481444017e-05)
(-1.34661745734959e-07 0.000807557240522459 0.000126368718817922)
(-1.78000825696682e-06 0.000802448408035844 0.000105965115268971)
(-5.98387868617074e-06 0.000796861910109155 8.54397801222796e-05)
(-1.41987568546759e-05 0.000782962727488437 6.36193635514995e-05)
(-2.96328941525252e-05 0.000733413325435413 4.17942109705092e-05)
(-5.84988106550363e-05 0.00059908060608265 2.41865947243296e-05)
(5.09903128743399e-08 0.000789994774951549 0.000150790091026016)
(-9.3982828735222e-07 0.000786182711683294 0.000130647650140157)
(-3.94594084505495e-06 0.00078345840646694 0.000110651234070737)
(-1.00139465969073e-05 0.000778413986681684 8.93855765538532e-05)
(-2.0750415442057e-05 0.000764409270314629 6.65919607987311e-05)
(-3.97431741477203e-05 0.000714414204651165 4.38445646738606e-05)
(-7.39643532306555e-05 0.000579719611284311 2.57810846465762e-05)
(2.2807862115365e-07 0.000772441068486668 0.000175671695044931)
(-1.80326348368323e-07 0.000769081493187587 0.000155802322776031)
(-2.1879663036372e-06 0.000767383770997932 0.000136192097397382)
(-6.61861283797155e-06 0.000765231908528126 0.000115531078470347)
(-1.46163780185367e-05 0.000760275865077496 9.32771826871532e-05)
(-2.77996813886697e-05 0.000746481569684518 6.95457882280164e-05)
(-5.03804322838769e-05 0.000696623130428118 4.59901532687327e-05)
(-9.00297720021278e-05 0.000561200094243687 2.68620657378756e-05)
(-2.37165714468098e-06 0.000771887186160357 1.95933495487428e-05)
(-1.00830809928018e-06 0.000861543966622243 3.58198020348258e-05)
(-9.55691148886372e-06 0.000687486051972524 1.98570335832475e-05)
(-6.11582845616167e-07 0.000869763453182974 5.5587970878064e-05)
(-5.12866296221114e-06 0.00081183224042858 3.62728628724253e-05)
(-1.83244712067457e-05 0.000662467093507309 2.06082961201332e-05)
(-3.8431222859343e-07 0.00085859551210579 7.71322215191952e-05)
(-3.26363809790709e-06 0.000839886298008491 5.68931062261057e-05)
(-1.1143804093994e-05 0.000788035780459349 3.75543587417915e-05)
(-2.90958507592295e-05 0.000647366266346821 2.15567422400223e-05)
(-1.86892266798396e-07 0.000842948384353546 9.94930660884194e-05)
(-2.21358817816465e-06 0.000834268573189513 7.9446713341918e-05)
(-7.43864010136574e-06 0.000819324821526255 5.91587016755672e-05)
(-1.87090209255366e-05 0.000768677199169235 3.90752956149907e-05)
(-4.18265652320485e-05 0.000630680744248754 2.25545258377287e-05)
(-1.86241618839404e-08 0.00082595943003238 0.000122457019723183)
(-1.37077046124867e-06 0.000820704663253895 0.00010266000714935)
(-5.17055785522792e-06 0.00081488608478917 8.2774680768199e-05)
(-1.28506548789803e-05 0.000800432037943093 6.16596988566953e-05)
(-2.76661195401111e-05 0.000749298018614816 4.05835588672221e-05)
(-5.61881609359014e-05 0.000611823469760414 2.33827319325281e-05)
(1.33289610105572e-07 0.00080864060020492 0.000145883178870404)
(-6.48491901792056e-07 0.000804699481360205 0.000126333885301097)
(-3.36802812145901e-06 0.000801790637390602 0.000106939544184327)
(-9.04595906950789e-06 0.00079638045549726 8.63044258814022e-05)
(-1.92789255061878e-05 0.000781565822296757 6.41668370589105e-05)
(-3.77001597761915e-05 0.000729489543474058 4.20655578365416e-05)
(-7.15949999624508e-05 0.000591202887061406 2.42122661156391e-05)
(2.80627578826577e-07 0.000791381575757205 0.000169760640383359)
(3.32083740079999e-09 0.000787880541774646 0.000150467223119386)
(-1.81648832909623e-06 0.000786003874104338 0.000131449036227463)
(-5.98077486959905e-06 0.000783544160290893 0.000111416876148251)
(-1.36214515958179e-05 0.000777979873162148 8.98233061936984e-05)
(-2.63520708854032e-05 0.00076285628074302 6.67366663367471e-05)
(-4.83775455105479e-05 0.000709968979903748 4.38161038501186e-05)
(-8.75290621991923e-05 0.000570356750179694 2.55596298385414e-05)
(4.26877038217724e-07 0.00077438261727331 0.000194220240400742)
(6.12271349584405e-07 0.000770884863062083 0.000175163263658149)
(-4.18345032620768e-07 0.000769248351561476 0.000156420882257085)
(-3.33754468731518e-06 0.000767838946719526 0.000136803090466239)
(-9.01185241042205e-06 0.000765340273091877 0.000115812106947045)
(-1.85517334560213e-05 0.000759690722282533 9.32257903007048e-05)
(-3.36690268298373e-05 0.00074455988963927 6.92922098500799e-05)
(-5.92863776870067e-05 0.000691559469156006 4.56949917992997e-05)
(-0.000103755477273871 0.000550218829406004 2.64654204887217e-05)
(-1.81510143434678e-06 0.00079017254014523 2.00567682434842e-05)
(-5.42525533485622e-07 0.000880220978516212 3.57903834205198e-05)
(-8.15820359183288e-06 0.000702574066348611 2.00929016694282e-05)
(-2.65607959492254e-07 0.000888235754637962 5.48517147586839e-05)
(-3.93558307936441e-06 0.000828890511776919 3.60206964149847e-05)
(-1.63425815197038e-05 0.000676185466828233 2.0660693941743e-05)
(-1.28238869097333e-07 0.000876859988457923 7.55412249202665e-05)
(-2.36992597280604e-06 0.000857628101169284 5.58546323605029e-05)
(-9.42566896454053e-06 0.000804307843850441 3.70850934061836e-05)
(-2.67444276135116e-05 0.000660356620637255 2.14002327676277e-05)
(4.0209832071714e-09 0.000861140612942864 9.69664824850711e-05)
(-1.55192257305669e-06 0.000852207563244746 7.74904080877145e-05)
(-6.13678851877587e-06 0.000836730739677937 5.78287285543586e-05)
(-1.66312487273017e-05 0.000784510909724637 3.83889894504937e-05)
(-3.92424975074837e-05 0.000643208558130348 2.22567401890691e-05)
(1.22943865139268e-07 0.000844194827647054 0.000118951178854972)
(-8.79041656531383e-07 0.000838812429835736 9.97300142599055e-05)
(-4.20250371444619e-06 0.000832758286104993 8.0461110301159e-05)
(-1.12618918690281e-05 0.000817719939086002 6.00292544462505e-05)
(-2.53736065139989e-05 0.000764937995670296 3.96709665208018e-05)
(-5.35165500426147e-05 0.000624177678441392 2.29230302391904e-05)
(2.36565612419507e-07 0.000827010309253413 0.000141383297844273)
(-2.86763808303394e-07 0.000823004323286758 0.000122411445672512)
(-2.65658360296442e-06 0.000819980218422166 0.000103610755274018)
(-7.87124768472246e-06 0.000814294979374136 8.36142108863604e-05)
(-1.7525832798779e-05 0.000798838394265457 6.21827279258814e-05)
(-3.53119126863629e-05 0.000745057199213528 4.08405657686842e-05)
(-6.89211965902417e-05 0.000603580774117054 2.34045951594317e-05)
(3.53763433632733e-07 0.000809954502910035 0.000164265309555257)
(2.59855781160547e-07 0.000806395612815599 0.000145542464509857)
(-1.31332709958674e-06 0.000804428348404134 0.000127102207765431)
(-5.1477543963614e-06 0.000801764491934149 0.000107667776114062)
(-1.23615726593026e-05 0.000795782015741477 8.67016864243297e-05)
(-2.45659622998187e-05 0.000779771991359548 6.42646774586763e-05)
(-4.60068382562393e-05 0.000724681690565909 4.19825128684192e-05)
(-8.4852368044508e-05 0.000581407279148973 2.39253985500452e-05)
(4.74428943703128e-07 0.000793211691086436 0.000187714526318478)
(7.72383659652114e-07 0.000789642098672032 0.000169211828901377)
(-9.55038722959104e-08 0.000787916337088767 0.000151038081528196)
(-2.79101014744308e-06 0.000786340183738941 0.000132016524791536)
(-8.1694067226943e-06 0.000783512717948532 0.000111659112242497)
(-1.73345702749152e-05 0.000777203500799812 8.97255992150116e-05)
(-3.1983069984253e-05 0.000760649046103611 6.64171347718474e-05)
(-5.70108127333567e-05 0.000704441297614447 4.34269905269054e-05)
(-0.000100914791670752 0.000558804635107131 2.50186248825228e-05)
(5.8871914045031e-07 0.000776916740633912 0.000211902037125217)
(1.26004729604183e-06 0.000773068336590392 0.000193576601462456)
(1.01957700147626e-06 0.000771175141577825 0.000175592834789097)
(-6.85526591499049e-07 0.000769836059461106 0.000156837842619124)
(-4.5583052224655e-06 0.000768173995934846 0.000136888050666324)
(-1.14476384365843e-05 0.000765124516916284 0.000115513886557356)
(-2.24318188680925e-05 0.000758548342964925 9.26222282108598e-05)
(-3.94058914819657e-05 0.000741783701584091 6.85475476319675e-05)
(-6.79567515523467e-05 0.000685120810528709 4.49930141695859e-05)
(-0.000117006078943189 0.00053655895894298 2.56026154076465e-05)
(-1.14609612466358e-06 0.000810221549294105 2.07663953495861e-05)
(1.05447775283459e-08 0.000900006137843102 3.60446772213549e-05)
(-6.46442974809819e-06 0.000718928413588899 2.05626169886498e-05)
(1.46433421230809e-07 0.000907381548562192 5.4453798040122e-05)
(-2.51293404219852e-06 0.000846696843425199 3.60365698097387e-05)
(-1.39139290697325e-05 0.000690716051816211 2.09376361271964e-05)
(1.78662353277572e-07 0.000895487585038136 7.43353611040287e-05)
(-1.30256072962087e-06 0.000875774461389549 5.51386854559421e-05)
(-7.37926542739503e-06 0.000821000027394137 3.68727160596028e-05)
(-2.39017729000281e-05 0.000673746818383732 2.1466637762921e-05)
(2.34304891233818e-07 0.000879464048143592 9.48589349851882e-05)
(-7.58984723142996e-07 0.000870297859168447 7.59030248432782e-05)
(-4.58543196277194e-06 0.000854287060520647 5.68089211404724e-05)
(-1.4163212684525e-05 0.000800460933342117 3.79450969502592e-05)
(-3.61903504732789e-05 0.000655764790549088 2.20469013309116e-05)
(2.94925684257678e-07 0.000862387750983304 0.00011588383283837)
(-2.86732645991169e-07 0.000856889217344705 9.71997361822496e-05)
(-3.04454960744244e-06 0.000850590091580414 7.85067323124559e-05)
(-9.37461547487736e-06 0.000834925843708879 5.87061802628712e-05)
(-2.26700480613946e-05 0.000780408944220386 3.89983701895236e-05)
(-5.03790213541032e-05 0.00063623218293516 2.26346532492918e-05)
(3.63857687565323e-07 0.00084520345496202 0.000137328699656127)
(1.53996241441688e-07 0.000841151813362232 0.000118902752689556)
(-1.79563209181085e-06 0.000838017572896151 0.000100671461137678)
(-6.46260088257528e-06 0.000832041660385626 8.12932083475654e-05)
(-1.54485731588394e-05 0.00081589660378093 6.05490790650765e-05)
(-3.25224201486624e-05 0.0007603223182438 3.99347649762485e-05)
(-6.58433686848935e-05 0.00061547581924766 2.29480581518594e-05)
(4.46691710691734e-07 0.000828244735389562 0.000159213343634208)
(5.82519874893092e-07 0.000824682605488012 0.000141042874567987)
(-6.82213480959894e-07 0.000822675879094579 0.000123166508757048)
(-4.11519647896201e-06 0.000819863371250135 0.000104321405286867)
(-1.08261082736506e-05 0.000813537587576095 8.3992635757463e-05)
(-2.24321516725443e-05 0.000796798544835547 6.22612268410384e-05)
(-4.32374357700453e-05 0.00073988425810922 4.07423683318871e-05)
(-8.18711595770255e-05 0.000593379431846242 2.31028030814186e-05)
(5.40175988539933e-07 0.000811668395730006 0.000181658536108239)
(1.00002909758118e-06 0.000808100363750151 0.000163709552309445)
(3.47327664462497e-07 0.000806351991594852 0.000146090386761293)
(-2.06405124148262e-06 0.000804670149660859 0.00012764105393394)
(-7.08098821462929e-06 0.000801599554616173 0.000107882047498674)
(-1.58002472339953e-05 0.000794816325229096 8.65694888523155e-05)
(-2.99129524098937e-05 0.000777297606284604 6.38977234494672e-05)
(-5.43403844796614e-05 0.000718762224161431 4.15256771933918e-05)
(-9.79519689247252e-05 0.000569380717818432 2.32975145813303e-05)
(6.30355023913777e-07 0.000795594693397946 0.000204822604949169)
(1.40246817773979e-06 0.000791731778627953 0.000187035421946788)
(1.30113452160419e-06 0.000789815125662875 0.000169598978979583)
(-2.12875106982881e-07 0.000788402759607801 0.000151416312740764)
(-3.83741214575576e-06 0.000786560622300838 0.000132071923329466)
(-1.04188107405171e-05 0.000783146124145648 0.000111327273993303)
(-2.10210076145442e-05 0.000775849563000659 8.90739151987738e-05)
(-3.75125507091597e-05 0.000757556862604203 6.55956200339943e-05)
(-6.5426585376871e-05 0.000697478400775189 4.26036657358755e-05)
(-0.000113803041341559 0.000544487961276694 2.39447432239198e-05)
(7.13274141297887e-07 0.000780137509870026 0.000228875108583436)
(1.77703036381617e-06 0.000775782251826788 0.000211189202744139)
(2.17760704138056e-06 0.000773447510581486 0.00019388992134053)
(1.46904626466667e-06 0.000771853384100797 0.000175883961487195)
(-9.62198949516783e-07 0.000770325675563385 0.000156771893043598)
(-5.79488816545206e-06 0.000768208072229562 0.000136385275168252)
(-1.38214753959989e-05 0.000764405075213365 0.000114605496318109)
(-2.61583414912577e-05 0.000756676186878294 9.14086120140034e-05)
(-4.48773278517152e-05 0.000737956800809981 6.721738390307e-05)
(-7.61707127613621e-05 0.000676890792678962 4.37461133653328e-05)
(-0.00012924865825951 0.000519568563895873 2.4160637604542e-05)
(-3.50721359267332e-07 0.000832603664933052 2.17493022704214e-05)
(6.65900869425061e-07 0.000921270434454485 3.66244487474375e-05)
(-4.41521961103479e-06 0.000737001197370117 2.12821617967731e-05)
(6.33695411656149e-07 0.000927494014764893 5.44256426283658e-05)
(-8.2064483318875e-07 0.000865579259999788 3.63552315615585e-05)
(-1.09634838977385e-05 0.000706469853351234 2.14692181838082e-05)
(5.4519274960976e-07 0.00091470624360929 7.3541183310644e-05)
(-3.21142964328454e-08 0.000894579967839731 5.47719622944372e-05)
(-4.93801481949942e-06 0.0008383976876735 3.69490952370801e-05)
(-2.0411772603219e-05 0.000687890433068377 2.18212141481832e-05)
(5.10418957746865e-07 0.00089810034481882 9.31978313786529e-05)
(1.90513457994143e-07 0.000888740187340212 7.47098917903538e-05)
(-2.73606020196079e-06 0.000872218589559025 5.61248500330987e-05)
(-1.12220343430998e-05 0.000816774310559018 3.77742177494997e-05)
(-3.24813589283309e-05 0.000668642720765835 2.21200033054767e-05)
(5.02848582627092e-07 0.000880683056326202 0.000113285836391536)
(4.26406972451903e-07 0.00087508967362155 9.5096370875596e-05)
(-1.65777826200505e-06 0.000868550846542062 7.69341200940167e-05)
(-7.12502538578106e-06 0.000852238208341284 5.77067415607884e-05)
(-1.94620889287826e-05 0.000795923176721223 3.85773694883784e-05)
(-4.66872401279208e-05 0.000648219018628776 2.24371427912045e-05)
(5.19872374916359e-07 0.000863336562772547 0.000133754545774609)
(6.88770414396836e-07 0.000859254114618316 0.000115838774572424)
(-7.56055496610132e-07 0.000856009427229839 9.81438507064171e-05)
(-4.77309273365649e-06 0.000849717195153638 7.93467882386376e-05)
(-1.29780401654815e-05 0.000832820531063967 5.92390524513922e-05)
(-2.92343509127704e-05 0.000775341897697239 3.9282691785238e-05)
(-6.22454376947764e-05 0.000626946882008417 2.26325468004078e-05)
(5.62388543118539e-07 0.000846346684977944 0.000154642602271779)
(9.79435319909187e-07 0.000842801070842987 0.000136995006605758)
(9.07739866194977e-08 0.000840762966814779 0.00011965449538747)
(-2.85871775464849e-06 0.000837796300569775 0.00010137950459036)
(-8.9776341759834e-06 0.00083109701052102 8.16708047650223e-05)
(-1.99005704406193e-05 0.000813563951401964 6.06298054871017e-05)
(-4.00075614639465e-05 0.000754712825177995 3.98403318543859e-05)
(-7.84721158097245e-05 0.000604754481589546 2.26181292039802e-05)
(6.24563130252006e-07 0.000829834658018896 0.000176080273749892)
(1.29051479363861e-06 0.000826317524585268 0.000158667790150392)
(9.10023367924365e-07 0.000824588140206705 0.000141583558176964)
(-1.14733725312403e-06 0.000822839433729767 0.000123694164196738)
(-5.72869252252569e-06 0.000819564256822307 0.000104524972658443)
(-1.39284228594619e-05 0.00081236820480652 8.38461208842843e-05)
(-2.74411192587703e-05 0.000794036558086849 6.18754292215404e-05)
(-5.12397367617607e-05 0.000733562160764899 4.02617463939302e-05)
(-9.47218249107366e-05 0.000580921550710163 2.24107311904947e-05)
(6.90159097680254e-07 0.000813894054702237 0.000198225873644835)
(1.6066824421555e-06 0.000810084946240414 0.00018097976587817)
(1.69398826527637e-06 0.000808201309677194 0.000164081993827705)
(4.26825376859006e-07 0.000806757275920895 0.00014645298602227)
(-2.88817185846598e-06 0.000804777728891806 0.000127679303258302)
(-9.0936727629001e-06 0.00080107499892177 0.000107527683140851)
(-1.92449472087421e-05 0.000793247097452689 8.58830720871671e-05)
(-3.51947467620599e-05 0.00077391107246629 6.30211672914246e-05)
(-6.24883008369241e-05 0.000711373432415099 4.0616753565134e-05)
(-0.000110552931147993 0.000554541015647316 2.21241244164337e-05)
(7.50929546888092e-07 0.000798622269048903 0.000221233511353376)
(1.90317559780492e-06 0.000794304182987617 0.000204077605592371)
(2.42511659840838e-06 0.000792002751438306 0.000187312005402138)
(1.88140575319498e-06 0.000790404097856189 0.000169861310690256)
(-3.41007500556586e-07 0.000788793152167943 0.000151328744166583)
(-4.91817702512477e-06 0.000786468717817575 0.000131545125427132)
(-1.26359202347835e-05 0.000782257024841706 0.00011038480739627)
(-2.45888319173444e-05 0.000773739617756933 8.78042154658654e-05)
(-4.28092197496824e-05 0.000753374243448066 6.41701005176437e-05)
(-7.33989991773468e-05 0.000688644168260289 4.11981383405243e-05)
(-0.000125611832252883 0.000526715868024859 2.23115349840062e-05)
(8.03897897239011e-07 0.000784116299331011 0.000245258164328528)
(2.17225283449715e-06 0.000779131526441735 0.000228130201652446)
(3.09326909492203e-06 0.000776228561410816 0.000211440706203386)
(3.19836651020968e-06 0.000774197407844399 0.000194098399892133)
(1.94955693866985e-06 0.000772458254195601 0.000175710681326691)
(-1.23589641426506e-06 0.000770548006359588 0.000156118716692386)
(-6.98208910925958e-06 0.000767790130634141 0.000135235406240115)
(-1.60634537706753e-05 0.000763048373465705 0.000113007694290967)
(-2.96472974828211e-05 0.00075393310533239 8.94648936257993e-05)
(-4.99406097730693e-05 0.000732856386808967 6.51506579090377e-05)
(-8.36626175540699e-05 0.000666393334972809 4.17474550422188e-05)
(-0.0001399079316412 0.000498277089362205 2.21778137617935e-05)
(6.34621187459069e-07 0.000857943787440882 2.30595138387584e-05)
(1.44400821034627e-06 0.000944422214092604 3.75702445407308e-05)
(-1.94502317907341e-06 0.000757282117841581 2.2294071029521e-05)
(1.20944530351583e-06 0.000948900292387818 5.48036803849493e-05)
(1.19014603538202e-06 0.000885900698071664 3.70109265877495e-05)
(-7.40843693756982e-06 0.000723890119896215 2.2269017663895e-05)
(9.79705303086621e-07 0.00093477332509227 7.31892150724627e-05)
(1.47383728404762e-06 0.000914331574199432 5.47868947032548e-05)
(-2.03412089462926e-06 0.000856819318641511 3.73500221820685e-05)
(-1.6187569318837e-05 0.000703152617836245 2.2426638118715e-05)
(8.39571025914939e-07 0.00091725494684879 9.20122126832338e-05)
(1.32309250746972e-06 0.000907760530882239 7.39389642890342e-05)
(-5.35522829849082e-07 0.000890775776143593 5.58076817902821e-05)
(-7.71159237168615e-06 0.000833726010401738 3.79137549376441e-05)
(-2.79436108710535e-05 0.000682179444520961 2.25361312815266e-05)
(7.5287136748695e-07 0.000899245430927443 0.000111186740468394)
(1.28181887683856e-06 0.000893593972014498 9.34477522883602e-05)
(3.54285936131237e-10 0.000886838912220447 7.576992533029e-05)
(-4.44209089609477e-06 0.000869876889815018 5.70591366570766e-05)
(-1.56351668676684e-05 0.000811721451003971 3.84526764659297e-05)
(-4.21914715029537e-05 0.000660433070564617 2.25353610205684e-05)
(7.09488245797776e-07 0.000881542825726034 0.000130692924111449)
(1.3352942579749e-06 0.000877452787547493 0.000113251087734348)
(4.95002040421918e-07 0.000874106844120212 9.60561605505717e-05)
(-2.74813905571834e-06 0.000867484534948995 7.77963065005097e-05)
(-1.00316627218539e-05 0.000849789355696435 5.82677331151785e-05)
(-2.53392250855269e-05 0.0007903125932739 3.88949827432639e-05)
(-5.80199943029001e-05 0.000638251268067831 2.25020795533395e-05)
(7.0533131385244e-07 0.000864369328621921 0.00015058883111518)
(1.46487537234412e-06 0.000860857684541546 0.000133432820058445)
(1.03055808631121e-06 0.000858792926806497 0.000116596163942746)
(-1.33794074387528e-06 0.000855658359828821 9.88639643543949e-05)
(-6.75660449448075e-06 0.0008485419403457 7.97402606268738e-05)
(-1.68870437829313e-05 0.000830130730493679 5.93399690053171e-05)
(-3.62076018887486e-05 0.000769204643807025 3.9206361918179e-05)
(-7.45347147001681e-05 0.000615569258686487 2.22740379445671e-05)
(7.30766257812245e-07 0.0008477993358189 0.000171017370067301)
(1.65116574771002e-06 0.000844353401749064 0.000154112062090336)
(1.60686316546164e-06 0.000842653212349871 0.000137538220432029)
(-1.87273679183107e-08 0.000840837255826012 0.000120187019643854)
(-4.07777284024585e-06 0.000837338268085813 0.000101588031200786)
(-1.16718421897079e-05 0.000829683538152335 8.15288709710018e-05)
(-2.45110174140723e-05 0.000810455959949203 6.02464358156314e-05)
(-4.76419706179012e-05 0.000747906256659653 3.9352799732071e-05)
(-9.10991435652255e-05 0.000591738956504311 2.18770135932161e-05)
(7.67734609582274e-07 0.000831892787060335 0.000192139843108455)
(1.87013240743457e-06 0.00082818423117406 0.000175418449167811)
(2.19961786157787e-06 0.000826371503785273 0.000159041993568711)
(1.24526985539226e-06 0.00082492467703715 0.000141951556939952)
(-1.68878151424931e-06 0.0008228304485956 0.000123730616316263)
(-7.44530432484795e-06 0.000818865036014607 0.000104164454660063)
(-1.7079103785072e-05 0.000810558033001465 8.31455318244274e-05)
(-3.24371709562591e-05 0.000790328180190697 6.09732574348173e-05)
(-5.9115361643515e-05 0.00072574313503668 3.93126751234846e-05)
(-0.000107114696596592 0.00056565307306751 2.12122130233543e-05)
(8.05859441647738e-07 0.00081672066082416 0.000214107865818929)
(2.08843237629545e-06 0.000812505392849842 0.000197485952999654)
(2.7772638305716e-06 0.000810288210894721 0.000181247418535973)
(2.44848747884445e-06 0.000808717510022966 0.000164334397741636)
(4.93747083490507e-07 0.000807047935471807 0.000146354765772101)
(-3.76427365807683e-06 0.000804550197510599 0.000127140067625248)
(-1.11070274472048e-05 0.000800004017290923 0.000106562683415392)
(-2.26119817871096e-05 0.000790897162264596 8.45723763630965e-05)
(-4.02839988844135e-05 0.000769407358555961 6.15248781693192e-05)
(-7.02254604487649e-05 0.000702075389988912 3.91058315283232e-05)
(-0.000122084769663843 0.000536184013049848 2.0380965620326e-05)
(8.38687825253755e-07 0.000802363743609206 0.000237060325054736)
(2.28639901361663e-06 0.000797466506727834 0.000220460372494201)
(3.31412258960927e-06 0.000794647539712923 0.000204296291257919)
(3.56079406329789e-06 0.000792668409114985 0.000187497146537956)
(2.48916737828306e-06 0.000790919101143268 0.000169671502691519)
(-4.83530305457768e-07 0.000788906103322109 0.000150659769219197)
(-5.97833065448249e-06 0.000785908847115433 0.000130372060852884)
(-1.47572830093779e-05 0.000780709421139415 0.000108747594188664)
(-2.79568440261752e-05 0.000770729760399809 8.57915111094024e-05)
(-4.77273787876374e-05 0.000747869017923504 6.19801308407267e-05)
(-8.06513620988634e-05 0.00067742973164688 3.90021541570215e-05)
(-0.000135684907762438 0.000504576339137063 2.01631259754773e-05)
(8.64083942114697e-07 0.000788902280822753 0.000261133517569866)
(2.45860195456821e-06 0.000783195440845991 0.000244498478921883)