/*--------------------------------*- C++ -*----------------------------------*\
  =========                 |
  \\      /  F ield         | OpenFOAM: The Open Source CFD Toolbox
   \\    /   O peration     | Website:  https://openfoam.org
    \\  /    A nd           | Version:  12
     \\/     M anipulation  |
\*---------------------------------------------------------------------------*/
/*   Windows 32 and 64 bit porting by blueCAPE: http://www.bluecape.com.pt   *\
|  Based on Windows porting (2.0.x v4) by Symscape: http://www.symscape.com   |
\*---------------------------------------------------------------------------*/
FoamFile
{
    format      ascii;
    class       volScalarField;
    location    "800";
    object      k;
}
// * * * * * * * * * * * * * * * * * * * * * * * * * * * * * * * * * * * * * //

dimensions      [0 2 -2 0 0 0 0];

internalField   nonuniform List<scalar> 
10103
(
1.0312471445014e-10
1.0490619714412e-10
1.73882446255159e-09
1.87231164538711e-09
1.05759082109836e-10
1.7665353216915e-09
1.90152633639793e-09
9.11777320857538e-09
4.94358632440847e-08
1.10524496125362e-08
1.05735852578463e-10
1.77958310860062e-09
1.91174335982916e-09
9.24079142848853e-09
5.01307000139438e-08
1.12126960620063e-08
2.43852394282078e-08
2.71586854255117e-07
3.14546643085612e-07
3.50902139370043e-08
1.05029218859986e-10
1.77872238882905e-09
1.90463519615937e-09
9.26948672052329e-09
5.03488588760426e-08
1.1254128563051e-08
2.46410387668851e-08
2.75022927285366e-07
3.18547251610039e-07
3.55411199198192e-08
4.51659788020201e-08
7.29507504422766e-07
1.74783091809093e-06
9.84670164071024e-07
7.42429217928375e-08
1.0355058160599e-10
1.76508346154319e-09
1.88577454673244e-09
9.23229714015638e-09
5.02054801217592e-08
1.1192163410918e-08
2.46692852804895e-08
2.75689687061551e-07
3.19438311918927e-07
3.56473289815796e-08
4.55181709239475e-08
7.36774228976379e-07
1.76589791676181e-06
9.95732072022972e-07
7.5128753388263e-08
6.99891620693325e-08
1.34185783741685e-06
4.10725075892572e-06
4.54598118843085e-06
1.99938269031268e-06
1.25558996490197e-07
1.01304884838894e-10
1.73982604015622e-09
1.85634634560137e-09
9.14627908647873e-09
4.96562953599649e-08
1.1034815769076e-08
2.44869745154341e-08
2.74370081500673e-07
3.17849224408133e-07
3.54304459059596e-08
4.54875975601638e-08
7.37497015269437e-07
1.76918547931499e-06
9.98107107670871e-07
7.53108163478019e-08
7.04055075488998e-08
1.35164264948493e-06
4.1355657292212e-06
4.57754235889616e-06
2.01840603445642e-06
1.26950996909889e-07
9.86255343239582e-08
2.04543849901292e-06
6.62689021520349e-06
8.76629107919624e-06
7.68071757484677e-06
3.20802218700931e-06
1.88844676660921e-07
9.832702133262e-11
1.7023462350032e-09
1.81399269409293e-09
8.99418808552979e-09
4.87907742602842e-08
1.08146007537565e-08
2.41347117286579e-08
2.71360149064134e-07
3.13703941915591e-07
3.49194339906425e-08
4.51002606551805e-08
7.32204235193115e-07
1.75967776442386e-06
9.92625873339036e-07
7.48501509991431e-08
7.02598676381556e-08
1.35065469080123e-06
4.13650774396667e-06
4.58019876817576e-06
2.02160999591302e-06
1.27228403969917e-07
9.90816277465385e-08
2.0565514965408e-06
6.65745565202375e-06
8.80246688145121e-06
7.71803200243857e-06
3.23376644746462e-06
1.90825657738451e-07
1.30713991684615e-07
2.81215235426932e-06
9.08757783730074e-06
1.27008342916337e-05
1.32548094786456e-05
1.07944386413157e-05
4.53887421141465e-06
2.65762860612565e-07
9.4657036115027e-11
1.65227095691219e-09
1.75864690852191e-09
8.78101525025591e-09
4.76211436255586e-08
1.05234560593189e-08
2.36692064708427e-08
2.6627361446115e-07
3.06830796989171e-07
3.41432473319664e-08
4.43795090875422e-08
7.22031230780175e-07
1.73831956490034e-06
9.79599899316232e-07
7.38228788454277e-08
6.95988150255305e-08
1.33968065573803e-06
4.1116134798501e-06
4.55525932944136e-06
2.01024756731959e-06
1.26490748691817e-07
9.87759135301507e-08
2.05236879247826e-06
6.65018301205856e-06
8.7948232372009e-06
7.71486809385642e-06
3.23674476074938e-06
1.91202513339539e-07
1.31199128953938e-07
2.8238081803278e-06
9.11731310239796e-06
1.27359993416478e-05
1.3292555406455e-05
1.08345824564652e-05
4.57006131693265e-06
2.68398638349439e-07
1.65441863915562e-07
3.62202157575462e-06
1.14511609250503e-05
1.6356290411531e-05
1.81744610267759e-05
1.75047963851639e-05
1.38304115096893e-05
5.96812580320218e-06
3.56391317680067e-07
9.03532728896587e-11
1.59039123318494e-09
1.69104742599566e-09
8.50664254906002e-09
4.61535387324514e-08
1.01729678874248e-08
2.30366599656517e-08
2.59479006084076e-07
2.97870511517524e-07
3.31915943024454e-08
4.33557787906729e-08
7.07454302050279e-07
1.7050699254416e-06
9.59380245259656e-07
7.2262793194691e-08
6.84466118620115e-08
1.31926220622837e-06
4.06290109754706e-06
4.50435688456697e-06
1.98517412208799e-06
1.24828022041998e-07
9.77816259825205e-08
2.03422309759259e-06
6.6071419700494e-06
8.74488636108647e-06
7.67215069010126e-06
3.21847983173447e-06
1.90107401423468e-07
1.30699904589341e-07
2.81563856199166e-06
9.09974714778728e-06
1.27146805645216e-05
1.3273111931645e-05
1.08237661798885e-05
4.57176077811519e-06
2.68850830026341e-07
1.65963198507975e-07
3.63386633530634e-06
1.14792924736729e-05
1.63894295656995e-05
1.82095766280042e-05
1.75425281741803e-05
1.38718395147607e-05
6.00343981052036e-06
3.59705942782827e-07
2.01938665119132e-07
4.45429734526681e-06
1.37127285365872e-05
1.97719202704614e-05
2.26632318032273e-05
2.32269872776469e-05
2.15494450376854e-05
1.67962520870115e-05
7.46116625733877e-06
4.54061540898975e-07
8.54597890536664e-11
1.61210356265098e-09
1.5176012393971e-09
8.1725500533088e-09
4.43681948898486e-08
9.75521030097871e-09
2.22625777627981e-08
2.50916037611101e-07
2.87505854715622e-07
3.20148903274997e-08
4.20912458462797e-08
6.87827378605111e-07
1.6601606566446e-06
9.31811501938825e-07
7.01967386864588e-08
6.68313151777671e-08
1.29033729638391e-06
3.99111664569154e-06
4.42839544169925e-06
1.94711710722458e-06
1.22284975546997e-07
9.61272362430781e-08
2.00267523807128e-06
6.52986476751216e-06
8.654119930285e-06
7.59165281452888e-06
3.1797648850903e-06
1.87639393928264e-07
1.29323229708433e-07
2.78946457457566e-06
9.03777882816297e-06
1.26389070980422e-05
1.31976919756286e-05
1.07627310744723e-05
4.54496505392363e-06
2.67244291462756e-07
1.65249235229598e-07
3.62137006177575e-06
1.14514328655481e-05
1.63543118775673e-05
1.81729270969974e-05
1.75105675648496e-05
1.38522845758236e-05
6.00235333830302e-06
3.60139566258218e-07
2.02501977810782e-07
4.46646837550555e-06
1.37395205796077e-05
1.98032752993523e-05
2.26957288886197e-05
2.32605016112752e-05
2.15858357563314e-05
1.68375851522666e-05
7.49928407330924e-06
4.58048605642471e-07
2.39548290482435e-07
5.29114682853381e-06
1.58712833403161e-05
2.29803705293697e-05
2.68295566437784e-05
2.83689564107554e-05
2.79726395932803e-05
2.54224999624715e-05
1.97008294844241e-05
8.93106109313881e-06
5.32521070083491e-07
8.00276241702578e-11
1.52272049682352e-09
1.43469892239451e-09
9.27486607213715e-09
4.22850719027025e-08
7.7834459586833e-09
2.13480449650351e-08
2.40664294070753e-07
2.75289941903753e-07
3.06297176387178e-08
4.05886454999194e-08
6.64176606207515e-07
1.60397089312113e-06
8.98034245701268e-07
6.77587988013446e-08
6.47959319081586e-08
1.25426134858449e-06
3.8971428267175e-06
4.32826515748009e-06
1.89655459425545e-06
1.18892137212316e-07
9.38375808821327e-08
1.95853251040797e-06
6.4200015233446e-06
8.52362674424375e-06
7.47454722852973e-06
3.12158762165391e-06
1.83822322571389e-07
1.27099883947414e-07
2.7461121082953e-06
8.93290366959678e-06
1.25101538119012e-05
1.30674543566785e-05
1.06529681275035e-05
4.49108281114022e-06
2.63703640178787e-07
1.63454865146159e-07
3.58686757376506e-06
1.13712716686499e-05
1.62536479336007e-05
1.80661870703234e-05
1.74097933094968e-05
1.37722801261441e-05
5.96540024724848e-06
3.57848697320433e-07
2.01571720468673e-07
4.44950768317291e-06
1.37021731260348e-05
1.97553627582486e-05
2.26428998593394e-05
2.32081422530286e-05
2.15405492866309e-05
1.68080573993156e-05
7.4938354045031e-06
4.58469903863302e-07
2.40164346772273e-07
5.30374576823192e-06
1.58974572996681e-05
2.3010658037336e-05
2.68601633750017e-05
2.83989080671762e-05
2.80030696608873e-05
2.54561616487414e-05
1.97406756979113e-05
8.97078515032721e-06
5.37052047929134e-07
2.77864600885633e-07
6.12000478779301e-06
1.79276826003786e-05
2.60061006256692e-05
3.07328688340354e-05
3.31153138515005e-05
3.36628682092586e-05
3.24696667919678e-05
2.91561704813988e-05
2.25577090137606e-05
1.02424976995584e-05
5.21375724680651e-07
7.41190176823746e-11
1.42402695960885e-09
1.34282545848587e-09
8.73806033946278e-09
3.99284861251065e-08
7.34452756938952e-09
2.9079719779769e-08
2.6154012133787e-07
2.289928224622e-07
2.02976230814885e-08
3.88523294866172e-08
6.36551184774538e-07
1.53826262534923e-06
8.58698942065562e-07
6.48910413994431e-08
6.23583090363601e-08
1.20994425066672e-06
3.78184249674468e-06
4.20500404095287e-06
1.83337652495908e-06
1.14688090171732e-07
9.0955091280314e-08
1.90261595407697e-06
6.27844660925962e-06
8.35467952301031e-06
7.32184020388694e-06
3.04457620504166e-06
1.78683226057648e-07
1.24061431493119e-07
2.68595538156634e-06
8.78662757583407e-06
1.23297961482685e-05
1.28836227470717e-05
1.04955569687392e-05
4.41042716880124e-06
2.5821482728281e-07
1.60623905791404e-07
3.53119392387269e-06
1.12405347028676e-05
1.60890200214105e-05
1.78905509705373e-05
1.72410264235092e-05
1.36326763651476e-05
5.89408270573373e-06
3.52954304135209e-07
1.99346172099076e-07
4.40667247683207e-06
1.36051253374796e-05
1.96315869706247e-05
2.25069840609798e-05
2.3071152553024e-05
2.141408724849e-05
1.67079343981893e-05
7.4451298987981e-06
4.55392411867466e-07
2.39024211671868e-07
5.28263829287704e-06
1.58517011125948e-05
2.29513435311504e-05
2.67927644777995e-05
2.83281027848665e-05
2.79342861255581e-05
2.53964886900392e-05
1.9699692344849e-05
8.95967657958183e-06
5.37294313460541e-07
2.78549195023888e-07
6.13331694929386e-06
1.79540663041557e-05
2.60362340335165e-05
3.07625517608396e-05
3.31428582857306e-05
3.36885788068918e-05
3.249556611717e-05
2.91857246399514e-05
2.25948722087705e-05
1.02832278648217e-05
5.25552235381258e-07
3.16606255223628e-07
6.93378267735062e-06
1.98849511636415e-05
2.88674604453872e-05
3.44109791513755e-05
3.75582628649229e-05
3.88812041449299e-05
3.86329823857372e-05
3.67549084503393e-05
3.27878103859865e-05
2.54928634006048e-05
1.20102458643659e-05
6.77993514531901e-11
1.31720154094503e-09
1.24290408012225e-09
8.15145261111807e-09
3.73270905063277e-08
6.86274341237647e-09
2.73721848023858e-08
2.46283464842972e-07
2.15934207895358e-07
1.91235994654632e-08
6.16342849507519e-08
8.1537642957366e-07
1.46532692276175e-06
6.04982010437846e-07
3.68871997899273e-08
5.95618403973213e-08
1.15885668205894e-06
3.64619324935035e-06
4.05976423186096e-06
1.7589854647943e-06
1.09748590315607e-07
8.75236315093161e-08
1.83532570605083e-06
6.10550614179356e-06
8.14828862121044e-06
7.13443984963403e-06
2.94938715437505e-06
1.72318817428839e-07
1.20244798952172e-07
2.61011483634909e-06
8.59994671434601e-06
1.2098568724396e-05
1.26473178366675e-05
1.02915358294196e-05
4.30383912713773e-06
2.50760384197648e-07
1.56775344689426e-07
3.45504672179289e-06
1.10601342381401e-05
1.58617298644181e-05
1.76471994706484e-05
1.70053906619865e-05
1.34345169758892e-05
5.78842930824243e-06
3.45376949612891e-07
1.95880514221823e-07
4.33898743009812e-06
1.345024408266e-05
1.94337086621977e-05
2.22893133495659e-05
2.28503923033301e-05
2.12068530378197e-05
1.65372613582287e-05
7.35399607522186e-06
4.48852291207093e-07
2.36370259337103e-07
5.2317648482198e-06
1.57392982038238e-05
2.28064810019942e-05
2.66301520588412e-05
2.81582475478724e-05
2.77670648147009e-05
2.52435524639888e-05
1.95777594989362e-05
8.89809221831167e-06
5.33461307540708e-07
2.77205542707034e-07
6.10859112988528e-06
1.79011376003316e-05
2.59670333619156e-05
3.06823477443611e-05
3.30558006786816e-05
3.35991912448052e-05
3.24094637616043e-05
2.91103830663009e-05
2.25406940595442e-05
1.02645902782025e-05
5.24981212094732e-07
3.17378641536694e-07
6.94809026184759e-06
1.99123724660673e-05
2.88984036435289e-05
3.44407910635225e-05
3.75846580386095e-05
3.89037939565682e-05
3.86529800091879e-05
3.67750008641481e-05
3.28121851894277e-05
2.55269674273058e-05
1.20552269148634e-05
4.0213899214427e-07
3.55566414415739e-07
7.72828699925981e-06
2.1747702366037e-05
3.15788365176467e-05
3.78899209176281e-05
4.1749651820887e-05
4.3757788930817e-05
4.42468759543505e-05
4.3321926202073e-05
4.08496887837879e-05
3.63824822332757e-05
2.90320520840604e-05
6.11478070672531e-11
1.20345113644503e-09
1.13608672360806e-09
7.52225589825131e-09
3.45127912257863e-08
6.34261043278223e-09
2.55179117232373e-08
2.29665869866313e-07
2.01644483971e-07
1.7842075665368e-08
5.8031818511644e-08
7.67954379541159e-07
1.38432843827105e-06
5.69923352777622e-07
3.47121782046348e-08
1.04257621907828e-07
1.67437218713293e-06
3.89279032387353e-06
3.49014412775186e-06
1.10132441555283e-06
5.64778656798882e-08
8.35856264897868e-08
1.75778548032492e-06
5.9028658878135e-06
7.90570612584891e-06
6.91359955493319e-06
2.83707457760467e-06
1.64787611673982e-07
1.1571169113886e-07
2.51930789437703e-06
8.37376004594404e-06
1.18177741221419e-05
1.23596787278933e-05
1.0041872444379e-05
4.17217520056338e-06
2.41585977459855e-07
1.51964476702818e-07
3.35912195175943e-06
1.08315922451176e-05
1.55728920892643e-05
1.73371215790757e-05
1.67039231334775e-05
1.3178599812074e-05
5.6487286516045e-06
3.35133479992434e-07
1.91192817244653e-07
4.24684261666248e-06
1.32385962229186e-05
1.91630142094062e-05
2.19910991358684e-05
2.25468316505221e-05
2.09197663546075e-05
1.62970169866868e-05
7.22020031588008e-06
4.38767737424104e-07
2.32267691291643e-07
5.1524146324428e-06
1.55623253757727e-05
2.25780640719594e-05
2.63738595998866e-05
2.7890327433833e-05
2.75018740593351e-05
2.49974044621599e-05
1.93746467514865e-05
8.78527144345489e-06
5.25411542776173e-07
2.74130937506229e-07
6.05034279523808e-06
1.77749581603532e-05
2.58031892999396e-05
3.0495565695245e-05
3.28562949311917e-05
3.33958524068212e-05
3.22116250378527e-05
2.89297445533447e-05
2.23947642798394e-05
1.01877668188304e-05
5.20337903594899e-07
3.15849443950944e-07
6.92020330967234e-06
1.98535521468724e-05
2.88208471843762e-05
3.43495604682317e-05
3.74835041198098e-05
3.87966114930775e-05
3.85443239793538e-05
3.66706195839168e-05
3.27196786935638e-05
2.54567143312314e-05
1.20202543108154e-05
4.00807824181042e-07
3.56444956846156e-07
7.74388254191471e-06
2.17768843325828e-05
3.16115276878695e-05
3.79209235050568e-05
4.17761551904108e-05
4.37788414133761e-05
4.42630349736738e-05
4.33350838159143e-05
4.08632251995915e-05
3.64018956333789e-05
2.90679395831494e-05
2.04780677633733e-05
8.26976984576348e-06
3.94520748129494e-07
8.50126193720725e-06
2.35206343899652e-05
3.41516826725871e-05
4.1188728499502e-05
4.57215431104487e-05
4.83621856043281e-05
4.94812566256772e-05
4.92672632259749e-05
4.77410993490513e-05
4.4754189793383e-05
3.99837706089029e-05
5.42440043956557e-11
1.08419400605682e-09
1.02364920190614e-09
6.85777197698403e-09
3.15167301340669e-08
5.78948385241002e-09
2.35353226000229e-08
2.1189037582026e-07
1.86280263290877e-07
1.64700272884678e-08
5.41303610376066e-08
7.16542556984192e-07
1.29593271465075e-06
5.31770758739698e-07
3.23641635187534e-08
9.81960086639907e-08
1.58071495145048e-06
3.70573673681324e-06
3.31608771129555e-06
1.03781276896131e-06
5.31095836395345e-08
1.56240368036314e-07
2.70781420197517e-06
6.66049567544986e-06
7.62798232007533e-06
5.67172871204922e-06
1.670925010979e-06
7.91759965321116e-08
1.10514423087051e-07
2.41447485520443e-06
8.10940492538343e-06
1.14887257181052e-05
1.20219541494016e-05
9.74778434091024e-06
4.01666633434336e-06
2.3081824067782e-07
1.46258887649947e-07
3.24446467709602e-06
1.05557634534303e-05
1.52236778036429e-05
1.69615865597308e-05
1.63377328001757e-05
1.28659020605376e-05
5.47600259940732e-06
3.22330750102855e-07
1.85350301541446e-07
4.13131198542474e-06
1.2971218611879e-05
1.88207433115919e-05
2.16135072203503e-05
2.21615278695045e-05
2.05536529087073e-05
1.5987440040528e-05
7.04376530581496e-06
4.25114460635171e-07
2.2673114940145e-07
5.04498734875717e-06
1.53218151411414e-05
2.22674715144822e-05
2.60251977533519e-05
2.75254022559692e-05
2.71394368862028e-05
2.46583204411248e-05
1.90899313917084e-05
8.62100427751126e-06
5.13010016535324e-07
2.69408566473668e-07
5.95997666413225e-06
1.75778675012078e-05
2.55469338387266e-05
3.02039662602664e-05
3.25455159449129e-05
3.30791634341142e-05
3.19021383175942e-05
2.86434916080689e-05
2.21565210950755e-05
1.00522251671562e-05
5.11605724535704e-07
3.12369594016221e-07
6.85527968986769e-06
1.97152156625856e-05
2.86400697451084e-05
3.41410782655641e-05
3.72573640598184e-05
3.85611759371461e-05
3.83075978981006e-05
3.64415170827038e-05
3.25096209696586e-05
2.52829218626198e-05
1.19160161034319e-05
3.96245683093676e-07
3.54744892612552e-07
7.71338529488675e-06
2.17133028342898e-05
3.15270897874215e-05
3.78203982082574e-05
4.16629579249427e-05
4.36564324501679e-05
4.41352765995926e-05
4.32065648834408e-05
4.07396442489153e-05
3.62902961155195e-05
2.89751053473728e-05
2.04041934963571e-05
8.24537798044129e-06
3.95518459710661e-07
8.51857964476363e-06
2.35522067313656e-05
3.41869730067137e-05
4.12219448058231e-05
4.57493708817263e-05
4.83831998318939e-05
4.94954978216583e-05
4.92760116922054e-05
4.77470357964441e-05
4.47622361246536e-05
4.00058189619603e-05
3.34013254074467e-05
2.6697973443619e-05
1.55791831782737e-05
4.33197786595646e-07
9.25054156145333e-06
2.5207886920947e-05
3.65949237605865e-05
4.43215609828911e-05
4.94955072599865e-05
5.27341175036135e-05
5.44255045902431e-05
5.48003585635653e-05
5.39559909315987e-05
5.18728841574064e-05
4.84154129687257e-05
4.71697026475464e-11
9.60810253430948e-10
9.07005014248919e-10
6.1663081243313e-09
2.83753570363236e-08
5.20953102836444e-09
2.14469752919358e-08
1.93160320090196e-07
1.700062144121e-07
1.50275658408589e-08
4.99662389550686e-08
6.61635378419078e-07
1.20125921757923e-06
4.91201506532735e-07
2.98739877819518e-08
9.16413431178308e-08
1.47910339496115e-06
3.50021182143884e-06
3.12496605741745e-06
9.69190168344968e-07
4.94883114938695e-08
1.46983512885895e-07
2.56383598453801e-06
6.37663318042411e-06
7.31649348935498e-06
5.41346516937491e-06
1.57544109723188e-06
7.43762690031825e-08
2.18655126227834e-07
3.83920817550313e-06
9.41063431479681e-06
1.16354343761088e-05
1.11127567279378e-05
7.80773826190409e-06
2.29603113907066e-06
1.04718374079611e-07
1.39719032423451e-07
3.11211339406248e-06
1.02338362695714e-05
1.48151367663161e-05
1.65219022171552e-05
1.59080898479641e-05
1.24977615009272e-05
5.27205977042985e-06
3.07207329513847e-07
1.78415683915585e-07
3.99333634112008e-06
1.26493981552574e-05
1.84080606952442e-05
2.11577636457728e-05
2.16956701966142e-05
2.0109573450452e-05
1.56093474914241e-05
6.8251567912239e-06
4.07894115612629e-07
2.19838588924939e-07
4.91043117479195e-06
1.50189046149646e-05
2.18759299501646e-05
2.55854327051452e-05
2.706462070354e-05
2.66807293154555e-05
2.42271123076118e-05
1.87238971919619e-05
8.40428321684417e-06
4.95878756634882e-07
2.63034733611551e-07
5.83800844600898e-06
1.73109090997541e-05
2.51997316024246e-05
2.98089933094957e-05
3.21246616145429e-05
3.26499850338964e-05
3.14814545531184e-05
2.82514806401938e-05
2.18249404905118e-05
9.85546749927717e-06
4.98715512871514e-07
3.07046294344414e-07
6.75491615875178e-06
1.94999476375501e-05
2.83585532069389e-05
3.38173252148758e-05
3.69076188140028e-05
3.81982675471245e-05
3.79430278310634e-05
3.60874537376187e-05
3.21814787307135e-05
2.50050022898049e-05
1.17414588774182e-05
3.88162763359729e-07
3.50874143362593e-07
7.64250334356552e-06
2.15643340140392e-05
3.13313414496958e-05
3.75925654134726e-05
4.14129922057807e-05
4.33924206227608e-05
4.38645101892605e-05
4.29364108238645e-05
4.047843614707e-05
3.60483621233294e-05
2.87656724491997e-05
2.02376102493529e-05
8.16969173727354e-06
3.93659486944915e-07
8.48598867934576e-06
2.34849089353072e-05
3.40970139351308e-05
4.11137576833117e-05
4.56260598184978e-05
4.82478974109201e-05
4.93516176451754e-05
4.91274221824163e-05
4.75982838715017e-05
4.4618560823439e-05
3.98715428184851e-05
3.32757597753679e-05
2.65917301196056e-05
1.55189763331671e-05
4.34320940481029e-07
9.26974190610191e-06
2.52424727554688e-05
3.66335470638878e-05
4.43579231538875e-05
4.95257991599216e-05
5.27564864141469e-05
5.44395699755549e-05
5.48069368621203e-05
5.39572657945027e-05
5.18733624836807e-05
4.84277529946738e-05
4.34227952451021e-05
3.71414048175336e-05
3.03412845041196e-05
1.92618896808493e-05
4.71311706600594e-07
9.97342725134917e-06
2.68123114599854e-05
3.89152059305157e-05
4.72988285061411e-05
5.30865983555979e-05
5.68979377774308e-05
5.91283277849305e-05
6.00293710291477e-05
5.97381786067454e-05
5.82979414182441e-05
5.56656279531964e-05
4.00464799927645e-11
8.34892693234178e-10
7.87612555865142e-10
5.4557755468029e-09
2.51314740227887e-08
4.61180379065279e-09
1.92785717660497e-08
1.73696809718363e-07
1.53012150765166e-07
1.35312155082794e-08
4.5575171397954e-08
6.03702994623148e-07
1.10097080567078e-06
4.4859904942668e-07
2.72616190248183e-08
8.46607078491083e-08
1.37038979950697e-06
3.27741991834852e-06
2.92059841254908e-06
8.96139575162048e-07
4.56522347327065e-08
1.37092505646333e-07
2.40718747801327e-06
6.06348131807762e-06
6.97259638807251e-06
5.12945577075294e-06
1.47235145729326e-06
6.92441104828238e-08
2.05462063565799e-07
3.64215731112693e-06
9.03233569849807e-06
1.12016009083004e-05
1.06911725882461e-05
7.47061041273109e-06
2.16632183961298e-06
9.83814179198015e-08
2.90277239200795e-07
5.03965624616407e-06
1.20761588585837e-05
1.54164993415077e-05
1.60194241541282e-05
1.43487565218998e-05
9.86710252454416e-06
2.96329621801046e-06
1.32423215449945e-07
1.70478274536823e-07
3.83395564264161e-06
1.22742518177811e-05
1.79262192307897e-05
2.06251264613987e-05
2.11505963444412e-05
1.95888443987798e-05
1.51642797097466e-05
6.56636721833195e-06
3.87526149541571e-07
2.11664204818401e-07
4.74974601688858e-06
1.46546393082482e-05
2.14046926129331e-05
2.5055855206694e-05
2.65092167552497e-05
2.61268709347172e-05
2.37045190405534e-05
1.82767519322703e-05
8.13469518380013e-06
4.74427429764298e-07
2.55090248933392e-07
5.68548655588972e-06
1.69751674929343e-05
2.47628726591072e-05
2.93120095615158e-05
3.15950077100862e-05
3.21093851774462e-05
3.09502476286717e-05
2.77537694491523e-05
2.13986079263015e-05
9.59475666842682e-06
4.80184662652686e-07
2.99858399989203e-07
6.61936949139541e-06
1.92088422206532e-05
2.79778547475558e-05
3.33798878347027e-05
3.64356298156217e-05
3.7708920868219e-05
3.74512683702438e-05
3.56086038763511e-05
3.17346560954849e-05
2.46208419684819e-05
1.14924808687676e-05
3.76953526119815e-07
3.44961068793824e-07
7.53310577031962e-06
2.13327865463978e-05
3.10269927290876e-05
3.72396195465285e-05
4.10278339760043e-05
4.29877778390878e-05
4.34511525903318e-05
4.25245767283993e-05
4.00792860493824e-05
3.56758720685415e-05
2.84392896273876e-05
1.9974604819763e-05
8.03979070535681e-06
3.89403852209265e-07
8.40971708173851e-06
2.33267057243223e-05
3.38881213599377e-05
4.08687810243379e-05
4.53548702431807e-05
4.79584407740795e-05
4.90508215293536e-05
4.88218370239811e-05
4.72946468449941e-05
4.43242219552139e-05
3.95945675720623e-05
3.30257268909882e-05
2.63766647340953e-05
1.53842532614059e-05
4.32311553561191e-07
9.23530573290627e-06
2.51723942156957e-05
3.6539298500926e-05
4.42435910275608e-05
4.93941697152535e-05
5.26104189298195e-05
5.42821668013216e-05
5.46416216061125e-05
5.37879074974865e-05
5.17041792385521e-05
4.82615520634003e-05
4.32563546166691e-05
3.69906337896098e-05
3.02113682130143e-05
1.91790981734885e-05
4.72567028589183e-07
9.99453725127009e-06
2.68502210648274e-05
3.89577784632143e-05
4.73391568282445e-05
5.3120396018309e-05
5.69229409173592e-05
5.91437879493371e-05
6.00357379751288e-05
5.97372836656257e-05
5.82940548125187e-05
5.56721866010855e-05
5.17534600325116e-05
4.64730527646676e-05
4.01984829393107e-05
3.27777199844771e-05
2.14605609504914e-05
5.08621120191692e-07
1.06674125436213e-05
2.83351566490787e-05
4.11171029749025e-05
5.01279493439312e-05
5.6505325298175e-05
6.08692071922817e-05
6.36174223825468e-05
6.50112850323244e-05
6.52090959641738e-05
6.4288275246909e-05
6.22555845615353e-05
3.29747615723099e-11
7.08333194096353e-10
6.67791439317468e-10
4.73563229965172e-09
2.18267747043222e-08
4.00384388257668e-09
1.70580002094151e-08
1.53726222851467e-07
1.35537949554402e-07
1.19945149415041e-08
4.10084877847851e-08
5.43526764847071e-07
9.96129352292948e-07
4.04387742368651e-07
2.45487115370784e-08
7.73187443907512e-08
1.25534879651136e-06
3.03781861324969e-06
2.70256696010291e-06
8.19359907195785e-07
4.1640313453262e-08
1.26727701914372e-07
2.23928879109389e-06
5.72229549394646e-06
6.59780111977784e-06
4.82023218436709e-06
1.36267745526018e-06
6.38463477838795e-08
1.91715531450556e-07
3.42798120045309e-06
8.61478780032529e-06
1.07219809385913e-05
1.02254337171624e-05
7.09965619999208e-06
2.02639000323442e-06
9.16117337646554e-08
2.72228984890298e-07
4.78295762198197e-06
1.16036439884665e-05
1.48647528097143e-05
1.54557368858953e-05
1.38260883781963e-05
9.45725761748438e-06
2.79884955143317e-06
1.24466111873882e-07
3.64728000151708e-07
6.27202719378458e-06
1.46549180313656e-05
1.89932690289784e-05
2.0527871609719e-05
2.00171352066312e-05
1.73766421148288e-05
1.18471644322448e-05
3.65455079361272e-06
1.61620980648437e-07
2.02301130577509e-07
4.56412253017703e-06
1.42302217498536e-05
2.08550539669313e-05
2.44378541098212e-05
2.58606066875023e-05
2.54792231621449e-05
2.30918886315703e-05
1.77499467889555e-05
7.81534929707231e-06
4.48204806369721e-07
2.45670368520481e-07
5.50335367903083e-06
1.65717275459434e-05
2.42376125078906e-05
2.87143915324836e-05
3.0957919084057e-05
3.14585901366619e-05
3.03096141571183e-05
2.71508522653143e-05
2.0876876201409e-05
9.26913556061923e-06
4.58225683624537e-07
2.90868856474383e-07
6.44982090464985e-06
1.88429932645424e-05
2.74992946911393e-05
3.28302274667702e-05
3.58428122535608e-05
3.7094377727518e-05
3.68332625633778e-05
3.50053484347277e-05
3.11684367981844e-05
2.41273973868372e-05
1.11622259523829e-05
3.60878995329718e-07
3.36973224469952e-07
7.38520363701152e-06
2.1019718837455e-05
3.0615694361838e-05
3.67632798273754e-05
4.05090067042685e-05
4.24437265779145e-05
4.28960835407588e-05
4.19715500931199e-05
3.95421146141786e-05
3.51716197633085e-05
2.79921952004536e-05
1.96079196929553e-05
7.84984570703573e-06
3.82916195742215e-07
8.2919388757973e-06
2.30806348471772e-05
3.35632078993302e-05
4.04893971326687e-05
4.49375555510411e-05
4.75159795002607e-05
4.85937239160241e-05
4.83594489502927e-05
4.68361396899498e-05
4.38795254917725e-05
3.91754539448525e-05
3.26471344640233e-05
2.60483787190634e-05
1.51699514168922e-05
4.27677931579382e-07
9.15406136052899e-06
2.50061098890068e-05
3.63189346353586e-05
4.39835202779984e-05
4.91041653820339e-05
5.22983391091733e-05
5.39547622819671e-05
5.43050314744738e-05
5.34480517688851e-05
5.13669478923874e-05
4.79326804316604e-05
4.29428428571929e-05
3.6704862041837e-05
2.9962939147015e-05
1.90114917317878e-05
4.70419437657491e-07
9.95852750189797e-06
2.67780216618579e-05
3.88603402372557e-05
4.72200637946958e-05
5.29821064112082e-05
5.67680549340981e-05
5.89751679471272e-05
5.98565175603079e-05
5.95509243191605e-05
5.81041775929055e-05
5.54805306954967e-05
5.15542056365401e-05
4.62834477168475e-05
4.00248633797443e-05
3.2628306056731e-05
2.13611744190112e-05
5.09995705276575e-07
1.06904118526994e-05
2.83765274245201e-05
4.11640430866405e-05
5.01729327750469e-05
5.65435510183869e-05
6.08980027977572e-05
6.36356934953698e-05
6.50191683353516e-05
6.52081544410321e-05
6.42826611358822e-05
6.22595829286426e-05
5.9096539168304e-05
5.4689264160727e-05
4.9133440178075e-05
4.25357572370799e-05
3.44062329931128e-05
2.28210194862134e-05
5.44708954944171e-07
1.1330584125142e-05
2.97766693885058e-05
4.32032664588831e-05
5.28138873148655e-05
5.97588272770536e-05
6.46579339362149e-05
6.79089273835497e-05
6.97768219447576e-05
7.04307590903245e-05
6.99681088975098e-05
6.84248671232075e-05
2.61921380236643e-11
5.83327866296011e-10
5.49342826073069e-10
4.01619994334243e-09
1.8508103219129e-08
3.39445191530076e-09
1.48126425285584e-08
1.335057360318e-07
1.17813028511869e-07
1.04329609448683e-08
3.63452068899827e-08
4.81825395431603e-07
8.87791029799933e-07
3.59005943776129e-07
2.17692777876482e-08
6.96693065798043e-08
1.13502811255966e-06
2.78427582198368e-06
2.47219510141166e-06
7.39590842753617e-07
3.74976539500842e-08
1.15924045366947e-07
2.06107069932946e-06
5.35416405420418e-06
6.19324376077443e-06
4.48786484744002e-06
1.24746311783522e-06
5.82241202407733e-08
1.77697593755382e-07
3.1984255333862e-06
8.159567167396e-06
1.0198055845253e-05
9.71699597124227e-06
6.69654788501049e-06
1.87787545423519e-06
8.44786459007111e-08
2.54019908349849e-07
4.50614030555443e-06
1.10828532760203e-05
1.42547518964028e-05
1.4832519942118e-05
1.32487059405467e-05
9.00618436782059e-06
2.6216968103534e-06
1.15926735568598e-07
3.40724019683838e-07
5.94953986812859e-06
1.40850727268654e-05
1.83251263245448e-05
1.98293310652529e-05
1.93354637448304e-05
1.67608998362302e-05
1.13697165353108e-05
3.45680598658099e-06
1.5195625267492e-07
4.19365682621182e-07
7.4516259750894e-06
1.71469971204912e-05
2.23913539733372e-05
2.47395735633444e-05
2.51204522550748e-05
2.37329880905079e-05
2.02284688299977e-05
1.37470972698144e-05
4.35502149690486e-06
1.91849320435213e-07
2.348790255241e-07
5.29263943710582e-06
1.61017726601133e-05
2.36252888806407e-05
2.80176033636711e-05
3.02149162720547e-05
3.06991056867236e-05
2.95608724145993e-05
2.6443901680068e-05
2.02606801447064e-05
8.87961468362365e-06
4.28618118332776e-07
2.80199486681432e-07
6.2474684045568e-06
1.84034285341544e-05
2.69241600153696e-05
3.21697953212969e-05
3.51306594743224e-05
3.6356052011281e-05
3.60902085515055e-05
3.42783788455421e-05
3.04823493518817e-05
2.35219506678582e-05