/*--------------------------------*- C++ -*----------------------------------*\
  =========                 |
  \\      /  F ield         | OpenFOAM: The Open Source CFD Toolbox
   \\    /   O peration     | Website:  https://openfoam.org
    \\  /    A nd           | Version:  12
     \\/     M anipulation  |
\*---------------------------------------------------------------------------*/
/*   Windows 32 and 64 bit porting by blueCAPE: http://www.bluecape.com.pt   *\
|  Based on Windows porting (2.0.x v4) by Symscape: http://www.symscape.com   |
\*---------------------------------------------------------------------------*/
FoamFile
{
    format      ascii;
    class       volScalarField;
    location    "800";
    object      nut;
}
// * * * * * * * * * * * * * * * * * * * * * * * * * * * * * * * * * * * * * //

dimensions      [0 2 -1 0 0 0 0];

internalField   nonuniform List<scalar> 
10103
(
2.75930100016811e-11
2.80696637588452e-11
4.36141836243737e-10
6.14293518550681e-10
2.82979499228422e-11
4.43089799560038e-10
6.23878936267919e-10
2.16898091227188e-09
6.01476646143999e-08
3.64966376464283e-09
2.82917572026059e-11
4.46368717125769e-10
6.27230475868928e-10
2.19822098667648e-09
6.10548393264643e-08
3.7025785201365e-09
5.62220529096241e-09
3.8874965321284e-07
5.89588600993236e-07
1.17262990294467e-08
2.81028080746776e-11
4.46151022850816e-10
6.24897742844474e-10
2.20509648295145e-09
6.13423665791278e-08
3.71625609447522e-09
5.68114148089941e-09
3.94278856039833e-07
5.9729281079257e-07
1.18769696675762e-08
1.02503669938717e-08
1.03799240016741e-06
6.53679251723097e-06
1.98760063878644e-06
2.4956072123056e-08
2.77074405043067e-11
4.42732000643317e-10
6.18712389722668e-10
2.19623160672523e-09
6.117717177312e-08
3.69578471577164e-09
5.68772328037378e-09
3.95776998413677e-07
5.98974455316148e-07
1.1912430590901e-08
1.03302700799446e-08
1.04980977756296e-06
6.6190263198091e-06
2.00985727132559e-06
2.52537754852345e-08
1.57808262307333e-08
1.89246289940352e-06
1.74401276866574e-05
2.33248841969555e-05
4.09639316326133e-06
4.2221137242439e-08
2.71069534114983e-11
4.36400536354444e-10
6.09051526590202e-10
2.1757730474076e-09
6.04755541146626e-08
3.64382553143753e-09
5.64567296051023e-09
3.94300311987616e-07
5.95875270107746e-07
1.18398786236662e-08
1.03233519951743e-08
1.05219953806537e-06
6.64597465175445e-06
2.01440010433699e-06
2.53148209418509e-08
1.58746658013576e-08
1.90807439463224e-06
1.76016803545692e-05
2.35074139336248e-05
4.13538491545288e-06
4.26890020468603e-08
2.22143772820678e-08
2.87267570235058e-06
2.82918115586899e-05
6.07108005135339e-05
4.18302227281691e-05
6.56893876789825e-06
6.35415332591318e-08
2.63107221189698e-11
4.27005649711279e-10
5.9515204042542e-10
2.13960258066123e-09
5.93709298763291e-08
3.57105422133436e-09
5.56445366191737e-09
3.90181951565035e-07
5.87865471410433e-07
1.16689609345593e-08
1.02354636556864e-08
1.0459990562096e-06
6.62107020131099e-06
2.00291559210804e-06
2.5159628063266e-08
1.58418262446118e-08
1.9083085365146e-06
1.76509995933596e-05
2.35505006980337e-05
4.14185225901541e-06
4.27817508262602e-08
2.23170627572622e-08
2.8900642314303e-06
2.84670936768701e-05
6.10381009942895e-05
4.20506954555286e-05
6.62211481917447e-06
6.42074675201465e-08
2.94858814872587e-08
3.94466260581806e-06
3.82857240471147e-05
9.3948640694758e-05
0.000107315549064121
5.85897871682142e-05
9.25500093436028e-06
8.97205173778702e-08
2.5329491593531e-11
4.14453592178119e-10
5.76988115743945e-10
2.08890886111927e-09
5.78971527639983e-08
3.47485857397035e-09
5.45713139617002e-09
3.8299220112651e-07
5.73739760181097e-07
1.14093149473186e-08
1.00718828289899e-08
1.03269714515384e-06
6.54760601090648e-06
1.97608630207097e-06
2.48136380276041e-08
1.56928150500979e-08
1.8945925485817e-06
1.75935471275124e-05
2.34546962376037e-05
4.11843734948997e-06
4.25325293384554e-08
2.22481634218537e-08
2.88569063871061e-06
2.84898297448957e-05
6.11092759942038e-05
4.20727428696994e-05
6.6289548090509e-06
6.43327528247338e-08
2.95952904700174e-08
3.96261452729704e-06
3.84470079465838e-05
9.43004591559533e-05
0.000107699741535653
5.88323060465878e-05
9.31977421993156e-06
9.06089187001933e-08
3.73916254950247e-08
5.08074273883674e-06
4.74962228046339e-05
0.000121369161955017
0.000168982397572764
0.000147255918870926
7.37807212548743e-05
1.21250579619411e-05
1.20677768138541e-07
2.41788796300551e-11
3.98943091879926e-10
5.54802100096063e-10
2.02366209465514e-09
5.60636844561684e-08
3.35904191030243e-09
5.31131382940284e-09
3.73309948730497e-07
5.55572590772233e-07
1.1090878301067e-08
9.83954212738538e-09
1.01234292390167e-06
6.42703892510664e-06
1.93422876143011e-06
2.42880274341363e-08
1.54330101943116e-08
1.8671474464909e-06
1.74311489986703e-05
2.32281468971601e-05
4.06700579820424e-06
4.19711066409886e-08
2.20242967959264e-08
2.86207104639886e-06
2.83700560032348e-05
6.09279715803129e-05
4.189973018894e-05
6.59270737496957e-06
6.39609596495238e-08
2.94826484128981e-08
3.95254047345258e-06
3.84238757798881e-05
9.43195118263906e-05
0.000107722967655269
5.88327123795641e-05
9.32533527113274e-06
9.07578733466331e-08
3.75094544390953e-08
5.09850893832615e-06
4.76374887034274e-05
0.000121687929773349
0.000169425494631344
0.00014767773078178
7.40406019355671e-05
1.21989564642314e-05
1.21797157559413e-07
4.57053674598443e-08
6.24740594850157e-06
5.60132282959623e-05
0.000144648990941222
0.000220059870858671
0.000236055236009468
0.000181270432755265
8.79296795951367e-05
1.50895268089522e-05
1.5217921166745e-07
2.28706807578941e-11
5.28893189766015e-10
3.80698569650856e-10
1.94421454426107e-09
5.3847221544604e-08
3.2209891660368e-09
5.13286439384828e-09
3.6106133855171e-07
5.34970531622385e-07
1.06970601396111e-08
9.55257214559476e-09
9.84681289241756e-07
6.26058683127941e-06
1.87440298986047e-06
2.35916455856806e-08
1.50687977585735e-08
1.828026373984e-06
1.71596466031735e-05
2.28766063028052e-05
3.98894403917098e-06
4.11119121739267e-08
2.1651631126401e-08
2.8192830171602e-06
2.81108180556316e-05
6.0492359969412e-05
4.15404376753431e-05
6.51501933945466e-06
6.31240566804254e-08
2.91721585474018e-08
3.91758548527167e-06
3.82311720900616e-05
9.40137772368256e-05
0.000107389274227077
5.8596203396928e-05
9.27390004563459e-06
9.02074059392158e-08
3.73480843619563e-08
5.08235774255105e-06
4.75688500897443e-05
0.000121616660647076
0.000169388625129685
0.000147655987722139
7.40211573090414e-05
1.22006179625112e-05
1.21936177962254e-07
4.58328268517242e-08
6.26524252966196e-06
5.61355921306628e-05
0.000144921719296821
0.000220484298264046
0.000236566300664126
0.000181726998492788
8.82028220729924e-05
1.51698787615602e-05
1.53510455680306e-07
5.42616521342343e-08
7.41472536654521e-06
6.38805414155001e-05
0.000164942401526155
0.000262362475484871
0.000312768326064565
0.000293269479811154
0.000211347948807631
0.000101294811630888
1.78151956664087e-05
1.65876498394348e-07
2.14186006163992e-11
4.99559143838649e-10
3.59918504614249e-10
3.0622577540117e-09
5.12735164460046e-08
1.85168678014379e-09
4.92203712804158e-09
3.46367670153285e-07
5.11020684404335e-07
1.02334271599125e-08
9.21156794751984e-09
9.51163060682139e-07
6.0481245606193e-06
1.80186585544293e-06
2.27694796055837e-08
1.46098656175752e-08
1.77851078123858e-06
1.67935038931471e-05
2.23986000939973e-05
3.88463837192431e-06
3.99646359104502e-08
2.11359033905746e-08
2.75875302491181e-06
2.7721617142217e-05
5.98036013241836e-05
4.10003905942061e-05
6.39766639133258e-06
6.18283646004258e-08
2.8670633138128e-08
3.85879388597475e-06
3.78713274991188e-05
9.33879722025831e-05
0.000106700697955799
5.8129675965234e-05
9.16807430299152e-06
8.89962767562687e-08
3.69425457022958e-08
5.03571107896925e-06
4.73075213769943e-05
0.000121167373924808
0.000168875957334422
0.000147196859645968
7.37278466205909e-05
1.21312632078125e-05
1.21143456923913e-07
4.56223211704844e-08
6.24228264229347e-06
5.60271533772014e-05
0.000144759404918843
0.000220337495792142
0.00023647212248122
0.00018166983867449
8.8161569373926e-05
1.51648191837777e-05
1.53638415446067e-07
5.44011044249428e-08
7.43233322299204e-06
6.39886847230849e-05
0.000165172889272565
0.000262737319788419
0.000313281311607341
0.000293840730309255
0.000211833467699782
0.000101576097420955
1.78988785833139e-05
1.67282030459521e-07
6.29653172671928e-08
8.56130525351734e-06
7.11343818496844e-05
0.00018292114509126
0.000298184561894778
0.000377104994816855
0.000393962355688658
0.000343001001355495
0.000239086735879501
0.000113918437727498
1.95016821065738e-05
1.06891867928778e-07
1.98392967189507e-11
4.67170995280447e-10
3.36896795431466e-10
2.88488565908044e-09
4.837314370218e-08
1.74730690616415e-09
9.71464965105056e-09
4.84337905567837e-07
3.29617500938678e-07
4.67988476663016e-09
8.81752453884561e-09
9.11892670041363e-07
5.80007549030594e-06
1.71839004236688e-06
2.18022053824545e-08
1.4060229969618e-08
1.71622789102124e-06
1.63360703366562e-05
2.18035754010075e-05
3.75025680497044e-06
3.85420564007965e-08
2.04866407150229e-08
2.68200691508982e-06
2.71909340651153e-05
5.88769203357859e-05
4.02803196840843e-05
6.24167931693684e-06
6.00814622684792e-08
2.79851988300027e-08
3.77579945313793e-06
3.73525926648597e-05
9.24474360206648e-05
0.000105662198063942
5.74364845027532e-05
9.00810224154139e-06
8.71157065308032e-08
3.63027862314763e-08
4.95957700111047e-06
4.6859479562208e-05
0.000120346183692995
0.000167891304259367
0.000146303670619917
7.31637758861923e-05
1.19934080918923e-05
1.19452596851605e-07
4.51186237250435e-08
6.1839339300122e-06
5.57060685837237e-05
0.000144177048912707
0.000219624968297417
0.000235776894437795
0.000181105698592263
8.78107326982248e-05
1.50749064897548e-05
1.52576999776233e-07
5.41429619111385e-08
7.40290589096709e-06
6.38450908370264e-05
0.0001649311047192
0.000262467868381951
0.000313060059033072
0.00029369769404968
0.000211741095402147
0.000101508171123196
1.78848160968151e-05
1.67341550445974e-07
6.31204001303794e-08
8.57918953920866e-06
7.12324154523378e-05
0.000183118962673488
0.000298505739897933
0.000377573103610499
0.000394553760265608
0.000343621054453739
0.000239592994141327
0.000114202834095904
1.95845589670618e-05
1.07744676076254e-07
7.17558120355971e-08
9.67697910734077e-06
7.78201817711222e-05
0.000199015646598688
0.000329139426705099
0.000431368048554181
0.000480432598779765
0.000464860629884182
0.000388041858484837
0.000266180835843792
0.000126825382615348
2.03515465304144e-05
1.81503544505743e-11
4.32115862571388e-10
3.1185301490624e-10
2.69108198288137e-09
4.51824348768582e-08
1.63276226001654e-09
9.14328841685426e-09
4.54991454952026e-07
3.10853645031199e-07
4.40924063395412e-09
2.07039909108097e-08
1.62764518271313e-06
5.52570039051409e-06
8.66907489351997e-07
8.3715537458259e-09
1.34297163811694e-08
1.64423138008508e-06
1.57920336788542e-05
2.10984053203152e-05
3.59231631282142e-06
3.6870254931771e-08
1.97137044184068e-08
2.58893531968579e-06
2.65214706909141e-05
5.77179738032469e-05
3.93758362127124e-05
6.047885077177e-06
5.79155035583777e-08
2.71242397092851e-08
3.67101947122336e-06
3.66767060548584e-05
9.11763841119607e-05
0.000104279207142549
5.6518103736786e-05
8.79517786123427e-06
8.45563432377177e-08
3.54328936615534e-08
4.85495969146431e-06
4.62218194594415e-05
0.000119158184024346
0.00016643678059555
0.000144980204276875
7.23306066307844e-05
1.17862630746762e-05
1.16828080912196e-07
4.43343181599136e-08
6.09129208194337e-06
5.51776257010519e-05
0.000143181489113726
0.000218350181194075
0.000234483191598093
0.000180036471097644
8.71489478108594e-05
1.49008226154602e-05
1.5032491116267e-07
5.35418329772048e-08
7.33297027881879e-06
6.34726911347467e-05
0.000164234278248363
0.000261561806439301
0.000312107192978507
0.000292844029609602
0.000211076664678819
0.000101094295650245
1.77733391175169e-05
1.6610830438849e-07
6.28160183262903e-08
8.54432340272804e-06
7.10603288238052e-05
0.000182811034550973
0.000298121728253456
0.000377201446838696
0.000394264672970371
0.000343428158397363
0.000239458056758721
0.000114100979047591
1.95584745732122e-05
1.07618458966531e-07
7.19309566795089e-08
9.69546866471538e-06
7.79130624534079e-05
0.000199190939726472
0.000329414669212843
0.000431776474095477
0.000480984659253844
0.00046551422293893
0.000388696068909745
0.000266700360205792
0.000127111245787102
2.0434481354303e-05
1.26308330157762e-07
8.05904347808864e-08
1.07564908917082e-05
8.39950624970287e-05
0.000213536983480192
0.00035630835818649
0.000477769080593021
0.000554053057674284
0.000571799112044109
0.000528376633822556
0.000431330668464977
0.000296243383846039
0.000148725065141772
1.6372893609575e-11
3.94788329928905e-10
2.85082609153738e-10
2.4832238812313e-09
4.17406600376338e-08
1.50907025209084e-09
8.52304622956257e-09
4.23282114385807e-07
2.90303393509729e-07
4.11381726786356e-09
1.9490042077098e-08
1.52932348628722e-06
5.22105156168282e-06
8.16852053284258e-07
7.87794894976848e-09
3.50127392217459e-08
3.41325125513952e-06
2.02730263297319e-05
1.51585445872408e-05
1.5629604226665e-06
1.27343759403702e-08
1.88267569094884e-08
2.48132992905062e-06
2.57265251284474e-05
5.63327377274983e-05
3.82976549442807e-05
5.81846457406207e-06
5.53521567599815e-08
2.61016351006891e-08
3.54523404794008e-06
3.58410914030554e-05
8.95891344454665e-05
0.000102552901931476
5.53739988140099e-05
8.53063338076187e-06
8.14005082712585e-08
3.43455556944942e-08
4.72227683996583e-06
4.54055284193115e-05
0.00011760213984206
0.000164507081203816
0.00014322745802538
7.12271843368655e-05
1.15095765047788e-05
1.13268478560733e-07
4.32732343226351e-08
5.96432092896896e-06
5.44435988729068e-05
0.000141772908504421
0.000216514432689714
0.000232591069964997
0.000178462730470962
8.61752938161425e-05
1.46406963825118e-05
1.46837325070059e-07
5.26126413814818e-08
7.22426086920019e-06
6.28767475044194e-05
0.000163088823571397
0.000260021742336846
0.000310422753439538
0.000291280120368824
0.000209839554297109
0.000100330330441563
1.75615452979661e-05
1.63516330057594e-07
6.21193520557527e-08
8.4640128317599e-06
7.06435327545252e-05
0.000182018467662368
0.000297042851876082
0.000375992546528488
0.000393094589987259
0.000342423497406894
0.000238685662987167
0.000113614635276012
1.94249172747929e-05
1.06640856696562e-07
7.15844387619228e-08
9.65592538326787e-06
7.77197068542768e-05
0.000198830651645625
0.000328932091696785
0.000431256427431384
0.000480517251598922
0.000465154227475089
0.000388442084844023
0.000266509021636603
0.000126960794980724
2.03834983321708e-05
1.25884967333472e-07
8.07897525500693e-08
1.07758702785622e-05
8.40862667216392e-05
0.00021369927652759
0.000356549346044595
0.000478120566215173
0.000554540941566868
0.000572416649124034
0.000529071177490381
0.000432004933899629
0.000296776196628725
0.000149048765831843
8.63799914731163e-05
1.77991159129267e-05
8.94213078930979e-08
1.17985495092034e-05
8.97131734455714e-05
0.000226727378236134
0.000380444923199279
0.000518010068112659
0.000617040366592459
0.000664008976469144
0.000653397341980102
0.000587708433782004
0.000476811686299589
0.00033842673454817
1.45279576647341e-11
3.55650362202705e-10
2.56900466884644e-10
2.2636993392201e-09
3.80861225951959e-08
1.37752844851245e-09
7.86006521061376e-09
3.89634030497223e-07
2.6818784344172e-07
3.79750468146026e-09
1.81766066834791e-08
1.42360143020602e-06
4.88872470359912e-06
7.62286007149336e-07
7.3450853176323e-09
3.29655737437159e-08
3.2163520023907e-06
1.93407493016677e-05
1.44461367455959e-05
1.47306834247597e-06
1.19749014927911e-08
5.24472650042674e-08
5.54952334246833e-06
3.70478058143841e-05
5.47187683577942e-05
2.48095856393639e-05
2.35948928679498e-06
1.78335773599412e-08
2.49293184730116e-08
3.39971537823269e-06
3.48434541533086e-05
8.76922961169774e-05
0.000100486573806947
5.40059273137883e-05
8.2169677363959e-06
7.76961477272898e-08
3.30559674236856e-08
4.56334223856348e-06
4.44075283611356e-05
0.000115675309881928
0.000162107562991787
0.000141043805841768
6.98526510969983e-05
1.11648564774011e-05
1.08808945241657e-07
4.19508372356593e-08
5.8050082461927e-06
5.35036871840191e-05
0.000139954482829718
0.000214114818365672
0.000230097470571579
0.000176380810799747
8.48841836641606e-05
1.42931869724054e-05
1.42093393635439e-07
5.13583864396973e-08
7.07668763563954e-06
6.20565009962316e-05
0.000161495478988894
0.000257846435838705
0.000308004596310016
0.000289002600487456
0.000208023150960409
9.92066473465966e-05
1.72464679170963e-05
1.59504202159206e-07
6.10493677196236e-08
8.33989658744826e-06
6.99891027028723e-05
0.000180747856344875
0.000295271086470937
0.000373943956533953
0.000391039735542996
0.000340603734597071
0.000237270996124836
0.000112736058278972
1.9180675223474e-05
1.04781617557672e-07
7.0795893315457e-08
9.56652143143636e-06
7.72669202075159e-05
0.000197958986525984
0.000327705268605471
0.000429811535573023
0.000479026969628296
0.000463774842461802
0.000387276818093245
0.000265608824379499
0.000126380177632103
2.02154521949195e-05
1.24432153290025e-07
8.04045127301642e-08
1.07324407527798e-05
8.3877081782601e-05
0.000213299547222144
0.000355986340012826
0.000477467420058408
0.000553891260511968
0.000571849597794558
0.000528625655155597
0.000431669662716935
0.000296504724096453
0.000148812852773796
8.62100817541335e-05
1.77798081676314e-05
8.96476711738295e-08
1.18199073617619e-05
8.98053652538387e-05
0.00022688425602141
0.000380663744408131
0.000518315321204765
0.000617461281522093
0.000664557443489205
0.000654055034001993
0.000588422949945553
0.000477501346459244
0.000339030420039457
0.000232253938092507
0.000170033717155819
6.52253185365268e-05
9.81884976949219e-08
1.28017358779098e-05
9.50251173219559e-05
0.000238776977984369
0.000402096097397375
0.000553351172181592
0.000671443336474889
0.00074335517726575
0.000762388108640814
0.000728019375454939
0.000646223336192925
0.00053008033729435
1.26367767227723e-11
3.15148762419393e-10
2.27654068228638e-10
2.03521232195507e-09
3.42621494807321e-08
1.23957686188988e-09
7.1617377242313e-09
3.54427208965116e-07
2.44745667273198e-07
3.46492182484524e-09
1.67759306257686e-08
1.31146155639377e-06
4.53289630063975e-06
7.04182676571421e-07
6.77992558289431e-09
3.07570733315142e-08
3.00422554224617e-06
1.83131044576542e-05
1.36575483572996e-05
1.37579882318429e-06
1.11583860612532e-08
4.93114356719088e-08
5.24954912476857e-06
3.56338146130322e-05
5.28801226521631e-05
2.37746666426222e-05
2.22504702536598e-06
1.67524574964774e-08
7.35231034058843e-08
7.85785296024805e-06
5.24081682678751e-05
9.80781346960003e-05
8.54868207434835e-05
3.36836468579664e-05
3.23467226397223e-06
2.36219101835652e-08
3.15779677665295e-08
4.37944717786908e-06
4.32282660273727e-05
0.00011336644488713
0.000159237696615456
0.000138426762861258
6.82083056316855e-05
1.07556394486592e-05
1.03541954990062e-07
4.03812188546033e-08
5.61431903179713e-06
5.23624961087559e-05
0.000137721631380847
0.000211146428237399
0.000226999512177136
0.000173785881846948
8.32723634278897e-05
1.38580722010897e-05
1.36089703108838e-07
4.97970028519916e-08
6.89141729875053e-06
6.10151785101133e-05
0.00015945226802104
0.000255032323278764
0.000304846855494686
0.000286004959717405
0.000205620014533013
9.77145622601973e-05
1.68236559718425e-05
1.5390704535942e-07
5.96048568901099e-08
8.17265000789583e-06
6.90959906797442e-05
0.000178998215097964
0.000292803596524318
0.000371050421085246
0.000388093463820334
0.000337960197144753
0.000235200835241434
0.000111449070590335
1.88180559375477e-05
1.02038514497215e-07
6.95894152906497e-08
9.42893521089592e-06
7.65620502987894e-05
0.000196583680187661
0.00032573619102059
0.000427437721191361
0.000476505831799254
0.000461366920226867
0.000385191442445712
0.000263989998428785
0.000125358232416253
1.99251016238236e-05
1.21828409129832e-07
7.95274111506898e-08
1.06351658247598e-05
8.33958716999381e-05
0.000212364313249701
0.000354636050412943
0.000475815145646394
0.000552099298512377
0.00057008616612489
0.000527026600609072
0.000430317344561685
0.000295436917838151
0.000148071781167852
8.56928185335007e-05
1.76484575642874e-05
8.92264284822057e-08
1.17737758327581e-05
8.95852087216918e-05
0.000226455710755055
0.000380037811285056
0.000517549668029724
0.000616642981007977
0.000663774390897314
0.000653372440374641
0.000587867331082791
0.000477054093532158
0.000338632569985493
0.000231860856479231
0.000169713852983732
6.50861821617716e-05
9.84433160514101e-08
1.28251492009695e-05
9.5123310608292e-05
0.000238934714328022
0.00040230362432144
0.000553623602464356
0.00067180615464879
0.000743827103946183
0.000762970488301075
0.000728692336075555
0.000646947768634478
0.00053085113303807
0.000411975109024213
0.00031489921361694
0.000220638486370866
9.12973401146201e-05
1.06827256965361e-07
1.37632140236116e-05
9.99708315530625e-05
0.000249836802943796
0.000421669023796252
0.000584724500975621
0.000718930805269349
0.000811968975368715
0.000856840811734544
0.000851295742975151
0.000798343807711891
0.000707027645365766
1.0731949653525e-11
2.73795219605803e-10
1.97698039446012e-10
1.80032265299685e-09
3.03193038548945e-08
1.09733135183456e-09
6.43642684705366e-09
3.18030600324385e-07
2.20250034371553e-07
3.11982613060666e-09
1.5299371065301e-08
1.19385172593935e-06
4.15583577890999e-06
6.43105039824782e-07
6.18695907403142e-09
2.84101461673345e-08
2.77861227020993e-06
1.71943169560588e-05
1.28079165921597e-05
1.27214369722816e-06
1.0293411027754e-08
4.59772628692825e-08
4.92463618279977e-06
3.40611753554114e-05
5.08188236823148e-05
2.26242297208625e-05
2.0797177936933e-06
1.55964763748685e-08
6.90245550800988e-08
7.459167948516e-06
5.05927953895403e-05
9.53272543019117e-05
8.29705042245365e-05
3.23722387927871e-05
3.05334417850767e-06
2.21924471490046e-08
9.76694226677922e-08
1.02882433579508e-05
6.62978229465045e-05
0.000135370711580067
0.000155892277694241
0.000110680183747737
4.18676901515905e-05
4.17217214824406e-06
2.9929064072539e-08
3.85848200599311e-08
5.39341430812611e-06
5.10185406588233e-05
0.000135068936701004
0.000207599106566482
0.000223290343159514
0.00017067293144212
8.13412867434496e-05
1.33393264130008e-05
1.28988424073957e-07
4.79453539307859e-08
6.66968604562672e-06
5.97515998497618e-05
0.000156956654255836
0.000251571627851369
0.000300939895053846
0.000282277679992812
0.000202619236739155
9.58453216220927e-05
1.62907641057434e-05
1.46896500048117e-07
5.78044230522278e-08
7.96359102854578e-06
6.79650079685996e-05
0.000176767642432593
0.000289634065354107
0.000367302858504304
0.000384244458005322
0.000334478206747577
0.000232456726705858
0.000109732707280807
1.83270650113861e-05
9.79820491508552e-08
6.79602018332782e-08
9.24319918109272e-06
7.56056984811517e-05
0.0001947030337265
0.000323020453671639
0.000424127083597386
0.000472943002766847
0.000457917190780295
0.000382169177900023
0.000261629731583322
0.000123869195389043
1.95029453117827e-05
1.1821328780303e-07
7.81870195785004e-08
1.04859803099578e-05
8.26499424873529e-05
0.000210902007915327
0.000352501022753568
0.000473158932568331
0.000549154009937479
0.000567111207904245
0.000524257567912873
0.000427932610291111
0.0002935584629584
0.000146808981836557
8.48018449424059e-05
1.73960425141175e-05
8.8262092946027e-08
1.16694113053821e-05
8.9081987854875e-05
0.000225470394487032
0.000378586638883713
0.000515720784089853
0.000614580642235544
0.000661643987388924
0.000651326705392618
0.000586020236996017
0.000475467844169277
0.000337321647689015
0.000230786382756549
0.000168845220176592
6.46706519186679e-05
9.79879920138724e-08
1.27762029652526e-05
9.48969587875206e-05
0.000238486303127933
0.000401630219872011
0.000552766929088214
0.000670841423991895
0.000742840329365546
0.00076203887730067
0.000727868613822955
0.000646247587935791
0.000530235940250519
0.000411349511357319
0.000314347789386028
0.000220201799108373
9.106328424106e-05
1.07112038076611e-07
1.37885271639665e-05
0.000100075697474417
0.000250001560682756
0.000421874609556426
0.000584977534267123
0.000719249559951043
0.000812371602435697
0.00085733759524439
0.000851886558786508
0.000799020544796552
0.000707840826114561
0.000596724762714553
0.000485670549569582
0.000375946924817607
0.000248114821561214
0.000103836630315178
1.15283698273202e-07
1.4680709268744e-05
0.000104576177790668
0.000260023062023574
0.000439471895207548
0.000612824745226876
0.000760802104957844
0.000871768292992993
0.00093884071372528
0.000958874379688648
0.000932797937751296
0.000866295108379623
8.83758900128172e-12
2.3219974754272e-10
1.67606208752143e-10
1.56208915904163e-09
2.63062265450352e-08
9.52532421751042e-10
5.69322765788393e-09
2.80837116099478e-07
1.95044879434477e-07
2.76524479799835e-09
1.37631357497668e-08
1.07223796733414e-06
3.76116822803367e-06
5.79658723421451e-07
5.57102011467793e-09
2.59440502540627e-08
2.5407765822775e-06
1.59846509486157e-05
1.18939755707466e-05
1.16307940704288e-06
9.38867736904416e-09
4.2500265171342e-08
4.57847366845757e-06
3.23311752016079e-05
4.85352893662717e-05
2.13580708723794e-05
1.92492508421488e-06
1.43806336362183e-08
6.4382165989725e-08
7.02673059364501e-06
4.85683413281517e-05
9.22308125096043e-05
8.01401169788387e-05
3.09142615162707e-05
2.8572527269695e-06
2.06653332055758e-08
9.14694971031564e-08
9.7731017227796e-06
6.41314738531783e-05
0.000131874867747664
0.000152065031456501
0.000107617252505882
4.03288022688782e-05
3.94259571558283e-06
2.81307240680234e-08
1.21079333423195e-07
1.27489053007295e-05
7.91006531036942e-05
0.00016703849217682
0.000218960538672405
0.000203468475768822
0.000131992048496458
4.94719863698636e-05
5.14398072172362e-06
3.6580162350601e-08
4.58245389638598e-08
6.41304615264779e-06
5.8264929631972e-05
0.000154002258242948
0.000247453808037198
0.000296270624983573
0.00027780844093975
0.000199013312208299
9.35995297791918e-05
1.56548531047787e-05
1.38265962377366e-07
5.56699294467965e-08
7.71346748299772e-06
6.65952160446217e-05
0.000174050360994277
0.00028575294842798
0.000362687706522186
0.000379476331462045
0.000330141489819404
0.000229020321510326
0.000107571069153166
1.77057854267973e-05
9.32626498647962e-08
6.59226007465334e-08
9.01157355980779e-06
7.43985942304047e-05
0.000192313506558079
0.000319549984070341
0.000419867277748511
0.000468322489346321
0.000453405825855425
0.000378184601713831
0.00025849531665989
0.000121876118802644
1.89258951012007e-05
1.12882768472274e-07
7.63764444693145e-08
1.02843447984444e-05
8.16387344929499e-05
0.000208911085857056
0.000349575752932413
0.000469488845458374
0.000545040951601595
0.000562906099576513
0.000520295680226026
0.000424486618602137
0.000290831781549079
0.000144983291605468
8.34840770518462e-05
1.69970422103133e-05
8.67914106003103e-08
1.15095235400931e-05
8.83034715435155e-05
0.000223937151580689
0.000376313390132363
0.00051282374282903
0.000611261352562989
0.000658146468770553
0.000647893599903932
0.000582856907423301
0.000472721345092999
0.000335076098476939
0.000228978812725302
0.000167383094698819
6.39533980732019e-05
9.69379961418094e-08
1.26653295504657e-05
9.43756164155092e-05
0.000237462092328029
0.000400097980051874
0.000550791025317218
0.000668544931527944
0.000740376707336337
0.000759563597140361
0.000725514507766752
0.000644105561817269
0.000528342039731319
0.000409690134301349
0.000312939820068544
0.000219108288139392
9.04897379449731e-05
1.06625386471779e-07
1.37371673819344e-05
9.98439392362109e-05
0.000249540595419652
0.000421166969942462
0.000584050000199209
0.000718163395627062
0.00081120474911803
0.000856169035944771
0.000850782680244526
0.000798021723630735
0.000706934846090871
0.000595806562068948
0.000484839091157623
0.000375241201054979
0.000247585334537399
0.000103545010408624
1.15595509210893e-07
1.4707727935622e-05
0.000104687825423263
0.000260197933119855
0.000439683393677451
0.000613070606967534
0.000761092274378965
0.000872116148990145
0.000939258478592944
0.000959372277185423
0.000933387939159465
0.000867072525852583
0.000772099272566016
0.000662683808576926
0.000546026338853203
0.000414843676669404
0.000262822654803192
0.000110169308019317
1.23463138757976e-07
1.55539168152918e-05
0.000108864699476734
0.000269423185731946
0.00045573906776548
0.000638174557634119
0.000798052408637924
0.000924333430167447
0.00101042038458566
0.00105277725405969
0.00105099697513064
0.00100828328426718
7.02238414960715e-12
1.91065030094572e-10
1.37824924108808e-10
1.32385416873933e-09
2.22778107475588e-08
8.07230895897918e-10
4.94111416286057e-09
2.43289051167129e-07
1.69454679453479e-07
2.40461501094435e-09
1.21929157249196e-08
9.47942769644724e-07
3.35251702786669e-06
5.14457911080082e-07
4.9396546397731e-09
2.33726901456408e-08
2.2925596731014e-06
1.46953704515106e-05
1.09196395530783e-05
1.04962966765333e-06
8.45424234885793e-09
3.88840837632923e-08
4.21240920766675e-06
3.04418030170987e-05
4.60252928397647e-05
1.99820980936038e-05
1.76209961963425e-06
1.31141167250857e-08
5.96984953220286e-08
6.56408463500468e-06
4.63365554800121e-05
8.87808306925877e-05
7.69911017114959e-05
2.93118546937715e-05
2.64872932865445e-06
1.90562211331185e-08
8.53238457180856e-08
9.22100190920454e-06
6.17181731547251e-05
0.00012793484371664
0.000147745775309392
0.000104173404980283
3.8615840042864e-05
3.69482193126904e-06
2.62006623376436e-08
1.12856417367077e-07
1.21060310459844e-05
7.65696300732611e-05
0.000162881997125766
0.000213999065531831
0.000198744845404064
0.00012848596801571
4.77239641903143e-05
4.86848973639417e-06
3.43927865156734e-08
1.28892887276733e-07
1.49300359471016e-05
9.0995476358866e-05
0.00019480109139694
0.000272584481828316
0.000290825177038278
0.000242667336914504
0.000150582479220657
5.65554942603336e-05
6.12341439124315e-06
4.3457079439232e-08
5.32246048537208e-08
7.42317029253444e-06
6.49857467607323e-05
0.000170839080704128
0.000281147304003268
0.000357187391267437
0.000373769177190228
0.000324930643150835
0.0002248788405862
0.000104961154160099
1.69527271067083e-05
8.66812847667656e-08
6.35046014031324e-08
8.73533550909222e-06
7.29382277464686e-05
0.000189408105173376
0.00031531266512379
0.000414641118929887
0.000462622455140283
0.000447807000945898
0.000373207317956792
0.000254551889172662
0.000119350385915777
1.81993119130434e-05