/*--------------------------------*- C++ -*----------------------------------*\
  =========                 |
  \\      /  F ield         | OpenFOAM: The Open Source CFD Toolbox
   \\    /   O peration     | Website:  https://openfoam.org
    \\  /    A nd           | Version:  12
     \\/     M anipulation  |
\*---------------------------------------------------------------------------*/
/*   Windows 32 and 64 bit porting by blueCAPE: http://www.bluecape.com.pt   *\
|  Based on Windows porting (2.0.x v4) by Symscape: http://www.symscape.com   |
\*---------------------------------------------------------------------------*/
FoamFile
{
    format      ascii;
    class       volScalarField;
    location    "800";
    object      omega;
}
// * * * * * * * * * * * * * * * * * * * * * * * * * * * * * * * * * * * * * //

dimensions      [0 0 -1 0 0 0 0];

internalField   nonuniform List<scalar> 
10103
(
3.73734922155493
3.73735139990989
3.98683253486339
3.04791046762875
3.73734077550497
3.98685621615656
3.04790917893939
4.20371297736552
0.821908274594079
3.02834735616194
3.737337763125
3.98680068813873
3.04791210468647
4.20375907813518
0.82107660206739
3.02834794752523
4.33730861222848
0.698616325469552
0.53350190718701
2.99243724289199
3.73732114530662
3.98681679011599
3.04791498764207
4.203664915431
0.820784421662242
3.02835118919333
4.3373393973255
0.697534050006428
0.533318409085398
2.99244006801209
4.40627919263996
0.702806209665028
0.267383569768148
0.495406443757348
2.97494419100702
3.73728427170651
3.9867989189361
3.04790170369421
4.20369924186754
0.820657095884555
3.02835913660116
4.33728647904058
0.696578346307514
0.53330873976975
2.99244799032097
4.40629050079893
0.701816885995034
0.266791191247709
0.495424270284745
2.97495134666853
4.43507589818257
0.709053708709314
0.235505773393389
0.194898339046168
0.488083689877286
2.97384212483954
3.73722872139226
3.98676421136003
3.04792987876444
4.20369169356904
0.821096988475968
3.02836007758106
4.33729950117782
0.695840386525715
0.533415700152582
2.99246698653983
4.40628175629652
0.700909845128274
0.266204066674848
0.495486028580892
2.97496934782962
4.43508596841634
0.708380476823833
0.234952893468926
0.194727602611723
0.488081780952035
2.97385721902173
4.43971636349095
0.71203251287266
0.234233506096149
0.144394259424104
0.183616463741047
0.488362321580253
2.97198803640423
3.73714643361032
3.98670658375187
3.04794837432847
4.20367229261342
0.821795689606284
3.02840564255434
4.33730123297346
0.695470787348565
0.533632195071669
2.99250586118799
4.40627431959321
0.700004680545711
0.265769386356217
0.495590466842546
2.9750102350848
4.43508636903859
0.707775847016913
0.234349772775637
0.194484135471403
0.488093217596708
2.97389427764657
4.43972528214075
0.711593698913401
0.233864957469579
0.144212659602151
0.183541126224675
0.488328356690703
2.97201657546414
4.43310442460738
0.712900604001373
0.2373620471724
0.135189122457866
0.123512478799562
0.184237546559511
0.490423960365422
2.96211912703611
3.73702866342576
3.9866247707707
3.04797769752047
4.20363732171202
0.822512703166474
3.02845593145822
4.33729825297123
0.695245526352622
0.534790890023592
2.99257645964016
4.40627734069788
0.699170356157627
0.265489334881296
0.495727285943735
2.97509292121143
4.43507521138449
0.707107529131222
0.233700086176508
0.194215234479914
0.488109298923423
2.97397663997968
4.43973336842385
0.711222736403687
0.233423052071767
0.143919611124751
0.18336974410605
0.488273770750415
2.97208661131671
4.43310833819501
0.712612382777983
0.237139730484751
0.135057659905824
0.123422351965948
0.184160424510396
0.490361805885702
2.96216578014264
4.42456998660237
0.712892142337421
0.24109624405613
0.134764796494129
0.107552391774711
0.118873295684008
0.187452918248284
0.492214208124639
2.95324750513219
3.73686764118494
3.98651152396347
3.04801915079783
4.20358842097583
0.823234134184226
3.0285325872903
4.33728088860487
0.695076589751967
0.536150480540249
2.99269304030253
4.40628011236471
0.698828712432421
0.265296343356643
0.496001437053558
2.97524339474053
4.43507851029866
0.706565626998438
0.233082804688148
0.19391804712229
0.488116865474972
2.97414178543704
4.43971614115761
0.710752131800538
0.232891396805704
0.143528270091173
0.183107400823465
0.488187879224554
2.97224123066895
4.43311275021557
0.71236172808426
0.236825332246944
0.134804350852928
0.123215245741476
0.183975304590039
0.490251625833488
2.96228657760098
4.42456977819959
0.712731188522609
0.240971822531169
0.134684102163837
0.107478373710088
0.118789258754947
0.187354494049528
0.49212732483496
2.95331968323941
4.41827024575506
0.712983497788417
0.244812322977207
0.136688960924005
0.102986663196682
0.0983964078505563
0.118880088220341
0.191019143528649
0.494459922554515
2.98372909100893
3.73665261468742
3.04807018476487
3.98635918382598
4.20352274260704
0.823964424108614
3.0286380357441
4.33726201484686
0.694940196636881
0.537423722842665
2.99286812541596
4.40627353604342
0.698527925857884
0.265176524403436
0.497124421471495
2.9754914056977
4.43507944353046
0.705863610475026
0.232587345065336
0.193577464379243
0.488128459086944
2.97444144727839
4.43972260943726
0.710349129860871
0.232290101077439
0.143061370636903
0.182753317956373
0.48806683747411
2.97254967116919
4.43310458148978
0.712036683069908
0.236398162391479
0.134436754585492
0.122895811249471
0.183676252906115
0.490081306845984
2.96255378015007
4.42457057845584
0.712537417713934
0.240733859320617
0.134474271786054
0.107285404100093
0.118590297860465
0.187139529823746
0.491971255615614
2.95350873117985
4.41827379458625
0.712896325139792
0.244755957105203
0.136648084189453
0.102935805711842
0.09832550767364
0.118781666650308
0.190896218018202
0.494353593142228
2.98382676028519
4.41468847815087
0.713599839099522
0.248452548908188
0.13932360822166
0.102261409884149
0.0907027791711212
0.0953820343367911
0.120287422262191
0.194490015502596
0.501317036330883
3.21034670515829
3.73636100712315
3.04812856616502
3.986177159555
3.02876727472946
0.824696155709007
4.20343550655953
4.33723769441154
0.694823203228657
0.538706064754779
2.99310457387179
4.4062689143869
0.698278385339305
0.265201365653899
0.49839128866811
2.97586066853844
4.43508062320651
0.705231231553738
0.232062519621519
0.193238199678382
0.488219085710148
2.97493357574233
4.43972415789802
0.709933978403371
0.23158827605218
0.142526980909374
0.182304293208026
0.487925976553415
2.97310666001544
4.43310349426461
0.711650373002915
0.235875113429933
0.133958940502139
0.122468311895127
0.183262128174855
0.489861083442004
2.96308620753859
4.42456961313311
0.712286212913401
0.240369212710006
0.134142116042617
0.106979035710496
0.118275575656778
0.186798892920571
0.491737764242621
2.95392509349629
4.4182697262471
0.712801380223648
0.244563078794764
0.136470323080729
0.102764623778333
0.0981432483859559
0.118569760637188
0.190650614759662
0.494159232212904
2.98408378225068
4.41469615940661
0.713604410499882
0.248441695097584
0.139312559940538
0.102232006464221
0.0906498632857191
0.0953001635662124
0.120170631794683
0.194343710765942
0.50119258078493
3.21045868736685
4.41297865150931
0.714844828746021
0.252025562522803
0.142171101174195
0.103066599554139
0.0878145723516159
0.0854469157349182
0.0946634752191739
0.121948088730834
0.198016312931894
0.525210986600265
4.87759952916195
3.73597001609313
3.04819214804633
3.98586592895936
3.02891045680058
0.825426736185167
4.2033414642153
2.99338842102497
0.539995152828768
0.694722888833508
4.33720574194912
4.40626270054063
0.698054941866859
0.265214242111199
0.499711311689635
2.97635217452197
4.43508457337518
0.705002090338216
0.231502584085884
0.192858463055494
0.488866928400529
2.97566089829504
4.43972696868825
0.709400092659066
0.230902204176743
0.141900756278726
0.181772147324341
0.487781580956937
2.97401593288769
4.43310881036563
0.711360710467326
0.235234744069059
0.133370882730727
0.121932185617369
0.182733275889059
0.489606695232909
2.96404445955458
4.42456137573636
0.711994979225454
0.239877497741845
0.133689490831332
0.106560319186628
0.11784411389308
0.186330956816027
0.491443521355551
2.95476459648408
4.41826801530798
0.712600187308822
0.244230578164599
0.136163051738636
0.102479168172267
0.0978516262504715
0.118240825191819
0.190272121468439
0.493875693614283
2.98467273924207
4.41468665981303
0.713589821440636
0.248283789791427
0.139157156378876
0.102080169443102
0.0904877577560089
0.0951123781068329
0.119941235978803
0.1940700155157
0.500965541444809
3.21076452338719
4.41298208579994
0.714906334830736
0.25204910138375
0.14218207472014
0.103055143165281
0.087778652580933
0.0853840013695806
0.094568029799073
0.121813764816244
0.197848611968736
0.525068135673439
4.87775595528554
4.41227332312209
0.716523472918402
0.255524347426036
0.145051210488982
0.10454833532358
0.0870677904652587
0.0809295710650838
0.0831065913139653
0.0947189269576586
0.123178703989148
0.201007581249904
0.590139223395979
3.73542850845234
3.04826009650922
3.98554453769171
3.0290614195225
0.826141632429954
4.20314921555509
2.99369149855641
0.541292505963525
0.694649110109956
4.33716393661953
2.9769277438473
0.500954654143051
0.265183925874313
0.697862249281135
4.40625490917017
4.43507805427943
0.704801462917571
0.23088813787376
0.192420430370247
0.489652166351905
2.97661598811017
4.439735406989
0.708911378393795
0.230209938692624
0.141174197295749
0.181188275243046
0.487672486619364
2.9753486863003
4.43311223617488
0.711005445982905
0.234479800380188
0.132694105411545
0.121283218229485
0.182092730452334
0.489340772300624
2.9656010962143
4.42457074454339
0.711653019049229
0.239283835372278
0.133114900955332
0.106029444979064
0.11729456960559
0.1857376510675
0.491116588147381
2.95628368553332
4.41825931584835
0.712326280159892
0.243762646757082
0.13572780100619
0.102080580962535
0.097450022526544
0.117791983527149
0.189758588871546
0.493529536254717
2.98588096766863
4.41468373781182
0.713457800767542
0.247969605864209
0.138865535533971
0.101812081898972
0.0902197968561766
0.0948186133475826
0.119594236067735
0.193658399546787
0.500642685062031
3.2115270184991
4.41297538578652
0.714929765876479
0.251914646282002
0.142043030529841
0.102918857756908
0.087634342221432
0.0852198879287624
0.0943704322698695
0.121567774583725
0.197550400072752
0.524815482914048
4.87817068871056
4.41226776602996
0.716632738666229
0.255571682578579
0.145078906114967
0.104551479585961
0.0870465629637306
0.0808836481748088
0.0830328658169887
0.0946111983259785
0.123030149506019
0.200823831669944
0.589945333372746
3.18378836646791
4.41201757233935
0.718476599577402
0.258916437699018
0.147884624026152
0.106340252893525
0.0873845828806379
0.078977614733319
0.0773818549598189
0.0819906169745987
0.094706200533257
0.122812809389809
0.195206181664036
3.73469763655541
3.04834526558004
3.98511409370255
3.02922984717811
0.826838655514055
4.20299215625941
2.99398959432219
0.542583449809978
0.694599127943858
4.33710942990764
2.97751119685036
0.502153001916907
0.265143606018106
0.69770694764881
4.40624563905747
2.97770537882038
0.490550522646624
0.192018214772624
0.230242693001646
0.704639989331214
4.43507133324402
4.43972516836721
0.708404577619979
0.229446684242885
0.140339462358312
0.180522790886069
0.487598496388887
2.97707661850531
4.43312040385567
0.710618215979517
0.233635743727106
0.131910796943076
0.120520029127522
0.181346347734568
0.489081527049608
2.96786816926001
4.42457469765671
0.71133524475531
0.2385522781519
0.132420142271039
0.105388299714563
0.116625145511676
0.1850220521107
0.490785099630653
2.95875325819566
4.41826963566356
0.712041264586449
0.243161666329642
0.135166968157451
0.101568744691416
0.0969376496437082
0.117222045742551
0.18911472494027
0.493159623507018
2.98812129146836
4.41467459517049
0.713209936037821
0.247505254222617
0.138440290251252
0.101429439564791
0.0898462729448899
0.0944172709916205
0.119126275052826
0.193108571119192
0.500256173041466
3.21320532689983
4.41297161728593
0.714831477161176
0.251614797098529
0.141761380761665
0.102663859785345
0.0873854953630104
0.0849562758111315
0.0940695521241533
0.121204366409306
0.197111615290005
0.524468993855164
4.87934849469073
4.41226402572497
0.716679451734778
0.255450682335917
0.144951731263967
0.10442751356683
0.0869169749957492
0.0807392687025943
0.0828635357966686
0.0944043424096069
0.12277137371424
0.200508466689235
0.589705168118475
3.18392126296775
4.41200703796252
0.718631752399677
0.258982651764924
0.147925291098439
0.106355330407236
0.0873757753637604
0.0789460942048354
0.0773266029934826
0.0819078522127624
0.0945897187579008
0.122657733493763
0.195023014252556
0.23706957379993
0.464616888064507
4.41193220525402
0.72053449710711
0.262175926752107
0.150628843054933
0.108264629090417
0.0882638116997081
0.078377668986882
0.0745189573924029
0.0754016890804482
0.0812326259159311
0.0938613525618648
0.118146016632772
3.73376668954166
3.048482783321
3.98461401927223
3.02945354012724
0.827512174684919
4.20280529136216
2.9942910102377
0.543818966607873
0.694588766218099
4.33706569708152
2.97802345510432
0.503330877435614
0.265086048657369
0.697600052673565
4.40623384469903
2.97874411127788
0.491462050881103
0.191602542332406
0.229548409356328
0.704524521392488
4.43507478299561
2.97899934388573
0.487936356849483
0.179781110622856
0.139403399400323
0.228610376428465
0.708172323701753
4.43971475459327
4.43311048421536
0.710199115685847
0.232738260957213
0.131011801798185
0.119637417158814
0.180494712816856
0.48882586170469
2.9707810159132
4.42458348821906
0.710984297797784
0.237702115902233
0.131606976624329
0.104631679402831
0.115834457973323
0.184186310161254
0.490467800503424
2.96235524925807
4.41827419319998
0.711680640270291
0.242435975809783
0.134477602510889
0.100943537609051
0.0963136527074966
0.116529983139962
0.188344157302395
0.49280579057797
2.9917960980358
4.4146859961745
0.712902364568087
0.246901048160479
0.13788294046308
0.100932935794513
0.0893668555136236
0.0939072411128037
0.118536424082038
0.192425930139684
0.499870716656443
3.21627900450719
4.41296243576115
0.71463436046703
0.251151491051854
0.141340176062624
0.102292326083337
0.0870331379241259
0.0845928442238244
0.0936635012394506
0.120720577212896
0.196534466729783
0.524080880888587
4.88259044344408
4.41225584405502
0.716590637359646
0.255157260178565
0.144676785064007
0.104182268447649
0.0866830249452171
0.0804989664090685
0.0825995599389497
0.0940968201043465
0.122396614817319
0.200054489053017
0.589450880867588
3.18443161688371
4.41200226911478
0.718698148218419
0.258870508759092
0.147806641870585
0.106241150171365
0.0872582215554019
0.0788176950288325
0.0771798682202599
0.0817337646443272
0.094376899206906
0.122393652330862
0.19470835218391
0.236679899626459
0.463749546828757
4.4119211858135
0.720697665729745
0.262258347981707
0.150680234963009
0.108289653037266
0.0882655190963429
0.0783582732712007
0.0744788856201599
0.0753392438411463
0.0811440746844801
0.0937426385424322
0.118000676627497
0.143813817245772
0.157015760698526
0.238851776086754
4.4118995275966
0.722600563679474
0.265276041023342
0.153259849712069
0.110226289858988
0.0894468282498617
0.0785384479060738
0.0732160160509463
0.0718798705573509
0.0741133996576418
0.0802708309220208
0.0913359910987247
3.73273214225141
3.04875147233586
3.98413707827086
3.02981072677852
0.828183796591073
4.20266882073121
2.9946608096763
0.544992921548547
0.694624000114904
4.33705768860459
2.97844811532053
0.504502305228395
0.265009198955134
0.697548410199943
4.40624125098417
2.97952090987583
0.492340995761347
0.191131538048749
0.228808712637451
0.704456314406325
4.43507790662619
2.98071858754717
0.488391654902562
0.178948935152512
0.138359994689908
0.22769888851648
0.708048449885122
4.43972288954153
2.97396486408835
0.488582338575846
0.179564266903892
0.118634335901407
0.129993800579897
0.231796108504133
0.709818785860889
4.43310355791921
4.4245732802205
0.710617862863858
0.236739457999339
0.130683614371663
0.103756224614665
0.114920623145022
0.183229320611089
0.490167023131951
2.96698405533615
4.418283770928
0.711277061118813
0.241573627983372
0.133661361041677
0.100204222360723
0.0955758450250951
0.115714655510177
0.187449315101296
0.492504057720756
2.9972445107505
4.41469518915327
0.712543002682808
0.246150301969128
0.13719422258251
0.100322313564853
0.0887810394488775
0.0932876455772587
0.117824679482853
0.191618288603733
0.499551538078899
3.2219366922213
4.41297483687434
0.714334816781425
0.250534205088528
0.140782027287999
0.101805420641478
0.0865776179975349
0.0841291804105505
0.0931513675843739
0.120116412899612
0.195828824546559
0.523723998482358
4.88752227851304
4.41225570098546
0.716402860732982
0.25469468962038
0.144256904641665
0.103818139178579
0.0863461902967601
0.0801632739790202
0.0822404601795156
0.0936870598902383
0.121904158953942
0.199468370029146
0.589279748685421
3.1861432496099
4.41199000804579
0.718606881123842
0.258577955652632
0.147535812257006
0.106003226038919
0.0870358848067377
0.0785953192472459
0.0769436495669165
0.0814691531210073
0.094066475959273
0.122017120903887
0.194268429962298
0.236164600437798
0.462912507085341
4.41191577026331
0.720753375967569
0.262151634967622
0.150568134587746
0.108183334558975
0.0881578380529023
0.0782428388823191
0.0743499874685737
0.0751905332190731
0.0809677309059352
0.0935293532292713
0.117742787766083
0.143516073737736
0.156685677993266
0.238437342884773
4.41188856594604
0.722778484744736
0.265365793032737
0.153320320853818
0.110259814906479
0.089457528435324
0.0785293288087353
0.0731884730829782
0.0718336262050715
0.0740467041071064
0.0801816854445151
0.0912266169943369
0.105401501920715
0.117946959571371
0.137515829641432
0.210979746580424
4.41190497621237
0.724643766655024
0.268201344766788
0.155762503650314
0.112170507760598
0.0907890780479049
0.0791424395232499
0.0728209199841414
0.0700589540169397
0.0701732377962674
0.0730236031833579
0.0787318972858535
3.73151955475405
3.04933261594638
3.98391687682987
3.03044320290094
0.828893504384722
4.20274494385181
2.99522890948021
0.546163826817908
0.694720212878789
4.33716974658718
2.97889182525409
0.505676694606393
0.264921634117013
0.697551755384942
4.40630343576115
2.97994622591734
0.493192164376153
0.190610649246735
0.228030717684163
0.704432665204899
4.43509295505786
2.98174569539078
0.488805139843799
0.178017383569657
0.137204993796403
0.226723996089153
0.70795733044076
4.43972784740026
2.97665176294687
0.488279300890596
0.178530077829331
0.117506803173243
0.128855099630507
0.230772127332622
0.709491532222803
4.43310362571774
2.97203803679816
0.489846135129511
0.182150157001806
0.113883565813934
0.102759574695212
0.129641603727398
0.235673439084371
0.710252624465082
4.42456921235463
4.41827315177398
0.710858729481452
0.240584141750796
0.132719037171902
0.0993507477104375
0.094722396164404
0.11477417205682
0.186427831632105
0.49225628154149
3.00434827639555
4.41469688854442
0.712139369738845
0.245259362847112
0.136373272700142
0.0995973012564728
0.0880880773567976
0.0925573390548717
0.116990466562016
0.190690078795223
0.499343992153948
3.22967143266788
4.41298840925913
0.713935024477008
0.249763341465022
0.140087135396118
0.101203598152996
0.0860189540553655
0.0835649923075833
0.0925329274203779
0.119393273072587
0.195006652588478
0.523529362855747
4.90074117467561
4.41226470640602
0.716134031270856
0.254066063888583
0.1436950118962
0.103336762286373
0.085907340570142
0.0797324849878556
0.0817861157525587
0.093174975731995
0.121296061817723
0.19876484941356
0.589268989121578
3.18875765259067
4.41199921231785
0.718397855769954
0.258110119673249
0.147115681997416
0.105644004251762
0.08671047115882
0.0782800035348589
0.0766183986222124
0.0811139015077919
0.0936579383892187
0.1215290191569
0.193716278606504
0.235544460540086
0.462162052020292
4.41190367474504
0.720663353245575
0.261856591731252
0.150299649925378
0.107950933357929
0.0879446236071777
0.0780344148159795
0.0741347650160399
0.0749575238045113
0.0807048014031562
0.093222333536889
0.117379266475555
0.143100847183979
0.156218012606506
0.237886163274706
4.41188297337482
0.722852146136334
0.265260283757439
0.153213404802224
0.110160014955199
0.0893580406424258
0.0784245233646382
0.07307380153644
0.0717045064677889
0.0738978250689757
0.0800067655241898
0.0910190132351237
0.10515718001934
0.117674229113742
0.137198553033373
0.210612853833804
4.41189465792056
0.724844440049317
0.268299114994339
0.155830141047201
0.112211438555211
0.0908075830379705
0.0791421282499411
0.0728038594308429
0.0700257848345204
0.0701235194398653
0.0729568910238242
0.0786507143232724
0.0867291978919738
0.0956884307806055
0.106925952270559
0.132107061473513
0.20667620747468
4.41190842946719
0.726627872560138
0.270952307186037
0.158128677721574
0.11406406163984
0.0922047057307648
0.0800066230043547
0.0729751505002925
0.0692463418787648
0.0680058799624488
0.0689198299493343
0.0718641764905984
3.73119428472262
3.05053386832833
3.98428819725289
3.03160179573688
0.82971895140322
4.20336756119692
2.99619148125814
0.54738570523212
0.694906474588758
4.33759606027879
2.9795889926814
0.506908710011846
0.264845731937314
0.697630736895912
4.40650204661802
2.98021101692259
0.494080748881154
0.190045977420155
0.227221499155413
0.704474606148348
4.43516288998876
2.98180967585644
0.489090678083616
0.176990024589699
0.135938225689508
0.225686683650849
0.707911942357992
4.43974510435196
2.97777386801731
0.487848673685222
0.177374552326577
0.116251615342484
0.127594444613333
0.229656341499713
0.709209228888787
4.43311186194363
2.97617231439773
0.489400167690226
0.180935245851853
0.112718617759355
0.101638994434539
0.128474645619117
0.234503805851496
0.709900216339938
4.42456125810728
3.01230598021972
0.491965941062068
0.185269241862697
0.113705941555513
0.093751466516218
0.0983795407666709
0.131649158511962
0.239472180148028
0.710451883728711
4.41826854400994
4.41468992709466
0.71169338587913
0.244233054767907
0.135420442562804
0.0987572359611767
0.0872871101849404
0.0917150791961385
0.116031879351874
0.18963713632781
0.499228529629999
3.24161347205935
4.412981495787
0.713473375127529
0.248842612581054
0.139256318512821
0.100486772544083
0.0853569573143592
0.082900005951513
0.0918079523228011
0.118552153303523
0.194075194806174
0.523508860928057
4.91328183671417
4.41227823508888
0.715726378067474
0.25327082399148
0.142992009158933
0.102738942586032
0.0853670056065422
0.0792069109883959
0.0812368533066062
0.0925615381379699
0.120576408118038
0.197966571497957
0.589785893491229
3.19693607991513
4.41200460182899
0.718101520490501
0.257472374700641
0.146548921691912
0.105165416991845
0.0862832143854632
0.0778725460044686
0.0762046877321644
0.0806686499393703
0.0931527941785148
0.120934581413253
0.193071869802947
0.234870173874932
0.461835983573228
4.41191349574454
0.720441541034482
0.261378566932142
0.149877801259952
0.107594888181967
0.0876276814001235
0.077734310047623
0.0738342089820817
0.074641035129014
0.0803561544753813
0.0928232370872529
0.116915095176652
0.142577097310697
0.155621323443288
0.237203211618692
4.41187097527514
0.722765351193916
0.264963672172608
0.152946241984543
0.10993187286848
0.089152079690756
0.0782271118107898
0.0728747430157289
0.0714950422570589
0.0736691702188101
0.079749269277324
0.0907228212542691
0.104817859308289
0.117290481070122
0.136749455720969
0.210095555181613
4.4118896373895
0.724933112119923
0.268198769666994
0.155727528708923
0.112117205680082
0.0907150182229895
0.0790461547883979
0.0727007182973806
0.0699120326096085
0.06999545912482
0.0728102705381888
0.0784804016979594
0.0865284287194106
0.0954614604328607
0.106664362194811
0.131786101619045
0.206298442915913
4.411898946231
0.726856785731487
0.271058523852139
0.158202805814292
0.114111502723374
0.0922300798240376
0.0800139547434621
0.0729669936384687
0.0692239354951084
0.0679696047006254
0.0688702504488862
0.0718043543905666
0.0765400788060593
0.0825269358522112
0.0899836448938854
0.102534423517265
0.130910453738765
0.207144983448674
4.41191565696349
0.728471436468171
0.273519970492083
0.160354671560698
0.115886240725018
0.093640253379256
0.081019658905071
0.0734679988489085
0.0690572191626664
0.0668999627591984
0.0665730830374776
0.0678627407504219
3.72980706632655
3.05303312703156
3.9858017671708
3.03371779020565
0.830786446157288
4.20505698251919
2.99783450459337
0.548753572720734
0.695248009036026
4.33872403581603
2.98084623152946
0.508285321499087
0.26481327981945
0.697833459344442
4.40704449504757
2.98079964889272
0.495092069304429
0.189466188087655
0.22639896577124
0.70462074915158
4.4353653944105
2.98127239084857
0.4892854890684
0.175881962418482
0.134561745915142
0.224594275656998
0.707941312701804
4.4398049416014
2.97658412991545
0.487261470750967
0.176093520177945
0.114867767801866
0.126209337900556
0.228458688642225
0.70897219807248
4.4331268676292
2.97712680683831
0.488682287448215
0.179571959270992
0.111421966700294
0.100392176433184
0.127179350075523
0.23322513139229
0.7095597187421
4.42457271021127
3.01909300005156
0.491452553320693
0.183951165930786
0.112505535589642
0.0926608301581737
0.097287875343483
0.13044926302132
0.238239147317489
0.710036617873464
4.41825941046303
3.2535983286712
0.49910301632837
0.188437907098451
0.114944704943727
0.0907592882669172
0.0863764702592047
0.097800504972243
0.134334810627974
0.243072710257546
0.711208031769466
4.41468508493501
4.41297828644528
0.712989090716224
0.247773911399335
0.138289721434153
0.0996545332810498
0.0845912174134722
0.0821338611104881
0.0909759452908138
0.117591773468485
0.193030272073824
0.523786800066518
4.94475963855479
4.4122706148914
0.71519501432476
0.252315268724711
0.142148932806885
0.102025065528742
0.0847254598506491
0.0785868727454153
0.0805932209082763
0.091848088706317
0.119749059615918
0.197083155512017
0.590550449525237
3.20514503594968
4.41201799720138
0.717706057497559
0.2566570348931
0.145836489501123
0.104568603814593
0.0857550230009642
0.0773737351906971
0.075703407424535
0.0801348378626491
0.0925542260208273
0.120242779809736
0.192377790262351
0.234196356138902
0.461998713374647
4.41191902232994
0.720135235991036
0.260725655300049
0.149305723132006
0.107117299126967
0.0872084779429699
0.0773436470277143
0.0734493593916193
0.0742423186095902
0.0799237957173256
0.0923361225670168
0.116359684468854
0.14196319487217
0.154911844767601
0.236410911144801
4.41188085684322
0.722544434150291
0.26447842467375
0.152521801566886
0.109577780656017
0.0888414677316476
0.077938537106167
0.0725925771540947
0.0712065683745785
0.0733624428442893
0.0794119332255524
0.0903429975253166
0.104389859264469
0.116805706793209
0.136174862275355
0.209426957988067
4.41187795539698
0.724863660006743
0.267902587457147
0.155461754695977
0.11189251874402
0.0905149356859496
0.0788575715322108
0.0725143394503511
0.0697204883361114
0.0697920054462743
0.0725879946506833
0.0782320323422085
0.0862479014080831
0.0951454139025687
0.106298702739616
0.131340208351151
0.205772585712698
4.4118952858957
0.726968666825058
0.27096420351974
0.158104804954238
0.114022238197658
0.0921435002681461
0.0799254435707554
0.0728733616867125
0.0691224849452561
0.0678576582086836
0.068744851334252
0.071661581338438
0.0763731074628238
0.0823381074338135
0.0897674522349148
0.10227493177016
0.130581225239261
0.206750411309974
4.41191028755742
0.728724623783348
0.273635689999486
0.160434851287904
0.115939590108216
0.093671770665883
0.0810337198390148
0.0734675195929676
0.0690438484304576
0.0668745976682274
0.0665369192019599
0.0678192953513395
0.0705434847889542
0.0744444641283708
0.0795263304580006
0.0870451474948023
0.100954710301104
0.131161147472197
0.209065737043982
0.730054849609976
0.275873870882284
0.162434828605764
0.11762352363999
0.095061188873322
0.0821108893298708
0.0741692201392097
0.0692631642403728
0.0664598443560194
0.0652883871919157
0.0654934747998165
3.73222390316149
3.05702376403129
3.98802086140758
3.03739650218479
0.832222429013916
4.20832058114266
3.00059479822098
0.550380059710602
0.695846189016086
4.34115802681052
2.9830000182944
0.509961743778591
0.264864020725686
0.698235388184976
4.40834345907444
2.98228923855998
0.496295229923681
0.188928119190073
0.225591572621489
0.704914624898748
4.43591004973567
2.9812211633034
0.48961067612094
0.174727188899396
0.133082153918791
0.223464974549502
0.70807829767919
4.43999119860972
2.97371997420901
0.486595352139476
0.174701964671763
0.113356788530082
0.124699453188643
0.227188272569087
0.708889341149101
4.43317923465626
2.97269085907046
0.487577926436462
0.178059305103772
0.10999275166236
0.0990171849355483
0.125754505145113
0.231881242138472
0.709257766877894
4.42458602420099
3.02013570071261
0.490432619697734
0.18244751371057
0.111169337220579
0.091448693317784
0.0960736090613165
0.129119180875494
0.236884733289923
0.709639757735643
4.41827085300465
3.26799751162666
0.498714008871517
0.187052941027408
0.113722400954808
0.0896881894121574
0.0853547283414875
0.0967253537480567
0.133114296250417
0.241776944188474
0.710714667273454
4.41467513577452
4.96589621338643
0.524049348861193
0.191842343945849
0.116506580312173
0.090035779113577
0.0812659184634299
0.0837210074151252
0.0987058902138195
0.13718623835417
0.246559584588611
0.712460167225533
4.41297355357068
4.41226721043568
0.714609903573234
0.251206979885771
0.141165894530743
0.101195064573358
0.0839827622933363
0.0778726499389464
0.0798558167807492
0.0910356796094675
0.118815810192447
0.196130189377271
0.592462315767223
3.22819544540167
4.41201010782603
0.717172069549089
0.255666820128765
0.144979701430895
0.103854266007893
0.0851265661617431
0.0767843607334557
0.0751156774828
0.0795144315500228
0.0918664341765409
0.119463463747121
0.191643909989355
0.233539895949925
0.462379955311611
4.41193244564022
0.719745822159478
0.259895409729855
0.148583976132132
0.106519549172872
0.0866882122521098
0.0768635574054696
0.0729815088649167
0.0737632216321844
0.0794109942504108
0.0917677998201062
0.115729601665638
0.141290714776214
0.154118970115774
0.235522698409867
4.41188593691433
0.722227102051873
0.263814419613071
0.151943834058712
0.10910004258992
0.0884278301640452
0.0775601280503187