/*--------------------------------*- C++ -*----------------------------------*\
  =========                 |
  \\      /  F ield         | OpenFOAM: The Open Source CFD Toolbox
   \\    /   O peration     | Website:  https://openfoam.org
    \\  /    A nd           | Version:  12
     \\/     M anipulation  |
\*---------------------------------------------------------------------------*/
/*   Windows 32 and 64 bit porting by blueCAPE: http://www.bluecape.com.pt   *\
|  Based on Windows porting (2.0.x v4) by Symscape: http://www.symscape.com   |
\*---------------------------------------------------------------------------*/
FoamFile
{
    format      ascii;
    class       volScalarField;
    location    "800";
    object      p;
}
// * * * * * * * * * * * * * * * * * * * * * * * * * * * * * * * * * * * * * //

dimensions      [0 2 -2 0 0 0 0];

internalField   nonuniform List<scalar> 
10103
(
83333.3295982568
83333.3295974053
83333.3295982589
83333.3295982583
83333.3295965496
83333.3295974049
83333.3295974074
83333.3295982672
83333.3295982602
83333.3295982589
83333.3295956898
83333.3295965467
83333.3295965522
83333.3295974078
83333.3295974064
83333.3295974104
83333.3295982873
83333.3295982681
83333.3295982597
83333.3295982582
83333.3295948284
83333.3295956844
83333.3295956932
83333.329596544
83333.3295965485
83333.3295965576
83333.3295974185
83333.3295974085
83333.329597408
83333.3295974135
83333.3295983234
83333.3295982881
83333.3295982654
83333.3295982577
83333.3295982557
83333.3295939685
83333.3295948207
83333.3295948325
83333.3295956761
83333.3295956868
83333.3295957007
83333.3295965449
83333.3295965447
83333.3295965521
83333.3295965646
83333.3295974411
83333.3295974188
83333.3295974075
83333.3295974098
83333.3295974165
83333.3295983771
83333.329598324
83333.3295982839
83333.3295982613
83333.3295982547
83333.3295982518
83333.3295931124
83333.3295939584
83333.3295939734
83333.3295948068
83333.3295948237
83333.3295948422
83333.3295956673
83333.329595677
83333.3295956925
83333.329595712
83333.3295965537
83333.3295965451
83333.3295965454
83333.3295965578
83333.329596573
83333.3295974782
83333.3295974413
83333.3295974155
83333.3295974069
83333.3295974123
83333.3295974194
83333.3295984489
83333.3295983776
83333.3295983204
83333.3295982787
83333.3295982575
83333.3295982506
83333.3295982467
83333.3295922623
83333.3295930998
83333.329593118
83333.3295939389
83333.329593962
83333.3295939852
83333.3295947882
83333.3295948079
83333.3295948314
83333.3295948578
83333.3295956623
83333.3295956676
83333.3295956792
83333.3295957024
83333.3295957263
83333.3295965737
83333.3295965539
83333.3295965432
83333.3295965482
83333.3295965658
83333.3295965831
83333.3295975306
83333.3295974783
83333.3295974381
83333.3295974127
83333.3295974082
83333.329597415
83333.3295974223
83333.3295985385
83333.3295984493
83333.3295983751
83333.3295983164
83333.3295982727
83333.3295982525
83333.3295982455
83333.3295982407
83333.3295914203
83333.3295922473
83333.3295922685
83333.3295930746
83333.3295931041
83333.3295931319
83333.3295939104
83333.3295939405
83333.3295939718
83333.3295940048
83333.3295947691
83333.3295947886
83333.3295948117
83333.3295948455
83333.3295948782
83333.3295956649
83333.3295956625
83333.3295956667
83333.3295956854
83333.3295957163
83333.3295957438
83333.329596606
83333.3295965739
83333.3295965511
83333.329596542
83333.3295965546
83333.3295965757
83333.3295965941
83333.3295975983
83333.3295975307
83333.3295974758
83333.3295974355
83333.3295974111
83333.3295974097
83333.3295974177
83333.3295974247
83333.329598646
83333.3295985388
83333.3295984473
83333.3295983727
83333.3295983099
83333.3295982661
83333.3295982467
83333.3295982393
83333.3295982339
83333.3295905887
83333.329591403
83333.3295914271
83333.3295922165
83333.3295922521
83333.3295922846
83333.3295930363
83333.3295930767
83333.3295931159
83333.3295931555
83333.3295938771
83333.329593911
83333.329593946
83333.3295939901
83333.3295940314
83333.329594754
83333.3295947695
83333.3295947888
83333.3295948217
83333.3295948657
83333.3295949034
83333.3295956767
83333.3295956649
83333.3295956605
83333.3295956676
83333.3295956977
83333.3295957336
83333.3295957631
83333.329596651
83333.3295966061
83333.3295965712
83333.3295965491
83333.3295965442
83333.329596563
83333.3295965864
83333.3295966049
83333.3295976816
83333.3295975984
83333.3295975286
83333.3295974744
83333.3295974324
83333.3295974101
83333.3295974112
83333.3295974197
83333.329597426
83333.3295987719
83333.3295986461
83333.329598537
83333.329598446
83333.3295983667
83333.329598302
83333.3295982595
83333.3295982402
83333.3295982321
83333.3295982259
83333.3295897698
83333.329590596
83333.3295905691
83333.3295913666
83333.3295914082
83333.3295914451
83333.3295921683
83333.3295922189
83333.3295922659
83333.3295923121
83333.3295929887
83333.3295930371
83333.329593084
83333.3295931383
83333.3295931881
83333.3295938438
83333.3295938777
83333.3295939124
83333.3295939596
83333.3295940164
83333.3295940642
83333.3295947448
83333.329594754
83333.3295947685
83333.3295947921
83333.3295948398
83333.3295948906
83333.3295949314
83333.3295956981
83333.3295956765
83333.3295956627
83333.3295956592
83333.329595674
83333.3295957134
83333.3295957526
83333.3295957828
83333.329596709
83333.3295966509
83333.3295966037
83333.3295965697
83333.3295965481
83333.3295965486
83333.329596572
83333.3295965968
83333.3295966148
83333.3295977809
83333.3295976816
83333.3295975966
83333.3295975282
83333.329597471
83333.329597429
83333.3295974097
83333.3295974122
83333.3295974205
83333.329597426
83333.3295989169
83333.3295987717
83333.3295986445
83333.3295985364
83333.3295984409
83333.3295983585
83333.3295982945
83333.329598253
83333.3295982329
83333.3295982236
83333.3295982157
83333.3295889661
83333.3295897774
83333.329589748
83333.3295906157
83333.3295905747
83333.3295905274
83333.3295913089
83333.3295913693
83333.3295914239
83333.3295914762
83333.3295921065
83333.3295921694
83333.329592228
83333.3295922921
83333.3295923503
83333.329592937
83333.3295929895
83333.32959304
83333.3295931012
83333.3295931706
83333.3295932284
83333.329593813
83333.3295938441
83333.3295938775
83333.3295939185
83333.3295939837
83333.3295940492
83333.329594101
83333.3295947423
83333.3295947444
83333.3295947528
83333.3295947683
83333.3295948035
83333.3295948633
83333.3295949181
83333.3295949602
83333.3295957298
83333.3295956979
83333.3295956744
83333.3295956615
83333.3295956609
83333.3295956848
83333.3295957306
83333.3295957718
83333.3295958016
83333.3295967806
83333.3295967088
83333.3295966489
83333.329596603
83333.3295965672
83333.3295965487
83333.3295965546
83333.3295965808
83333.3295966061
83333.329596623
83333.3295978972
83333.3295977808
83333.32959768
83333.3295975968
83333.3295975249
83333.3295974661
83333.3295974267
83333.3295974097
83333.3295974125
83333.3295974195
83333.3295974236
83333.3295990821
83333.3295989165
83333.3295987702
83333.3295986443
83333.3295985322
83333.329598433
83333.3295983504
83333.3295982879
83333.3295982468
83333.3295982247
83333.3295982131
83333.3295981976
83333.3295881802
83333.3295889739
83333.3295889422
83333.3295897984
83333.3295897539
83333.3295897011
83333.3295906499
83333.329590592
83333.3295905303
83333.3295904603
83333.329591233
83333.3295913101
83333.3295913801
83333.3295914535
83333.3295915198
83333.3295920363
83333.3295921075
83333.3295921736
83333.3295922487
83333.3295923302
83333.3295923978
83333.3295928842
83333.3295929375
83333.3295929903
83333.3295930488
83333.3295931312
83333.3295932109
83333.3295932737
83333.3295937861
83333.3295938127
83333.3295938436
83333.329593879
83333.3295939348
83333.3295940148
83333.3295940854
83333.3295941391
83333.329594747
83333.3295947416
83333.3295947429
83333.329594752
83333.3295947735
83333.329594821
83333.3295948888
83333.3295949462
83333.329594988
83333.3295957726
83333.3295957296
83333.3295956958
83333.3295956737
83333.3295956607
83333.3295956664
83333.3295956979
83333.3295957477
83333.3295957898
83333.3295958184
83333.3295968668
83333.3295967803
83333.329596707
83333.3295966486
83333.3295965999
83333.329596565
83333.3295965514
83333.3295965613
83333.3295965888
83333.329596613
83333.3295966283
83333.3295980316
83333.329597897
83333.3295977794
83333.3295976806
83333.3295975938
83333.3295975193
83333.329597462
83333.3295974255
83333.3295974098
83333.3295974113
83333.3295974163
83333.3295974132
83333.3295992688
83333.3295990817
83333.3295989151
83333.3295987703
83333.3295986411
83333.3295985252
83333.329598425
83333.3295983436
83333.3295982823
83333.3295982405
83333.3295982154
83333.3295981968
83333.329587415
83333.3295881879
83333.3295881545
83333.3295889956
83333.3295889482
83333.3295888904
83333.3295898351
83333.3295897723
83333.3295897042
83333.329589625
83333.329590698
83333.3295906246
83333.3295905424
83333.3295904616
83333.3295903707
83333.3295911444
83333.3295912341
83333.3295913154
83333.3295914041
83333.329591497
83333.3295915739
83333.3295919614
83333.3295920371
83333.329592109
83333.3295921851
83333.3295922842
83333.3295923778
83333.3295924512
83333.3295928321
83333.3295928843
83333.3295929376
83333.3295929933
83333.32959307
83333.3295931699
83333.329593256
83333.3295933211
83333.3295937633
83333.3295937851
83333.3295938121
83333.3295938435
83333.3295938878
83333.3295939592
83333.3295940488
83333.3295941224
83333.3295941763
83333.3295947599
83333.3295947464
83333.3295947401
83333.3295947426
83333.3295947537
83333.3295947846
83333.3295948415
83333.3295949144
83333.3295949731
83333.3295950136
83333.3295958274
83333.3295957725
83333.3295957277
83333.3295956956
83333.3295956716
83333.329595662
83333.329595675
83333.3295957118
83333.3295957636
83333.3295958049
83333.3295958319
83333.3295969686
83333.3295968664
83333.3295967787
83333.3295967072
83333.3295966453
83333.3295965957
83333.3295965646
83333.3295965558
83333.3295965679
83333.3295965946
83333.3295966168
83333.3295966256
83333.3295981852
83333.3295980313
83333.3295978956
83333.3295977802
83333.329597678
83333.3295975881
83333.329597514
83333.3295974594
83333.3295974252
83333.3295974093
83333.3295974085
83333.3295974075
83333.3295973807
83333.3295994786
83333.3295992684
83333.3295990803
83333.3295989156
83333.3295987681
83333.3295986353
83333.3295985179
83333.3295984183
83333.3295983384
83333.3295982778
83333.3295982342
83333.3295982015
83333.3295866736
83333.3295874225
83333.3295873875
83333.3295882101
83333.3295881603
83333.329588098
83333.3295890342
83333.3295889674
83333.3295888935
83333.3295888057
83333.329589887
83333.3295898076
83333.3295897174
83333.3295896263
83333.3295895221
83333.329590758
83333.3295906728
83333.3295905695
83333.329590468
83333.3295903719
83333.329590264
83333.3295910474
83333.3295911454
83333.3295912363
83333.3295913296
83333.3295914448
83333.3295915515
83333.329591635
83333.3295918839
83333.3295919618
83333.3295920378
83333.3295921139
83333.3295922111
83333.3295923301
83333.3295924313
83333.3295925078
83333.3295927814
83333.3295928314
83333.3295928841
83333.3295929386
83333.3295930061
83333.3295931011
83333.3295932123
83333.3295933022
83333.3295933678
83333.3295937459
83333.3295937622
83333.3295937842
83333.329593812
83333.329593848
83333.3295939046
83333.3295939872
83333.329594083
83333.3295941582
83333.3295942107
83333.3295947822
83333.3295947595
83333.3295947448
83333.32959474
83333.3295947423
83333.3295947593
83333.3295947995
83333.3295948628
83333.3295949385
83333.3295949967
83333.3295950355
83333.3295958953
83333.3295958272
83333.3295957706
83333.3295957278
83333.3295956928
83333.3295956698
83333.3295956662
83333.3295956854
83333.3295957251
83333.3295957768
83333.3295958163
83333.3295958371
83333.3295970873
83333.3295969682
83333.3295968649
83333.3295967791
83333.3295967038
83333.32959664
83333.3295965929
83333.3295965664
83333.329596561
83333.3295965731
83333.3295965977
83333.3295966152
83333.3295965984
83333.3295983598
83333.329598185
83333.3295980301
83333.3295978968
83333.3295977783
83333.3295976728
83333.3295975824
83333.3295975103
83333.3295974584
83333.3295974256
83333.3295974084
83333.3295974005
83333.329597386
83333.3295973795
83333.3295997135
83333.3295994783
83333.3295992674
83333.3295990811
83333.3295989144
83333.329598764
83333.3295986293
83333.3295985119
83333.3295984137
83333.3295983351
83333.3295982745
83333.3295982265
83333.3295859591
83333.3295866806
83333.3295866445
83333.3295874444
83333.329587393
83333.3295873267
83333.3295882494
83333.3295881798
83333.329588101
83333.3295880052
83333.3295890885
83333.3295890044
83333.3295889076
83333.329588807
83333.3295886901
83333.3295899515
83333.3295898594
83333.3295897471
83333.3295896337
83333.3295895233
83333.3295893979
83333.3295908258
83333.3295907334
83333.3295906147
83333.3295904846
83333.3295903745
83333.3295902652
83333.3295901451
83333.3295909445
83333.3295910482
83333.3295911466
83333.3295912428
83333.32959136
83333.3295914974
83333.3295916127
83333.3295917002
83333.3295918048
83333.3295918835
83333.3295919621
83333.3295920398
83333.3295921303
83333.3295922486
83333.3295923809
83333.3295924865
83333.3295925642
83333.329592733
83333.3295927802
83333.3295928311
83333.3295928845
83333.329592946
83333.3295930285
83333.3295931366
83333.3295932552
83333.3295933468
83333.3295934114
83333.3295937347
83333.3295937447
83333.329593761
83333.3295937843
83333.3295938138
83333.3295938583
83333.329593926
83333.329594016
83333.3295941154
83333.3295941904
83333.3295942411
83333.3295948149
83333.329594782
83333.3295947578
83333.3295947448
83333.3295947384
83333.3295947438
83333.3295947687
83333.3295948162
83333.3295948832
83333.3295949594
83333.3295950162
83333.329595049
83333.3295959777
83333.3295958951
83333.3295958254
83333.3295957708
83333.3295957244
83333.3295956889
83333.3295956703
83333.3295956728
83333.3295956963
83333.3295957364
83333.3295957862
83333.3295958223
83333.3295958152
83333.3295972247
83333.3295970871
83333.329596967
83333.3295968655
83333.3295967758
83333.3295966979
83333.3295966356
83333.3295965923
83333.3295965697
83333.329596566
83333.3295965765
83333.3295965944
83333.3295965954
83333.3295965994
83333.3295985573
83333.3295983596
83333.3295981842
83333.3295980315
83333.3295978955
83333.3295977737
83333.3295976671
83333.3295975782
83333.3295975087
83333.329597459
83333.3295974267
83333.3295974059
83333.3295973872
83333.329597381
83333.3295973807
83333.3295999755
83333.3295997132
83333.3295994776
83333.3295992685
83333.3295990811
83333.329598912
83333.3295987597
83333.3295986247
83333.3295985082
83333.3295984114
83333.3295983336
83333.3295982708
83333.3295852749
83333.3295859655
83333.3295859284
83333.3295867019
83333.3295866495
83333.3295865797
83333.3295874837
83333.3295874124
83333.3295873295
83333.3295872264
83333.329588305
83333.3295882176
83333.3295881155
83333.3295880064
83333.3295878776
83333.3295891558
83333.3295890588
83333.3295889391
83333.3295888152
83333.3295886912
83333.3295885492
83333.3295900245
83333.3295899248
83333.3295897959
83333.3295896525
83333.3295895264
83333.3295893992
83333.3295892575
83333.329590899
83333.3295908015
83333.3295906733
83333.3295905189
83333.3295903826
83333.3295902667
83333.3295901462
83333.3295900169
83333.3295908369
83333.3295909445
83333.3295910488
83333.3295911495
83333.3295912626
83333.3295914034
83333.3295915561
83333.329591676
83333.329591766
83333.3295917249
83333.3295918037
83333.3295918835
83333.329591963
83333.3295920499
83333.3295921581
83333.3295922912
83333.3295924322
83333.3295925396
83333.3295926168
83333.3295926879
83333.3295927315
83333.3295927792
83333.3295928312
83333.3295928884
83333.3295929608
83333.3295930563
83333.3295931729
83333.3295932959
83333.3295933873
83333.3295934502
83333.3295937312
83333.3295937338
83333.3295937433
83333.329593761
83333.3295937842
83333.3295938189
83333.329593873
83333.3295939492
83333.3295940435
83333.3295941442
83333.329594218
83333.3295942628
83333.3295948594
83333.3295948148
83333.3295947801
83333.3295947578
83333.3295947422
83333.3295947368
83333.3295947482
83333.3295947804
83333.329594833
83333.3295949008
83333.3295949755
83333.3295950301
83333.3295950323
83333.329596076
83333.3295959774
83333.3295958936
83333.3295958257
83333.329595767
83333.329595719
83333.3295956865
83333.3295956733
83333.3295956806
83333.3295957062
83333.3295957444
83333.3295957871
83333.329595804
83333.3295958186
83333.3295973824
83333.3295972243
83333.3295970861
83333.3295969677
83333.3295968624
83333.3295967698
83333.3295966925
83333.3295966333
83333.3295965938
83333.3295965739
83333.3295965703
83333.3295965772
83333.3295965813
83333.3295965921
83333.3295966031
83333.3295987796
83333.329598557
83333.329598359
83333.3295981858
83333.329598031
83333.3295978919
83333.3295977688
83333.3295976631
83333.3295975763
83333.3295975093
83333.3295974612
83333.329597428
83333.3295974013
83333.3295973855
83333.3295973811
83333.3295973828
83333.3296002667
83333.3295999752
83333.3295997126
83333.329599479
83333.3295992696
83333.3295990807
83333.32959891
83333.329598757
83333.3295986224
83333.3295985072
83333.3295984114
83333.3295983325
83333.3295846243
83333.3295852805
83333.3295852428
83333.3295859858
83333.3295859328
83333.3295858602
83333.3295867405
83333.3295866683
83333.3295865822
83333.3295864725
83333.3295875393
83333.3295874502
83333.329587344
83333.3295872273
83333.3295870874
83333.3295883734
83333.3295882733
83333.329588148
83333.3295880151
83333.3295878784
83333.3295877206
83333.3295892319
83333.3295891272
83333.3295889903
83333.3295888355
83333.3295886946
83333.3295885501
83333.3295883879
83333.3295901039
83333.3295899981
83333.3295898592
83333.3295896897
83333.3295895357
83333.3295894007
83333.3295892588
83333.3295891043
83333.3295909735
83333.3295908718
83333.3295907388
83333.3295905674
83333.3295904054
83333.3295902704
83333.3295901471
83333.3295900173
83333.329589881
83333.3295907254
83333.3295908359
83333.3295909447
83333.3295910502
83333.3295911621
83333.3295912953
83333.3295914527
83333.3295916156
83333.3295917376
83333.3295918283
83333.3295916453
83333.3295917233
83333.3295918029
83333.3295918839
83333.3295919689
83333.329592069
83333.3295921919
83333.3295923349
83333.3295924815
83333.3295925885
83333.3295926643
83333.3295926472
83333.3295926864
83333.3295927301
83333.3295927792
83333.3295928326
83333.3295928971
83333.3295929808
83333.3295930859
83333.3295932076
83333.3295933326
83333.3295934229
83333.3295934801
83333.3295937364
83333.3295937304
83333.329593732
83333.329593743
83333.3295937593
83333.3295937852
83333.3295938275
83333.3295938901
83333.329593972
83333.3295940675
83333.3295941671
83333.3295942401
83333.3295942507
83333.329594917
83333.3295948592
83333.3295948129
83333.32959478
83333.3295947543
83333.3295947383
83333.3295947373
83333.3295947552
83333.329594793
83333.329594848
83333.3295949138
83333.3295949811
83333.3295950136
83333.3295950383
83333.3295961921
83333.3295960755
83333.3295959761
83333.3295958938
83333.3295958216
83333.3295957606
83333.3295957146
83333.3295956866
83333.3295956782
83333.3295956887
83333.3295957141
83333.3295957474
83333.3295957735
83333.3295958017
83333.329595825
83333.3295975625
83333.3295973818
83333.3295972236
83333.3295970869
83333.3295969648
83333.3295968566
83333.3295967641
83333.3295966892
83333.3295966334
83333.329596597
83333.3295965787
83333.3295965743
83333.3295965744
83333.3295965806
83333.3295965937
83333.3295966085
83333.3295990288
83333.3295987792
83333.3295985565
83333.3295983609
83333.329598186
83333.3295980287
83333.3295978883
83333.3295977656
83333.3295976615
83333.329597577
83333.3295975121
83333.3295974646
83333.3295974278
83333.3295974018
83333.3295973872
83333.3295973832
83333.3295973852
83333.329600591
83333.3296002662
83333.3295999745
83333.3295997143
83333.3295994813
83333.3295992714
83333.3295990814
83333.3295989099
83333.3295987569
83333.3295986229
83333.3295985085
83333.3295984121
83333.3295840102
83333.3295846287
83333.3295845909
83333.3295852995
83333.3295852462
83333.3295851713
83333.3295860232
83333.3295859509
83333.3295858623
83333.3295857465
83333.3295867949
83333.3295867054
83333.3295865965
83333.3295864731
83333.3295863227
83333.3295876068
83333.3295875057
83333.3295873769
83333.3295872362
83333.3295870879
83333.3295869151
83333.3295884492
83333.3295883428
83333.3295882003
83333.3295880364
83333.3295878818
83333.3295877211
83333.3295875393
83333.3295893144
83333.3295892035
83333.3295890568
83333.3295888748
83333.3295887049
83333.3295885516
83333.329588389
83333.3295882102
83333.3295901859
83333.3295900737
83333.3295899302
83333.3295897423
83333.3295895609
83333.329589405
83333.3295892598
83333.3295891051
83333.3295889402
83333.3295910454
83333.3295909413
83333.3295908061
83333.3295906224
83333.3295904422
83333.3295902851
83333.3295901487
83333.3295900176
83333.3295898801
83333.3295897378
83333.3295906109
83333.3295907237
83333.3295908353
83333.3295909452
83333.3295910578
83333.3295911851
83333.3295913347
83333.3295915033
83333.3295916736
83333.3295917953
83333.3295918847
83333.3295915669
83333.3295916433
83333.3295917219
83333.3295918028
83333.3295918866
83333.3295919809
83333.3295920939
83333.3295922277
83333.3295923768
83333.3295925264
83333.3295926319
83333.3295927026
83333.3295926122
83333.3295926457
83333.3295926845
83333.3295927295
83333.3295927785
83333.3295928363
83333.3295929099
83333.329593003
83333.3295931147
83333.3295932382
83333.3295933628
83333.3295934533
83333.3295934713
83333.3295937517
83333.3295937357
83333.3295937283
83333.3295937314
83333.3295937399
83333.3295937572
83333.3295937888
83333.3295938386
83333.3295939075
83333.3295939923
83333.3295940857
83333.3295941778
83333.3295942252
83333.3295942598
83333.3295949893
83333.3295949166
83333.3295948572
83333.3295948126
83333.3295947756
83333.3295947486
83333.3295947357
83333.3295947401
83333.3295947636
83333.329594805
83333.3295948597
83333.3295949198
83333.3295949675
83333.3295950125
83333.3295950476
83333.3295963276
83333.3295961912
83333.3295960744
83333.3295959762
83333.3295958894
83333.3295958147
83333.329595755
83333.3295957125
83333.3295956888
83333.329595684
83333.329595696
83333.3295957194
83333.3295957449
83333.3295957729
83333.3295958042
83333.329595833
83333.329597767
83333.3295975618
83333.3295973813
83333.3295972246
83333.3295970844
83333.3295969596
83333.3295968513
83333.3295967606
83333.3295966885
83333.3295966356
83333.3295966017
83333.3295965843
83333.329596577
83333.3295965766
83333.329596583
83333.3295965974
83333.3295966135
83333.3295993081
83333.3295990284
83333.3295987787
83333.3295985587
83333.3295983621
83333.3295981853
83333.3295980268
83333.3295978866
83333.329597765
83333.3295976627
83333.3295975804
83333.3295975167
83333.3295974668
83333.3295974293
83333.3295974042
83333.32959739
83333.329597385
83333.3295973866
83333.3296009522
83333.3296005899
83333.3296002651
83333.3295999765
83333.329599718
83333.3295994857
83333.3295992753
83333.3295990845
83333.3295989125
83333.3295987595
83333.3295986259
83333.3295985108
83333.329583436
83333.3295840133
83333.329583976
83333.3295846462
83333.3295845931
83333.3295845166
83333.3295853353
83333.3295852635
83333.3295851731
83333.3295850518
83333.3295860759
83333.3295859869
83333.3295858762
83333.3295857469
83333.3295855866
83333.3295868604
83333.3295867598
83333.329586629
83333.3295864819
83333.3295863229
83333.3295861358
83333.3295876787
83333.3295875744
83333.3295874291
83333.3295872581
83333.3295870911
83333.3295869152
83333.3295867148
83333.3295885292
83333.3295884191
83333.3295882681
83333.3295880766
83333.3295878927
83333.3295877222
83333.32958754
83333.329587338
83333.3295893999
83333.3295892819
83333.3295891312
83333.3295889299
83333.3295887315
83333.3295885562
83333.3295883897
83333.3295882109
83333.3295880182
83333.3295902659
83333.3295901503
83333.3295900037
83333.3295898018
83333.3295896009
83333.3295894213
83333.3295892615
83333.3295891053
83333.3295889396
83333.3295887657
83333.3295911113
83333.3295910076
83333.3295908714
83333.3295906792
83333.3295904864
83333.3295903112
83333.3295901577
83333.3295900182
83333.3295898796
83333.3295897361
83333.3295895884
83333.3295904944
83333.3295906086
83333.3295907222
83333.3295908351
83333.329590949
83333.3295910725
83333.3295912143
83333.3295913763
83333.3295915521
83333.3295917257
83333.3295918468
83333.3295919315
83333.3295914908
83333.3295915648
83333.3295916413
83333.3295917211
83333.329591803
83333.3295918926
83333.3295919974
83333.3295921211
83333.3295922626
83333.329592414
83333.3295925642
83333.3295926701
83333.3295926961
83333.329592584
83333.3295926107
83333.3295926434
83333.3295926832
83333.3295927269
83333.3295927782
83333.3295928429
83333.329592925
83333.3295930254
83333.3295931403
83333.3295932617
83333.329593379
83333.3295934404
83333.3295934844
83333.3295937786
83333.3295937509
83333.3295937333
83333.3295937272
83333.3295937269
83333.3295937352
83333.3295937566
83333.3295937946
83333.3295938507
83333.3295939236
83333.3295940079
83333.329594095
83333.329594164
83333.329594226
83333.3295942724
83333.329595078
83333.3295949886
83333.3295949146
83333.3295948567
83333.3295948075
83333.3295947686
83333.3295947437
83333.3295947352
83333.3295947448
83333.3295947724
83333.3295948152
83333.3295948672
83333.3295949174
83333.329594967
83333.3295950162
83333.3295950585
83333.3295964849
83333.3295963266
83333.3295961903
83333.3295960745
83333.3295959718
83333.3295958823
83333.3295958084
83333.3295957515
83333.3295957128
83333.3295956927
83333.3295956903
83333.3295957023
83333.3295957225
83333.3295957473
83333.3295957753
83333.3295958091
83333.3295958406
83333.3295979988
83333.3295977662
83333.3295975614
83333.3295973824
83333.3295972226
83333.3295970801
83333.3295969551
83333.3295968481
83333.3295967597
83333.3295966902
83333.3295966399
83333.3295966078
83333.3295965893
83333.3295965803
83333.3295965796
83333.3295965867
83333.3295966008
83333.3295966172
83333.3295996226
83333.3295993069
83333.3295990276
83333.3295987811
83333.329598561
83333.3295983633
83333.3295981858
83333.3295980273
83333.3295978877
83333.3295977673
83333.3295976668
83333.3295975857
83333.3295975202
83333.3295974692
83333.3295974321
83333.3295974074
83333.3295973926
83333.3295973866
83333.3295973875
83333.3296009506
83333.3296005881
83333.3296002669
83333.3295999817
83333.3295997255
83333.3295994934
83333.3295992824
83333.3295990908
83333.3295989182
83333.3295987648
83333.3295986299
83333.3295829053
83333.3295834377
83333.3295834013
83333.329584029
83333.3295839768
83333.3295838993
83333.3295846798
83333.3295846094
83333.3295845175
83333.3295843917
83333.3295853858
83333.329585298
83333.3295851865
83333.3295850518
83333.3295848827
83333.3295861388
83333.3295860395
83333.3295859077
83333.3295857554
83333.3295855866
83333.3295853862
83333.3295869275
83333.3295868264
83333.3295866802
83333.3295865039
83333.329586326
83333.3295861355
83333.3295859176
83333.3295877546
83333.3295876485
83333.3295874962
83333.3295872983
83333.3295871023
83333.3295869158
83333.3295867148
83333.3295864909
83333.3295886179
83333.329588497
83333.3295883434
83333.3295881328
83333.3295879199
83333.3295877269
83333.3295875402
83333.3295873383
83333.3295871188
83333.3295894911
83333.3295893635
83333.3295892086
83333.3295889922
83333.3295887735
83333.3295885735
83333.3295883914
83333.3295882109
83333.3295880178
83333.3295878127
83333.3295903444
83333.3295902249
83333.3295900748
83333.3295898635
83333.3295896488
83333.3295894498
83333.3295892713
83333.3295891056
83333.329588939
83333.329588764
83333.3295885816
83333.329591169
83333.3295910674
83333.329590931
83333.3295907346
83333.3295905331
83333.3295903441
83333.3295901746
83333.3295900226
83333.3295898791
83333.3295897345
83333.3295895859
83333.3295894337
83333.3295903768
83333.3295904917
83333.3295906064
83333.3295907211
83333.3295908357
83333.3295909567
83333.3295910922
83333.3295912461
83333.3295914169
83333.3295915959
83333.3295917708
83333.3295918922
83333.3295919263
83333.3295914182
83333.3295914887
83333.3295915621
83333.3295916395
83333.3295917187
83333.329591804
83333.3295919018
83333.3295920161
83333.3295921481
83333.3295922935
83333.3295924427
83333.3295925859
83333.3295926597
83333.3295927128
83333.3295925642
83333.3295925824
83333.3295926079
83333.3295926413
83333.3295926787
83333.3295927232
83333.3295927796
83333.3295928515
83333.3295929406
83333.3295930455
83333.32959316
83333.3295932741
83333.3295933639
83333.3295934432
83333.3295935008
83333.3295938186
83333.3295937775
83333.3295937482
83333.3295937316
83333.3295937215
83333.3295937202
83333.3295937314
83333.329593758
83333.3295938017
83333.3295938623
83333.3295939367
83333.3295940178
83333.3295940928
83333.3295941637
83333.3295942308
83333.3295942863
83333.3295951853
83333.3295950771
83333.3295949866
83333.3295949138
83333.329594851
83333.3295947996
83333.3295947621
83333.3295947407
83333.3295947367
83333.3295947505
83333.3295947805
83333.329594823
83333.3295948706
83333.32959492
83333.3295949694
83333.3295950224
83333.3295950686
83333.3295966665
83333.3295964834
83333.3295963258
83333.3295961903
83333.3295960702
83333.329595965
83333.329595876
83333.3295958043
83333.3295957505
83333.3295957151
83333.3295956978
83333.3295956967
83333.3295957077
83333.3295957264
83333.3295957502
83333.3295957794
83333.3295958141
83333.3295958465
83333.3295982631
83333.3295979971
83333.3295977655
83333.3295975623
83333.3295973811
83333.3295972196
83333.329597077
83333.3295969532
83333.3295968479
83333.3295967616
83333.3295966944
83333.3295966462
83333.3295966138
83333.3295965936
83333.3295965839
83333.3295965833
83333.3295965904
83333.329596604
83333.32959662
83333.3295996207
83333.3295993054
83333.3295990296
83333.3295987846
83333.3295985647
83333.3295983669
83333.3295981893
83333.329598031
83333.329597892
83333.3295977728
83333.3295976731
83333.3295975902
83333.3295975236
83333.3295974726
83333.3295974357
83333.3295974105
83333.3295973951
83333.3295973884
83333.3295973884
83333.3296009489
83333.3296005901
83333.329600274
83333.3295999929
83333.3295997379
83333.3295995054
83333.3295992932
83333.3295991002
83333.3295989263
83333.329598771
83333.3295824253