/*--------------------------------*- C++ -*----------------------------------*\
  =========                 |
  \\      /  F ield         | OpenFOAM: The Open Source CFD Toolbox
   \\    /   O peration     | Website:  https://openfoam.org
    \\  /    A nd           | Version:  12
     \\/     M anipulation  |
\*---------------------------------------------------------------------------*/
/*   Windows 32 and 64 bit porting by blueCAPE: http://www.bluecape.com.pt   *\
|  Based on Windows porting (2.0.x v4) by Symscape: http://www.symscape.com   |
\*---------------------------------------------------------------------------*/
FoamFile
{
    format      ascii;
    class       volScalarField;
    location    "100";
    object      k;
}
// * * * * * * * * * * * * * * * * * * * * * * * * * * * * * * * * * * * * * //

dimensions      [0 2 -2 0 0 0 0];

internalField   nonuniform List<scalar> 
10123
(
0.000453540400230162
0.000457709012845229
0.00129139641496309
0.000455214895915719
0.000460846739332526
0.00130327188446476
0.00045940216011394
0.00189677985907928
0.00129265832225282
0.000457397538080408
0.000463222938207314
0.00131222813237464
0.000462552760713534
0.0019135730552598
0.0013045617387931
0.000461624353146613
0.00238525479070063
0.00189660932293388
0.0012911873992677
0.000455084489655268
0.000465021300323742
0.00131900008348989
0.000464936281633915
0.00192627924806974
0.00131354544228579
0.000464812198016049
0.00240560076947491
0.00191344203686574
0.00130314123558939
0.000459321679282519
0.00280475287621019
0.00238384406209969
0.00188830823761496
0.00128131342042277
0.000446957157755625
0.000466384899824475
0.00132410776664336
0.000466739291612265
0.00193588129363684
0.00132033369611923
0.000467222883459328
0.0024210527576514
0.00192616646880778
0.00131219037744098
0.000462523009749869
0.00282785111249781
0.00240424034499024
0.0019051812632928
0.00129327176247222
0.000451152793077917
0.00317372812108463
0.00280150975732061
0.00236996744217107
0.00186888828119964
0.0012598424470997
0.000434708260395686
0.000467423294848751
0.00132795764055313
0.000468106120457305
0.00194309682328425
0.00132544986695286
0.00046904719019677
0.00243273663074738
0.00193577681825052
0.00131903127850507
0.000464945971627887
0.00284543647419122
0.00241970567290305
0.00191795473729316
0.00130235020854135
0.000454328103401921
0.00319901970952414
0.00282466165203188
0.00239040519191219
0.00188574409854336
0.00127170648813474
0.000438821750433683
0.00350088733512027
0.00316824693515794
0.00278252091869384
0.00234199071059982
0.00183641597644997
0.00122812547110701
0.000420223716792455
0.000468222692386178
0.00133086762566136
0.00046914693190182
0.001948496867277
0.00132930409092724
0.000470430301658252
0.0024415002657193
0.00194299625862058
0.00132418725944922
0.000466781654996824
0.00285874294832277
0.00243139151156604
0.00192760902897557
0.00130922340720471
0.000456735626220513
0.00321830029344067
0.00284225299739164
0.00240591436531916
0.00189853535433107
0.00128074000346081
0.000441943010745241
0.00352794684891151
0.00319359219370684
0.00280571664038052
0.00236239922101039
0.00185315018515643
0.00123978996118063
0.000424227842178568
0.00379143492872861
0.0034935544488504
0.00314438071261789
0.0027468339938223
0.00229955027088112
0.00179177514011376
0.0011889519050972
0.000404090170974146
0.000468850229679179
0.00133308751392985
0.000469947023155538
0.00195253822032199
0.00133221688920869
0.00047148438554756
0.00244803132617624
0.00194839804958191
0.00132807208190314
0.000468175276534273
0.00286871407236886
0.00244015409645874
0.00193486631120811
0.00131440958862763
0.000458560779127008
0.00323289601843778
0.00285555313789568
0.00241764014615633
0.00190821857924454
0.00128758792039208
0.000444310862928853
0.00354858864372578
0.00321287193457483
0.00282334960631793
0.00237791883784237
0.00186587811870941
0.00124870016768963
0.000427271633926271
0.0038199299628709
0.003520671151633
0.00316977215127556
0.00276999412436745
0.00231981707422589
0.00180826662931968
0.00120033066807624
0.000407962721376566
0.00404916359912058
0.00378294734627314
0.00346568020419029
0.00310182135217826
0.00269528964653013
0.00224385303315087
0.00173683865896323
0.00114371641156973
0.0003859851287797
0.000469357013260655
0.00133481206937288
0.000470578453749812
0.00195558307446546
0.00133443914411499
0.000472295363883363
0.00245288758617166
0.00195244015020788
0.00133100968991603
0.0004692381013659
0.00287612538659754
0.00244668341938817
0.00194030017653469
0.00131832100824263
0.000459947069449189
0.00324382615680458
0.0028655163130183
0.00242643941514245
0.00191550758938788
0.00129275910747998
0.000446106439694496
0.00356421700949963
0.00322745393854784
0.00283668710225207
0.00238967071741575
0.00187553028518513
0.00125546315952396
0.000429583198375223
0.00384167300160041
0.00354130988082489
0.00318909361180351
0.00278763499619424
0.00233526225619108
0.00182083149947579
0.0012090394994301
0.000410908394574811
0.0040788324985331
0.0038115074162132
0.00349285148381838
0.00312717672219714
0.00271829500862412
0.00226384715909275
0.00175297005861471
0.00115473533431226
0.000389698178978262
0.00427697028651716
0.00404003978015456
0.00375223026070232
0.00341752195691357
0.00304225709265535
0.00262963146537213
0.00217624052604539
0.00167253830878283
0.00109230169436802
0.000365436920500696
0.000469783065144301
0.00133619085617899
0.00047108755645365
0.00195791493382802
0.00133616618347183
0.000472935576455045
0.00245651511546393
0.00195548530020884
0.00133325239485089
0.000470057615587008
0.00288161213013215
0.00245153791416314
0.00194436916758305
0.00132128127934254
0.000461005397147343
0.00325193545525193
0.00287292062430958
0.00243300182639028
0.00192097213437948
0.00129666330849264
0.000447468727205233
0.00357591397285794
0.0032383700512859
0.00284668587357018
0.00239850284995385
0.00188280672588718
0.00126057141734086
0.000431335601451926
0.00385813456095573
0.00355692162616437
0.00320371266080412
0.00280099890564612
0.00234697929510713
0.00183037455038322
0.00121565997720187
0.000413146375776475
0.00410147325884374
0.00383324980099471
0.00351353800897154
0.00314650876796363
0.00273585611812725
0.00227911032773236
0.00176527549771678
0.00116317786959683
0.000392521947115659
0.0043076046606039
0.00406978353123638
0.0037808603422836
0.00344466596133749
0.00306745391090638
0.0026523444395398
0.00219582849719096
0.00168819770806128
0.00110288203000875
0.000368960316131347
0.00447711141027884
0.0042674731381923
0.00400741820689397
0.0036998593387787
0.00335130889115829
0.00296784193428955
0.00255100443169829
0.00209715058644814
0.0015987524434064
0.00103403619131346
0.000342134499163281
0.000470158239111704
0.00133733654454191
0.000471517504395763
0.00195975272480976
0.00133754757426433
0.000473451704848152
0.00245926492092485
0.00195781724580994
0.00133499605623854
0.000470701879632416
0.00288568588202233
0.00245516382749795
0.00194743641404196
0.00132354275335023
0.000461821331620862
0.00325791993767017
0.00287840169728205
0.00243788517668777
0.00192506879531886
0.00129962069069202
0.000448508477505705
0.00358457987065187
0.00324646762928603
0.00285412360885038
0.00240509964972305
0.0018882690906305
0.00126442645944344
0.000432665428007063
0.00387044855283321
0.00356860203011198
0.00321466478770864
0.00281103316911425
0.00235580030796855
0.00183757777167288
0.00122066371767092
0.00041484250219303
0.0041186118305298
0.00384969562348519
0.00352919160690371
0.00316115828635122
0.00274918485755277
0.00229070802496356
0.00177463169825225
0.00116960003442786
0.000394667297667308
0.00433098078707394
0.00409242813907237
0.00380266233862196
0.0034653731023755
0.00308670787987931
0.00266971281486161
0.00221079998731302
0.00170015307414191
0.00111099367382375
0.000371642568474732
0.00450853949564329
0.00429819163790122
0.00403725118574598
0.00372847956248285
0.00337830095694118
0.00299273789503888
0.00257328155162382
0.00211619882389985
0.00161382721788912
0.00104409320014624
0.000345441918246186
0.00465149349270996
0.00446734773464028
0.00423354351180043
0.00395195437862379
0.00362836618989729
0.00326946382557839
0.00287964907986139
0.00245952016562342
0.00200629406168074
0.00151493164339893
0.000968285018008904
0.000315910917202748
0.00047050338981231
0.00133833997291961
0.000471893026189665
0.00196126375849757
0.00133869724372366
0.000473887499059155
0.0024614087418219
0.00195965492472951
0.00133639077074366
0.000471221868288212
0.00288875108168234
0.00245791219620613
0.00194978602194571
0.00132530120640464
0.000462462945810341
0.00326234338211104
0.00288247094331814
0.00244153531606296
0.00192815966990729
0.00130188145650146
0.000449310487667724
0.00359096010972119
0.00325244311420724
0.00285963476853997
0.00241001545681104
0.00189236874931072
0.00126734691285751
0.00043367913917314
0.00387956106438718
0.00357725439542409
0.00322279699127653
0.00281850939736875
0.00236239920027659
0.00184299051251795
0.00122444126206882
0.00041612930133259
0.00413142572542425
0.00386199360776118
0.00354091236261032
0.00317215090390411
0.00275921106240515
0.00229945242112327
0.00178170053146167
0.00117445455930441
0.000396293399863203
0.0043486718259359
0.0041095536727524
0.00381915933729666
0.00348106678854637
0.00310132691100434
0.00268291792974902
0.00222219006897624
0.00170924986910294
0.00111716552095821
0.000373680310630332
0.00453251640716275
0.00432157627094154
0.0040599699410922
0.00375031842681332
0.00339893955165754
0.0030117972522777
0.00259033914025757
0.00213077060928689
0.0016253442009436
0.0010518117941401
0.000347960224356047
0.00468356531306481
0.00449886772574921
0.00426437072704766
0.00398179982012628
0.00365684987001279
0.003296157182305
0.00290409327609362
0.00248121466981028
0.0020246664854244
0.0015293009154281
0.000977738430913654
0.000318969196877
0.00480193985660078
0.00464150664336744
0.00443246772173076
0.00417577786020093
0.00387631883663561
0.00354036616294741
0.0031730702072423
0.00277758937855371
0.00235470304950031
0.00190312695532167
0.0014205025222695
0.000894610734853857
0.000286698284570115
0.00047083162229533
0.00133925958496723
0.000472240456457031
0.00196256820938028
0.00133970134500194
0.0004742686164255
0.00246315353856643
0.00196116488046738
0.00133755146899181
0.000471659522760693
0.00289112170581616
0.00246005476238291
0.00195163733497008
0.00132670748138006
0.000462980881257882
0.00326565317426742
0.00288553254326996
0.00244430322394611
0.00193052838764037
0.00130363957568859
0.000449940974786925
0.00359565978765826
0.00325685966845375
0.00286372982711154
0.0024136940405761
0.00189546444837107
0.00126958080789996
0.000434459666097201
0.00388625731637225
0.00358362418284451
0.00322880431225697
0.00282405778653341
0.00236732346639273
0.00184705617776657
0.00122730147172332
0.000417109286901888
0.0041408989821738
0.00387109307377124
0.00354960343405976
0.00318032709719268
0.00276669458136998
0.00230600292064191
0.00178701628312976
0.00117811881357735
0.000397527299035691
0.00436189253661549
0.00412235354746886
0.00383150544157749
0.00349283703836865
0.00311231777056191
0.00269286772784005
0.00223078788725042
0.0017161265713781
0.001121830732211
0.000375223641554367
0.00455065692315239
0.00433925724957235
0.00407715800569064
0.00376686967149506
0.00341461303661893
0.00302629481756561
0.00260332563182411
0.00214186655499417
0.00163411194081342
0.0010576856014444
0.000349871841744934
0.0047080247123012
0.00452285715674247
0.0042878440897566
0.00400457479913469
0.00367863589469503
0.00331660707615013
0.00292283331433003
0.00249784239010333
0.00203873041025029
0.00154028605158222
0.000985001031593891
0.000321300889595197
0.00483450970266835
0.00467367628435575
0.00446411418941546
0.00420664113001857
0.00390604847842181
0.00356856194690448
0.00319930806656146
0.00280142603660394
0.00237566380339094
0.00192068378272279
0.0014340461546416
0.000903370069443315
0.000289479614709549
0.00493035602924379
0.00479175606957661
0.00460590955018882
0.0043729523559808
0.00409688019775109
0.0037832721362633
0.00343701661571204
0.00306194420288164
0.00266103461507515
0.00223594561648848
0.00178711995426645
0.00131499839162856
0.000812732339426734
0.000254493835952408
0.000471154269081521
0.0013401342005103
0.000472571509857462
0.001963761549447
0.00134062236646617
0.000474621179388154
0.00246465436726169
0.00196247080307292
0.00133856438276518
0.000472046082045123
0.00289303743852364
0.0024617984729684
0.0019531574065437
0.00132787728253753
0.00046341652837822
0.00326819708167068
0.0028879002733088
0.00244646085806128
0.00193239432802279
0.00130504506794315
0.000450450670579414
0.00359916027793016
0.003260163990349
0.00286681251063374
0.00241648532951481
0.00189783762409789
0.00127131805514439
0.000435072400338627
0.00389117604843702
0.00358831596461708
0.00323324859928254
0.00282818604533796
0.0023710124025011
0.00185012782377324
0.00122948427929659
0.000417862388767743
0.00414784942604968
0.00387777934643658
0.00355600875224669
0.00318637719083911
0.00277225755774545
0.00231089672759837
0.00179101081778397
0.00118089206141358
0.000398466442776094
0.00437165863004175
0.0041318153401267
0.00384065018387379
0.00350158036578133
0.00312050829644409
0.00270030596314198
0.00223723516985683
0.00172129963117318
0.00112535153975569
0.000376393628757413
0.00456420811434811
0.00435246615054442
0.00409001521465724
0.00377927750985603
0.00342639170637051
0.00303721383650878
0.00261312358387223
0.00215024926946061
0.00164074154264465
0.00106212339683635
0.00035131693693716
0.00472652527908103
0.0045409902247387
0.00430559890654189
0.0040218333164094
0.00369518154042049
0.00333216679338149
0.00293710907567769
0.00251051460999542
0.00204944659747713
0.00154865273196101
0.000990526503448814
0.000323070204521241
0.00485933919114978
0.00469815141822903
0.00448820558789343
0.00423019045358188
0.00392878974154613
0.00359017129705491
0.0032194392107533
0.00281971984412947
0.00239174099647377
0.00193413008488739
0.00144440591717791
0.000910114122860727
0.000291605211376797
0.00496325628297927
0.0048244282878184
0.00463822101151063
0.00440465747036781
0.00412765060181692
0.00381273047433637
0.00346476224018751
0.00308756340148744
0.00268410234555225
0.00225601700468666
0.00180371377428281
0.00132759502374614
0.000820717118473978
0.000256970582454349
0.00503878127736942
0.00491999941506559
0.00475561789082479
0.00454505204409765
0.00429147456462849
0.00399970982967862
0.00367406749354697
0.00331811703544226
0.00293535622450469
0.00252929446436401
0.00210271474618301
0.00165786345554796
0.0011980905980507
0.000722433163597363
0.000219225866752528
0.000471471704480375
0.00134100391588673
0.00047289537549618
0.00196491390698466
0.00134150347010929
0.000474957017335135
0.00246602590589929
0.00196366572673052
0.00133949305843414
0.000472401479963524
0.00289467830002585
0.00246329838938781
0.00195447135638415
0.00132889757770437
0.000463800880615824
0.00327024142735716
0.00288981366831986
0.00244821562483193
0.00193392492581418
0.00130621331380926
0.000450878852462977
0.00360183728819468
0.00326270367652153
0.00286919661543007
0.00241866094704793
0.00189970640564966
0.00127270639575264
0.00043556677470267
0.00389482595091448
0.00359181051532105
0.00323657578553609
0.00283129636723602
0.00237381317244811
0.00185248266816524
0.00123117890399244
0.000418452942306751
0.00415294299570592
0.00388269058929499
0.00356073156033385
0.00319085986781562
0.00277640232189695
0.00231456586586295
0.00179402862136164
0.00118300842159607
0.000399187492294833
0.00437881498354198
0.00413875710107659
0.00384737749256714
0.00350803583731426
0.00312658008602484
0.00270584308964099
0.00224205573183921
0.00172518731891368
0.00112801484261812
0.000377283315960924
0.00457421213528214
0.00436222258191011
0.004099529831364
0.00378848500449655
0.00343515897089565
0.00304536494693946
0.00262045722601226
0.00215653957399964
0.00164572881416401
0.00106547048964734
0.000352411346135241
0.00474034188332076
0.00455453153607106
0.00431887419997411
0.00403476579446819
0.00370761091806399
0.00334388203864367
0.00294787674878499
0.00252008500300492
0.00205754700626794
0.00155498011469334
0.000994697127708616
0.000324407122488381
0.00487811833419631
0.00471664667942621
0.00450642271746566
0.00424803190181032
0.00394605944040955
0.0036066151366202
0.00323478039467743
0.00283367139010927
0.00240400316128479
0.00194438063218364
0.00145229893982173
0.000915244738228091
0.000293218500369346
0.00498833998312085
0.00484927604085978
0.00466280959288613
0.00442884337119939
0.00415118637796099
0.00383531096489501
0.00348606005498355
0.00310724243984784
0.0027018205188739
0.00227142101802876
0.00181642971068729
0.00133723849143155
0.000826880271832076
0.000258875722973577
0.00507177867637643
0.00495300608901993
0.00478844516315672
0.00457744275605553
0.0043231098048183
0.00403022865005376
0.00370308744568953
0.00334524360001958
0.00296018761477323
0.00255142653832797
0.00212173732500829
0.00167334886510565
0.00120962194129712
0.000729571393665839
0.000221337457895966
0.00512922325728862
0.00502827259792877
0.00488346595240523
0.00469374112698197
0.00446153796305694
0.00419094519835978
0.00388560469367361
0.00354852444153951
0.00318288094111191
0.00279254178854591
0.00238180463532758
0.00195463271680472
0.00151508118300781
0.00106953792746196
0.000623462331466982
0.000180863985910752
0.000471780998395571
0.0013418781474652
0.000473213413520999
0.00196606132929943
0.0013423747063017
0.000475284091679813
0.00246735164425232
0.00196481637565725
0.00134038143353794
0.00047273935280765
0.00289617790236988
0.00246466933546978
0.00195567174697373
0.00132983166261262
0.000464153532889272
0.00327198654230507
0.00289145266842949
0.00244972320951298
0.00193524592155531
0.00130723108668003
0.000451254572097654
0.00360397853679345
0.00326474465494046
0.00287112197193699
0.00242042844951192
0.00190123758122777
0.00127385897326766
0.000435981561043537
0.00389760541901654
0.00359448294776465
0.00323913336375678
0.00283370194121166
0.00237599573284546
0.0018543359553111
0.00123253228046084
0.000418929482923285
0.00415671103988101
0.00388633513518821
0.00356425186857204
0.00319421924020241
0.00277952766256446
0.00231735237713295
0.00179634127095529
0.00118465042709
0.000399752503164125
0.0043840491593847
0.004143844313212
0.00385232434317744
0.00351280345604167
0.00313108593636641
0.00270997317380468
0.00224567165512689
0.0017281238714902
0.00113004571372872
0.000377965188375232
0.00458153518590496
0.00436937151246767
0.00410651881239913
0.00379527133772526
0.00344164488171201
0.00305141725975612
0.00262592223151484
0.00216124500763232
0.00164947614688364
0.00106800077223696
0.000353243689766307
0.00475053780087857
0.00456452735396934
0.00432869079740111
0.00404435446372956
0.00371685386911221
0.00335261833804184
0.00295592614337868
0.0025272548076795
0.00206362804092551
0.00155973973701793
0.00099784028038581
0.000325417854429443
0.0048921435332889
0.00473045499516819
0.00452003854402253
0.00426139578788838
0.00395902790358834
0.00361899239211019
0.00324634929502025
0.00284420641686865
0.00241327076252434
0.00195213212991649
0.00145826855730948
0.000919113697911732
0.000294436370053577
0.00500732269996049
0.00486805169626185
0.00468139779051246
0.00444716216606861
0.00416905617709169
0.00385249336834278
0.00350229339670917
0.00312225759667021
0.00271534485400497
0.0022831767594365
0.00182612863134424
0.00134458862554333
0.000831573357403753
0.000260322467326869
0.00509699879581321
0.0049781105330245
0.00481341627042211
0.00460214255063787
0.00434730184423838
0.00405362143852635
0.00372536817166363
0.00336609143346805
0.00297927836823566
0.00256843704936781
0.00213634398647677
0.00168522262560168
0.00121846047914609
0.000735111289325416
0.000223008650561604
0.00516205366196395
0.0050613838655187
0.00491663971231817
0.00472666621256687
0.00449388069973207
0.00422234973961303
0.0039157009563632
0.00357693232173937
0.00320921278536576
0.00281641026433728
0.00240282985449453
0.00197244052803487
0.0015293141465762
0.0010798895675194
0.000629637914718136
0.000182293689212036
0.0052027922814855
0.00511856964871237
0.0049914637055685
0.00482083691529167
0.00460863737366598
0.00435828848786412
0.00407276080853686
0.00375441017880163
0.0034058254386316
0.00303048516359125
0.00263288899651122
0.00221817443409512
0.00179146630907854
0.00135859296549587
0.000929212699026992
0.000515713382530578
0.000138920715836506
0.00047209093239854
0.00134276044374742
0.000473521184328607
0.00196723931648047
0.00134325121630634
0.000475603342823075
0.00246869003404453
0.00196596564331932
0.00134125777290309
0.000473066861583191
0.00289763269398016
0.00246599444299394
0.00195682471777234
0.00133072347315934
0.000464488132376986
0.00327358082390974
0.00289295042522522
0.00245109870236524
0.00193644992434817
0.0013081611074728
0.000451599133336021
0.00360580069711199
0.00326648697750963
0.00287276892879648
0.00242194393854699
0.00190255662388096
0.00127486104068711
0.000436344197835222
0.00389981923050409
0.00359662057623546
0.00324118743962
0.00283564260200062
0.00237776674406207
0.00185585247954409
0.0012336538770679
0.000419328659060158
0.00415956926090586
0.00388911037915135
0.0035669445445451
0.00319680205347787
0.00278194477555074
0.00231952283608751
0.00179815994861468
0.00118595897880545
0.000400209107492406
0.00438791074079847
0.00414760773793478
0.00385599846842279
0.00351636137034336
0.00313446622336755
0.00271308930679232
0.00224841780237458
0.00173037286834539
0.00113162013704555
0.000378498425805154
0.00458688302245485
0.00437460050473889
0.00411164666404695
0.00380027043372555
0.00344644337057651
0.00305591470718088
0.00263000164806477
0.00216477518611332
0.00165230505540142
0.00106992819138933
0.000353880706787087
0.00475799591788148
0.00457184433978936
0.00433589281222007
0.00405141180489078
0.00372368062765248
0.00335909281026172
0.00296191053715419
0.00253260167814199
0.00206817790524769
0.00156331478949083
0.00100021520857114
0.000326184741405476
0.00490249254695237
0.00474064395432777
0.00453010101865782
0.00427129731746719
0.0039686643453836
0.00362821469298641
0.00325498979123156
0.00285209032924509
0.0024202182274504
0.00195795266926217
0.00146275862660841
0.000922026594343634
0.000295355334840084
0.00502150780032271
0.00488206993466422
0.00469528762022325
0.00446087876797346
0.00418247050672932
0.00386542262311779
0.00351453257897058
0.00313359474621428
0.00272556617360019
0.00229206656501995
0.00183346543205749
0.00135014802566781
0.000835113053076289
0.000261412384561378
0.00511612269089971
0.00499709125035101
0.00483229250476563
0.00462084584968737
0.00436566545576047
0.00407141951457376
0.00374235124058451
0.00338200253354008
0.0029938584709207
0.00258143013042843
0.00214749650563331
0.00169428299098908
0.00122520108374034
0.000739330533656289
0.000224284197484575
0.00518734387182952
0.00508662757802593
0.00494187633248751
0.00475176342082796
0.00451860505411645
0.00424641701775613
0.00393880849324012
0.00359877066640259
0.00322946886766174
0.00283477354080893
0.00241899848444744
0.00198612208999556
0.00154023499421523
0.00108783930250305
0.000634502826701722
0.000183734549606005
0.00523591639119961
0.00515153617430111
0.00502475626343357
0.00485412545124873
0.00464153488500726
0.00439042131912627
0.00410376077739822
0.00378390629436851
0.00343344065959671
0.00305584035831072
0.00265561430804319
0.0022379171763736
0.00180789815659995
0.00137143440613469
0.000938270970913574
0.000520755759545859
0.000140935280746739
0.00515539368759431
0.0052616936501322
0.00519203855526467
0.00508157287645503
0.00492830269783312
0.00473451619172577
0.00450320638355865
0.00423673094163054
0.00393678433163655
0.00360528743400963
0.00324509811627735
0.00286026156858342
0.00245596407815229
0.00203816142510151
0.00161304310307917
0.00118835074783695
0.000777618165854434
0.000399599250438405
7.75341469620755e-05
0.000472442646372407
0.00134367127879939
0.000473829054118801
0.0019684717353372
0.00134414225543412
0.000475909311553741
0.00247008183566351
0.00196714482362345
0.00134213834944694
0.00047338403850476
0.002899111743559
0.00246733201333423
0.00195797504625687
0.00133160090790837
0.000464811390258784
0.00327513198897795
0.00289440353815764
0.00245242537563056
0.00193760308638878
0.00130904698360222
0.000451925568286115
0.00360746429116822
0.00326807874027714
0.00287427096105855
0.00242332283213695
0.00190375593317146
0.00127577464664282
0.000436676753702297
0.00390169744030904
0.00359843975727647
0.00324293840402649
0.002837299032318
0.00237928196115939
0.00185715645026246
0.00123462688680815
0.000419678081297354
0.00416183680893579
0.00389132091189517
0.00356909710229407
0.00319887434444872
0.002783892490572
0.0023212817802868
0.00179964616063303
0.0011870404606417
0.000400590712311637
0.00439082960733791
0.00415046253065508
0.00385879699858295
0.00351908374101606
0.00313706552801963
0.0027154988891968
0.00225055561700003
0.00173213950268556
0.00113287398362809
0.000378928822539028
0.00459081904028717
0.0043784583731893
0.00411544366965809
0.00380398831894227
0.00345002880160952
0.0030592915778404
0.00263308060226505
0.00216745554229716
0.00165446944549486
0.00107142066415183
0.000354378272058305
0.00476343553187667
0.00457718788465227
0.00434116717431556
0.00405659952626346
0.00372871908893482
0.00336389019247011
0.0029663620944316
0.00253659479690758
0.00207159110923545
0.00156601204379757
0.00100202209049343
0.000326771744530699
0.00491005953770931
0.00474809701046227
0.00453747632338401
0.00427857654884879
0.00397577242693485
0.00363503926514685
0.00326140252964194
0.00285795723158184
0.00242540178210572
0.00196230783237498
0.0014661304431324
0.000924226096283827
0.000296051402371551
0.00503197820650131
0.00489241302657795
0.00470554879663555
0.00447103603961272
0.00419243184294323
0.00387504973703004
0.00352366715317981
0.00314207246550201
0.00273322149585618
0.00229873388736775
0.00183897538354441
0.00135432883497371
0.000837776578968692
0.000262232507417017
0.00513043149151673
0.00501127060710973
0.00484639823252466
0.00463484724434465
0.00437944612276455
0.00408480806151373
0.00375515287999064
0.00339401477163649
0.00300487781940272
0.00259125656252213
0.00215593382598617
0.00170113894012192
0.00123030026844918
0.000742509831048891
0.0002252434630841
0.00520658342448533
0.00510575106760645
0.00496096425583674
0.00477076661586904
0.00453736837676428
0.00426472448665342
0.00395642032168496
0.00361543924916897
0.00324494423765107
0.00284880854078874
0.0024313554241441
0.00199657379066112
0.00154857259201637
0.0010939074037781
0.000638221905043291
0.000184860291751894
0.00526141798556561
0.00517685484736199
0.00505014073087801
0.00487950147399934
0.00466667356822532
0.00441503868936235
0.00412755863552707
0.00380658256327457
0.00345469052300725
0.00307535961989378
0.00267310803358276
0.00225310808378018
0.00182052903863181
0.0013812974836673
0.000945261776880539
0.00052491168605344
0.000142675136567184
0.00529551486633783
0.00522530228107042
0.00511474596591851
0.00496172716811701
0.00476779606067756
0.00453591403447562
0.00426847800611594
0.00396719909901008
0.00363399877437399
0.00327173274053986
0.00288445210447341
0.00247736162045902
0.00205644361835766
0.00162794016309721
0.00119966858054664
0.00078527245821758
0.000403847334363665
7.89743362010611e-05
0.00521308950631588
0.00514470963514198
0.00530897756186243
0.00525088841564174
0.00515495302275905
0.00501805363353158
0.00484107488492056
0.00462735923837
0.00437888323775363
0.0040967341602002
0.00378215650109996
0.00343731848917666
0.00306561395108869
0.00267170708767838
0.00226144910892058
0.00184151318912845
0.00141920424875851
0.00100492533901314
0.000616644755460893
0.000275606501468587
2.53535176512501e-05
0.00134465406290161
0.000474176486256208
0.0019697819512995
0.00134505101209262
0.000476210700817943
0.0024715595517578
0.00196837634780709
0.00134303313054851
0.000473685874594208
0.00290066533472581
0.00246872335994779
0.00195915313394962
0.0013324799891513
0.00046512238292139
0.00327671806069118
0.00289588122651513
0.00245376203168118
0.00193875061875451
0.00130991667198572
0.000452241194116561
0.00360908691347165
0.00326962775969663
0.0028757251342273
0.00242464871265323
0.00190490154759566
0.00127664304402445
0.00043699260586655
0.00390341044122014
0.00360010081909713
0.00324453475614601
0.00283880514508457
0.00238065673670897
0.00185833960000352
0.00123551339242653
0.000419997455412737
0.00416375406102695
0.00389319636211292
0.0035709262945164
0.00320063683247223
0.00278555113367602
0.00232278367993865
0.00180092194252875
0.00118797733421457
0.000400924764396799
0.00439313612059455
0.00415272736381619
0.00386102485715696
0.00352125804319225
0.00313914882021889
0.00271743835747109
0.00225228603436689
0.00173358109440763
0.00113391065972016
0.000379288569221007
0.00459378443694071
0.00438137458306835
0.00411832499206563
0.00380682149989436
0.00345277317701817
0.00306188840390821
0.00263546075892972
0.00216954060754606
0.00165616759149119
0.00107260777810827
0.000354779805896182
0.00476743082409709
0.00458112095985311
0.00434506239487092
0.00406044648034826
0.00373247159702111
0.00336747872728864
0.00296970651305398
0.00253960873417908
0.00207418152437242
0.00156807417912106
0.00100342006621973
0.000327230405412069
0.00491557342877255
0.00475353311746987
0.00454286935741101
0.00428391795316194
0.00398100810452444
0.00364008474529006
0.00326616004372063
0.00286232462941795
0.0024292737946989
0.00196557429965235
0.00146867333358871
0.000925901177632898
0.000296583363817362
0.00503963328091711
0.00489997583003884
0.00471306459643633
0.00447849652586678
0.00419977175599471
0.00388216534384831
0.00353043761942489
0.00314837136452943
0.00273892216700432
0.00230370992616821
0.00184309795591414
0.00135746745458046
0.000839786499134698
0.000262852489271502
0.00514099991349306
0.00502173594415842
0.00485681824014034
0.00464521187416281
0.00438967439029744
0.0040947714739045
0.0037647017156647
0.00340299218062852
0.00301312551649523
0.00259862063124804
0.0021622639618991
0.00170628861521627
0.00123413378858842