/*--------------------------------*- C++ -*----------------------------------*\
  =========                 |
  \\      /  F ield         | OpenFOAM: The Open Source CFD Toolbox
   \\    /   O peration     | Website:  https://openfoam.org
    \\  /    A nd           | Version:  12
     \\/     M anipulation  |
\*---------------------------------------------------------------------------*/
/*   Windows 32 and 64 bit porting by blueCAPE: http://www.bluecape.com.pt   *\
|  Based on Windows porting (2.0.x v4) by Symscape: http://www.symscape.com   |
\*---------------------------------------------------------------------------*/
FoamFile
{
    format      ascii;
    class       volScalarField;
    location    "100";
    object      nut;
}
// * * * * * * * * * * * * * * * * * * * * * * * * * * * * * * * * * * * * * //

dimensions      [0 2 -1 0 0 0 0];

internalField   nonuniform List<scalar> 
10123
(
0.000105124973240681
0.000105591434085303
0.000866400975541291
0.000107190984297458
0.000105943162283332
0.000870757082799461
0.000107665046933653
0.002040635506667
0.000879455633111458
0.000109656973051103
0.000106209571960948
0.000874137106958932
0.000108021788773949
0.00205107020437234
0.000883873692975497
0.000110142908503133
0.00330850877792009
0.00205769913869303
0.000895703606200772
0.000111124765896958
0.000106411301469252
0.000876732760082103
0.000108291737362076
0.00205905199715511
0.000887330974320406
0.000110509243175172
0.00332589762686772
0.00206822222174762
0.00090021446933414
0.000111619667362655
0.00451890338897096
0.00332147106713977
0.00207716845216646
0.000905782857549296
0.000110859756549654
0.00010656447597289
0.000878729590222661
0.000108496191922846
0.00206517854443443
0.000889980548972007
0.000110785959934396
0.00333910715585013
0.00207628122760237
0.000903789936627569
0.00011199278123745
0.00454338470104977
0.00333892711712703
0.00208782324283924
0.000910362365298242
0.000111356349566257
0.00560852883854782
0.00452377230053823
0.00333170942410917
0.00208737513421864
0.000904560451794415
0.00010935246074332
0.000106681179815971
0.000880278984436109
0.000108651516743566
0.00206988332276436
0.000892011230096858
0.000110995766339567
0.00334919680456351
0.00208246215155049
0.000906524836444944
0.000112274618083076
0.00456195942102001
0.00335218939101986
0.00209601473233575
0.000914014275880504
0.00011173108219231
0.0056398713792015
0.00454827555931085
0.00334928181286992
0.00209812354130335
0.000909144848744915
0.000109841750397904
0.00656003514388777
0.00560506412353404
0.00451952893776467
0.00333003696823316
0.00208081045512649
0.000893969720921444
0.00010736224506807
0.000106771115082371
0.000881491035488746
0.00010876990726218
0.00207350809259675
0.00089358279237744
0.000111155198631886
0.00335690155185983
0.00208720391059066
0.000908611809065308
0.000112488661266494
0.00457609394468827
0.00336231420295875
0.00210229903333265
0.000916810011187197
0.000112014591214089
0.00566365710142615
0.00456686432133722
0.00336265458954032
0.00210641720687816
0.000912832416110809
0.000110220644872483
0.00659782845399036
0.00563637764889256
0.00454410541593259
0.00334768060968082
0.00209155573324313
0.000898494953979292
0.000107844361732424
0.00737796877462532
0.00655079020418723
0.00558640092568205
0.0044999442781607
0.00331002978147954
0.00205847840608378
0.000878382204272737
0.000105194582212991
0.000106841814476447
0.000882451831585393
0.000108860783252131
0.0020763195515192
0.000894811833329884
0.000111276889254562
0.0033627899527056
0.00209085461377645
0.000910222576239211
0.000112651664218915
0.00458682711324699
0.00337004208439091
0.00210711708757909
0.000918944034455049
0.000112229977662776
0.00568171183495908
0.00458100301637929
0.00337286815717268
0.00211278658648018
0.000915648739442007
0.000110505708985347
0.00662651866781986
0.00566013623024633
0.00456276676837633
0.00336113646358144
0.00209987605795185
0.000902191486766215
0.000108220276146708
0.00742171391815931
0.00658851638396344
0.0056177350073384
0.00452453757133507
0.00332763114470926
0.00206911852264455
0.000882820567801174
0.000105669361284292
0.00807546815215535
0.00736570907818572
0.00652126976482217
0.00554865820228158
0.0044608787726347
0.00327142455986501
0.00202501155373192
0.000860116976389915
0.00010278838588676
0.000106898991193414
0.000883228741460027
0.000108933115908202
0.00207852573082044
0.000895787161049119
0.000111370339834866
0.00336730945876632
0.00209368547855126
0.000911483339357359
0.000112776140497342
0.00459496706906211
0.00337594603010046
0.00211082487147405
0.000920591370358249
0.000112394038504171
0.00569535895560479
0.00459173556040558
0.00338066500934246
0.00211767080334166
0.000917791318745917
0.000110720670895012
0.00664825646191412
0.0056781619663849
0.00457696596863495
0.00337142379892592
0.00210627009033349
0.000905016155828811
0.000108507421064358
0.00745492822746341
0.00661714900544088
0.00564152458468515
0.00454324013920849
0.00334107884209608
0.00207738733069381
0.000886473280961746
0.000106040363118607
0.00812462595578245
0.00740936533763769
0.00655897622723072
0.00557994153601232
0.00448535869990203
0.00328885038653103
0.00203547049820369
0.000864458246574142
0.000103253469625991
0.00866719768921939
0.00806177295091846
0.00732936911904997
0.00646877637244419
0.00548951096256402
0.00440156747908207
0.00321679908706022
0.00198319075559951
0.000839243502964856
0.000100008308429599
0.000106947223525725
0.000883873324549586
0.000108991252940992
0.00208028815292922
0.00089657730295041
0.000111444698236285
0.00337081067176053
0.00209590720503318
0.000912485890083914
0.000112872242751095
0.00460115216271837
0.00338047646734835
0.00211370064865716
0.000921881097326544
0.000112519510489983
0.00570564088529722
0.00459987295861477
0.00338662255717001
0.00212142972499229
0.00091944659633357
0.000110883651514269
0.00666462964048366
0.00569178319935509
0.00458774834287155
0.00337928143477439
0.0021111708846357
0.000907151095119422
0.000108723904393264
0.00748006059792129
0.0066388342389677
0.00565958036418057
0.00455748447472661
0.0033513695983605
0.00208374730813096
0.000889280731617692
0.000106324259465809
0.0081619553856792
0.00744250578596831
0.00658761000033461
0.00560372372260984
0.0045039991724342
0.00330218018579592
0.00204361480980875
0.000868044350157888
0.000103617265645699
0.00872121505498518
0.00811083033486342
0.00737298515637524
0.00650637319143601
0.00552059060297535
0.00442577123881582
0.00323392714426548
0.00199341455684143
0.000843469866912956
0.000100462193755277
0.00916663892308336
0.00865263562590865
0.00802128701725529
0.00726616139939327
0.00639177495497566
0.00540802516956876
0.00432243862276
0.00314751604449782
0.00193315577394411
0.000815006526240734
9.67557458106708e-05
0.000106989791820802
0.000884423113920877
0.000109040819423016
0.00208173156863671
0.000897234091010766
0.000111504423923538
0.00337356600648161
0.00209768275153274
0.000913299385122456
0.000112947880132632
0.0046058840205855
0.00338398586632704
0.00211595899057091
0.000922907301696325
0.000112616240947724
0.00571338401493918
0.0046060549947587
0.00339119523158113
0.00212434584089766
0.000920743395398813
0.000111008241034254
0.00667689949748289
0.00570204334773085
0.00459592662702048
0.00338528782896525
0.00211494158667351
0.00090878490326718
0.000108887140691551
0.00749894008986931
0.00665516350147282
0.0056732307161796
0.00456830961533915
0.00335923306466704
0.00208861601811629
0.000891403298010396
0.000106538373191236
0.00819017445314295
0.00746757285027969
0.00660930474968226
0.00562179179487694
0.00451821009581667
0.00331238715012491
0.00204988588808229
0.000870800599729489
0.000103895875997972
0.00876224216868425
0.0081480779630554
0.00740611334476973
0.00653495971483132
0.00554424651504346
0.00444421527815009
0.00324703552492764
0.00200138191222902
0.000846970705974807
0.000100817018604952
0.00922496005436997
0.00870654373120313
0.00807029714431284
0.00730962570188515
0.00642907711964348
0.00543870464330644
0.00434619910732651
0.00316423859508319
0.00194309447544577
0.000819091157129199
9.71946647671245e-05
0.009585628354431
0.00915131775038074
0.00860932728264835
0.00795033042563
0.00717445636953124
0.00628920127843403
0.00530307740860438
0.0042229129002257
0.00306291253362301
0.00187369729752016
0.000786563516975326
9.29570419036813e-05
0.000107029001712383
0.000884915891294462
0.0001090837415504
0.00208295284913208
0.000897797290559473
0.000111555303531219
0.00337578503923585
0.00209913743987398
0.000913976294978437
0.000113008820442702
0.00460955266512256
0.00338674774120644
0.0021177648805153
0.00092374006590401
0.000112692459603657
0.00571924084963264
0.00461078393349205
0.0033947383814831
0.00212663674552754
0.000921776391044739
0.000111104332041617
0.00668607253199892
0.00570976948308448
0.00460214211500916
0.00338989958814561
0.00211786661554881
0.000910061658636939
0.000109010676022069
0.00751302941211301
0.00666739845277442
0.0056835182404581
0.00457652591911941
0.00336524500219822
0.00209235414766237
0.000893027367415083
0.0001067000142464
0.00821133072978861
0.00748639891434773
0.00662565018528607
0.00563546431215469
0.00452901792335614
0.00332018657543704
0.00205468441971391
0.000872880493291126
0.000104106218669793
0.0087932359607324
0.00817622565521951
0.00743118223645608
0.00655664136327465
0.00556223788601749
0.00445828563512482
0.00325707574168638
0.00200751603907694
0.000849657734167755
0.000101088784746003
0.00926926746300131
0.0087474836362574
0.00810752974999245
0.00734268033845486
0.00645747503953966
0.00546207380877606
0.00436430960505736
0.00317703493584954
0.00195084615446847
0.000822491905164575
9.7538544339387e-05
0.0096477045794856
0.00920952039002514
0.00866318580808926
0.00799915945410077
0.00721754360085758
0.00632596915770095
0.0053331431955854
0.00424606574096471
0.00307912636298162
0.00188328220426584
0.000790497630694811
9.33784662425429e-05
0.00993462667731937
0.0095695449341751
0.00910577563600041
0.00853243349022642
0.00784665147968523
0.00705302258847001
0.00615907451774602
0.00517240218314778
0.0041009041564563
0.0029608830933036
0.0018030308038859
0.00075313228157182
8.8553652385149e-05
0.000107066175261994
0.00088536663413524
0.000109123834009569
0.00208401341528319
0.00089829770540776
0.000111599507681109
0.00337762687912213
0.00210036670980661
0.000914557725224625
0.000113060278156527
0.00461245748933247
0.00338897233673037
0.00211924496305564
0.000924433466452357
0.000112753954255124
0.00572371930369342
0.00461445006243655
0.00339752747054423
0.00212846919088713
0.000922615193566606
0.000111179940040422
0.00669294337468169
0.00571561292662684
0.00460689820044157
0.00339347406351344
0.00212016488617971
0.000911081935530468
0.00010910482062744
0.00752350014695207
0.00667654438910775
0.00569126930922164
0.00458277395299908
0.00336986142306581
0.00209525009497011
0.00089428925809315
0.000106822241629385
0.0082270690600356
0.00750044644756077
0.0066379051412002
0.00564577783814745
0.00453722571545728
0.00332614712472299
0.00205836436839681
0.000874468544477309
0.000104265066194763
0.00881643930967736
0.00819732413435289
0.00745002130053685
0.00657299436881022
0.00557586553945614
0.0044689910917146
0.00326474580474146
0.00201220418869941
0.000851680630356805
0.000101293960559131
0.00930272589439203
0.00877840217937747
0.00813567976445389
0.00736772126324231
0.00647903895894387
0.00547986102076272
0.00437812899966523
0.00318683381708563
0.0019568108619618
0.000825098781118293
9.78021016858246e-05
0.00969488105081687
0.00925373495034429
0.00870411148565304
0.00803630169159405
0.00725035429586225
0.00635398485671534
0.00535605244819223
0.00426371023902591
0.00309152845994064
0.00189076665897618
0.000793787803181579
9.37093794206413e-05
0.00999992457883649
0.0096314919465567
0.00916392603447124
0.00858608774587145
0.00789502987123216
0.00709544134082786
0.00619504282890692
0.00520163300429901
0.00412328478597498
0.00297648208170025
0.00181220452639483
0.000756874655633117
8.89542781671873e-05
0.0102230217585708
0.00991779732660209
0.00952208903705177
0.00902405517941366
0.00841885490351051
0.00770877862761975
0.00689951037484761
0.00599798264973481
0.00501242719009785
0.00395296139232502
0.00283824748075183
0.00171883179518224
0.000713829898821137
8.3485914008624e-05
0.000107102561492515
0.000885781970693618
0.00010916187295049
0.00208497259554285
0.000898756976562624
0.000111640790575847
0.00337920977324151
0.00210143985541549
0.000915074717389995
0.000113106106711429
0.00461482544675987
0.00339081912365694
0.00212049593354392
0.000925029908225567
0.000112805844248379
0.00572720755173106
0.00461735294299904
0.00339977415334696
0.00212997135576884
0.000923313861281732
0.00011124114113811
0.00669813101217939
0.00572008033971862
0.00461058608396623
0.00339628818865432
0.00212200323046995
0.000911911095051912
0.0001091781811871
0.00753127923497984
0.00668339441941249
0.00569713437660122
0.00458755704540905
0.003373439533924
0.00209752443906955
0.000895280445633369
0.000106915161847969
0.00823871035488467
0.00751088523029049
0.00664707213799431
0.00565355495579469
0.00454346978922588
0.00333072170504512
0.00206120882572069
0.000875700266233245
0.000104385119543237
0.00883365931932532
0.00821301767886503
0.00746408874276531
0.00658526820966558
0.00558615400298704
0.0044771226385946
0.00327060340110139
0.00201579311174875
0.00085322227285142
0.000101448814493778
0.00932774991456323
0.00880154508599691
0.00815679412643661
0.00738656126032941
0.00649532171059996
0.00549334332331751
0.00438864402968793
0.00319431445032352
0.00196136071965146
0.000827053664093106
9.80014050647326e-05
0.00973049983955
0.00928711422679965
0.00873503547150291
0.0080644158794345
0.00727524197407568
0.00637527842236893
0.00537349690441148
0.00427717249213267
0.00310102008487808
0.00189652351258946
0.00079630184702856
9.39631195699157e-05
0.010049571963273
0.00967856908136188
0.0092081266696789
0.0086269102845761
0.00793187909250936
0.00712777478502966
0.00622246248616422
0.00522390602613159
0.00414033385615124
0.00298840728331305
0.00181937593211924
0.000760043513371093
8.92697884283146e-05
0.0102910303872603
0.0099829547540314
0.00958397926534862
0.00908198030457848
0.00847199171855246
0.00775635913914557
0.00694093793201376
0.00603287121930883
0.00504059409879762
0.00397440050388
0.00285310332464008
0.0017275247888697
0.000717372076078786
8.38628157505316e-05
0.0104593020322765
0.0102055023913954
0.00986869388634226
0.00943632914210862
0.00890217495119879
0.00826680045035119
0.00753421133904127
0.0067098503205004
0.00580113895463617
0.00481826855383123
0.0037742470918901
0.00269060678324796
0.00161789205117726
0.000667283373743126
7.75924715202417e-05
0.000107137864756775
0.000886187230330529
0.000109198864679822
0.0020858748730445
0.000899188707756037
0.000111679934142523
0.00338062102519911
0.00210241130659573
0.000915550554903121
0.000113148263384393
0.00461682584144651
0.00339240685336923
0.00212159007751683
0.000925561576686643
0.000112851939499526
0.00573000049334917
0.00461971963530058
0.00340163922674975
0.00213124139372953
0.00092391528455802
0.000111292694495938
0.00670211084691615
0.00572356014767141
0.00461350628121776
0.00339855486213988
0.00212351002846934
0.00091260244523789
0.000109237142193147
0.00753708854387163
0.00668856614391757
0.00570161960353656
0.00459126663916786
0.00337625601143283
0.00209934256743182
0.00089607876700839
0.000106987479133786
0.00824730118858862
0.00751864001142554
0.0066539421735799
0.00565944372196523
0.00454825087435693
0.00333426539075523
0.00206343396400385
0.000876671940920155
0.000104476434815456
0.0088463508251005
0.0082246250910028
0.00747455028556584
0.00659445885372982
0.00559391776204932
0.0044833085648567
0.00327509405700194
0.00201856174913747
0.000854415737923922
0.000101565896147112
0.00934628925255041
0.00881871879280117
0.00817251185696437
0.00740064643876966
0.00650755605305066
0.00550352758829982
0.00439662930383957
0.00320002106580887
0.00196483514188903
0.000828538795285462
9.81516761082269e-05
0.00975712341338242
0.00931207515575211
0.00875819893173152
0.00808552954693487
0.00729399055173524
0.00639137154857156
0.00538672378818317
0.00428741272567433
0.00310825869455216
0.00190090737846876
0.000798175647321199
9.41543125243509e-05
0.0100870573046823
0.00971410429997847
0.00924151395146644
0.00865779320986791
0.00795980894993384
0.00715232660787735
0.00624331556939834
0.00524086774707186
0.00415333699822787
0.00299752717188572
0.00182488760461505
0.000762463941793252
8.95122029816411e-05
0.0103427695236233
0.0100324956740688
0.00963104109460773
0.00912606585829687
0.00851247638644556
0.00779263924112369
0.00697253540502025
0.00605947264191607
0.00506205194358666
0.00399072424194776
0.00286446247981642
0.00173434122033586
0.000720398479287418
8.41615536035115e-05
0.0105295376533338
0.0102733596259237
0.00993378865976352
0.00949797401860291
0.0089595213628755
0.00831901723093783
0.00758061134285022
0.00674994515984247
0.00583465346950123
0.00484513342082709
0.00379456579196314
0.00270459474451186
0.00162604062078433
0.000670616233807916
7.79358908242083e-05
0.0106510435765554
0.0104411682921235
0.010155023244069
0.00977955605214299
0.00930746238345123
0.00873797115387476
0.00807367176177058
0.00731852450339465
0.00647839846431637
0.00556243481074498
0.00458354862463987
0.00355824596646792
0.00251170139505522
0.00149521137456811
0.000611040274890195
7.04774784784279e-05
0.000107171552793094
0.000886573753252232
0.000109234656913737
0.00208671983592141
0.000899603028365757
0.000111717725573778
0.00338192265364134
0.00210331825233209
0.000916000086746393
0.000113188155421522
0.00461858396467277
0.00339382338051312
0.00212258086054862
0.000926051450265564
0.000112894208452508
0.00573231792735241
0.00462171963401128
0.00340324287216527
0.00213235301111643
0.000924451926151341
0.00011133803298535
0.00670524236552889
0.0057263466059326
0.00461588672622465
0.00340043608698529
0.00212478384364369
0.000913197170097267
0.00010928657885812
0.00754148513046391
0.00669253380614507
0.00570511374344476
0.00459420377696962
0.00337852367718081
0.00210083205217729
0.000896746415256462
0.000107045573736267
0.00825365872438851
0.0075244316116901
0.00665913153014973
0.00566394896607422
0.00455195874256174
0.00333705280592686
0.00206520749211989
0.000877455260188448
0.000104547588853503
0.00885566589652532
0.0082331906391267
0.00748232772271262
0.00660135293803341
0.0055997994466878
0.0044880440511486
0.00327856755554363
0.00202072433382407
0.00085535581588746
0.000101654944721738
0.00935991465625409
0.00883137506770578
0.0081841469480089
0.00741113377424785
0.00651672615782202
0.0055112155357235
0.00440270111783926
0.00320438972078997
0.00196750882732898
0.000829686775505113
9.82647136642439e-05
0.00977682422182267
0.00933056639132337
0.00877540232035656
0.00810126743221132
0.00730802505005914
0.00640347330068207
0.00539671688675064
0.00429518490065097
0.0031137725709654
0.00190424780795808
0.000799594378963356
9.42983262673471e-05
0.0101150676904861
0.00974066179409159
0.00926649946716924
0.00868095600938673
0.00798081309042802
0.00717084202232883
0.00625908489462416
0.00525372897685506
0.0041632224176099
0.00300447440026127
0.001829076139738
0.000764257239531887
8.96948396636948e-05
0.0103818442905628
0.0100698928938954
0.00966658543377931
0.00915940696205822
0.00854314646496811
0.00782016985448896
0.00699654664175791
0.00607970991349503
0.00507839101913862
0.00400316773493248
0.00287314796815285
0.00173957942482769
0.00072270256981621
8.4391323377769e-05
0.010583017115168
0.0103249858448741
0.00998331155890808
0.00954490868896964
0.00900322732229997
0.00835884552789142
0.00761601694260906
0.00678053641150619
0.00586020694333627
0.00486559317918299
0.00381003187526097
0.00271529752918604
0.00163245733170802
0.000673513653073641
7.82167548838332e-05
0.0107231281716009
0.0105112476554258
0.0102228113697755
0.00984438664586222
0.00936847281839216
0.00879428450456304
0.00812452715964166
0.00736334072484684
0.00651680129208959
0.00559426714002297
0.00460886192348452
0.0035772394236753
0.00252468971114128
0.00150273680092358
0.000613907624725025
7.07056662022629e-05
0.0108050916661829
0.0106323715480213
0.0103895790397017
0.0100631133829518
0.00964485073319129
0.00913293776306237
0.00852873976252905
0.00783483831796287
0.00705551634644172
0.00619813631071111
0.00527427010536451
0.00430002975464124
0.00329609236598549
0.00229235799639509
0.00134254861204042
0.000540298523982428
6.26868004870005e-05
0.000107205770442253
0.000886933106132284
0.000109268161636428
0.00208752416824629
0.000900003099906358
0.000111753956876717
0.00338315013913033
0.0021041750898082
0.000916431742129659
0.000113226430252368
0.00462018599127676
0.00339512957006979
0.0021235037720743
0.000926514775225611
0.00011293410320671
0.00573432074603279
0.00462347714624338
0.00340467297999965
0.00213335944181084
0.000924946305922719
0.000111379383673008
0.00670779320478895
0.00572865906884891
0.00461789760889381
0.00340205304847307
0.00212589865652096
0.00091372684416135
0.000109329720609702
0.00754488806061205
0.00669565606665989
0.00570791136395895
0.0045965970692562
0.00338040468142144
0.00210209014499444
0.00089731945172585
0.000107094028923255
0.0082584116109887
0.00752881442259991
0.00666311381890233
0.0056674590271324
0.00455489348854896
0.00333929524017385
0.00206665852236412
0.000878104120153885
0.000104605003376106
0.00886250689501429
0.0082395295038849
0.00748814014489976
0.00660656405775529
0.00560430034438401
0.00449171486428465
0.00328129554551768
0.00202244442689698
0.000856113076634975
0.000101724238879342
0.00936987325805518
0.00884066456666103
0.00819274021564879
0.0074189392307757
0.00652361049108725
0.00551704066448378
0.00440734583875103
0.00320776329110118
0.00196959104721772
0.00083058974809244
9.83505716268932e-05
0.00979127343198623
0.00934415595224483
0.00878809180367153
0.00811293307061275
0.0073184873402553
0.00641255029090305
0.00540426037954654
0.00430108968068373
0.00311798604412529
0.00190681163657601
0.000800691723446826
9.44069801303194e-05
0.0101357787958927
0.00976031257769272
0.00928502513470542
0.00869818288290446
0.00799649133025078
0.00718471628282419
0.00627094890314447
0.00526344443201685
0.00417071890148343
0.00300975794330645
0.0018322612103264
0.000765609507938358
8.98320866181345e-05
0.0104110406240807
0.0100978340735865
0.0096931702199897
0.00918439145622605
0.0085661831989417
0.00784089869264987
0.0070146684452516
0.00609501798107635
0.00509077762019441
0.00401262094468452
0.00287975717698
0.00174355248566529
0.000724407021840094
8.45641903308738e-05
0.0106234250550162
0.0103639678103926
0.0100207178382612
0.00958040109769738
0.00903632873615591
0.00838905584199884
0.00764290767685648
0.00680379457728634
0.00587964936842517
0.00488116869962385
0.00382181525237276
0.0027234794113971
0.00163738741628377
0.000675703672062521
7.84332358874564e-05
0.0107780458615322
0.0105646090839982
0.0102744162425871
0.00989377051296645
0.00941498930059998
0.00883725272856195
0.00816334803485945
0.00739755328855857
0.00654610603357589
0.00561853545738587
0.00462813561269249
0.00359169898820018
0.00253464378999797
0.00150871740222761
0.000616653532651314
7.09732284509023e-05
0.0108787178810744
0.010704307664425
0.0104595883606061
0.010130620079812
0.00970899727810253
0.00919281289085847
0.00858352381680633
0.0078838695728977
0.00709832616274819
0.00623447052288335
0.00530409925309903
0.00432352534519615
0.00331355653209689
0.00230419950973923
0.00134926035101629
0.000541876734529234
6.35958856097381e-05
0.0107106773602
0.0109277384406154
0.0107859905185261
0.0105799071749673
0.0102954496759681
0.00992359905363743
0.00946165560700938
0.00890993121098617
0.0082697144501022
0.00754374491235298
0.00673755319824088
0.00586061278580734
0.00492725586129326
0.00395715096714632
0.00297573114731211
0.00201925315430971
0.00114692601232463
0.000442520339117531
3.39022187198643e-05
0.000107247387483503
0.000887269992068373
0.000109302847354369
0.00208829241704307
0.000900395878363917
0.000111787437890627
0.0033843202882738
0.00210499054439698
0.000916853360910752
0.000113262750665664
0.00462168802797393
0.00339636074725754
0.00212437660170694
0.000926960357710559
0.000112972245849876
0.00573612160558482
0.00462507882566811
0.00340598977519769
0.00213429571057185
0.000925413356079099
0.00011141755427187
0.00670995870406666
0.0057306577971139
0.00461966322610104
0.00340349371616507
0.00212690739156656
0.000914213341713154
0.00010936919784681
0.0075476100569506
0.00669819989577759
0.00571023212892024
0.00459861730889351
0.00338202033406744
0.00210319006634899
0.000897828212428521
0.000107136166801186
0.00826203512195345
0.00753220716025757
0.00666624766268586
0.00567026853350473
0.00455728329781387
0.00334115353332593
0.0020678819311743
0.000878654614479115
0.000104652797686892
0.00886756747824355
0.00824426854715829
0.00749254058482587
0.00661056449987521
0.00560780664531835
0.00449461827141415
0.00328348700842798
0.00202384709481765
0.000856741022259655
0.000101780121808967
0.00937714067853042
0.0088474868165865
0.00819910459051858
0.00742477820726809
0.00652881721829706
0.00552149781303714
0.00441094288146676
0.0032104078106234
0.00197124146394809
0.000831316307391342
9.84173207155656e-05
0.0098017992348284
0.00935408837478796
0.00879741446226726
0.00812156021593171
0.00732628275918301
0.00641936815708166
0.00540997465892521
0.00430560162325374
0.00312123275466444
0.00190880311736676
0.000801554048566665
9.44894153878001e-05
0.0101509464493949
0.00977472482286676
0.00929865296428262
0.00871090808701327
0.00800812901106427
0.00719506912107973
0.00627985063002101
0.0052707757220053
0.00417640765124085
0.00301378726936553
0.00183470194460765
0.000766651165101799
8.99355477617742e-05
0.0104326195684259
0.0101184931199555
0.00971285901962998
0.00920294329673347
0.00858334224346352
0.00785639019182946
0.00702825767114268
0.00610653718400512
0.00510013087762692
0.00401978239796465
0.00288477537822299
0.00174656703511809
0.000725689963868886
8.46936911180164e-05
0.0106536224817772
0.0103930921230852
0.0100486879217222
0.00960698356032282
0.00906117127346782
0.00841177698026047
0.00766317380526921
0.00682135685021649
0.00589435757886551
0.00489297244284965
0.00383076022454991
0.00272969994932192
0.00164112177651734
0.000677314940563017
7.85952040922075e-05
0.0108195590067364
0.0106049204373384
0.0103134065019402
0.00993111878027443
0.0094502168174247
0.00886983760379613
0.00819282309707997
0.00742355446427296
0.00656839311881499
0.0056370003474644
0.00464280491944564
0.00360271590133592
0.00254225542699918
0.00151331504083963
0.000618750890693953
7.11802697609915e-05
0.0109348191816382
0.0107591053793753
0.0105129262643208
0.0101820746522301
0.00975792804458086
0.0092385173981842
0.00862536060808635
0.00792131797023154
0.00713101571833363
0.00626219825367671
0.00532683801762409
0.0043414173125461
0.00332686077352514
0.00231330858907681
0.00135475161109727
0.000544480761686707
6.43809901898683e-05
0.0110025354757473
0.0108594590910832
0.0106517876340533
0.0103651655221404
0.00999037830682302
0.00952457653333786
0.0089681253056043
0.00832245148037748
0.00759046976007646
0.00677791568867242
0.0058944878573159
0.0049547497279538
0.00397854684116405
0.00299144504387125
0.00202975804919597
0.00115237880857314
0.000445532155908386
3.45319506923109e-05
0.0108323922592964
0.0106918180322703
0.0110243915058431
0.0109083062299434
0.0107328920297521
0.0104840420006262
0.0101520449317282
0.00973321781361129
0.00922702323920452
0.00863357616591606
0.0079541162271552
0.00719237132693452
0.00635565729966869
0.0054557889492524
0.00450998052016031
0.00354161030818041
0.00258169638119694
0.00167560969111725
0.000890259544866844
0.000296013311923297
1.0645236087872e-05
0.000887586024743322
0.000109345042966388
0.00208902644719584
0.00090074083111102
0.000111821709917921
0.00338544815083897
0.00210576868548581
0.000917276445352221
0.000113296360600504
0.00462312618712522
0.00339753556450917
0.00212520735626041
0.000927397443568302
0.000113008197908688
0.00573779822963408
0.00462658137823444
0.00340722920738028
0.00213518020548507
0.000925863110193445
0.000111454921057924
0.00671187898887936
0.00573245597976546
0.00462127053962491
0.00340481801173364
0.00212784473878702
0.00091467092367325
0.000109406544145294
0.00754987873616493
0.00670036026362961
0.00571223650656395
0.00460038902619619
0.00338345842483678
0.00210418446412236
0.000898297350485526
0.000107174468952899
0.00826488184281733
0.00753492143303898
0.00666880022853583
0.00567259741978729
0.00455929878977484
0.00334274814286505
0.00206895015677841
0.000879142197628929
0.000104694591957527
0.00887137250480738
0.00824788177487495
0.00749594765518219
0.00661371242808021
0.00561061178364752
0.00449698050140286
0.00328530047025008
0.00202502584587615
0.00085727919765183
0.000101826563078906
0.00938246818483443
0.00885253377098061
0.00820386562845783
0.00742920162985702
0.00653281524818458
0.00552496868395497
0.00441378482894333
0.00321252792150298
0.00197258376570381
0.000831918709719986
9.84711403067827e-05
0.00980944111067414
0.00936133694776773
0.00880426721728057
0.00812795730681834
0.00733211953734666
0.00642452614210666
0.00541434490693348
0.00430909119592724
0.00312377174340692
0.00191037845470995
0.000802247149307499
9.45532920800643e-05
0.0101619679384545
0.00978522383265631
0.0093086233402512
0.00872027067445794
0.00801674705522899
0.00720278948604075
0.00628653794425584
0.00527632606802869
0.00418074823652825
0.00301688494144918
0.00183659468684225
0.000767469433010571
9.00139996158979e-05
0.0104484067302671
0.0101336226842719
0.00972731348778338
0.00921661132227335
0.00859603694302957
0.00786790290299288
0.00703840449589661
0.00611518043617811
0.00510718454546798
0.00402520959649671
0.00288859460612617
0.001748871864363
0.000726679413835535
8.47911520281634e-05
0.0106759365273689
0.0104146169588198
0.0100693875298382
0.00962670016167997
0.00907964716183235
0.00842872375085611
0.00767833365836755
0.00683453292504192
0.00590542499913301
0.00490188074508568