/*--------------------------------*- C++ -*----------------------------------*\
  =========                 |
  \\      /  F ield         | OpenFOAM: The Open Source CFD Toolbox
   \\    /   O peration     | Website:  https://openfoam.org
    \\  /    A nd           | Version:  12
     \\/     M anipulation  |
\*---------------------------------------------------------------------------*/
/*   Windows 32 and 64 bit porting by blueCAPE: http://www.bluecape.com.pt   *\
|  Based on Windows porting (2.0.x v4) by Symscape: http://www.symscape.com   |
\*---------------------------------------------------------------------------*/
FoamFile
{
    format      ascii;
    class       volScalarField;
    location    "100";
    object      p;
}
// * * * * * * * * * * * * * * * * * * * * * * * * * * * * * * * * * * * * * //

dimensions      [0 2 -2 0 0 0 0];

internalField   nonuniform List<scalar> 
10123
(
83333.3307131488
83333.3307433512
83333.3307143938
83333.330713151
83333.3307744565
83333.3307445763
83333.3307433015
83333.3307146473
83333.3307143266
83333.3307130744
83333.330806401
83333.3307756615
83333.3307743828
83333.3307449118
83333.3307444607
83333.3307431664
83333.3307115423
83333.3307144835
83333.3307142078
83333.3307128827
83333.3308391002
83333.3308075411
83333.3308063338
83333.330776024
83333.330775535
83333.330774217
83333.3307420272
83333.3307447118
83333.3307442866
83333.3307429185
83333.33070493
83333.3307114103
83333.3307142353
83333.3307139485
83333.330712558
83333.330872513
83333.3308401704
83333.3308390373
83333.3308078815
83333.3308074268
83333.3308061646
83333.3307732926
83333.3307758274
83333.3307753381
83333.3307739291
83333.3307357192
83333.3307418415
83333.3307444179
83333.3307439772
83333.3307425374
83333.3306949474
83333.3307048293
83333.330711054
83333.3307138119
83333.3307135093
83333.3307120738
83333.3309066008
83333.3308735233
83333.3308724496
83333.3308404778
83333.3308400636
83333.3308388674
83333.330805269
83333.3308077049
83333.3308072349
83333.3308058637
83333.3307672572
83333.3307731122
83333.3307755295
83333.3307750031
83333.3307735038
83333.3307261372
83333.3307355607
83333.3307414257
83333.3307439553
83333.3307434947
83333.3307420001
83333.330681958
83333.3306948939
83333.3307044521
83333.3307104809
83333.330713198
83333.3307128781
83333.3307114199
83333.3309413319
83333.3309075547
83333.3309065351
83333.3308737986
83333.3308734187
83333.3308722769
83333.3308379737
83333.3308403155
83333.3308398768
83333.3308385603
83333.3307994893
83333.3308051144
83333.3308074207
83333.3308068935
83333.3308054158
83333.3307580591
83333.3307671032
83333.3307726946
83333.3307750544
83333.3307744847
83333.3307729216
83333.3307136375
83333.3307260237
83333.3307351116
83333.3307408219
83333.3307433057
83333.3307428118
83333.3307412883
83333.3306663565
83333.3306819318
83333.3306945455
83333.330703777
83333.3307097156
83333.330712375
83333.3307120455
83333.3307105845
83333.3309766813
83333.3309422305
83333.3309412632
83333.3309077988
83333.3309074517
83333.3309063589
83333.3308713944
83333.3308736444
83333.3308732337
83333.330871965
83333.3308324342
83333.330837839
83333.3308400421
83333.3308395327
83333.3308380983
83333.3307906608
83333.3307993603
83333.3308047161
83333.3308069502
83333.3308063576
83333.3308048044
83333.3307460362
83333.3307579474
83333.3307666488
83333.3307720877
83333.3307743818
83333.3307737627
83333.3307721598
83333.3306986022
83333.330713553
83333.3307255922
83333.330734402
83333.330740027
83333.3307424442
83333.3307419289
83333.330740389
83333.3306484843
83333.3306663284
83333.3306816227
83333.3306938558
83333.33070292
83333.3307087427
83333.3307113282
83333.3307110082
83333.3307095518
83333.3310126292
83333.330977527
83333.33097661
83333.3309424418
83333.3309421282
83333.3309410838
83333.3309054861
83333.3309076501
83333.3309072663
83333.3309060426
83333.3308660789
83333.3308712702
83333.3308733796
83333.3308728873
83333.3308714929
83333.3308239571
83333.3308323252
83333.3308374581
83333.3308395788
83333.3308389902
83333.330837466
83333.3307790983
83333.3307905713
83333.3307989256
83333.3308041207
83333.3308062694
83333.330805612
83333.3308040092
83333.3307315528
83333.3307459526
83333.3307575036
83333.3307659353
83333.330771278
83333.330773492
83333.3307728397
83333.3307712062
83333.3306813554
83333.3306985153
83333.3307131528
83333.3307248631
83333.330733512
83333.3307390232
83333.3307413595
83333.3307408412
83333.330739291
83333.3306286196
83333.3306484372
83333.3306660511
83333.3306809938
83333.3306929839
83333.3307018545
83333.330707537
83333.3307100517
83333.330709766
83333.33070831
83333.3310491584
83333.331013424
83333.3310125554
83333.3309777035
83333.3309774235
83333.3309764274
83333.3309402114
83333.3309422965
83333.3309419402
83333.330940763
83333.3309003793
83333.3309053665
83333.3309073912
83333.3309069184
83333.3309055624
83333.3308579326
83333.3308659808
83333.3308709053
83333.3308729237
83333.3308723418
83333.3308708429
83333.3308128339
83333.330823885
83333.330831911
83333.3308368762
83333.3308388981
83333.3308382292
83333.3308366452
83333.3307651468
83333.3307790341
83333.3307901434
83333.3307982246
83333.3308033082
83333.3308053634
83333.3308046633
83333.3308030186
83333.3307149189
83333.3307314668
83333.3307455354
83333.3307567672
83333.3307650296
83333.3307702519
83333.3307723764
83333.3307717099
83333.3307700521
83333.3306621618
83333.3306812486
83333.3306981456
83333.3307124777
83333.3307239493
83333.3307324141
83333.3307377852
83333.3307400444
83333.3307395476
83333.3307379864
83333.3306069965
83333.3306285551
83333.3306481911
83333.330665521
83333.330680172
83333.3306918948
83333.3307005537
83333.3307060876
83333.330708549
83333.3307083086
83333.3307068524
83333.3310862524
83333.3310499043
83333.3310490822
83333.3310135661
83333.331013318
83333.3310123697
83333.3309755468
83333.3309775595
83333.3309772319
83333.3309761027
83333.3309352981
83333.3309400926
83333.3309420404
83333.3309415912
83333.3309402763
83333.3308925443
83333.3309002854
83333.3309050141
83333.3309069419
83333.3309063708
83333.3309048988
83333.3308472259
83333.330857869
83333.330865583
83333.3308703365
83333.3308722484
83333.3308715758
83333.3308700041
83333.3307993936
83333.3308127847
83333.330823475
83333.3308312266
83333.3308360694
83333.3308379841
83333.3308372616
83333.3308356278
83333.3307491065
83333.3307650812
83333.3307786282
83333.3307894164
83333.3307973177
83333.3308022706
83333.3308042283
83333.3308035034
83333.3308018274
83333.3306963872
83333.3307148125
83333.3307310769
83333.3307448445
83333.3307558325
83333.3307639095
83333.3307689875
83333.3307710285
83333.3307703713
83333.3307686914
83333.3306412456
83333.3306620318
83333.3306809115
83333.3306975582
83333.3307116025
83333.33072282
83333.3307310778
83333.3307363017
83333.3307385027
83333.3307380457
83333.3307364684
83333.3305838132
83333.330606931
83333.3306283521
83333.3306477685
83333.3306647919
83333.3306791252
83333.3306905683
83333.3306990031
83333.3307043972
83333.3307068206
83333.3307066446
83333.3307051793
83333.3311238947
83333.3310869532
83333.3310861738
83333.3310500152
83333.3310497969
83333.3310488936
83333.331011477
83333.3310134224
83333.3310131237
83333.3310120417
83333.330970813
83333.3309754265
83333.3309773044
83333.3309768816
83333.3309756107
83333.3309277558
83333.3309352043
83333.3309397487
83333.3309415964
83333.3309410411
83333.3309396043
83333.3308822331
83333.3308924827
83333.3308998988
83333.3309044574
83333.3309062738
83333.3309056044
83333.3309040483
83333.3308342734
83333.3308471832
83333.3308574725
83333.3308649158
83333.3308695406
83333.3308713349
83333.3308705921
83333.3308689685
83333.3307839243
83333.3307993417
83333.3308123922
83333.3308227627
83333.330830327
83333.3308350284
83333.3308368368
83333.3308360808
83333.3308344096
83333.3307312189
83333.3307490198
83333.3307646976
83333.3307779407
83333.3307884772
83333.3307961867
83333.3308009898
83333.3308028585
83333.3308021351
83333.3308004305
83333.3306761776
83333.3306962523
83333.3307144552
83333.3307304657
83333.3307439397
83333.3307546742
83333.3307625442
83333.330767475
83333.3307694523
83333.3307688228
83333.3307671176
83333.3306188138
83333.3306411144
83333.3306617512
83333.3306804219
83333.3306967649
83333.3307105039
83333.3307214495
83333.3307294889
83333.3307345756
83333.3307367372
83333.3307363235
83333.3307347328
83333.3305592732
83333.3305837654
83333.3306067881
83333.3306280361
83333.3306471615
83333.330663844
83333.3306778438
83333.3306889935
83333.3306972043
83333.3307024707
83333.3307048798
83333.3307047773
83333.33070332
83333.3311620696
83333.3311245558
83333.3311238143
83333.3310870383
83333.3310868454
83333.3310859828
83333.3310479908
83333.3310498721
83333.3310496003
83333.3310485629
83333.331006911
83333.3310113543
83333.3310131678
83333.331012772
83333.3310115451
83333.3309635462
83333.3309707172
83333.3309750884
83333.3309768645
83333.33097633
83333.3309749327
83333.3309178208
83333.3309276924
83333.3309348241
83333.3309392021
83333.3309409342
83333.3309402736
83333.3309387442
83333.3308697449
83333.3308821902
83333.3308920943
83333.3308992475
83333.3309036739
83333.3309053659
83333.33090461
83333.3309030002
83333.3308193509
83333.3308342262
83333.3308468001
83333.3308567758
83333.3308640285
83333.3308685038
83333.3308701811
83333.330869399
83333.330867731
83333.330766659
83333.3307838514
83333.3307989667
83333.3308117141
83333.330821828
83333.3308291938
83333.33083374
83333.3308354535
83333.3308346934
83333.330832987
83333.3307117021
83333.3307311008
83333.3307486664
83333.3307640828
83333.3307770243
83333.3307873034
83333.3307948037
83333.330799458
83333.33080126
83333.3308005548
83333.3307988214
83333.3306544887
83333.3306760419
83333.3306959631
83333.3307139336
83333.3307296324
83333.3307428019
83333.3307532673
83333.3307609232
83333.3307657182
83333.3307676522
83333.3307670532
83333.3307653313
83333.3305950513
83333.3306187132
83333.3306409034
83333.3306613565
83333.3306797388
83333.3306957508
83333.3307091649
83333.3307198259
83333.3307276493
83333.3307326131
83333.3307347558
83333.3307344083
83333.330732811
83333.3305335045
83333.3305592512
83333.3305837013
83333.3306065743
83333.3306275728
83333.3306463586
83333.3306626754
83333.330676324
83333.3306871713
83333.3306951627
83333.3307003179
83333.3307027388
83333.3307027313
83333.330701331
83333.3312007635
83333.3311626952
83333.3311619874
83333.3311246207
83333.3311244474
83333.3311236211
83333.331085078
83333.3310868959
83333.3310866467
83333.3310856502
83333.3310435834
83333.3310478659
83333.3310496179
83333.3310492472
83333.3310480628
83333.3309999048
83333.3310068125
83333.3310110208
83333.3310127312
83333.3310122206
83333.3310108625
83333.3309539671
83333.3309634786
83333.3309703403
83333.3309745498
83333.330976207
83333.3309755614
83333.3309740642
83333.3309057738
83333.330917773
83333.3309273073
83333.3309341865
83333.3309384296
83333.3309400328
83333.330939277
83333.3309376863
83333.3308553438
83333.3308696961
83333.3308818115
83333.3308914118
83333.3308983743
83333.3309026462
83333.3309042113
83333.3309034103
83333.3309017492
83333.3308026835
83333.3308192822
83333.3308338569
83333.3308461328
83333.3308558509
83333.3308629003
83333.330867215
83333.3308687923
83333.3308679992
83333.3308662899
83333.3307478103
83333.3307665529
83333.3307835026
83333.3307983551
83333.3308107962
83333.3308206491
83333.3308278035
83333.3308321981
83333.3308338427
83333.3308330957
83333.330831356
83333.3306907437
83333.3307115815
83333.3307308191
83333.3307481341
83333.3307632287
83333.3307758623
83333.3307858724
83333.3307931614
83333.3307976813
83333.3307994382
83333.3307987585
83333.3307970053
83333.3306315064
83333.3306543854
83333.3306758197
83333.3306955243
83333.3307131988
83333.3307285658
83333.330741415
83333.3307516025
83333.3307590492
83333.3307637249
83333.3307656362
83333.3307650925
83333.3307633526
83333.330570108
83333.3305949768
83333.3306185598
83333.3306406043
83333.3306608031
83333.3306788534
83333.3306945082
83333.3307075818
83333.3307179515
83333.3307255656
83333.3307304232
83333.3307325779
83333.3307323057
83333.330730749
83333.3305066245
83333.3305335097
83333.3305592455
83333.3305836016
83333.3306062749
83333.3306269521
83333.3306453613
83333.3306612864
83333.3306745674
83333.3306851073
83333.3306928866
83333.3306979489
83333.3307004145
83333.3307005787
83333.3306993202
83333.3312399613
83333.3312013556
83333.3312006778
83333.3311627423
83333.3311625854
83333.3311617921
83333.3311227245
83333.331124479
83333.3311242467
83333.3311232869
83333.3310808224
83333.331084952
83333.3310866427
83333.331086292
83333.3310851479
83333.3310368238
83333.3310434827
83333.331047537
83333.3310491848
83333.3310486965
83333.331047377
83333.3309906613
83333.3309998317
83333.3310064377
83333.3310104893
83333.3310120785
83333.3310114509
83333.3310099882
83333.3309423395
83333.3309539127
83333.3309630941
83333.3309697141
83333.3309737867
83333.3309753121
83333.3309745666
83333.3309729997
83333.3308918688
83333.330905719
83333.3309173944
83333.330926637
83333.3309333267
83333.3309374127
83333.3309388826
83333.3309380737
83333.330936427
83333.3308392491
83333.3308552705
83333.3308693285
83333.3308811539
83333.3308904987
83333.3308972558
83333.3309013624
83333.3309028231
83333.3309020037
83333.3309002967
83333.3307844758
83333.3308025817
83333.330818936
83333.33083325
83333.3308452191
83333.3308546748
83333.3308615113
83333.3308656715
83333.3308671769
83333.3308663928
83333.3308646461
83333.3307275624
83333.3307477038
83333.3307662759
83333.3307829667
83333.3307974914
83333.330809622
83333.3308192059
83333.3308261503
83333.3308304116
83333.3308320115
83333.3308312897
83333.3308295238
83333.3306685281
83333.3306906525
83333.3307113601
83333.3307303605
83333.3307473682
83333.3307621267
83333.3307744418
83333.3307841792
83333.3307912642
83333.3307956687
83333.3307974028
83333.3307967689
83333.3307949981
83333.3306073767
83333.3306314333
83333.3306542161
83333.3306754706
83333.3306949065
83333.3307122461
83333.3307272601
83333.330739777
83333.3307496837
83333.3307569301
83333.3307615043
83333.3307634234
83333.330762946
83333.3307612242
83333.3305440941
83333.3305700619
83333.3305948945
83333.3306183662
83333.3306401981
83333.3306600825
83333.3306777635
83333.3306930375
83333.3307057565
83333.3307158328
83333.3307232465
83333.330728019
83333.3307302105
83333.3307300735
83333.3307286267
83333.3304787399
83333.3305066552
83333.3305335721
83333.3305592751
83333.3305834748
83333.3306058672
83333.3306261759
83333.3306441728
83333.3306596812
83333.3306725796
83333.3306828099
83333.3306903865
83333.3306953836
83333.3306979678
83333.3306984058
83333.3306974133
83333.3312796462
83333.3312405277
83333.3312398678
83333.3312013831
83333.3312012448
83333.3312004806
83333.3311609084
83333.3311626033
83333.3311623831
83333.3311614569
83333.3311186155
83333.3311225999
83333.3311242281
83333.3311238907
83333.3311227835
83333.3310742963
83333.3310807208
83333.3310846282
83333.3310862133
83333.331085742
83333.3310844602
83333.3310278982
83333.331036746
83333.3310431105
83333.3310470126
83333.3310485372
83333.3310479276
83333.331046499
83333.3309794316
83333.3309906002
83333.3309994469
83333.3310058218
83333.3310097349
83333.33101119
83333.3310104591
83333.3310089199
83333.3309289071
83333.3309422771
83333.3309535318
83333.3309624342
83333.3309688665
83333.3309727809
83333.3309741693
83333.3309733622
83333.3309717363
83333.3308763223
83333.3308917855
83333.3309053503
83333.3309167448
83333.3309257356
83333.3309322197
83333.3309361375
83333.3309374988
83333.3309366657
83333.330934969
83333.3308216566
83333.3308391448
83333.3308549297
83333.3308687255
83333.330880247
83333.3308893301
83333.3308958736
83333.3308998238
83333.3309012095
83333.3309003954
83333.3308986468
83333.330764915
83333.3307843768
83333.3308023045
83333.3308183983
83333.330832383
83333.3308440414
83333.3308532289
83333.3308598561
83333.3308638839
83333.3308653457
83333.3308645849
83333.3308628062
83333.3307060951
83333.330727482
83333.3307474798
83333.330765806
83333.3307821818
83333.3307963674
83333.3308081812
83333.3308174965
83333.330824241
83333.3308283908
83333.3308299707
83333.3308292818
83333.3308275038
83333.3306451969
83333.3306684675
83333.3306904832
83333.330710986
83333.3307297006
83333.330746367
83333.3307607744
83333.3307727635
83333.3307822291
83333.3307891219
83333.3307934301
83333.3307951687
83333.3307946002
83333.3307928398
83333.3305822111
83333.3306073328
83333.3306313269
83333.3306539697
83333.3306749875
83333.3306941029
83333.330711076
83333.3307257182
83333.3307378925
83333.3307475189
83333.3307545757
83333.3307590705
83333.3307610213
83333.3307606514
83333.3307590181
83333.3305171134
83333.330544078
83333.3305700441
83333.330594818
83333.3306181255
83333.3306396727
83333.330659194
83333.3306764727
83333.3306913439
83333.3307036964
83333.3307134797
83333.3307207053
83333.3307254163
83333.3307277079
83333.3307278004
83333.3307265647
83333.3304499079
83333.3304788018
83333.3305067877
83333.3305337333
83333.3305593395
83333.3305833051
83333.3306053533
83333.3306252472
83333.3306427969
83333.3306578656
83333.3306703708
83333.3306802943
83333.3306876903
83333.3306926825
83333.330695488
83333.3306962924
83333.3306956264
83333.331319894
83333.3312801923
83333.3312795523
83333.331240533
83333.3312404133
83333.3312396688
83333.3311996008
83333.3312012508
83333.3312010426
83333.3312001455
83333.3311569388
83333.3311607902
83333.3311623569
83333.3311620274
83333.3311609533
83333.331112311
83333.3311185159
83333.3311222834
83333.3311238036
83333.3311233425
83333.3311220949
83333.3310656727
83333.331074216
83333.3310803532
83333.3310841121
83333.3310855719
83333.3310849765
83333.3310835796
83333.3310170459
83333.3310278313
83333.3310363618
83333.3310425051
83333.3310462677
83333.3310476561
83333.3310469406
83333.3310454282
83333.3309664496
83333.3309793626
83333.3309902167
83333.3309987965
83333.3310049858
83333.3310087403
83333.3310100564
83333.3310092574
83333.3310076551
83333.330913883
83333.3309288141
83333.3309419052
83333.330952889
83333.3309615437
83333.3309677716
83333.3309715164
83333.3309727927
83333.330971957
83333.3309702768
83333.3308593185
83333.3308762112
83333.3308914517
83333.3309047498
83333.330915845
83333.3309245764
83333.3309308473
83333.3309346083
83333.3309358927
83333.3309350603
83333.3309333181
83333.3308027543
83333.3308215586
83333.3308388668
83333.3308543879
83333.3308678583
83333.3308790711
83333.3308878881
83333.3308942231
83333.330898042
83333.3308993848
83333.3308985872
83333.3308968061
83333.3307441674
83333.3307648361
83333.3307841485
83333.3308018264
83333.3308176016
83333.3308312466
83333.3308425906
83333.3308515131
83333.3308579443
83333.3308618644
83333.3308633088
83333.3308625715
83333.3308607834
83333.3306835412
83333.3307060399
83333.3307273066
83333.3307470887
83333.3307651168
83333.3307811468
83333.330794983
83333.3308064764
83333.3308155272
83333.330822087
83333.3308261463
83333.3308277268
83333.330827101
83333.3308253373
83333.3306208626
83333.3306451639
83333.3306683538
83333.330690204
83333.3307104501
83333.3307288342
83333.3307451348
83333.3307591775
83333.3307708348
83333.3307800316
83333.3307867449
83333.3307909784
83333.3307927481
83333.3307922796
83333.3307906018
83333.3305561036
83333.3305821988
83333.3306072913
83333.3306311909
83333.3306536384
83333.3306743626
83333.3306931153
83333.3307096944
83333.3307239469
83333.3307357707
83333.3307451197
83333.3307520007
83333.3307564385
83333.3307584716
83333.3307583035
83333.3307568502
83333.3304892458
83333.330517137
83333.3305441318
83333.3305700937
83333.3305947536
83333.3306178207
83333.3306390256
83333.3306581404
83333.3306749857
83333.3306894347
83333.3307014142
83333.3307109105
83333.3307179679
83333.3307226721
83333.3307251582
83333.3307255692
83333.3307247838
83333.3304112775
83333.3304201517
83333.3304500096
83333.3304790128
83333.3305070862
83333.3305340012
83333.330559429
83333.3305830869
83333.3306047333
83333.3306241682
83333.33064124
83333.3306558516
83333.3306679617
83333.3306775961
83333.3306848653
83333.3306899544
83333.3306930957
83333.3306943325
83333.330694502
83333.3313606435
83333.3313204154
83333.3313198506
83333.3312801697
83333.3312800815
83333.3312793599
83333.3312387792
83333.3312404098
83333.3312402133
83333.3312393362
83333.3311957561
83333.331199498
83333.3312010133
83333.3312006886
83333.331199643
83333.3311508431
83333.3311568472
83333.3311604851
83333.3311619391
83333.3311614821
83333.3311602653
83333.3311039726
83333.3311122317
83333.3311181568
83333.3311217778
83333.3311231694
83333.3311225812
83333.3311212138
83333.3310551784
83333.3310656017
83333.3310738352
83333.3310797596
83333.3310833779
83333.3310846993
83333.331083996
83333.331082508
83333.3310044924
83333.331016972
83333.3310274464
83333.3310357216
83333.3310416811
83333.3310452845
83333.3310465332
83333.3310457446
83333.3310441643
83333.3309519235
83333.330966349
83333.3309789863
83333.3309895805
83333.3309979168
83333.3310039033
83333.3310074881
83333.3310086893
83333.3310078567
83333.3310061967
83333.330897442
83333.3309137649
83333.3309284825
83333.3309413068
83333.3309519962
83333.3309603948
83333.3309664105
83333.3309699995
83333.330971198
83333.3309703573
83333.3309686284
83333.330841046
83333.3308592174
83333.3308759309
83333.3308909039
83333.3309038835
83333.3309146735
83333.3309231419
83333.3309292064
83333.3309328374
83333.3309340793
83333.3309332569
83333.3309314815
83333.330782699
83333.3308026732
83333.3308213242
83333.3308383801
83333.3308535826
83333.3308667156
83333.3308776174
83333.3308861729
83333.3308923164
83333.330896031
83333.3308973565
83333.3308965808
83333.3308947896
83333.3307223656
83333.3307441099
83333.330764654
83333.3307837425
83333.3308011159
83333.3308165435
83333.3308298418
83333.3308408707
83333.330849535
83333.3308557885
83333.3308596237
83333.330861067
83333.3308603894
83333.3308586202
83333.3306600157
83333.3306835106
83333.3307059156
83333.3307270034
83333.3307465134
83333.3307642036
83333.3307798686
83333.3307933464
83333.3308045174
83333.3308133096
83333.3308196993
83333.3308236876
83333.3308252989
83333.3308247748
83333.3308230948
83333.3305956171
83333.3306208599
83333.3306451135
83333.3306681787
83333.3306898086
83333.3307097477
83333.3307277673
83333.3307436806
83333.3307573451
83333.3307686665
83333.3307776
83333.3307841481
83333.3307883306
83333.3307901763
83333.3307898984
83333.3307883933
83333.3305291301
83333.3305561286
83333.330582228
83333.330607273
83333.3306310256
83333.3306532175
83333.3306735969
83333.3306919498
83333.3307081087
83333.3307219564
83333.3307334264
83333.3307425062
83333.3307492309
83333.3307536575
83333.3307558663
83333.3307559909
83333.3307549511
83333.33046048
83333.3304893156
83333.3305172728
83333.3305443135
83333.3305702204
83333.3305946904
83333.3306174482
83333.3306382574
83333.3306569259
83333.3306733113
83333.3306873254
83333.3306989339
83333.3307081626
83333.3307151053
83333.3307198987
83333.3307226951
83333.3307235794
83333.3307235927
83333.3303805233
83333.3304114732
83333.3303894808
83333.3304202968
83333.3304503103
83333.3304794575
83333.330507568
83333.3305343667
83333.3305595329
83333.3305828149
83333.3306040061
83333.3306229433
83333.3306395144
83333.3306536634
83333.3306653949
83333.3306747952
83333.3306820506
83333.3306874032
83333.3306909708
83333.3306928815
83333.330693601
83333.3313611407
83333.3313606411
83333.33132035
83333.3313203518
83333.3313197033
83333.3312784279
83333.3312800671
83333.3312798907
83333.3312790356
83333.3312350322
83333.331238702
83333.3312401867
83333.3312398629
83333.3312388368
83333.3311898521
83333.3311956827
83333.3311992096
83333.331200605
83333.3312001475
83333.3311989573
83333.3311427725
83333.3311507715
83333.3311565034
83333.3311599928
83333.3311613138
83333.3311607257
83333.3311593857
83333.3310938173
83333.3311039016
83333.3311118593
83333.3311175777
83333.3311210559
83333.3311223059
83333.3311216069
83333.3311201435
83333.3310430315
83333.3310551005
83333.3310652185
83333.3310732068
83333.3310789492
83333.3310824071
83333.331083588
83333.3310828051
83333.3310812468
83333.3309904393
83333.3310043856
83333.3310165921
83333.3310268179
83333.3310348534
83333.3310406119
83333.3310440459
83333.3310451771
83333.3310443477
83333.3310427095
83333.3309360198
83333.3309517989
83333.3309660161
83333.3309783909
83333.3309886951
83333.3309967788
83333.331002555
83333.3310059848
83333.3310071069
83333.3310062645
83333.3310045531
83333.3308797721
83333.3308973371
83333.3309134807
83333.3309279299
83333.3309404419
83333.3309508305
83333.3309589698
83333.3309647825
83333.3309682427
83333.3309693982
83333.3309685622
83333.3309667991
83333.3308216546
83333.3308409606
83333.3308589759
83333.3308754358
83333.3308900915
83333.3309027378
83333.3309132213
83333.3309214322
83333.3309273099
83333.3309308398
83333.3309320637
83333.3309312612
83333.3309294762
83333.3307616208
83333.3307826368
83333.3308024819
83333.3308209041
83333.3308376526
83333.3308525082
83333.3308652982
83333.3308758906
83333.3308841942
83333.3308901664
83333.3308938008
83333.3308951268
83333.3308944076
83333.330892637
83333.3306996221
83333.3307223314
83333.330743978
83333.3307643292
83333.3307831359
83333.3308001674
83333.3308152318
83333.3308281777
83333.3308388929
83333.3308473081
83333.3308534004
83333.3308571691
83333.3308586433
83333.3308580718
83333.3308563877
83333.3306356103
83333.3306600133
83333.3306834483
83333.3307057105
83333.3307265581
83333.3307457503
83333.330763075
83333.3307783585
83333.3307914685
83333.3308023164
83333.3308108582
83333.3308170925
83333.330821035
83333.3308227222
83333.3308223847
83333.3308208812
83333.330569533
83333.3305956483
83333.3306208771
83333.3306450502
83333.3306679392
83333.330689295
83333.3307088846
83333.3307265097
83333.3307420148
83333.3307552905
83333.3307662753
83333.3307749554
83333.3307813587
83333.3307855314
83333.3307875449
83333.3307875518
83333.3307864402
83333.3305013156
83333.3305292007
83333.330556236
83333.3305823362
83333.3306072882
83333.3306308298
83333.3306527063
83333.3306726944
83333.3306906134
83333.3307063307
83333.3307197651
83333.3307308867
83333.330739718
83333.3307463365
83333.330750844
83333.3307533438
83333.3307539251
83333.3307535693
83333.3304308507
83333.3304605999
83333.3304895436
83333.3305175967
83333.3305446423
83333.330570416
83333.3305946188
83333.3306170041
83333.3306373691
83333.3306555573
83333.3306714656
83333.3306850447
83333.3306963032
83333.330705321
83333.3307122594
83333.3307173058
83333.3307205038
83333.330722037
83333.3307225861
83333.3303487963
83333.3303807551
83333.3304119102
83333.3303579274
83333.3303896669
83333.3304206918
83333.3304509123
83333.3304801637
83333.3305082237
83333.3305348135
83333.3305596397
83333.330582483
83333.3306031721
83333.3306215827
83333.3306376448
83333.3306513479
83333.3306627577
83333.3306720468
83333.3306794784
83333.3306852181
83333.3306894098
83333.3306919196
83333.3306930622
83333.3313610126
83333.331361122
83333.3313605292
83333.3313185856
83333.3313202947
83333.3313201984
83333.3313194096
83333.3312747538
83333.3312783882
83333.3312798657
83333.3312795543
83333.3312785444
83333.3312292951
83333.3312349891
83333.3312384357
83333.3312397899
83333.3312393258
83333.3312381543
83333.3311820305
83333.3311897985
83333.3311953631
83333.3311987343
83333.33119999
83333.3311993971
83333.3311980806
83333.3311329376
83333.3311427086
83333.3311504155
83333.331155942
83333.3311592851
83333.33116046
83333.3311597572
83333.3311583178
83333.3310820564
83333.3310937394
83333.3311035255
83333.3311112458
83333.3311167829
83333.3311200983
83333.331121206
83333.3311204206
83333.3311188856
83333.3310294262
83333.3310429209
83333.3310547211
83333.3310645997
83333.3310723521
83333.3310778948
83333.3310811832
83333.3310822431
83333.3310814135
83333.3310797974
83333.3309750499
83333.3309903114
83333.3310040522
83333.3310160012
83333.3310259413
83333.3310337276
83333.3310392781
83333.3310425573
83333.3310436067
83333.331042763
83333.3310410721
83333.3309189263
83333.3309359114
83333.3309515108
83333.3309654609
83333.3309775285
83333.3309875366
83333.3309953652
83333.3310009417
83333.3310042439
83333.3310053223
83333.3310044803
83333.3310027335
83333.330861017
83333.3308796819
83333.3308970881
83333.3309129778
83333.330927112
83333.3309392954
83333.3309493825
83333.3309572692
83333.3309628995
83333.3309662613
83333.3309673977
83333.330966579
83333.3309648072
83333.3308012713
83333.3308215866
83333.3308407592
83333.3308585423
83333.3308746937
83333.330889005
83333.3309013131
83333.3309114931
83333.330919459
83333.3309251712
83333.3309286248
83333.3309298507
83333.3309291032
83333.3309273401
83333.3307396303
83333.3307615807
83333.3307824925
83333.3308021369
83333.3308202715
83333.3308366767
83333.3308511721
83333.330863616
83333.3308739026
83333.3308819665
83333.3308877857
83333.3308913593
83333.3308927175
83333.3308921085
83333.3308904242
83333.330676029
83333.3306996141
83333.3307222551
83333.3307437433
83333.3307638428
83333.3307823247
83333.3307989909
83333.3308136796
83333.3308262673
83333.3308366708
83333.3308448477
83333.3308507941
83333.3308545227
83333.3308560761
83333.3308556925
83333.3308541891
83333.3306103984
83333.3306356387
83333.3306600145
83333.3306833468
83333.3307054103
83333.3307259697
83333.3307448086
83333.3307617435
83333.3307766296
83333.3307893651
83333.3307998921
83333.3308081947
83333.330814295
83333.3308182329
83333.3308200842
83333.3308200361
83333.3308189174
83333.3305426565
83333.3305696009
83333.3305957382
83333.3306209333
83333.330644979
83333.3306676352
83333.3306886674
83333.3307078689
83333.3307250715
83333.3307401518
83333.3307530342
83333.3307636907
83333.330772139
83333.330778444
83333.3307826987
83333.3307849922
83333.3307854463
83333.3307849804
83333.330472699
83333.3305014302
83333.330529395
83333.3305564789
83333.3305825421
83333.3306073348
83333.3306305989
83333.3306521046
83333.3306716594
83333.3306891163