/*--------------------------------*- C++ -*----------------------------------*\
  =========                 |
  \\      /  F ield         | OpenFOAM: The Open Source CFD Toolbox
   \\    /   O peration     | Website:  https://openfoam.org
    \\  /    A nd           | Version:  12
     \\/     M anipulation  |
\*---------------------------------------------------------------------------*/
/*   Windows 32 and 64 bit porting by blueCAPE: http://www.bluecape.com.pt   *\
|  Based on Windows porting (2.0.x v4) by Symscape: http://www.symscape.com   |
\*---------------------------------------------------------------------------*/
FoamFile
{
    format      ascii;
    class       surfaceScalarField;
    location    "100";
    object      phi;
}
// * * * * * * * * * * * * * * * * * * * * * * * * * * * * * * * * * * * * * //

dimensions      [0 3 -1 0 0 0 0];

internalField   nonuniform List<scalar> 
28900
(
-5.77669416351219e-06
1.68310084790236e-07
4.52180836010993e-09
-5.95214281726977e-06
1.59809965911629e-07
1.56315667499121e-08
-1.25722893302059e-06
2.57399317938588e-07
-1.45375887275356e-08
-7.18983393762694e-06
1.98547631909971e-07
1.39017607838877e-08
-6.12294408786441e-06
1.4994337065863e-07
2.08511312897173e-08
-1.33261109549185e-06
2.45900715265709e-07
-1.0714469718256e-08
-7.39401823773922e-06
1.89953509788746e-07
2.9840100479213e-08
-8.44040963691614e-07
3.35815065696382e-07
-1.35558260432099e-08
-1.67574292465113e-06
3.06275398304699e-07
-3.66829692859819e-08
-8.08343613019359e-06
2.29900223985782e-07
2.05030063187226e-08
-6.28523421971116e-06
1.41709242631004e-07
2.05723692263577e-08
-1.40758161711543e-06
2.33691719122015e-07
-8.78463806511646e-09
-7.5881582191611e-06
1.76396328114834e-07
3.85677435863252e-08
-9.09698559708111e-07
3.22554341080437e-07
-1.09972758952666e-08
-1.75949066445076e-06
2.92843576476226e-07
-2.98650276145994e-08
-8.31298319600693e-06
2.20708899458111e-07
3.86610118239194e-08
-7.98914971443526e-07
4.10360751925403e-07
-1.10848934009082e-08
-1.0987771514462e-06
3.98544521517154e-07
-3.17540253034224e-08
-1.93043030423333e-06
3.5418955308527e-07
-6.52595667369858e-08
-9.05294374919474e-06
2.56674633862954e-07
3.01211202908826e-08
-6.44018884460247e-06
1.34412232512677e-07
2.0535315676145e-08
-1.48024774274862e-06
2.22012097155658e-07
-7.64287447214991e-09
-7.77462094808793e-06
1.65682776080151e-07
4.13306128048387e-08
-9.74763468118653e-07
3.08503772466932e-07
-9.74832936017976e-09
-1.84474862371912e-06
2.7783839353094e-07
-2.49789926424567e-08
-8.52838182826276e-06
2.02561309843568e-07
5.13812146899076e-08
-8.62782618937029e-07
3.95940236541759e-07
-9.51889686286915e-09
-1.17268215583016e-06
3.82916529845608e-07
-2.71689263322126e-08
-2.02272481654862e-06
3.39184067560194e-07
-5.6055400126327e-08
-9.31125216003184e-06
2.46854866707561e-07
5.00934441868312e-08
-8.43011553454136e-07
4.83184003132979e-07
-9.2077586780483e-09
-9.99104203613595e-07
4.86861567096112e-07
-2.75497781910057e-08
-1.27236886188946e-06
4.63231483113457e-07
-5.71851370517762e-08
-2.16923550088113e-06
3.93480591983855e-07
-9.60011087464434e-08
-9.75510308358434e-06
2.70707803848502e-07
4.80936871445278e-08
-6.58888961617938e-06
1.27436862986863e-07
2.12587340843722e-08
-1.55011527930452e-06
2.10889439926557e-07
-6.61464131906749e-09
-7.95439164417504e-06
1.56962696921772e-07
4.33242619220062e-08
-1.03818828620364e-06
2.94314129900958e-07
-8.8786814011105e-09
-1.9291436375461e-06
2.639277520647e-07
-2.15019559281016e-08
-8.73485341026219e-06
1.89090251696036e-07
5.86927519712423e-08
-9.26062991941866e-07
3.80222475305261e-07
-8.43921752397804e-09
-1.24695515635737e-06
3.66241820704236e-07
-2.38825503828177e-08
-2.11798449960977e-06
3.21289213772478e-07
-4.84566157002218e-08
-9.55223995016058e-06
2.26637211238545e-07
6.57038428896002e-08
-9.06846397519335e-07
4.67697865441399e-07
-7.92326180813128e-09
-1.07098304822277e-06
4.69727983326741e-07
-2.44536790457722e-08
-1.35541581679288e-06
4.45858639101321e-07
-5.07998985924206e-08
-2.27133491843611e-06
3.77502423714902e-07
-8.46143428849745e-08
-1.00355456024429e-05
2.60909843292963e-07
6.96033301766578e-08
-9.17957949477984e-07
5.55083660464694e-07
-7.83845228043373e-09
-1.01141386564118e-06
5.70176229962118e-07
-2.16273033723934e-08
-1.14569184142489e-06
5.64114044882554e-07
-4.69569267740389e-08
-1.39597880224093e-06
5.13191988331323e-07
-8.54460090144892e-08
-2.27736558348996e-06
4.08525943790338e-07
-1.21951081467874e-07
-1.00853559095779e-05
2.72240063110616e-07
7.62965872202938e-08
-6.73204741443104e-06
1.20860844659145e-07
2.22934419176842e-08
-1.61716245065358e-06
2.00240411894588e-07
-5.76186082331998e-09
-8.12785596584046e-06
1.49022181710767e-07
4.56810183437953e-08
-1.09958160938859e-06
2.80217354680228e-07
-7.93598521330073e-09
-2.01115915965513e-06
2.50932269178863e-07
-1.85773490727218e-08
-8.93464029208161e-06
1.7902011258866e-07
6.40759292788876e-08
-9.88042083155605e-07
3.63833057805928e-07
-7.54063008112918e-09
-1.32024673185362e-06
3.49603033078439e-07
-2.1265040129151e-08
-2.21302368777727e-06
3.05009819999087e-07
-4.23931849014721e-08
-9.78229522151654e-06
2.11579739479503e-07
7.71424735759125e-08
-9.70087277879988e-07
4.50468512550514e-07
-7.00570782364045e-09
-1.14265075683532e-06
4.51261511677492e-07
-2.17934499942138e-08
-1.4395933705205e-06
4.26740934272924e-07
-4.51599987272614e-08
-2.37674814266723e-06
3.57640419379486e-07
-7.40600633233774e-08
-1.02958895637649e-05
2.38614970687043e-07
8.74117135501877e-08
-9.82118567131951e-07
5.3859506434064e-07
-6.73695975097322e-09
-1.08234748236198e-06
5.51806636446417e-07
-1.90697592250807e-08
-1.2270735785328e-06
5.44908605450348e-07
-4.21238867743164e-08
-1.48684849987638e-06
4.94730987675117e-07
-7.71621541245684e-08
-2.38519309609456e-06
3.9282702486444e-07
-1.08717075722987e-07
-1.03783977124176e-05
2.63084692033127e-07
9.95370132576035e-08
-1.00417001914499e-06
6.26253935486983e-07
-6.47601233357165e-09
-1.06947508611931e-06
6.49841264255385e-07
-1.68475686684237e-08
-1.14126134241388e-06
6.58606557737684e-07
-3.63554317254222e-08
-1.23195818790887e-06
6.22229070789228e-07
-6.75152998075742e-08
-1.39831134546777e-06
5.27844982443349e-07
-1.1036427693098e-07
-2.25909037771739e-06
4.02409761343785e-07
-1.38726959701903e-07
-1.01309926354239e-05
2.65101395380646e-07
1.15895393338156e-07
-6.87010730053349e-06
1.14685259639781e-07
2.3369225015543e-08
-1.6815160050348e-06
1.90007967955212e-07
-4.79870088889981e-09
-8.29530580209512e-06
1.4159064853519e-07
4.81375982535983e-08
-1.15877603170111e-06
2.66397828241291e-07
-6.96385224722146e-09
-2.09031452345855e-06
2.38519618825561e-07
-1.61106851197226e-08
-9.12810467972528e-06
1.70276617089092e-07
6.88514935188532e-08
-1.04837353912661e-06
3.47196467715295e-07
-6.64843605038697e-09
-1.39163724681903e-06
3.33206525830669e-07
-1.88224091945264e-08
-2.30571806251037e-06
2.90132183841042e-07
-3.70032913464075e-08
-1.00045798758511e-05
2.00213366854423e-07
8.6125327429129e-08
-1.03220200177201e-06
4.32141742471687e-07
-6.19475204579866e-09
-1.21333370057178e-06
4.32182373803375e-07
-1.94391091626999e-08
-1.52324073015896e-06
4.07677829020441e-07
-4.02892661421661e-08
-2.48212221161698e-06
3.39663630197413e-07
-6.51150790678653e-08
-1.05438063214124e-05
2.23147282775477e-07
1.01886860797127e-07
-1.04568187991677e-06
5.1994759779707e-07
-5.91619061100993e-09
-1.15293462349839e-06
5.31707190772752e-07
-1.68659270263791e-08
-1.30847272752095e-06
5.24007286871127e-07
-3.76632387016514e-08
-1.57921113987443e-06
4.74026742664471e-07
-6.91875204970843e-08
-2.49699041519271e-06
3.72272064144946e-07
-9.5933605456972e-08
-1.06503416516549e-05
2.40128697683629e-07
1.19199329676378e-07
-1.06882776194341e-06
6.0877366420005e-07
-5.52104878620289e-09
-1.14014380122338e-06
6.30404492407085e-07
-1.46671923933307e-08
-1.22099474161851e-06
6.38010906827228e-07
-3.24401383860976e-08
-1.32037376245085e-06
6.02112754315864e-07
-6.10925156364037e-08
-1.49232333579931e-06
5.10058105744552e-07
-1.00384786792923e-07
-2.36844841251248e-06
3.87855683967916e-07
-1.24141217088309e-07
-1.04289555178608e-05
2.57016854598548e-07
1.40468876341879e-07
-1.0951648870618e-06
6.96861611561821e-07
-5.01822625507671e-09
-1.15068322751919e-06
7.27155994046565e-07
-1.27597437692133e-08
-1.1932004600402e-06
7.47665626014834e-07
-2.69380012255938e-08
-1.20817414586327e-06
7.22209806428151e-07
-5.03359985048099e-08
-1.20225483075452e-06
6.36324565570118e-07
-8.55130756342066e-08
-1.30155545568791e-06
5.13847298334139e-07
-1.28377522219729e-07
-2.16089097425054e-06
3.84277730386149e-07
-1.45490553769781e-07
-1.00277918067638e-05
2.53876515843675e-07
1.67542531685132e-07
-7.00336303287071e-06
1.0887861139928e-07
2.43725867992293e-08
-1.74327266833227e-06
1.80228946367145e-07
-3.7908651939642e-09
-8.45697935742086e-06
1.34557827376709e-07
5.04690303150563e-08
-1.21573806393681e-06
2.5298623104039e-07
-6.0171893261317e-09
-2.1665138032042e-06
2.26636041675852e-07
-1.36509664834957e-08
-9.31522584325646e-06
1.62006746966557e-07
7.32391708331223e-08
-1.10686097673612e-06
3.3065169390705e-07
-5.76707059496755e-09
-1.46072753213699e-06
3.17163776428267e-07
-1.65202022706493e-08
-2.39549943754399e-06
2.76075812800265e-07
-3.21373594441265e-08
-1.02199467336615e-05
1.90391937445435e-07
9.38074006365801e-08
-1.09289208093761e-06
4.13260363302432e-07
-5.37441599610839e-09
-1.2824063545216e-06
4.12860111388815e-07
-1.72313931186994e-08
-1.60503276359015e-06
3.88938681278007e-07
-3.58397374477655e-08
-2.58506161593627e-06
3.23368612977458e-07
-5.72275532868172e-08
-1.07834051006464e-05
2.11995213282242e-07
1.13714248400565e-07
-1.10822035565929e-06
4.99841436114033e-07
-5.16179643044042e-09
-1.22260203861199e-06
5.10513477636214e-07
-1.48601101260601e-08
-1.38903098953804e-06
5.02391836214738e-07
-3.35972345336044e-08
-1.6712682529026e-06
4.5338226797453e-07
-6.19546369807653e-08
-2.608687350381e-06
3.5392240881052e-07
-8.42042206185959e-08
-1.09080054622548e-05
2.23744119297514e-07
1.35778263533964e-07
-1.13286084017462e-06
5.88757363630446e-07
-4.77710948778974e-09
-1.21041586503122e-06
6.08826304841618e-07
-1.27646923690675e-08
-1.30047765900603e-06
6.1541074866906e-07
-2.87882388230982e-08
-1.40905900895174e-06
5.79862214184724e-07
-5.48164940585053e-08
-1.58825542066174e-06
4.89489251039928e-07
-9.04772130832656e-08
-2.48221468610716e-06
3.678258772333e-07
-1.09878620589933e-07
-1.07053683965924e-05
2.34546347578514e-07
1.61040475766452e-07
-1.1605822725784e-06
6.78363234365551e-07
-4.17240100598709e-09
-1.2216896933146e-06
7.06729690993827e-07
-1.084036978017e-08
-1.27217492634218e-06
7.25947178826999e-07
-2.36302371719698e-08
-1.29413675957941e-06
7.00823688032103e-07
-4.51901712679165e-08
-1.29285686723337e-06
6.17262815162313e-07
-7.76979955736249e-08
-1.39487145141367e-06
4.97917172771825e-07
-1.1713531635349e-07
-2.26938652487214e-06
3.71396572330404e-07
-1.3003683314293e-07
-1.03265979709114e-05
2.46812131481585e-07
1.92450905567977e-07
-1.18911281610827e-06
7.67354677695682e-07
-3.67388302473047e-09
-1.24421002573354e-06
8.03416892479572e-07
-9.32542469785862e-09
-1.27837138794005e-06
8.33436388444598e-07
-1.92333227388577e-08
-1.25317640300314e-06
8.16138028120255e-07
-3.60198074129544e-08
-1.16541817615529e-06
7.3574234650908e-07
-6.22812562204045e-08
-1.08416084269823e-06
6.15988083266866e-07
-9.88871623328913e-08
-1.15026029862704e-06
4.85071118422275e-07
-1.38656818649841e-07
-2.02375869033474e-06
3.6064527443249e-07
-1.4208347154712e-07
-9.87311903950295e-06
2.41381051837642e-07
2.30990055125628e-07
-7.13205141218622e-06
1.03415823405267e-07
2.52668833015416e-08
-1.80252108639492e-06
1.70951727608704e-07
-2.82898869370873e-09
-8.61310066130671e-06
1.27896788998419e-07
5.25842343752674e-08
-1.27048813461564e-06
2.40099038376985e-07
-5.12085296061408e-09
-2.23980048825032e-06
2.15278438728722e-07
-1.12316671527547e-08
-9.49604208276336e-06
1.54060172982094e-07
7.72092048263407e-08
-1.1633980773786e-06
3.14447410819674e-07
-4.92461947025333e-09
-1.52736146148551e-06
3.01591214523489e-07
-1.43403813646119e-08
-2.48211619240875e-06
2.6257923008278e-07
-2.76147602631993e-08
-1.04284286728361e-05
1.8119790612436e-07
1.00508605275954e-07
-1.15195352703584e-06
3.94277321945852e-07
-4.56460702414917e-09
-1.34951606770868e-06
3.93631644191608e-07
-1.51269611035472e-08
-1.68436192991243e-06
3.70606378618045e-07
-3.17231838582072e-08
-2.68486296911934e-06
3.08044505218896e-07
-4.99967997815938e-08
-1.10153192966331e-05
2.01922845041564e-07
1.23784245441372e-07
-1.16947221570318e-06
4.78902771750601e-07
-4.39094832532927e-09
-1.29087287309601e-06
4.88696370088758e-07
-1.29411935489072e-08
-1.46798402527815e-06
4.80444643891997e-07
-2.97863110918404e-08
-1.76147020300686e-06
4.33076637983006e-07
-5.5348628149804e-08
-2.71771479105903e-06
3.37496295437854e-07
-7.37104223597495e-08
-1.11563989786337e-05
2.12463025011174e-07
1.49623011284619e-07
-1.19590871973995e-06
5.66961252444556e-07
-4.07232169036063e-09
-1.27981689044817e-06
5.85749805649522e-07
-1.09982201533028e-08
-1.37912802399147e-06
5.91552624243263e-07
-2.53723198264336e-08
-1.49709946202496e-06
5.56742384524672e-07
-4.89197246080482e-08
-1.68404898716772e-06
4.68900930463773e-07
-8.11441433685187e-08
-2.59615829776999e-06
3.49985422887843e-07
-9.65140226105483e-08
-1.09670784222715e-05
2.18867489875069e-07
1.78591860177494e-07
-1.22531399329964e-06
6.56981395318302e-07
-3.4925659521261e-09
-1.29225429478534e-06
6.8376033424862e-07
-9.14748785927721e-09
-1.35081206953973e-06
7.01816099504279e-07
-2.05343914470385e-08
-1.37998133401025e-06
6.77028279060848e-07
-4.01119124837346e-08
-1.38396273259668e-06
5.95635921392867e-07
-6.98604734740798e-08
-1.49050853316092e-06
4.78793719439536e-07
-1.05812906432876e-07
-2.3826093685153e-06
3.52665586990529e-07
-1.14790571945088e-07
-1.06032899776444e-05
2.248385993535e-07
2.1286600953727e-07
-1.25561765470501e-06
7.47764636171071e-07
-2.8967102422398e-09
-1.31604851477378e-06
7.81987500343554e-07
-7.59229536032721e-09
-1.35760719522205e-06
8.10692387783093e-07
-1.63506853223674e-08
-1.33795267701096e-06
7.93702642647257e-07
-3.17339716359599e-08
-1.25300612911957e-06
7.15676806801657e-07
-5.60183381524276e-08
-1.17329567317444e-06
5.99324538524896e-07
-8.99731122293163e-08
-1.24097450525556e-06
4.71589636108272e-07
-1.26618562515711e-07
-2.13020328798164e-06
3.49626272386276e-07
-1.26417911246404e-07
-1.01710834432176e-05
2.35229654494689e-07
2.55177682631843e-07
-1.2848233160657e-06
8.38388649197673e-07
-2.66324902705611e-09
-1.34450500323101e-06
8.79769616295515e-07
-6.68807485665975e-09
-1.3822013535753e-06
9.17889719890109e-07
-1.33794524658738e-08
-1.34077296819502e-06
9.07000170385404e-07
-2.50340735016532e-08
-1.20681155316301e-06
8.29522731519317e-07
-4.37916764684728e-08
-1.04138007563294e-06
7.10493967179949e-07
-7.13115422132763e-08
-9.19982735256951e-07
5.78511826755595e-07
-1.06954687645128e-07
-9.73668752038473e-07
4.49993231820695e-07
-1.41199266118693e-07
-1.8723169733668e-06
3.34790423116599e-07
-1.28042751641137e-07
-9.71775559999839e-06
2.28406177187613e-07
3.06326816875756e-07
-7.25636529910042e-06
9.82715023780515e-08
2.60386332363211e-08
-1.85937570154673e-06
1.62195816572481e-07
-1.92939507997287e-09
-8.76389782823787e-06
1.21589302612981e-07
5.44592429349194e-08
-1.3230728252563e-06
2.27822662604407e-07
-4.28713149149015e-09
-2.31024705638142e-06
2.04471452974994e-07
-8.96075707729113e-09
-9.6706908900354e-06
1.4648560694693e-07
8.07331266094487e-08
-1.21793930509646e-06
2.9877676437931e-07
-4.13721666235336e-09
-1.59150856102364e-06
2.86595974240335e-07
-1.22930519970422e-08
-2.5655090444703e-06
2.49606161152058e-07
-2.33906611231803e-08
-1.06300180432664e-05
1.72404727539459e-07
1.06378603042731e-07
-1.20925197341853e-06
3.75537787453035e-07
-3.79236521681922e-09
-1.41449253171367e-06
3.74761393027603e-07
-1.31197772644599e-08
-1.76097424807748e-06
3.52746151111485e-07
-2.78977761104773e-08
-2.78125945339522e-06
2.9329270754279e-07
-4.3320106281867e-08
-1.12397909800871e-05
1.9238134991454e-07
1.32580651509227e-07
-1.22924045640355e-06
4.57673167015245e-07
-3.62804191449977e-09
-1.35742770648141e-06
4.66734603163069e-07
-1.11136174586378e-08
-1.54484677163621e-06
4.58548680499139e-07
-2.62084412808181e-08
-1.84906004357705e-06
4.13169033463989e-07
-4.92604271767895e-08
-2.82344202751463e-06
3.22013657701683e-07
-6.43712607046356e-08
-1.13971714715963e-05
2.03488689846548e-07
1.61047874650113e-07
-1.25774190089458e-06
5.44081342809493e-07
-3.34567867326309e-09
-1.34794895783873e-06
5.61724430349931e-07
-9.28803764466096e-09
-1.4563812929568e-06
5.66882985892603e-07
-2.2127821675947e-08
-1.58353793667894e-06
5.33136000182232e-07
-4.34098874603075e-08
-1.77797437610013e-06
4.4858852548806e-07
-7.25189707179804e-08
-2.70746103529115e-06
3.34191475812679e-07
-8.41475535598996e-08
-1.12189054258384e-05
2.0793417054836e-07
1.93498134927655e-07
-1.28904682068973e-06
6.33528318212454e-07
-2.83447746933253e-09
-1.36195999500096e-06
6.58934351308803e-07
-7.55218023853709e-09
-1.42862744716677e-06
6.75967195397685e-07
-1.75985916261732e-08
-1.46509621659679e-06
6.51735171163501e-07
-3.52521317632018e-08
-1.47456254497453e-06
5.72912432170195e-07
-6.23340891553476e-08
-1.58621446583531e-06
4.59499559945038e-07
-9.49578394888393e-08
-2.4960465117123e-06
3.36115344808098e-07
-1.00338290750522e-07
-1.08650211370851e-05
2.0998878804187e-07
2.30308051855832e-07
-1.32133762372856e-06
7.2496281579333e-07
-2.2617279721129e-09
-1.38736935331652e-06
7.57633520371231e-07
-6.04565507340626e-09
-1.43643539314656e-06
7.85120106271073e-07
-1.36243773340085e-08
-1.4224683013636e-06
7.68473922845672e-07
-2.74659776374616e-08
-1.34059625376406e-06
6.92800563200422e-07
-4.96887430707659e-08
-1.26319095020783e-06
5.79736133082289e-07
-8.09110556973472e-08
-1.33436418870446e-06
4.54583388825125e-07
-1.14347291036936e-07
-2.24176508931004e-06
3.32428337921065e-07
-1.10834022013246e-07
-1.04464716463869e-05
2.13814470492838e-07
2.74411324753157e-07
-1.35271073557998e-06
8.17565844127409e-07
-1.91393537324104e-09
-1.41757311900666e-06
8.57249764959483e-07
-5.0914551023234e-09
-1.46242648677929e-06
8.94099470842415e-07
-1.07749813838589e-08
-1.42573830164866e-06
8.83602504002718e-07
-2.12860584101046e-08
-1.29292522621128e-06
8.08606087956182e-07
-3.85510866076462e-08
-1.12719197549558e-06
6.93217361577909e-07
-6.41013400560542e-08
-1.00598383001523e-06
5.6489660925968e-07
-9.72825906086481e-08
-1.06100265946841e-06
4.39204970986899e-07
-1.28867613368596e-07
-1.97621396892257e-06
3.25689354533071e-07
-1.12991222861118e-07
-1.00147126939465e-05
2.23950160337068e-07
3.28176266072137e-07
-1.38066442709214e-06
9.10660205957597e-07
-2.11565068329648e-09
-1.44827293633327e-06
9.57131114047039e-07
-4.96575589321231e-09
-1.49580807207427e-06
1.00256705476653e-06
-9.35048001800014e-09
-1.452182868656e-06
9.96931987039893e-07
-1.70694009137207e-08
-1.29595492843394e-06
9.20757927873173e-07
-3.00158884017163e-08
-1.0819824692093e-06
8.00372365692996e-07
-4.97144566642514e-08
-8.75673059084562e-07
6.659891948989e-07
-7.67998227552151e-08
-7.34354446912106e-07
5.33913235073033e-07
-1.094948692527e-07
-7.85916837015936e-07
4.12229461456391e-07
-1.35924531262443e-07
-1.72209805112805e-06
3.08493161350789e-07
-1.03738773298685e-07
-9.58766116786012e-06
2.18039878804881e-07
3.90473723190793e-07
-7.37649331341881e-06
9.34169912779766e-08
2.6704714631662e-08
-1.9139684320481e-06
1.53954981525361e-07
-1.09418985470318e-09
-8.90959231732367e-06
1.15626236251143e-07
5.60912982077236e-08
-1.37356821080303e-06
2.16207102255776e-07
-3.51644870703456e-09
-2.37796135182046e-06
1.94234512016277e-07
-6.86636692676759e-09
-9.83936588910952e-06
1.39300839157903e-07
8.38237534028076e-08
-1.27048628630606e-06
2.83777767313289e-07
-3.40857212818477e-09
-1.65320375515639e-06
2.72270722085127e-07
-1.03932923193517e-08
-2.64571446036957e-06
2.37203514927223e-07
-1.94816603090843e-08
-1.08247881854616e-05
1.64024634074357e-07
1.11466033297648e-07
-1.26470983278074e-06
3.57305634325761e-07
-3.07136313255669e-09
-1.47725389780488e-06
3.56467460476612e-07
-1.12488076979715e-08
-1.83479095715791e-06
3.35471969266932e-07
-2.43447562253782e-08
-2.87415546518129e-06
2.79041572505198e-07
-3.71371671021951e-08
-1.14568164490093e-05
1.83172819947234e-07
1.4021876442861e-07
-1.28737632779406e-06
4.36573842157583e-07
-2.90041763111219e-09
-1.42207572427058e-06
4.45011634310919e-07
-9.39569605490346e-09
-1.61934221527165e-06
4.36992130977074e-07
-2.28716599542887e-08
-1.93372194578479e-06
3.93684645034903e-07
-4.36303883500159e-08
-2.92557801409793e-06
3.07004622302483e-07
-5.58144182265376e-08
-1.16303277889392e-05
1.94825562110873e-07
1.70894707952562e-07
-1.31817258791889e-06
5.20728473329529e-07
-2.62491706486956e-09
-1.41452358662579e-06
5.3732657888287e-07
-7.64628343787612e-09
-1.53181974239311e-06
5.41936656070081e-07
-1.90647274977361e-08
-1.66773800081223e-06
5.09441132256239e-07
-3.82828871069232e-08
-1.86919849300962e-06
4.28570234692939e-07
-6.45958846120377e-08
-2.81516846317438e-06
3.19503866664727e-07
-7.2687801945284e-08
-1.14624551812969e-05
1.98452248125252e-07
2.061254066726e-07
-1.35157740633844e-06
6.08761333715607e-07
-2.14968920417784e-09
-1.43045758462677e-06
6.32869335485539e-07
-5.99386975063372e-09
-1.50516236892712e-06
6.48911545775095e-07
-1.47827124337196e-08
-1.5488226005979e-06
6.25380100873776e-07
-3.06472228723211e-08
-1.56362173716778e-06
5.49491139698961e-07
-5.52557488668071e-08
-1.68011215875814e-06
4.4034659997232e-07
-8.47805583938995e-08
-2.60679421096711e-06
3.21447501309317e-07
-8.69248096850178e-08
-1.11167852168463e-05
1.99998209446808e-07
2.45242358033807e-07
-1.38599310742499e-06
6.99821612548028e-07
-1.63807364730355e-09
-1.45779698830599e-06
7.31096338201914e-07
-4.56983776111333e-09
-1.51443189262299e-06
7.57423615014366e-07
-1.1013067430426e-08
-1.50623401226925e-06
7.41234136654097e-07
-2.33334558691127e-08
-1.42754510396688e-06
6.68136352322436e-07
-4.35294929130362e-08
-1.35272891472613e-06
5.58806031423895e-07
-7.21061294739478e-08
-1.42797343988488e-06
4.37229006751826e-07
-1.02467464502479e-07
-2.35365333873667e-06
3.17418444943258e-07
-9.58943039004687e-08
-1.07067109932955e-05
1.99830110348955e-07
2.90684275248953e-07
-1.41966910563262e-06
7.93215833381278e-07
-1.29492205318603e-09
-1.49000371516685e-06
8.31443996222611e-07
-3.64217501709508e-09
-1.54215067377971e-06
8.67077493120149e-07
-8.27978284815644e-09
-1.51035037894954e-06
8.56982725481475e-07
-1.75222112215658e-08
-1.37888794081515e-06
7.84504411275678e-07
-3.32088907480953e-08
-1.21321180222436e-06
6.72784083830273e-07
-5.67197610239122e-08
-1.0929955351567e-06
5.48028116106552e-07
-8.73481465282204e-08
-1.15137823283023e-06
4.2457539760032e-07
-1.16124773884044e-07
-2.08569250822455e-06
3.10087980198564e-07
-9.76459342659372e-08
-1.02883524809374e-05
2.02925516730222e-07
3.45092039363708e-07
-1.45012899473109e-06
8.88374291182051e-07
-1.34403431024841e-09
-1.52287240538248e-06
9.33309711900187e-07
-3.37502452613362e-09
-1.57749446576817e-06
9.77596023294573e-07
-6.90232230126805e-09
-1.53824479423833e-06
9.72535694546765e-07
-1.3647085435868e-08
-1.38225575686374e-06
8.9903332406881e-07
-2.54133137598083e-08
-1.16620401613193e-06
7.82522037264707e-07
-4.36360819006703e-08
-9.58196807913648e-07
6.52196677064207e-07
-6.88799968148132e-08
-8.16622708003639e-07
5.23614612541545e-07
-9.94274694031464e-08
-8.69498280007611e-07
4.04220803922489e-07
-1.23822386104839e-07
-1.82308637415734e-06
3.01475275025216e-07
-8.95410394382388e-08
-9.88310575704402e-06
2.13319946797667e-07
4.10293017362601e-07
-1.47498382076031e-06
9.84746845493888e-07
-2.05471229071771e-09
-1.55298493344995e-06
1.03622870880219e-06
-4.1797986883712e-09
-1.61406051456348e-06
1.08862379729454e-06
-7.0190986676055e-09
-1.57574303078054e-06
1.08740508286094e-06
-1.17892929513831e-08
-1.41126142587108e-06
1.01142578161124e-06
-2.02009691765991e-08
-1.17161728372911e-06
8.88297395995537e-07
-3.37272039357429e-08
-9.16907372534816e-07
7.49950236124295e-07
-5.31586006537995e-08
-6.90336204566802e-07
6.13493287055879e-07
-7.8370505865687e-08
-5.38255330767009e-07
4.86188350824667e-07
-1.06357196280436e-07
-5.95923624434437e-07
3.73899660184821e-07
-1.22992950541066e-07
-1.58529927021601e-06
2.84228401845438e-07
-6.90991157208937e-08
-9.49329420337421e-06
2.10509169678322e-07
4.7780139080939e-07
-7.49267477837855e-06
8.88855552698505e-08
2.72948738798682e-08
-1.96647587145799e-06
1.46222961466533e-07
-3.01222511889375e-10
-9.05038824045084e-06
1.10001485234931e-07
5.74836345223798e-08
-1.42208256792761e-06
2.05272174203817e-07
-2.80391307003074e-09
-2.4430788092621e-06
1.84573578296841e-07
-4.93018175025683e-09
-1.00022838915963e-05
1.32495562644555e-07
8.65016381844714e-08
-1.32107802852393e-06
2.69537385956745e-07
-2.7389600985195e-09
-1.71252083015851e-06
2.58676797429596e-07
-8.64301138918821e-09
-2.72282200006054e-06
2.25414575387039e-07
-1.58785201163623e-08
-1.1012885283356e-05
1.56053557531372e-07
1.15853809344084e-07
-1.3182956024818e-06
3.39768968122742e-07
-2.40582886726826e-09
-1.53778723192514e-06
3.38911010343454e-07
-9.51679823424822e-09
-1.90582248695463e-06
3.18899970549216e-07
-2.10603789383535e-08
-2.96353913209244e-06
2.65353588949883e-07
-3.14335413987732e-08
-1.16664325171658e-05
1.74345393167673e-07
1.46725049489726e-07
-1.34378101979849e-06
4.15931981365993e-07
-2.22191733686583e-09
-1.48471067072162e-06
4.23826030437596e-07
-7.79618747067065e-09
-1.69135032430754e-06
4.16009761237803e-07
-1.97798940227582e-08
-2.01534514037453e-06
3.74733427035152e-07
-3.84164526595073e-08
-3.02404704189939e-06
2.92371037223793e-07
-4.78757743658205e-08
-1.18554539094578e-05
1.85748861617648e-07
1.79585253437711e-07
-1.37705256357887e-06
4.97390700475789e-07
-1.93713932605263e-09
-1.47934756114987e-06
5.13031394008408e-07
-6.09705814969402e-09
-1.60517695429881e-06
5.17153530513906e-07
-1.62011307304184e-08
-1.74937837126835e-06
4.85974561393945e-07
-3.35233302955187e-08
-1.95738232765634e-06
4.08849117315516e-07
-5.72943092625763e-08
-2.91911885467203e-06
3.05173233872743e-07
-6.22212354901403e-08
-1.16978088507864e-05
1.89401419174308e-07
2.16829836211416e-07
-1.41273357201145e-06
5.83352646847421e-07
-1.46826917864512e-09
-1.49748337816767e-06
6.06218517990981e-07
-4.49177986463787e-09
-1.58005585970932e-06
6.21292778057789e-07
-1.21098669942335e-08
-1.63066620881358e-06
5.98543712280917e-07
-2.63251254456238e-08
-1.6504601403067e-06
5.25789980476703e-07
-4.86660246376576e-08
-1.77125781341178e-06
4.21359763574995e-07
-7.5309532075376e-08
-2.71410919140201e-06
3.07614485437769e-07
-7.45449274411036e-08
-1.13600620999864e-05
1.91433914712097e-07
2.57945051633491e-07
-1.4494061423765e-06
6.73158472179584e-07
-9.84351352632354e-10
-1.52701843294934e-06
7.03057315554997e-07
-3.11689668655527e-09
-1.5911990336741e-06
7.28175192975426e-07
-8.49107301421248e-09
-1.58872578111964e-06
7.12470854782874e-07
-1.93827965207246e-08
-1.51315416835686e-06
6.42120737702936e-07
-3.76696372809025e-08
-1.44080218945959e-06
5.36934579277441e-07
-6.37734031067008e-08
-1.51983784578552e-06
4.19811086170294e-07
-9.12841356879585e-08
-2.4628497265854e-06
3.04216887245106e-07
-8.19605001044807e-08
-1.09569609493181e-05
1.90785388464663e-07
3.04679859889612e-07
-1.48544655515521e-06
7.66283479355662e-07
-6.84600328530488e-10
-1.56145574602478e-06
8.03149440651858e-07
-2.23972845126292e-09
-1.6209929876219e-06
8.37563972383661e-07
-5.86870168650351e-09
-1.59418184793392e-06
8.27901333676874e-07
-1.38500094246216e-08
-1.46418019359808e-06
7.58062579819467e-07
-2.79693272230154e-08
-1.29871233116992e-06
6.50257010589364e-07
-4.94823689805059e-08
-1.17979660538728e-06
5.29549202084607e-07
-7.762876825874e-08
-1.24216031248842e-06
4.09417138563934e-07
-1.03689191212886e-07
-2.19567403517138e-06
2.96691843304459e-07
-8.27892117821346e-08
-1.05464411360526e-05
1.89544412717317e-07
3.59199234252777e-07
-1.51846264869796e-06
8.62289937551993e-07
-7.40702335039282e-10
-1.59666834782497e-06
9.05869015912194e-07
-1.92460071885299e-09
-1.65854597899405e-06
9.49014821227094e-07
-4.52886272054153e-09
-1.62384594660979e-06
9.44482860141938e-07
-1.017969979005e-08
-1.46828493758093e-06
8.73687817267338e-07
-2.06779100341481e-08
-1.25040580767634e-06
7.61137233569026e-07
-3.73625093280209e-08
-1.04110715082576e-06
6.34921096035375e-07
-6.07058458926981e-08
-9.00158753193842e-07
5.09735883284574e-07
-8.89767580621417e-08
-9.56534939454933e-07
3.92044404561876e-07
-1.11051567971693e-07
-1.93025914169181e-06
2.87353567621558e-07
-7.49197324446705e-08
-1.01542086600642e-05
1.92165975803437e-07
4.23996142336423e-07
-1.54607383493021e-06
9.60716037706147e-07
-1.25185307395918e-09
-1.62929460626003e-06
1.01082530600034e-06
-2.55042194753111e-09
-1.69750871322938e-06
1.06228346376957e-06
-4.6148596031277e-09
-1.66343758910386e-06
1.06186698050619e-06
-8.53957932239505e-09
-1.4987349973402e-06
9.88831387843789e-07
-1.59726737998742e-08
-1.25603391492211e-06
8.69867134530597e-07
-2.83431525025593e-08
-9.97866777392558e-07
7.35917514432793e-07
-4.63994045228547e-08
-7.69074414700752e-07
6.03471012220931e-07
-7.00006217037765e-08
-6.16509516868446e-07
4.79305128052191e-07
-9.62616665491249e-08
-6.75464698001766e-07
3.68678659135589e-07
-1.11490636111421e-07
-1.68329947062292e-06
2.78700810041165e-07
-5.6933455434176e-08
-9.78592017063668e-06
2.07698636499915e-07
4.9520576945665e-07
-1.56663708951503e-06
1.06114349122933e-06
-2.50201289948277e-09
-1.65663948756039e-06
1.11759967102258e-06
-4.30795692483175e-09
-1.73349660340523e-06
1.1768776010045e-06
-6.2456791551489e-09
-1.70497894287565e-06
1.17951478251838e-06
-8.90170086650013e-09
-1.53969334779748e-06
1.10285822038878e-06
-1.37869598142253e-08
-1.2878858881888e-06
9.76014629767754e-07
-2.23668822306886e-08
-1.00675903296604e-06
8.32629937962724e-07
-3.56201517270086e-08
-7.32982610578268e-07
6.90666897738591e-07
-5.37302197522843e-08
-4.94999025050453e-07
5.57446643871511e-07