/*--------------------------------*- C++ -*----------------------------------*\
  =========                 |
  \\      /  F ield         | OpenFOAM: The Open Source CFD Toolbox
   \\    /   O peration     | Website:  https://openfoam.org
    \\  /    A nd           | Version:  12
     \\/     M anipulation  |
\*---------------------------------------------------------------------------*/
/*   Windows 32 and 64 bit porting by blueCAPE: http://www.bluecape.com.pt   *\
|  Based on Windows porting (2.0.x v4) by Symscape: http://www.symscape.com   |
\*---------------------------------------------------------------------------*/
FoamFile
{
    format      ascii;
    class       volVectorField;
    location    "100";
    object      U;
}
// * * * * * * * * * * * * * * * * * * * * * * * * * * * * * * * * * * * * * //

dimensions      [0 1 -1 0 0 0 0];

internalField   nonuniform List<vector> 
10123
(
(-1.22108683454213e-05 2.54771215982348e-05 5.01086823859605e-05)
(-1.08626223545418e-05 5.54203093874144e-05 4.6829952857421e-05)
(-7.63274563958734e-06 9.14696460866954e-05 9.37948819669398e-05)
(-3.61446748377745e-05 -0.000152715752290359 4.9831290303522e-05)
(-9.07856840586339e-06 8.73104601847351e-05 4.45641419260551e-05)
(-6.88232664595032e-06 0.000121444296713681 8.90173052185648e-05)
(-3.20896111101354e-05 -0.000129087198941128 4.78879214486674e-05)
(-5.12964255520357e-06 0.000202846179518705 0.000140902882715166)
(-2.41939709460209e-05 -3.22526706627117e-05 9.16279902686125e-05)
(-5.93338519174089e-05 -0.000212754004217666 5.18682937039417e-05)
(-8.47362433436161e-06 0.00011935959728318 4.23315546508401e-05)
(-6.12820843707656e-06 0.000153701982287227 8.41892436448354e-05)
(-2.83144496622201e-05 -0.000109009363149273 4.56394934735033e-05)
(-4.71319115119718e-06 0.000235115697975699 0.000135064251460414)
(-2.22234481874109e-05 -1.07606554754345e-05 8.67792678891631e-05)
(-5.43443859116109e-05 -0.00019191208305025 4.99353947029994e-05)
(-3.76346288660758e-06 0.000274588206029879 0.00018806371933229)
(-1.60386050724074e-05 0.000142548428786329 0.000137946025051193)
(-4.17571974567285e-05 -8.66435303623347e-05 9.08490828820931e-05)
(-8.18659236168798e-05 -0.000254891675289628 5.14602134632089e-05)
(-8.0722942658106e-06 0.00015008518669966 4.03172926999182e-05)
(-5.62615397778323e-06 0.00018565488090596 7.98641494470104e-05)
(-2.63829624823659e-05 -8.39123596307388e-05 4.32275198445015e-05)
(-4.25840277759218e-06 0.000268449537792095 0.000128831672082831)
(-2.00988412234306e-05 1.54870883976157e-05 8.18588086384861e-05)
(-4.96184537943754e-05 -0.000176009556648706 4.62583768440361e-05)
(-3.46961310128796e-06 0.00030784812530523 0.000181403676841347)
(-1.488585383127e-05 0.000170214836691475 0.00013221462953864)
(-3.88987993153933e-05 -6.98054914099423e-05 8.59840784720852e-05)
(-7.587247795238e-05 -0.000234659295166664 4.89795338793075e-05)
(-2.7451320529191e-06 0.000341252590488855 0.000233255316562604)
(-1.13531405220322e-05 0.000236541482983113 0.000184225273002802)
(-2.85307069470188e-05 0.000103696465277416 0.000135893584061004)
(-5.92432246079524e-05 -0.000131547550790749 8.92037898642603e-05)
(-0.000103806849475405 -0.000310489288324828 4.97795688288787e-05)
(-7.63390243159138e-06 0.000179756249008658 3.83333612300454e-05)
(-5.27139196513742e-06 0.000216454379143632 7.58388450799258e-05)
(-2.48898689374214e-05 -5.84609457322083e-05 4.11351361057689e-05)
(-3.8956743118107e-06 0.00030136162703991 0.000122674248407843)
(-1.83173545886536e-05 4.37270496257597e-05 7.78009625626897e-05)
(-4.61299926917552e-05 -0.000153418200304144 4.358912012574e-05)
(-3.15140822472148e-06 0.000341548696414143 0.000173996011904188)
(-1.35619264448182e-05 0.000200620625805683 0.000126067915253706)
(-3.58743515149514e-05 -4.66356443235053e-05 8.0862789405098e-05)
(-7.04198538280253e-05 -0.000221130822589516 4.59712521308163e-05)
(-2.52480546495877e-06 0.000375347628964913 0.000225909007183949)
(-1.05247028104544e-05 0.000266984111241538 0.00017786542011323)
(-2.66552922600775e-05 0.000128182847920269 0.000130376058753966)
(-5.5537517363448e-05 -0.000117212364588687 8.44257169780683e-05)
(-9.69873528159775e-05 -0.000290781216312056 4.67981220290918e-05)
(-1.96845672403068e-06 0.000409305446708223 0.00027697321653224)
(-8.15306564279289e-06 0.000311022168684603 0.000228235093494699)
(-2.03015420493388e-05 0.00020497484087291 0.000180850788382759)
(-4.13461164121133e-05 6.31639181123623e-05 0.000132306358499005)
(-7.61736881026747e-05 -0.000187141874812677 8.54822068182012e-05)
(-0.000124022344581607 -0.000380794386931577 4.72034967156858e-05)
(-7.16652073057757e-06 0.000208152679249276 3.63413033397887e-05)
(-4.95186919913427e-06 0.000246077101519468 7.19358602749516e-05)
(-2.3440746219348e-05 -3.32207722759309e-05 3.92242769580989e-05)
(-3.59007875966024e-06 0.000333409866400389 0.000116619553883594)
(-1.69685372066686e-05 7.15444996146969e-05 7.40967642280216e-05)
(-4.31585207361786e-05 -0.000129785730175036 4.17671390982954e-05)
(-2.87544390746117e-06 0.000374866906311059 0.000166256129960838)
(-1.24182645271378e-05 0.000231771379054554 0.000120156341166482)
(-3.32596926726645e-05 -2.012756911716e-05 7.68030815399929e-05)
(-6.56838539264209e-05 -0.000199466220958987 4.38305068048495e-05)
(-2.28449075324396e-06 0.000409612417843733 0.000217497597144777)
(-9.58637739852183e-06 0.000298863325311131 0.000170738527990694)
(-2.45826980950283e-05 0.000156631909188259 0.000124335021174427)
(-5.17230492602037e-05 -9.60439041240572e-05 7.93415291323278e-05)
(-9.07125390705973e-05 -0.000279104094529455 4.29390737688648e-05)
(-1.79145114921177e-06 0.000444353846457271 0.000268997059011486)
(-7.51310817020475e-06 0.000343017847848181 0.000221290906950323)
(-1.89303674661357e-05 0.000233201847277642 0.000174887038257167)
(-3.87445266042699e-05 8.54803688796569e-05 0.000127197156011542)
(-7.16868494098076e-05 -0.00017477160491152 8.09659684342308e-05)
(-0.000116325878668305 -0.000361891819708612 4.4090518066535e-05)
(-1.37592983385458e-06 0.00047853428208052 0.000319486423931387)
(-5.8583824942594e-06 0.00038124016222034 0.000270491888088838)
(-1.46108348956446e-05 0.00028193980547948 0.000223412382757754)
(-2.97585722264906e-05 0.000167149831647432 0.000175291099396355)
(-5.37467594970566e-05 1.10511777231531e-05 0.000125753734205112)
(-9.15122379191342e-05 -0.000253665180511419 7.96957590535605e-05)
(-0.000140997994557263 -0.000464074640670526 4.29859703519836e-05)
(-6.70884636374767e-06 0.00023510307130155 3.43634497642444e-05)
(-4.62740034425144e-06 0.000274393339464206 6.81090597249395e-05)
(-2.19952362762878e-05 -8.77127737225231e-06 3.73025675856918e-05)
(-3.3132636070771e-06 0.000364432846052015 0.000110670135001881)
(-1.60221703433552e-05 9.85479670889925e-05 7.04114274258221e-05)
(-4.03711531651692e-05 -0.000106017152992971 4.01043445274608e-05)
(-2.63071194848992e-06 0.000407505695913044 0.000158386108169416)
(-1.14344894439386e-05 0.000262423614386684 0.000114408688544616)
(-3.0920589632052e-05 6.26096818362039e-06 7.32727220355336e-05)
(-6.14282453458867e-05 -0.000176723556258786 4.21819379735169e-05)
(-2.06429166820998e-06 0.000443515115234366 0.000208434886425443)
(-8.73551584558916e-06 0.000331069403180773 0.000163332426513187)
(-2.26702908537983e-05 0.000186647930104911 0.000118619449849667)
(-4.82110344985921e-05 -7.07278801794219e-05 7.54597156869242e-05)
(-8.49510537811613e-05 -0.000258934780878786 4.1556727915355e-05)
(-1.5967645125141e-06 0.00047944374875868 0.000259687038749522)
(-6.79356739983015e-06 0.00037587396649471 0.00021329814712775)
(-1.74052191025818e-05 0.000263657743168121 0.000168082226490428)
(-3.59727757772273e-05 0.000112344619646163 0.000121441445646318)
(-6.71186515462025e-05 -0.000155358995626511 7.60007835050964e-05)
(-0.000109249345096693 -0.000352102342523404 3.95905732816544e-05)
(-1.22910869856752e-06 0.000514683215993454 0.000310913462931163)
(-5.33418325123409e-06 0.000414499101513663 0.000262987916914448)
(-1.35365312484976e-05 0.00031215546550515 0.000216970180036472)
(-2.78058364441649e-05 0.000193609601900932 0.000169948268170026)
(-5.0456959870489e-05 3.15156774446094e-05 0.000121267024646733)
(-8.63644154121703e-05 -0.000243152598668452 7.55639230292383e-05)
(-0.000132554788119415 -0.00044607017249328 4.01229488024342e-05)
(-9.45493733224565e-07 0.000547503397043205 0.000361202452125007)
(-4.15892256130795e-06 0.000450354498305694 0.000311541733480386)
(-1.04911405474803e-05 0.000352120489805072 0.000264105676318766)
(-2.1579306840025e-05 0.000244613483753291 0.000215958533299429)
(-3.89007355192697e-05 0.000116821648420349 0.000166026337178192)
(-6.48497089457019e-05 -5.22740411045178e-05 0.000116366678123665)
(-0.000104294378133119 -0.000329414372023512 7.21531986888466e-05)
(-0.000153597776984736 -0.000557687273967128 3.79073317239228e-05)
(-6.2778348080303e-06 0.000260613879922855 3.24270215131781e-05)
(-4.30837396524053e-06 0.000301366111298402 6.43938941398269e-05)
(-2.05959456004166e-05 1.4503605288974e-05 3.53332273584653e-05)
(-3.05535961770172e-06 0.000394272675236461 0.000104852161880847)
(-1.50501208890008e-05 0.000124426009805749 6.67641935911435e-05)
(-3.77351755574357e-05 -8.27891265092612e-05 3.8285421994226e-05)
(-2.40469007625394e-06 0.000439276468886911 0.00015053807312168)
(-1.05621080553143e-05 0.000292228346270882 0.000108726240226429)
(-2.88328142132038e-05 3.19834579551255e-05 6.98527190677209e-05)
(-5.74425159430213e-05 -0.000153735621068881 4.06350892406932e-05)
(-1.86480223460873e-06 0.000476828624421332 0.000199032700287391)
(-7.97399404295432e-06 0.000362850844055319 0.000155783599398095)
(-2.09309255111846e-05 0.000216386699832232 0.000113089545705944)
(-4.49772638880869e-05 -4.5336192264366e-05 7.21532089820703e-05)
(-7.95074365900661e-05 -0.000237018919484535 4.10072460626622e-05)
(-1.413811106312e-06 0.000514171447326025 0.000249475418587562)
(-6.120485824264e-06 0.000408882244600938 0.00020466846172016)
(-1.59405974591477e-05 0.000294975993277367 0.00016101380766136)
(-3.33157095744425e-05 0.00014132835922718 0.000116037524219755)
(-6.2752353443413e-05 -0.00013128421756372 7.24127887884059e-05)
(-0.000102444241890738 -0.000333350028797736 3.72572700866492e-05)
(-1.06429255913558e-06 0.000550786361862279 0.000300773198423145)
(-4.74433628934161e-06 0.000448349381438835 0.000254195324922493)
(-1.23417735071497e-05 0.00034379477538179 0.00020944712822849)
(-2.57012576201334e-05 0.000222727957438094 0.000163649700879014)
(-4.70231586191957e-05 5.6844641686548e-05 0.000115992717199315)
(-8.11411986029019e-05 -0.000225443980904942 7.08827144936007e-05)
(-0.000124931953921816 -0.000438332578018106 3.57923168881618e-05)
(-8.15899104277756e-07 0.000584850603622893 0.00035203987591143)
(-3.71509206591477e-06 0.000484843354574328 0.000303494879213308)
(-9.61044788415826e-06 0.000383783389161288 0.000257183753860736)
(-2.00321487809342e-05 0.000273269628922152 0.000210274920561549)
(-3.63759240749285e-05 0.000141634078659019 0.000161543616285087)
(-6.09841220801614e-05 -3.36002877051079e-05 0.000112611880527951)
(-9.86758304948348e-05 -0.000320769934735195 6.85155950468263e-05)
(-0.000144673188941133 -0.000540796967298717 3.53343214252582e-05)
(-6.52018671550718e-07 0.000614996064169291 0.000402649909425834)
(-2.9096015063217e-06 0.00051855153070978 0.00035195333662136)
(-7.45147153285229e-06 0.000420113883396089 0.000303624030024791)
(-1.55673426782027e-05 0.000313988843089275 0.000254812568164081)
(-2.82924341110448e-05 0.000194478654944293 0.000204281381706953)
(-4.70531543750508e-05 5.49663645781852e-05 0.000153334539672781)
(-7.39557603753611e-05 -0.000125104424612153 0.000104656156298535)
(-0.000113798249868411 -0.000412706252191259 6.32843626495152e-05)
(-0.000161097790619243 -0.000659128850709794 3.27686639815123e-05)
(-5.87170455518553e-06 0.000284780507306826 3.05754260397222e-05)
(-4.00252045041114e-06 0.000327018946602105 6.0834745774641e-05)
(-1.92732193701506e-05 3.64903757236447e-05 3.33752588885848e-05)
(-2.81359161875667e-06 0.000422876154098965 9.92252859781232e-05)
(-1.40454030885452e-05 0.00014906382615249 6.31894056983598e-05)
(-3.52609046150889e-05 -6.06033960429491e-05 3.63401220123361e-05)
(-2.19422654423541e-06 0.000470013212936885 0.000142825809139586)
(-9.75203378726703e-06 0.000320941119728191 0.000103116648640751)
(-2.69043771945071e-05 5.67048113099484e-05 6.63872263406903e-05)
(-5.36864601591151e-05 -0.000131149967141467 3.88943416623912e-05)
(-1.68043249767039e-06 0.000509374912308898 0.000189541402415381)
(-7.27959182897929e-06 0.000393886948972057 0.000148211210170615)
(-1.93397864063046e-05 0.000245382449439754 0.000107616476619574)
(-4.19673769626037e-05 -2.05071848812785e-05 6.89608500329706e-05)
(-7.42852566574173e-05 -0.000214833480819885 3.9991470763796e-05)
(-1.24613718141396e-06 0.000548347891266398 0.000238739718935136)
(-5.50942311664141e-06 0.000441500608966627 0.000195650501089655)
(-1.45797393148697e-05 0.000326038762017659 0.000153773088090603)
(-3.08315035299522e-05 0.000170201527288579 0.00011081705504711)
(-5.86389745960197e-05 -0.000106967106575063 6.94840761588158e-05)
(-9.60402246404491e-05 -0.000312919117318141 3.66185691204537e-05)
(-9.06261117300892e-07 0.000586506758999797 0.00028952469857613)
(-4.18332698176509e-06 0.000482248748663015 0.000244505213913376)
(-1.1170434333326e-05 0.000375985063816023 0.000201275271191237)
(-2.36268832566726e-05 0.000253098140494299 0.00015706029302027)
(-4.36717290718227e-05 8.46638882734221e-05 0.000111064870259558)
(-7.60437639275416e-05 -0.000202724877187289 6.76125031519873e-05)
(-0.000117543153104861 -0.000421254300923873 3.36718846665338e-05)
(-6.695667945124e-07 0.000622076845853361 0.000341098914956827)
(-3.20977809640868e-06 0.000519770703190256 0.000293946452421169)
(-8.62485412871831e-06 0.000416489413979584 0.000248968544323118)
(-1.83541165191762e-05 0.00030367556382626 0.000203419867169467)
(-3.3710564125753e-05 0.000169352151599442 0.000155974419017719)
(-5.69775255758143e-05 -9.8189799409726e-06 0.000107977272993486)
(-9.29636469432911e-05 -0.000304803585023321 6.42685140918762e-05)
(-0.000136783848536876 -0.000535379131434857 3.1109292769111e-05)
(-5.30925081403488e-07 0.000653595718336916 0.00039287006775319)
(-2.51728016864531e-06 0.000554301268173759 0.000343361516052609)
(-6.70123209065946e-06 0.00045308575609069 0.000296223010412946)
(-1.42943571627043e-05 0.000344179663193504 0.000248750703471766)
(-2.62745490056008e-05 0.00022159970049209 0.000199628282821524)
(-4.40419585203172e-05 7.81090989493258e-05 0.000149865267982035)
(-6.96815140307303e-05 -0.000108273790413579 0.000101739305864783)
(-0.000107946641598635 -0.000406074875751952 6.01778495365821e-05)
(-0.000152056748107192 -0.000643519204984116 3.04457420486251e-05)
(-4.71542887683938e-07 0.000680208079893024 0.000444361319689342)
(-2.0325114539723e-06 0.000585281561504335 0.000392274947935268)
(-5.22050662106004e-06 0.000486981178106713 0.000342626696557414)
(-1.10747032035147e-05 0.000380662600791859 0.00029261182099688)
(-2.0422287619122e-05 0.000263233640593736 0.000240993342186046)
(-3.42346498735993e-05 0.000132886871646555 0.000188751079435404)
(-5.37045877081558e-05 -1.6423085027021e-05 0.000137857272008835)
(-8.06361338585106e-05 -0.000205666939543911 9.11442899771273e-05)
(-0.000119573205101896 -0.000502007781568676 5.34952522046207e-05)
(-0.00016327034289333 -0.000767043265611828 2.70042738422455e-05)
(-5.47577300199145e-06 0.000307687429926823 2.88446879900503e-05)
(-3.71425244958118e-06 0.000351407761607514 5.74648152662195e-05)
(-1.80161903792792e-05 5.72238060192885e-05 3.14683251586336e-05)
(-2.58678332516857e-06 0.000450251063008936 9.38476030831764e-05)
(-1.30766243277749e-05 0.000172463376885396 5.97301118344014e-05)
(-3.29403280990631e-05 -3.96621000078504e-05 3.43796244303232e-05)
(-1.9978774804427e-06 0.00049963586355153 0.000135347745690677)
(-8.99025270898766e-06 0.00034846410067761 9.7643711138313e-05)
(-2.50953719640572e-05 8.02599407058151e-05 6.29112293669791e-05)
(-5.01541405437178e-05 -0.000109526030689621 3.69666849244875e-05)
(-1.50885128474428e-06 0.000540995026551766 0.000180146880683965)
(-6.63637086725438e-06 0.000423949726568844 0.000140719599211849)
(-1.78692879723691e-05 0.00027334764193691 0.00010217481226922)
(-3.91598877959861e-05 3.40355936640725e-06 6.56743044639579e-05)
(-6.9395440160967e-05 -0.000192976937285875 3.85885972057798e-05)
(-1.09095642633702e-06 0.000581812689175747 0.000227796804477879)
(-4.94807587530031e-06 0.000473450919681341 0.0001864812207623)
(-1.33241007804364e-05 0.000356443700036666 0.000146461970783285)
(-2.85186317889276e-05 0.000198416686698428 0.000105622272142246)
(-5.47706673754317e-05 -8.31318410577303e-05 6.66366058233462e-05)
(-9.01037492092218e-05 -0.000291765421729472 3.69579407810034e-05)
(-7.60090655289714e-07 0.000621680896176233 0.000277588861710183)
(-3.66972361672419e-06 0.000515757960420586 0.000234225787270693)
(-1.00710408538156e-05 0.000407924146710447 0.00019265477577632)
(-2.16570684686294e-05 0.000283355042522535 0.000150247699556005)
(-4.04887793981729e-05 0.000112508388257859 0.000106303009597463)
(-7.11840026463949e-05 -0.000179646202682928 6.50469319834655e-05)
(-0.000110378845449296 -0.000402388667771818 3.28345111580107e-05)
(-5.28443388098981e-07 0.000658881386825458 0.000328868226733857)
(-2.7214778300831e-06 0.000554668495307241 0.000283292996928661)
(-7.64621142232582e-06 0.000449566160122658 0.000239836417815977)
(-1.66755368673702e-05 0.000334925700746369 0.000195864004467336)
(-3.10612910404399e-05 0.000198583567367005 0.00015005143151189)
(-5.30340516603392e-05 1.66919277700559e-05 0.000103668131469925)
(-8.73276289943133e-05 -0.000283555443888958 6.14644287949017e-05)
(-0.00012907679238815 -0.000520220675743472 2.92400035365241e-05)
(-3.93824565944379e-07 0.000691992684626805 0.000381115511932291)
(-2.06630567499306e-06 0.000590372920345548 0.00033307156619316)
(-5.85216533934624e-06 0.000486878422484886 0.00028733442860496)
(-1.29000468796181e-05 0.000375674424936327 0.000241323666892325)
(-2.41259952685108e-05 0.000250658385954272 0.000193681384920903)
(-4.0885250916603e-05 0.000104343162290795 0.000145195508466425)
(-6.5235095735284e-05 -8.61170242112628e-05 9.78612320070222e-05)
(-0.000101952384657405 -0.000391985161644258 5.64025945945291e-05)
(-0.000144290672054372 -0.000640768518943038 2.6401963507499e-05)
(-3.5227828940518e-07 0.00072007747212666 0.000433897470737633)
(-1.67004693526535e-06 0.00062231841904239 0.000383104726422323)
(-4.55773028821949e-06 0.000521240191948902 0.000334736551775133)
(-9.98880390584159e-06 0.000412184469830998 0.00028615718070127)
(-1.87509121769106e-05 0.00029192844469429 0.000236082532266837)
(-3.18104972739564e-05 0.000158401983500538 0.000185310309062874)
(-5.0325454479276e-05 4.96576186806794e-06 0.000135517912790164)
(-7.61376336087668e-05 -0.000190814753495761 8.91395101165802e-05)
(-0.000113750120640626 -0.000497619079591987 5.09247633373339e-05)
(-0.00015444266125344 -0.000752642410322599 2.55988776503371e-05)
(-3.87844395894292e-07 0.000742661206482718 0.000486796939412455)
(-1.4777115717061e-06 0.00064992050416995 0.00043298553750284)
(-3.6501680745256e-06 0.000552552881197859 0.000381663508583902)
(-7.75024638062111e-06 0.00044618565112742 0.000330031492195788)
(-1.45001129270935e-05 0.000328981018295788 0.000276861059223101)
(-2.46719613597545e-05 0.00020137440089922 0.000223014341190146)
(-3.90718523858372e-05 6.19933115438022e-05 0.000170089944295679)
(-5.85730225077139e-05 -9.54220482458866e-05 0.000120218371021339)
(-8.46652165242248e-05 -0.000292231471943231 7.63267160813908e-05)
(-0.000121466824887716 -0.000595817865925222 4.3021324872549e-05)
(-0.000159645788667258 -0.000879399416031749 2.24365890613055e-05)
(-5.08198958606945e-06 0.000329425249262069 2.72596474543927e-05)
(-3.44581246862748e-06 0.000374611809151404 5.43000865252788e-05)
(-1.68011364615527e-05 7.67693628965548e-05 2.96460808971185e-05)
(-2.37494574794129e-06 0.000476435440772063 8.87563266026833e-05)
(-1.21610687045469e-05 0.000194671778309799 5.64306362212268e-05)
(-3.07480870721354e-05 -1.99618108257623e-05 3.24685823290197e-05)
(-1.81474308852047e-06 0.000528125657171742 0.000128181611782145)
(-8.27625996479365e-06 0.000374793550865644 9.23744757867875e-05)
(-2.3399590393051e-05 0.000102621195737371 5.95044928099308e-05)
(-4.68487051590785e-05 -8.91140633967034e-05 3.50041031523624e-05)
(-1.34906076390776e-06 0.000571596063664028 0.000170992298235054)
(-6.03647252341121e-06 0.000452930039315922 0.000133409215192789)
(-1.65034145459111e-05 0.00030016136664719 9.68177146465871e-05)
(-3.65423047910201e-05 2.61933846711556e-05 6.23164232180717e-05)
(-6.48425752675762e-05 -0.000172052290349437 3.6826520777935e-05)
(-9.46361108760836e-07 0.000614417594382415 0.000216889799527309)
(-4.42682917413212e-06 0.00050452517740005 0.000177347226342923)
(-1.21632333490143e-05 0.000385923706230962 0.000139177017036155)
(-2.63703597294828e-05 0.000225655192676108 0.000100407047013923)
(-5.11464608737111e-05 -6.01530808375579e-05 6.3623211344922e-05)
(-8.44188372473244e-05 -0.000270743657956632 3.67546781536688e-05)
(-6.24191089207943e-07 0.000656162997841019 0.000265330397157025)
(-3.19691304035877e-06 0.000548637387166898 0.000223666400817129)
(-9.05058480118514e-06 0.000439267116747871 0.000183815988714601)
(-1.98129524579795e-05 0.000313024742643791 0.000143300474856233)
(-3.74990567421081e-05 0.000139766538176596 0.000101515791292388)
(-6.65931068375319e-05 -0.000156949650073986 6.26191110027846e-05)
(-0.000103505594394362 -0.000382638978474024 3.21544506031408e-05)
(-3.9560884357572e-07 0.000695118238815163 0.000315804865765948)
(-2.2703906452321e-06 0.000589156431401602 0.000271880384504283)
(-6.72085939102754e-06 0.000482367798609499 0.000230040486864308)
(-1.50659832155505e-05 0.000366040405218947 0.00018777991089912)
(-2.85181205735754e-05 0.000227816887425688 0.000143834859531831)
(-4.92551824057884e-05 4.33287784909862e-05 9.94803662166547e-05)
(-8.1890481008492e-05 -0.000261870040801516 5.93104295155774e-05)
(-0.000121519424288759 -0.000503104656927156 2.87162501671437e-05)
(-2.60795697261845e-07 0.000729906225460895 0.000367906552286568)
(-1.62491267861867e-06 0.000626339949886557 0.000321497314950027)
(-4.99979274260522e-06 0.000520917050544138 0.000277321437815978)
(-1.14895318379403e-05 0.000407779612005642 0.000232918623253027)
(-2.19653758005255e-05 0.0002807586220535 0.000186944663649496)
(-3.77388954796799e-05 0.000132262813604164 0.000140096638547314)
(-6.08293388616677e-05 -6.10515607252908e-05 9.42771304451983e-05)
(-9.59754620608208e-05 -0.000372352666283866 5.41157772082225e-05)
(-0.000136586459307211 -0.000627882488559379 2.47206123998446e-05)
(-2.1784538686373e-07 0.000759644150991615 0.0004212744192437)
(-1.25066663861546e-06 0.000659565989898402 0.000372051722944745)
(-3.79764498056116e-06 0.000556160389694187 0.000325174417054693)
(-8.78274121204303e-06 0.00044475156784929 0.00027815212162628)
(-1.69524818936973e-05 0.000322082561087998 0.000229694193961175)
(-2.92435622579455e-05 0.000185993844194001 0.00018045520144909)
(-4.67792294875743e-05 2.96076464579465e-05 0.000131868711679281)
(-7.14107308660911e-05 -0.000170419444704216 8.60858041307337e-05)
(-0.000107700597904229 -0.000485607441756618 4.76426011976537e-05)
(-0.000147099680233501 -0.000752791307329394 2.16692800807802e-05)
(-2.68744661005536e-07 0.000783787012714885 0.000475539546126287)
(-1.13108992851679e-06 0.00068824706725509 0.00042316620288095)
(-3.04204123311877e-06 0.00058810476618826 0.000373244768787857)
(-6.78952173639193e-06 0.00047899169731856 0.000323161811908843)
(-1.30684599864178e-05 0.000359017253659172 0.000271653015700202)
(-2.26557484623925e-05 0.000228487368592295 0.000219458570970972)
(-3.6323071671215e-05 8.5802844941656e-05 0.00016799009993723)
(-5.49622635899482e-05 -7.5919555758672e-05 0.000119089351142996)
(-8.01379445818562e-05 -0.000279552347764291 7.52689205086602e-05)
(-0.000115921754670259 -0.00059393672554932 4.10736928497401e-05)
(-0.000152068353899283 -0.000866483299483336 2.00810472065916e-05)
(-3.88694086743434e-07 0.000802133912103181 0.000530303341937305)
(-1.20903370068832e-06 0.000711996838641731 0.000474484747133968)
(-2.64936840651979e-06 0.0006163135182468 0.000421179140560607)
(-5.3975359828606e-06 0.000510612848321193 0.000367592314594941)
(-1.01034076577253e-05 0.000393572678926332 0.000312498625754845)
(-1.74586985932396e-05 0.000266648043601133 0.000256707150649495)
(-2.81132653806754e-05 0.000130578125190041 0.000201634857308349)
(-4.26119749971885e-05 -1.62225637252555e-05 0.000149000762789472)
(-6.15373188209203e-05 -0.000180211836523497 0.000101000653314377)
(-8.60022221142882e-05 -0.000383024341625211 6.06555108205726e-05)
(-0.000119541277043423 -0.000692465996916806 3.24424808738198e-05)
(-0.000152050732692299 -0.000993697728181704 1.74999767002334e-05)
(-4.64205237304212e-06 0.000350153561188478 2.59758208253751e-05)
(-3.18889277179891e-06 0.000396726596948311 5.13529926949493e-05)
(-1.56101226549874e-05 9.52197791401686e-05 2.79718798925844e-05)
(-2.17786903137945e-06 0.000501486111943399 8.39716854080148e-05)
(-1.12989083291532e-05 0.00021575811299092 5.33182879362695e-05)
(-2.86536214307904e-05 -1.45022545936305e-06 3.06362067752942e-05)
(-1.64476043804321e-06 0.000555496928088247 0.000121380805381611)
(-7.60990434969902e-06 0.000399965759915421 8.73593433917378e-05)
(-2.18114080696929e-05 0.000123819996229458 5.62282042725397e-05)
(-4.37288853121489e-05 -6.99526161585414e-05 3.30737919835106e-05)
(-1.20013134268906e-06 0.000601138590187297 0.000162184636690531)
(-5.47725382873668e-06 0.000480800748944759 0.000126366537180108)
(-1.52336766382484e-05 0.000325808297397733 9.16208642242964e-05)
(-3.4102645006525e-05 4.78099400883763e-05 5.89817227059006e-05)
(-6.05762443066471e-05 -0.000152347332745041 3.49083674646667e-05)
(-8.11422214449794e-07 0.000646062708614051 0.000206205885793548)
(-3.94077322954743e-06 0.000534607629931053 0.000168397040831471)
(-1.10876233138744e-05 0.000414351573709218 0.000132019620403111)
(-2.43760458331409e-05 0.000251773889430193 9.52211311346533e-05)
(-4.77546836293607e-05 -3.82544121592252e-05 6.0458293858257e-05)
(-7.88936450165944e-05 -0.000250696003969948 3.54131329186277e-05)
(-4.97160166940607e-07 0.00068981332422184 0.000253039613444654)
(-2.75861621905059e-06 0.000580700716713871 0.000213075619957834)
(-8.10503204411134e-06 0.00046977717759877 0.000174946351223993)
(-1.8099509743007e-05 0.000341811064405312 0.000136311649453707)
(-3.47080044844306e-05 0.000166091844910907 9.66410372754581e-05)
(-6.22619962933995e-05 -0.000135054501863068 5.99869407514916e-05)
(-9.69390425485178e-05 -0.000362907209968555 3.12471832857137e-05)
(-2.7107257435817e-07 0.000730651198531744 0.000302311067055804)
(-1.85403428894601e-06 0.000623022611178499 0.000260066033430827)
(-5.85902879357043e-06 0.000514601535377758 0.00021988413243523)
(-1.35522469462325e-05 0.000396622448087335 0.000179393651152987)
(-2.61188562407295e-05 0.000256530446263436 0.000137406912534461)
(-4.56793158983689e-05 6.94477320655741e-05 9.52180859507601e-05)
(-7.6700596211542e-05 -0.000240482476281717 5.72022640712095e-05)
(-0.000114168762954212 -0.00048493898205499 2.83199962177556e-05)
(-1.35020675349979e-07 0.000767206438083538 0.000353734142709981)
(-1.21184748800805e-06 0.000661859704045575 0.00030901463126056)
(-4.18797809329624e-06 0.000554646628973948 0.000266468166091656)
(-1.01270814519336e-05 0.000439709711296804 0.0002237566882819)
(-1.9873269952023e-05 0.000310820872309921 0.000179582836210295)
(-3.47013273639407e-05 0.000160274820535479 0.000134619315485742)
(-5.65838318415872e-05 -3.57832854783564e-05 9.07529124703417e-05)
(-9.01693886676181e-05 -0.000352182176992737 5.24709152066647e-05)
(-0.000128830609100896 -0.000612834898079908 2.44637967580955e-05)
(-8.71433773602308e-08 0.000798643889379648 0.000407046287368148)
(-8.35444231842778e-07 0.000696626642882483 0.000359552840130062)
(-3.02549081773516e-06 0.000591224487750204 0.000314309578478563)
(-7.55142105493596e-06 0.000477773037010843 0.000268957865418251)
(-1.51270511425111e-05 0.000353009118601787 0.000222230472459788)
(-2.66583367927584e-05 0.000214762975495512 0.000174706246875326)
(-4.32357172514622e-05 5.60682785312612e-05 0.000127707715394676)
(-6.66937191524074e-05 -0.000146939006187469 8.32867577844299e-05)
(-0.000101596569552885 -0.000467762965788693 4.58995426170914e-05)
(-0.000139699912138295 -0.000742608148624168 1.99641201742842e-05)
(-1.34765262292441e-07 0.000824486193565858 0.00046195345582789)
(-7.28918262158847e-07 0.000726667303344495 0.000411288331500044)
(-2.33589009419861e-06 0.000624180017435014 0.000362976642489287)
(-5.70659092346377e-06 0.00051266161176697 0.000314562381370018)
(-1.15072623660482e-05 0.000390230245703083 0.000264789810515089)
(-2.04950603412957e-05 0.000257170805579746 0.000214304417018964)
(-3.34129376468722e-05 0.000111807306322826 0.000164354574978382)
(-5.11476123398031e-05 -5.30023067576394e-05 0.000116537971137124)
(-7.52982637293574e-05 -0.000261084421629685 7.30670582473169e-05)
(-0.000110024675527122 -0.00058424254338788 3.82440295577173e-05)
(-0.000145393136029889 -0.000870349324369309 1.57362756168899e-05)
(-2.7050064135095e-07 0.000844475359447328 0.000518112614587754)
(-8.67484072373831e-07 0.000751594689821546 0.000463904515799982)
(-2.07267536729467e-06 0.000653157983008787 0.000412161788903866)
(-4.5156720811807e-06 0.000544702374609108 0.00036026160099286)
(-8.83445445861775e-06 0.000424887996503404 0.000306957748703426)
(-1.57246372956358e-05 0.000295111753175303 0.000252965552893108)
(-2.58093478839642e-05 0.000156012634074869 0.000199575453603501)
(-3.96371966632134e-05 5.75867894228265e-06 0.00014832837558074)
(-5.78359240367534e-05 -0.000162761513709501 0.000101125696042905)
(-8.16206366742991e-05 -0.00037276573724616 6.05685005548907e-05)
(-0.000114578562675881 -0.000693549011121588 3.09352777939931e-05)