/*--------------------------------*- C++ -*----------------------------------*\
  =========                 |
  \\      /  F ield         | OpenFOAM: The Open Source CFD Toolbox
   \\    /   O peration     | Website:  https://openfoam.org
    \\  /    A nd           | Version:  12
     \\/     M anipulation  |
\*---------------------------------------------------------------------------*/
/*   Windows 32 and 64 bit porting by blueCAPE: http://www.bluecape.com.pt   *\
|  Based on Windows porting (2.0.x v4) by Symscape: http://www.symscape.com   |
\*---------------------------------------------------------------------------*/
FoamFile
{
    format      ascii;
    class       volScalarField;
    location    "400";
    object      omega;
}
// * * * * * * * * * * * * * * * * * * * * * * * * * * * * * * * * * * * * * //

dimensions      [0 0 -1 0 0 0 0];

internalField   nonuniform List<scalar> 
10142
(
2.46683987631541
2.46684423974848
0.688864304878219
2.38167766499647
2.46684118035118
0.684533351680623
2.38168070909672
0.386895182337153
0.673677062185596
2.28699316144663
2.46683835846298
0.679931844438557
2.38167984455201
0.383579897956905
0.669435087995438
2.28699581011822
0.283168027789532
0.382375750768085
0.654251842650999
2.21610697667948
2.46683452748261
0.675054567862667
2.38167530777881
0.380087898679788
0.664936541548272
2.2870079271358
0.280589498605039
0.379094449053324
0.650104095096856
2.21610913137178
0.234671308535799
0.281477583420593
0.375617948471635
0.638007974809352
2.18721775585323
2.46682782535463
0.669900310353646
2.38165827618735
0.376429626472766
0.660167296632217
2.28697900765528
0.277901746655125
0.375634728143133
0.645705601571304
2.21612331110756
0.232557019543079
0.278911385651785
0.372376376543851
0.633931441459856
2.18721860542126
0.208192147334891
0.233976783506415
0.278546667358539
0.3688453335641
0.628040932492326
2.18619322577566
2.46680508538093
0.664952417382233
2.38167709541093
0.37263669199079
0.655238942908169
2.28697861317679
0.275126827888861
0.372008994101531
0.64103782635041
2.21609128397796
0.230378753125055
0.276232825070911
0.368955264973299
0.629605306076749
2.18722046005908
0.20638700164517
0.231866400933702
0.275992759976658
0.365632319445848
0.623993305427635
2.1861929151941
0.192408164598447
0.207886048237025
0.232519340619061
0.275074105323054
0.363302362667594
0.622199775191332
2.19193193507179
2.46678126284934
0.662846371210369
2.38170160929269
0.368856304268927
0.652159552397154
2.28700601141414
0.272308336707241
0.368263601143722
0.636304775201022
2.21610726759164
0.228163656844239
0.273465386561757
0.365366214872925
0.625007511340979
2.18721393070675
0.204548962328391
0.229688677679265
0.273323132635606
0.362236766874215
0.619691622405759
2.18619178960914
0.190823160492339
0.206081051120268
0.230409343273222
0.272524985148973
0.360096675311358
0.618144365925059
2.19192922429423
0.182503287608027
0.192243472240554
0.207061221966584
0.23051561761038
0.271612408256803
0.358711098707878
0.616935661901518
2.19485822904104
2.46685600848344
0.664624482907992
2.38179225911149
0.365535598032714
0.651660181473158
2.28705898295906
0.269536016695835
0.364647657324274
0.634237317280997
2.21612726386856
0.225959176222434
0.270653899721528
0.361670696017801
0.62035555782626
2.18721825356119
0.202708782240464
0.227471965719206
0.270560574382249
0.358667805119189
0.615111648285479
2.18618963719849
0.189227492107204
0.204239829991795
0.228228126912933
0.26985518017237
0.356702210396294
0.613825934290076
2.19192750555393
0.181086297395465
0.190656998464874
0.205251202515413
0.228399023756722
0.269056435379248
0.355493683792998
0.612855034102034
2.19485325608768
0.176115211175869
0.182385102801982
0.191692563654931
0.205777935706527
0.228219266137526
0.268252596069368
0.35418413243966
0.610370432713775
2.1951322074037
2.46710977771731
0.670731489274361
2.38207774583481
0.363478844399534
0.653797288601945
2.28720832045595
0.26698849710784
0.361554073961701
0.63403595882601
2.21618885830368
0.223844154894736
0.26789480685984
0.358188686721461
0.618201958666105
2.18723964142585
0.200916322580742
0.225263390847024
0.267750278439899
0.354989878448686
0.610420855566537
2.18619407057886
0.187655886245947
0.202394136365846
0.226003279723694
0.26708509225995
0.353124453328947
0.609214283529389
2.19192361212936
0.179672063548928
0.189056569650802
0.203400944729378
0.226205659983702
0.266372360119257
0.352078172390313
0.608499486086805
2.19485101772543
0.174842009841773
0.180965961115196
0.190098576376308
0.203955745604361
0.226087760882253
0.265679370332748
0.350944995961936
0.60626268211748
2.1951268552881
0.176015266870297
0.181956269802526
0.190777976444981
0.204171059694516
0.225775910587956
0.264809208302199
0.349130913563708
0.602251346613458
2.19481068255959
2.4684579407777
0.682464801706126
2.38279746884582
0.363326944869515
0.659938379087739
2.2875911105826
0.265007113885317
0.359684936411854
0.63622997614645
2.21635232567511
0.221945372458584
0.265364457793095
0.355262373244827
0.617803184480905
2.18729932062537
0.199247895044479
0.223141102757637
0.26499317443682
0.351511767965153
0.607587498820142
2.18621381599225
0.186161745913724
0.200593356350528
0.223780247227727
0.264257233677477
0.349416420214853
0.604398202063165
2.19193152738901
0.178302854655994
0.187477780697319
0.201541381968772
0.223960771232419
0.26357703530462
0.348465264195261
0.603829804263703
2.19484625293944
0.173563316979326
0.179546334160424
0.188486528816336
0.202087558763807
0.223871663449692
0.262968387673494
0.347496363492045
0.601864815421082
2.19512422384563
0.170847770611847
0.174739638979069
0.180528386056469
0.189168952505506
0.202329304423349
0.223622493681705
0.2622128314888
0.345868205499799
0.598120369643016
2.19480514058606
0.175652013703249
0.181246110080317
0.189596821883847
0.20238151068499
0.223218789421858
0.261119613800503
0.343379956775825
0.592782948463235
2.19480573107997
2.47049254982686
0.701146867209751
2.38444982034606
0.365748957432918
0.671093652318288
2.28846146597185
0.26406281194433
0.359533892517004
0.641692176684456
2.21675195204148
0.220467249036045
0.263426212582913
0.353441649803233
0.619489847705212
2.18745794987137
0.197816564887087
0.221230500895194
0.262459041884585
0.348524847247062
0.606742513998112
2.1862686607412
0.184823129186557
0.198912598864567
0.221634522360968
0.261466579108491
0.345824601173497
0.600554795031202
2.19194807846382
0.177037391283952
0.185973520894268
0.199720070546409
0.221706250152203
0.260706768132185
0.344688507249789
0.598844580544446
2.19485434553035
0.172349788963325
0.178169293407433
0.186891167662518
0.200202016820535
0.221592805906634
0.260132223427765
0.343833413612413
0.597129957246359
2.19511911976615
0.169649150901871
0.173455206766047
0.179095870660038
0.187535955647661
0.200433543935879
0.221374705086065
0.259467565550702
0.342383258547748
0.593684931406281
2.19480231296031
0.168276466875887
0.170756456050041
0.174367131275486
0.179801482665056
0.187965297465154
0.200514225362347
0.221039318089699
0.258498765259742
0.340096299628666
0.588628142575295
2.19480014114704
0.175073640522818
0.180347582906363
0.188279614035546
0.200511325975581
0.220556832665349
0.257141145035847
0.336955981803483
0.582050893624191
2.19513095048833
2.47707958883524
0.727379666605661
2.3873006038256
0.371590263045772
0.688395611946713
2.29017031273842
0.264499019678395
0.361748884424832
0.651278923142171
2.21762553516218
0.219723444099865
0.262434664900021
0.353145548826598
0.62392224267507
2.18784711264511
0.196787694892905
0.219739181616854
0.260498251533194
0.346559857724084
0.60765264951336
2.18641927393713
0.183752282422426
0.197462974168361
0.219686655120753
0.258868496103131
0.342594329999807
0.599042177861873
2.19199870064206
0.175958004170138
0.184620615080109
0.198008979578679
0.219511629128889
0.257841850118024
0.340913132213864
0.593910201965909
2.19486956763889
0.171265072047799
0.176892975012046
0.185363545114492
0.198343192007761
0.219287759427661
0.257198654977083
0.33996695636702
0.592035870194311
2.195127054682
0.168554782974873
0.172233582376774
0.177700910461443
0.185911477745159
0.198509124716334
0.219050329505847
0.256581385651801
0.338666043429213
0.588892504053629
2.1947970768372
0.167179208177944
0.169553488249252
0.173068914764945
0.178346205313217
0.18630162463904
0.198583038824525
0.218754454868961
0.255717196624258
0.336578051403252
0.584163876217
2.19479726429068
0.166725307473051
0.168198142186309
0.170429520254299
0.173770941038327
0.178878260055541
0.186619568771994
0.198614819236407
0.218350213312615
0.254498005713192
0.333656117061334
0.577870014848971
2.19512542090208
0.174380846076573
0.179385052998707
0.186946351253009
0.19864242165537
0.217838422594426
0.252931256300276
0.329935620727604
0.570001982718138
2.19485568691378
2.47707765247967
0.762120628015449
2.39185417680148
0.381778604381186
0.712260277131045
2.29303147667512
0.266794224626399
0.367100470185799
0.665761070954006
2.21929747849747
0.219993200615348
0.262757747078663
0.354897211654619
0.631673646855664
2.18870502245036
0.196403428680552
0.218956737327004
0.259390730459093
0.345906423259035
0.610915605351567
2.18679835039516
0.183109286706129
0.196407518493215
0.218137379622887
0.256779137505859
0.340330006653823
0.59927437337189
2.19214278540219
0.175182166540871
0.183529274316899
0.196514157388081
0.217486804849211
0.255114444850191
0.337416989976303
0.591576208762888
2.19491695506187
0.170395350923317
0.175798420008207
0.183977385974502
0.196577502328612
0.21701695672809
0.254229012511408
0.335986194446183
0.58672656897679
2.19514130958217
0.167614987776367
0.17113770273968
0.176399737463586
0.184343161601105
0.196595192747758
0.216679478655628
0.253572677207562
0.334716134272916
0.583716177269637
2.1948048515979
0.1661909247988
0.168451140891261
0.171828543300112
0.176920203375657
0.184635070526313
0.196609408369889
0.216377680053073
0.252778388320208
0.332810611469947
0.579326446160971
2.19479197779223
0.165711831964232
0.16709652065269
0.169212876051945
0.172448531239184
0.177389964094811
0.184917313130222
0.196643339978588
0.216026668421775
0.251682487962371
0.330111472993879
0.573378945734451
2.19512262939621
0.165900104271605
0.166660338783989
0.167910878029473
0.169931122345413
0.173051608664948
0.177884468798936
0.185253823453943
0.196715381313314
0.21560628524441
0.2502707009446
0.326626480319584
0.56579770281071
2.19485236171608
0.173696519619337
0.178480964396499
0.185709853546271
0.196879713236961
0.21517944716244
0.248630166942679
0.32244597370389
0.556472616908115
2.19192995822876
2.49612145387186
0.805334057631597
2.39533601503348
0.397476663720843
0.743226433047351
2.29674769691033
0.271520956561493
0.376373631142556
0.685614165151719
2.22204871723377
0.221631709588271
0.264834896456032
0.359291223119592
0.643316971520873
2.19037351229288
0.196953415541061
0.219149283823598
0.259464281390259
0.346942909178634
0.616885216297599
2.18765645315788
0.183121579125779
0.195986013642672
0.217243879063264
0.255432202877396
0.339133932155773
0.601393313307369
2.192515777959
0.174878680803805
0.18285656902824
0.19539085011811
0.215809664440775
0.252789754707024
0.334684322540331
0.591084578834777
2.19505560520556
0.169864708049463
0.175000934892205
0.182837871757628
0.195002068690612
0.214874777699866
0.251333234039903
0.33219401446633
0.582648398572592
2.19518630728496
0.166915323617205
0.17025238625062
0.175270218604798
0.182899409298114
0.194750481979132
0.21431176024751
0.250484364617952
0.330576982621512
0.578170584746854
2.19481853346539
0.165371055418779
0.16750005954111
0.170706893640434
0.175576262904527
0.183008529429371
0.194626677114886
0.213932258358377
0.249693121668236
0.328787228191744
0.574083197733209
2.19479967643484
0.164813289398374
0.166100154909415
0.1680913867536
0.171175650947483
0.175919400949565
0.183198311295837
0.194614215001117
0.213595430512936
0.248693999393418
0.326302743711657
0.568504566489331
2.19511741636928
0.164955568407273
0.165642274981574
0.166795234099233
0.16868934300254
0.171694098182067
0.176354661340621
0.183507839088091
0.194701822677303
0.213245851297158
0.247426984908888
0.323063596855137
0.56126954689546
2.1948499727696
0.165594544576938
0.165847668141582
0.166408901068042
0.167493363970901
0.169371635315234
0.172333342802826
0.176944504450228
0.18398294354894
0.194923023796197
0.212925695115306
0.245959330567408
0.319136971280099
0.552245245412078
2.19192893783902
0.173142579391958
0.177761355245099
0.184708914053926
0.195388343874459
0.212787329426869
0.24449418172287
0.314763318170025
0.541252568247055
2.18619365483965
2.47684900258225
0.862792262290257
2.40111560495267
0.420067290967161
0.785328031723616
2.30018086900016
0.279402618013495
0.390484334674309
0.713033453030746
2.22558050497906
0.225090828018653
0.269177221828136
0.366920426010504
0.659807292535219
2.19317081553601
0.198778969909404
0.22065974638286
0.261084393802753
0.35009357468507
0.626152930802589
2.18937730661276
0.184109018747132
0.196468177769479
0.21724794259822
0.255091681589365
0.339296258382837
0.605730749072494
2.19338245433317
0.175290803354543
0.182826353073868
0.19486467316437
0.214715809998386
0.251094423344723
0.332830069203604
0.592012517239365
2.19542324772009
0.169854396052451
0.174665799850644
0.182094103818981
0.193757566060725
0.213009042308574
0.248699244891541
0.328860269489549
0.580870682253662
2.19532073189423
0.166584412676323
0.16969941392504
0.174422437608601
0.181676976922392
0.193060036644017
0.212024628122042
0.2474047573547
0.326435741000042
0.572551713411916
2.19486220185125
0.164808148701834
0.166784599050192
0.169785455020804
0.174386888516518
0.181483199707265
0.192684711752945
0.211456804368469
0.246488347537969
0.324517956778324
0.568422633476597
2.19481329607905
0.16409200216961
0.165268893399728
0.167113936396084
0.170009629709458
0.174514619198921
0.18149991789336
0.192554700424723
0.211073318045392
0.245537214611411
0.322218145850793
0.56320351513443
2.19512516206178
0.164132574219316
0.164735483789598
0.165779262177598
0.167534216759805
0.170374433383069
0.174828540494058
0.181729821901534
0.192614971861827
0.210762406303719
0.244396019999563
0.31922465990155
0.556362038399441
2.19484701083643
0.164710053792327
0.16489828931665
0.165376275159532
0.166351561690044
0.168092916339971
0.170931452311894
0.175367332857368
0.182190824782284
0.192868412859026
0.210532995001304
0.243095447782829
0.31556381748253
0.547698676421946
2.19192716018351
0.165662986075762
0.165553180508523
0.165627974598827
0.166060614686649
0.167065479651812
0.168876492697119
0.171739970488873
0.17618628118591
0.182947561448601
0.19340468553895
0.210517512412975
0.241822100817489
0.31146240398472
0.536992251716594
2.1861928472248
0.172851470171743
0.177385479594629
0.184144956863283
0.19443200864472
0.211015348155569
0.241009953268024
0.307515060757329
0.524633107595623
2.1872188611848
2.51405902630846
0.924626226071572
2.4006579023158
0.451681125062685
0.848832703897428
2.30188323223664
0.291361952863469
0.410908579424394
0.754962082866112
2.22846110581968
0.230956547013687
0.276405572477887
0.378651463771684
0.684465696767839
2.19682452498093
0.202347361400857
0.223910915191966
0.264654838087053
0.355833625886182
0.639939841015816
2.19233033276058
0.186469882572645
0.198190653051402
0.218451934078707
0.256033186583376
0.341124453361266
0.612697860552022
2.19516235530522
0.176771720282642
0.1837463701609
0.195179366075752
0.21440462225132
0.250214551546107
0.332056725691977
0.594503256991787
2.19629485099363
0.170631343669147
0.175030680641318
0.181956906645734
0.193045644753071
0.211631942277544
0.246590928611363
0.32633153254235
0.580626061199811
2.19568357678908
0.166813186646522
0.169656162056052
0.174013027331045
0.180811456405024
0.191645047018643
0.209936090255989
0.244466325923884
0.322532361364426
0.568837497839354
2.19499428600931
0.164633209599745
0.166431047710604
0.169180500033058
0.173453591499542
0.180144776119843
0.190855138636606
0.20901208391721
0.243222778375621
0.320076064001182
0.562378441551268
2.19485693466437
0.163637033528928
0.164690143038977
0.166361604173047
0.169026425178458
0.173240959678278
0.179875124340779
0.190505599878404
0.208488622540387
0.242225834297669
0.317853985849055
0.557455796388968
2.1951392112067
0.163492713187213
0.164002723873039
0.164921173759796
0.166511113905572
0.169145155420104
0.1733486696324
0.179951340668728
0.190476180849037
0.208167012266951
0.241177498059579
0.3150933730855
0.551012612755142
2.19485081982205
0.163953322576177
0.16406685946263
0.164449388760117
0.1653008738513
0.16688898202992
0.169553128693591
0.173778323130777
0.180350893277932
0.19072523206162
0.208003183261485
0.240032206054047
0.311708117177513
0.542757711050632
2.19192655109092
0.16483537286248
0.16466356474575
0.164663438519433
0.165000712837235
0.165884810057113
0.167550616692611
0.170286925059917
0.174558420973859
0.181109319557248
0.191312361874924
0.208099125997797
0.238947502031523
0.30789209481424
0.532453738991169
2.18619160885243
0.166002319103785
0.165630987390559
0.165360849039587
0.165338963143493
0.165743205232006
0.166755218942252
0.168569299655236
0.171405698532842
0.175770626869672
0.182350490225936
0.192425078920157
0.208735841230573
0.238346451814983
0.304224217087422
0.520295205646479
2.18721824195948
0.172995374110234
0.177580483612769
0.184325249185777
0.194439295465929
0.21049001608507
0.239145925174521
0.302081875726251
0.50884497517789
2.21610854576862
2.46568095716546
1.01414636601306
2.4173727128663
0.492139143698366
0.921018399519086
2.30585691214659
0.308663391839344
0.440018184438314
0.81077521813768
2.22937133566249
0.240013309201855
0.28733144860365
0.396084281416643
0.724474638322571
2.19977407716397
0.208300672492692
0.229441761574844
0.270667283006664
0.365063557999675
0.662950487991898
2.19629238638525
0.190775569752532
0.201600183701199
0.221216363862832
0.258554680036261
0.345054713071143
0.624202733904309
2.1982771750453
0.179826153071658
0.18600351412561
0.196644091166454
0.215124237384841
0.250351321221583
0.332578846198507
0.599467745744656
2.19811323304673
0.172592969571789
0.176440193115831
0.182711182099751
0.193080426637957
0.210903843264948
0.245109734622677
0.324611567421601
0.581538784591461
2.19655537518424
0.167887212007074
0.170383004879116
0.17426525291076
0.180491059571612
0.190675166490375
0.208220796169284
0.241890588825145
0.31925684377348
0.567072754210087
2.19535425673861
0.165040478042493
0.166626289905607
0.169060018038477
0.172919089384223
0.179111735044342
0.189238124410836
0.206687424438961
0.23998965884535
0.315683198747075
0.55625835208616
2.1949890283453
0.163577678763026
0.164492638743896
0.165955042711902
0.168333367528897
0.172188857026403
0.178397457449989
0.188525263901721
0.205886038171394
0.238792595310915
0.31322566036672
0.551253323314136
2.19518412950551
0.163122562341783
0.16353200925858
0.164305197034433
0.16569555655887
0.168074924602373
0.171972307988002
0.178217036667028
0.188317645149815
0.205478873314255
0.237776146656103
0.310658935427884
0.545192534002322
2.19486760023708
0.163383586194759
0.163415466002882
0.163689470686253
0.164396101858574
0.165800440885138
0.168245406685191
0.172214331189498
0.178489071371229
0.188509378769433
0.205342371431621
0.236765499326993
0.307550304718265
0.537390485280385
2.19192682148663
0.164141592696845
0.163898179431031
0.163811415742749
0.164038069192532
0.164783362903815
0.16628497278109
0.168841594238538
0.172902614390559
0.17920773671833
0.189117225439185
0.205531371387523
0.235864735424311
0.304039104409854
0.527531570585568
2.18619129940061
0.165234072127209
0.164797915171698
0.16445542335099
0.164345974941987
0.164642476614054
0.165524427402666
0.167188428255102
0.169897059313986
0.174090865057879
0.180468002674398
0.190299777763392
0.20629921747219
0.235472438663422
0.300676334715058
0.515824748244379
2.18721736146907
0.166540421213407
0.165977936490455
0.165461608535435
0.165121944491988
0.165114513253985
0.165587406843925
0.166686617261841
0.168588055306524
0.171504083181674
0.175925743484341
0.182499485604874
0.192412563877769
0.208206761036077
0.236498091282535
0.298784480166245
0.504349647475248
2.21610814409181
0.17381954634038
0.178686191561278
0.185736051532018
0.19614264834333
0.212394449768152
0.240883498858984
0.301537713322994
0.501222764601801
2.28699453242711
2.49631298205334
1.12449408236679
2.42906369191476
0.547797337450198
0.989134836823319
2.32324422011512
0.332923882800331
0.477039946768284
0.864521617586974
2.23283063618936
0.253410656878712
0.303082885939847
0.420043931548306
0.772052848838771
2.20045047515796
0.217580019151693
0.23797364791917
0.279792732573933
0.379268025631583
0.70013154879415
2.1996185112741
0.197879802736265
0.207306715490032
0.225993060470232
0.263044865988876
0.352068550807598
0.647523027504431
2.20253541884279
0.185198595537559
0.190148556731692
0.199657932334409
0.217162185336661
0.251729116619947
0.334886222310764
0.610332856683894
2.20133141014048
0.176345281727636
0.179379349255974
0.184712118377362
0.194128071389299
0.211021255901037
0.244408585545565
0.323927418123981
0.585123187166824
2.19839046315416
0.170240111184641
0.172266102669567
0.175499330420424
0.180971305906343
0.190343283125135
0.207023864756367
0.239788517821891
0.316614131099831
0.566500375116157
2.19622484771915
0.166321218326352
0.167648870616334
0.1696681814572
0.172983860848808
0.178545792627316
0.187969460583493
0.204609639871172
0.236932354796253
0.311529589190048
0.551569964528949
2.19534906699734
0.164103571091082
0.164866659935725
0.166071331352127
0.168083588174065
0.171483737671877
0.177167406399801
0.186694438559796
0.203331430182096
0.235300830802694
0.308408952983855
0.544636386917174
2.19531857703927
0.163145613099555
0.163450548821827
0.164054553136512
0.165199058631396
0.167259631193636
0.170777849599668
0.176588493543029
0.186185433092951
0.202728831399402
0.234206039069356
0.305916853390424
0.538884345737717
2.19491497029936
0.163082853662443
0.163029776064983
0.163181564707782
0.16371604659654
0.164895478201643
0.167068784162896
0.170724447024207
0.17664206128148
0.186245268723778
0.202562296690878
0.2332936576233
0.303073981076325
0.531535821750967
2.19194619497417
0.163637788348722
0.163316836254981
0.163132617800517
0.163230679109942
0.163811265324748
0.165114720112658
0.167445297800147
0.171250140373167
0.177263443021619
0.186830296065145
0.202816334440619
0.232567765969439
0.299889662146312
0.522177500523119
2.18619374460913
0.16460642948794
0.164095197466733
0.163668891770563
0.163457163342541
0.163627200701188
0.164358245083805
0.165851552217802
0.168379579002949
0.172367154891956
0.178507483032167
0.188058989886959
0.20370351466134
0.232387099949774
0.296867609616249
0.511033704388547
2.18721720707518
0.165839832223305
0.165203810356263
0.164611957509602
0.164186789564503
0.164078678923323
0.164433562956326
0.165396711097426
0.167146482227683
0.169937247529179
0.174194346472476
0.18057547428281
0.190259003348977
0.205759255191209
0.23363844957991
0.295295178549197
0.500037886457317
2.21610744847733
0.167228522871226
0.166521936488751
0.165827248361009
0.165264251841319
0.164975084026008
0.165087713654998
0.165718009050111
0.167000333423555
0.169114852409051
0.172281176982551
0.176991520951578
0.18387975769855
0.194097439761853
0.210108737244834
0.238238189815754
0.29815686044072
0.497091307479499
2.28699433563476
0.175687687574133
0.181232145585872
0.189190064512424
0.200884307862836
0.219103821763017
0.250557018075088
0.315153147572604
0.552333221471199
2.38167841478807
2.9257182698255
1.26752592642061
2.45521496417358
0.633708886136284
1.05761982995986
2.36164640503656
0.369617124275254
0.522437127577178
0.914562939038733
2.25286416828756
0.27323756595755
0.325051557675106
0.448100936549151
0.809846327279806
2.20328040595438
0.231717310617695
0.250590926458753
0.292816260292531
0.397750623462786
0.738001943073004
2.20047594530486
0.209178066570463
0.216203506974967
0.233398596572688
0.270040320015751
0.363128924214904
0.682543910458944
2.20624860229321
0.19412386168262
0.196996058416857
0.204762256689367
0.220883552040649
0.254672770835728
0.340083104496099
0.634331868407497
2.20577739641055
0.182856623236293
0.18456514338684
0.188459628024766
0.196526535029178
0.212210932712914
0.244677240361096
0.324898920168227
0.597339403392889
2.20165618848028
0.174552687906014
0.175891049748214
0.178159197117115
0.182559813062414
0.190864982344541
0.206498492559544
0.238276637330613
0.3148724884002
0.568485460432316
2.19806457113579
0.168919903049611
0.169919893528735
0.171362886056977
0.173930635687328
0.178666618641399
0.187226896671193
0.202940085259255
0.234245833954751
0.308035239646885
0.549156252156313
2.19621981469697
0.165496572725324
0.166096569331982
0.1669717123818
0.168496292347693
0.171298966085189
0.176320552378507
0.185122413084723
0.200918854396384
0.23184249016982
0.303593026093421
0.537792530926019
2.19568149105559
0.163740064943807
0.163944373077231
0.164349894217708
0.165183246305056
0.166834140135367
0.16987279072626
0.175149462950681
0.184143513936745
0.199963840254978
0.230499573013828
0.300881932899581
0.532088879085336
2.19505380550317
0.163165982215629
0.163031474399326
0.163047780293331
0.163374979106384
0.164273952643555
0.166106822393612
0.169375359781145
0.174860475140728
0.183968190655363
0.199682551620173
0.229619519559802
0.29826576641431
0.525166036064153
2.19199683827929
0.163400330620544
0.163000800860726
0.162710059258646
0.162658493140395
0.16304013613563
0.164099856818884
0.166150326768935
0.169642336232425
0.175305872863321
0.184469167867627
0.199959651196202
0.229049987752758
0.295419475815533
0.51637142297309
2.18621249781237
0.164172193107584
0.163579638392982
0.163059877677538
0.16273026656228
0.162750921763108
0.163301425084748
0.164588180639956
0.166888988739606
0.170625510485552
0.176484709673963
0.185709497777247
0.200948018845145
0.229085695125235
0.292784873027617
0.505836879227769
2.18722116427642
0.165288329403116
0.164566835315869
0.163887390851209
0.163362348945697
0.163135382821466
0.163350597873231
0.164155012796453
0.165731840462427
0.168344958364323
0.172403620866252
0.178560019965047
0.18797934164334
0.203146812739803
0.230576248285594
0.29160203685841
0.495623493210713
2.21610681721688
0.166609892530252
0.165814921067015
0.16503557054443
0.164383389822972
0.163994914354152
0.163995691907091
0.164500864835802
0.165644287478063
0.167608414786954
0.170654667397956
0.175209112374241
0.181916099051881
0.191918452802548
0.207655642540533
0.235404376195141
0.2947542556132
0.493592844540103
2.28699422060006
0.168035789134043
0.167214245662433
0.166385860180537
0.165663430800111
0.165181114946817
0.165055172092608
0.16538408268629
0.166277699133369
0.167884368026132
0.170408425625587
0.174100438522529
0.179495844395973
0.187300517158197
0.19881490343617
0.216793260792453
0.247831497434925
0.311818663605727
0.55767786704623
2.38167751245985
0.179161389178359
0.186090819071738
0.19614739075259
0.211313483782489
0.235798837571172
0.280122108310825
0.399510640547957
0.994022920251448
3.68516580399512
2.94890112223629
2.93624876935594
0.850593068935811
1.19585934524515
2.41074114632021
0.441796365355849
0.596231272758028
0.970187907359589
2.30196937991196
0.305698705726381
0.357963394745304
0.481990082691882
0.84028022080501
2.2231212117153
0.253634733470547
0.269378062932632
0.310739488432305
0.417192581898605
0.758446394712401
2.20294350372899
0.227179199542975
0.229770453418285
0.244406905402867
0.280009560355227
0.376139117956742
0.707348321005823
2.20741119446383
0.208880580560376
0.207865551686611
0.212762062396802
0.226814641926735
0.259577694036101
0.348236427191034
0.663302168468411
2.20974604523943
0.193878637571068
0.193165520310746
0.194685954356966
0.200739302765801
0.214778951592982
0.246205119947468
0.328445715642678
0.619396975292025
2.20619056007993
0.181978701585073
0.18218087707058
0.18289297333456
0.185688059025834
0.19252436289075
0.206833946949779
0.237533177920552
0.314773194960705
0.579707139081176
2.20134560439283
0.173539620534268
0.174095823805335
0.174678874015429
0.176147737329927
0.179736485430092
0.187184428521515
0.20178841033262
0.231992164390308
0.305289716398557
0.549700273196019
2.19805979278028
0.168182720453792
0.168614440843049
0.169046235192063
0.169887137114774
0.171874497642596
0.176040420305221
0.183958078582258
0.198783643961809
0.228573132232823
0.299026141604479
0.531149345871326
2.19655342292587
0.165166495652289
0.165289154233293
0.165458522231736
0.165882841465318
0.166988305674944
0.169404003960705
0.174012651165773
0.182279129597149
0.197251817974311
0.22671686281179
0.295610541394046
0.524845320697892
2.1954216347598
0.163795597921227
0.163595710295441
0.163465348811996
0.163538362248299
0.164078559467412
0.165475607588924
0.168257997603774
0.173213442696129
0.181728022704946
0.196734569064279
0.225755507168887
0.293120350732756
0.518271038051949
2.19214133690418
0.163534193590961
0.163063450762606
0.162660972168166
0.162435315270752
0.162572820107225
0.163327721007148
0.165028341280873
0.16813519938585
0.17337589719249
0.182059877456619
0.196972135486242
0.225306585220696
0.290607095203203
0.510042967441355
2.1862668380172
0.164001848560731
0.163327035088475
0.162707375747977
0.162243720761122
0.162086827920015
0.162417558976452
0.163450091831544
0.165469803468282
0.168900128194806
0.174422551197345
0.183262924003674
0.198033330797146
0.225557541380641
0.288402419875396
0.500205219338413
2.18723936276593
0.164935448422128
0.164120551873996
0.163343718105714
0.162704587176395
0.162338254745101
0.162386917999376
0.163000683964673
0.164368091180751
0.166757644384863
0.170574680293787
0.17646449944783
0.185576866698514
0.200367627401469
0.227309480392434
0.287681822230944
0.49096021337321
2.21609764042036
0.166151555779301
0.165253526136295
0.164375769460017
0.163619542286568
0.163114011320739
0.162981760088974
0.163338124009815
0.164319057887256
0.16611165313398
0.168986495184481
0.173352974246315
0.179849212920884