/*--------------------------------*- C++ -*----------------------------------*\
  =========                 |
  \\      /  F ield         | OpenFOAM: The Open Source CFD Toolbox
   \\    /   O peration     | Website:  https://openfoam.org
    \\  /    A nd           | Version:  12
     \\/     M anipulation  |
\*---------------------------------------------------------------------------*/
/*   Windows 32 and 64 bit porting by blueCAPE: http://www.bluecape.com.pt   *\
|  Based on Windows porting (2.0.x v4) by Symscape: http://www.symscape.com   |
\*---------------------------------------------------------------------------*/
FoamFile
{
    format      ascii;
    class       volScalarField;
    location    "400";
    object      p;
}
// * * * * * * * * * * * * * * * * * * * * * * * * * * * * * * * * * * * * * //

dimensions      [0 2 -2 0 0 0 0];

internalField   nonuniform List<scalar> 
10142
(
83333.3277969055
83333.3277771511
83333.3277958136
83333.3277973947
83333.3277559369
83333.3277760343
83333.327777689
83333.3277939386
83333.3277962974
83333.3277983977
83333.3277331787
83333.3277547593
83333.3277565294
83333.3277739779
83333.3277765529
83333.3277788257
83333.3277931529
83333.3277945541
83333.3277972937
83333.3278000239
83333.3277087166
83333.3277319058
83333.3277338637
83333.3277523432
83333.3277553206
83333.3277578198
83333.3277727544
83333.3277746445
83333.3277776781
83333.3277806884
83333.3277946086
83333.3277939142
83333.3277956897
83333.3277989368
83333.3278023572
83333.327682503
83333.3277073617
83333.327709504
83333.3277290783
83333.3277325364
83333.3277353418
83333.3277504546
83333.3277530521
83333.3277565901
83333.3277599508
83333.3277736006
83333.3277735801
83333.3277759218
83333.3277795586
83333.3277833708
83333.3277986912
83333.3277955153
83333.3277952358
83333.3277974706
83333.3278013071
83333.3278054007
83333.3276545025
83333.3276810609
83333.327683403
83333.3277041038
83333.3277080745
83333.3277111993
83333.327726319
83333.3277298381
83333.3277339787
83333.3277377885
83333.3277504084
83333.3277513302
83333.3277544668
83333.3277587357
83333.3277630342
83333.3277770087
83333.3277745746
83333.3277750674
83333.3277779556
83333.3277822791
83333.3277868708
83333.3278055346
83333.327799661
83333.327796991
83333.3277972286
83333.3277999829
83333.3278043931
83333.3278090627
83333.3276246995
83333.3276529397
83333.327655539
83333.3276772704
83333.3276818655
83333.3276853447
83333.3277002244
83333.327704924
83333.3277097202
83333.3277140156
83333.3277250214
83333.3277272407
83333.32773141
83333.3277364343
83333.3277413404
83333.327752798
83333.3277514414
83333.3277529734
83333.3277567722
83333.3277618607
83333.3277670666
83333.3277832267
83333.3277780601
83333.327776251
83333.327777347
83333.3277808403
83333.3277858311
83333.3277910838
83333.3278152087
83333.3278064829
83333.3278012497
83333.3277991884
83333.3277999734
83333.327803233
83333.3278081092
83333.3278132074
83333.3275931089
83333.3276229526
83333.3276258719
83333.3276484725
83333.3276538535
83333.327657765
83333.3276719636
83333.327678149
83333.3276837501
83333.3276885833
83333.3276972197
83333.3277011782
83333.3277066808
83333.32771254
83333.3277181164
83333.327725916
83333.3277261132
83333.3277290565
83333.3277340263
83333.3277400357
83333.3277459933
83333.3277580131
83333.3277539376
83333.3277533121
83333.3277555593
83333.3277600833
83333.3277659531
83333.3277719249
83333.327792504
83333.3277842971
83333.3277798874
83333.3277787822
83333.32778051
83333.3277845781
83333.3277901041
83333.3277958462
83333.3278277435
83333.3278161281
83333.327808152
83333.3278036228
83333.3278021936
83333.3278034885
83333.3278071422
83333.3278123221
83333.3278176866
83333.3275598367
83333.3275911
83333.32759441
83333.3276176306
83333.3276239953
83333.3276284278
83333.3276412758
83333.3276494289
83333.3276560186
83333.327661491
83333.3276665999
83333.327672965
83333.3276801325
83333.3276869971
83333.3276933198
83333.3276959811
83333.3276983641
83333.3277032001
83333.3277096578
83333.3277167
83333.3277234938
83333.327729604
83333.3277271563
83333.3277281999
83333.3277319947
83333.3277378354
83333.3277447611
83333.3277516026
83333.3277664925
83333.3277592118
83333.327756008
83333.3277562105
83333.3277592022
83333.3277643953
83333.3277708802
83333.3277774133
83333.3278050254
83333.3277935684
83333.3277862333
83333.3277826487
83333.3277822682
83333.3277845669
83333.32778907
83333.3277949398
83333.3278009777
83333.3278286152
83333.327817824
83333.3278106691
83333.3278068837
83333.3278060294
83333.3278077118
83333.3278115912
83333.3278168925
83333.3278223546
83333.3275251289
83333.3275574751
83333.3275613042
83333.3275847125
83333.327592307
83333.3275973646
83333.3276079651
83333.3276186802
83333.3276264871
83333.3276327485
83333.3276327056
83333.3276423145
83333.3276516754
83333.3276597607
83333.3276669793
83333.3276623542
83333.3276678022
83333.3276752306
83333.3276835555
83333.3276918069
83333.3276995434
83333.3276974213
83333.3276973372
83333.3277007088
83333.3277065784
83333.3277140541
83333.32772217
83333.3277299792
83333.3277367644
83333.3277309516
83333.3277295085
83333.3277315318
83333.327736204
83333.3277428228
83333.3277504518
83333.3277579347
83333.3277786236
83333.3277677106
83333.3277614385
83333.3277592105
83333.3277602588
83333.3277639016
83333.3277695799
83333.3277764521
83333.3277833129
83333.3278208769
83333.3278060569
83333.3277955675
83333.3277891943
83333.3277864635
83333.3277867221
83333.327789433
83333.3277941682
83333.3278001691
83333.3278063005
83333.3278302891
83333.3278204394
83333.3278141606
83333.3278110565
83333.3278106395
83333.3278125379
83333.3278164512
83333.3278216875
83333.3278271075
83333.3274893587
83333.3275223741
83333.327526844
83333.3275498071
83333.327558922
83333.3275647666
83333.3275718437
83333.3275858795
83333.327595216
83333.3276024147
83333.3275950351
83333.3276090405
83333.3276212392
83333.3276308279
83333.3276391471
83333.3276242472
83333.3276339672
83333.3276448582
83333.327655615
83333.3276653285
83333.3276741931
83333.327660552
83333.3276638348
83333.3276704518
83333.3276791227
83333.327688646
83333.3276981458
83333.3277070541
83333.3277025662
83333.327698951
83333.3277000399
83333.32770458
83333.3277114735
83333.3277198353
83333.3277287586
83333.3277372988
83333.3277480292
83333.3277381728
83333.3277335349
83333.3277332508
83333.3277362611
83333.3277416695
83333.3277488202
83333.3277568846
83333.3277647297
83333.3277946629
83333.3277798322
83333.3277700446
83333.3277649188
83333.3277636879
83333.3277654556
83333.3277695394
83333.3277754514
83333.3277824629
83333.3277894121
83333.3278402717
83333.3278218587
83333.3278080677
83333.3277986837
83333.3277933171
83333.3277913442
83333.3277920614
83333.3277949755
83333.3277997137
83333.3278056277
83333.3278116745
83333.3278329437
83333.3278241127
83333.3278186501
83333.3278160777
83333.3278159207
83333.3278178453
83333.3278215979
83333.3278266075
83333.3278319145
83333.3274529095
83333.3274862591
83333.3274913552
83333.3275132457
83333.3275241504
83333.3275308422
83333.3275327795
83333.3275511528
83333.3275623486
83333.3275706436
83333.3275530149
83333.3275729858
83333.3275888365
83333.3276002837
83333.3276098517
83333.3275807263
83333.3275963492
83333.3276119304
83333.3276258082
83333.3276373134
83333.3276475292
83333.3276178116
83333.3276258751
83333.3276370186
83333.3276493804
83333.3276615329
83333.3276726915
83333.3276828924
83333.3276627026
83333.3276623114
83333.3276669833
83333.3276749883
83333.3276848436
83333.3276953699
83333.3277057889
83333.3277155252
83333.3277123759
83333.3277042185
83333.3277019945
83333.3277044641
83333.3277101574
83333.3277178613
83333.3277267933
83333.3277361925
83333.3277451398
83333.32776389
83333.3277494575
83333.3277409299
83333.3277376662
83333.3277385498
83333.3277423616
83333.3277482274
83333.3277556023
83333.3277638072
83333.3277717388
83333.3278148198
83333.3277958361
83333.3277822206
83333.3277737522
83333.3277698108
83333.3277694333
83333.3277716796
83333.327775941
83333.3277818165
83333.3277887118
83333.3277955293
83333.3278633316
83333.327841197
83333.3278238269
83333.3278112707
83333.3278030637
83333.3277986094
83333.3277971971
83333.3277981521
83333.3278010406
83333.3278055563
83333.3278111872
83333.327817072
83333.3278367252
83333.3278288611
83333.3278240586
83333.3278218339
83333.3278217487
83333.3278235116
83333.3278269317
83333.3278316076
83333.3278367297
83333.32741633
83333.3274495918
83333.3274551112
83333.3274754827
83333.327488428
83333.3274958832
83333.3274908842
83333.327514829
83333.3275281852
83333.3275376161
83333.3275060313
83333.3275340775
83333.327554617
83333.3275683102
83333.3275792731
83333.32753064
83333.3275544405
83333.3275762997
83333.3275941996
83333.3276078758
83333.3276196022
83333.3275677075
83333.3275825511
83333.3275998865
83333.3276172298
83333.3276327365
83333.3276458921
83333.3276576242
83333.3276155873
83333.3276198716
83333.3276295985
83333.3276423987
83333.3276561317
83333.3276693823
83333.3276815677
83333.3276926848
83333.3276702364
83333.3276646805
83333.3276659609
83333.327672291
83333.3276816334
83333.3276923451
83333.3277034637
83333.3277143867
83333.327724578
83333.3277276318
83333.3277140925
83333.3277075368
83333.3277069729
83333.3277108053
83333.3277173686
83333.327725519
83333.3277346479
83333.3277441721
83333.3277532111
83333.3277846841
83333.3277653036
83333.3277523208
83333.3277453911
83333.3277435295
83333.3277453679
83333.3277496598
83333.3277556515
83333.3277629348
83333.3277709804
83333.3277787364
83333.3278392438
83333.3278159378
83333.3277982142
83333.3277860798
83333.3277790016
83333.327776098
83333.3277763081
83333.3277787526
83333.3277829175
83333.3277884964
83333.3277950341
83333.3278016253
83333.327889912
83333.3278641886
83333.3278430825
83333.3278270329
83333.32781582
83333.3278087053
83333.3278049575
83333.3278038731
83333.3278048377
83333.3278074818
83333.3278115779
83333.3278167984
83333.3278224659
83333.3278416402
83333.3278345862
83333.3278302542
83333.327828188
83333.3278279943
83333.3278294294
83333.3278323856
83333.3278366239
83333.327841444
83333.3273799844
83333.3274128117
83333.3274189459
83333.3274368987
83333.3274522211
83333.3274605253
83333.3274463732
83333.3274773381
83333.3274931855
83333.3275038552
83333.3274535271
83333.3274924038
83333.3275188887
83333.3275352026
83333.3275477514
83333.3274725509
83333.327507731
83333.3275379148
83333.3275609535
83333.3275772199
83333.3275906971
83333.3275083037
83333.3275327411
83333.3275585994
83333.3275825698
83333.3276023627
83333.3276178968
83333.3276313761
83333.3275591315
83333.3275701718
83333.3275870322
83333.3276063523
83333.3276252411
83333.327641929
83333.3276562007
83333.3276689529
83333.3276196715
83333.3276180074
83333.3276243293
83333.327636067
83333.3276503561
83333.3276649933
83333.327678819
83333.327691513
83333.3277031374
83333.327684328
83333.3276723472
83333.3276687566
83333.3276720602
83333.3276799734
83333.3276902287
83333.327701325
83333.3277125761
83333.3277235873
83333.3277338803
83333.327748877
83333.3277293612
83333.3277175961
83333.3277129959
83333.327714092
83333.327718972
83333.3277259767
83333.3277341618
83333.3277431128
83333.3277524161
83333.3277612364
83333.3278105923
83333.3277860505
83333.3277681958
83333.3277570174
83333.3277517527
83333.3277510707
83333.3277535042
83333.3277579186
83333.3277637109
83333.3277705998
83333.3277782011
83333.3277856576
83333.3278678476
83333.3278402863
83333.3278182424
83333.3278021218
83333.3277915849
83333.3277857617
83333.3277836146
83333.3277841127
83333.3277864769
83333.3277902904
83333.327795341
83333.3278013666
83333.3278076933
83333.3279197482
83333.3278906816
83333.3278659528
83333.327846208
83333.3278316367
83333.3278217015
83333.3278154711
83333.3278121884
83333.3278111997
83333.3278119612
83333.3278141706
83333.3278176967
83333.3278224103
83333.3278277296
83333.3278475707
83333.3278411344
83333.327837081
83333.3278349947
83333.3278345344
83333.3278355068
83333.3278378805
83333.3278415509
83333.3278459247
83333.3273443328
83333.3273762286
83333.3273837785
83333.3273978303
83333.3274161767
83333.3274261049
83333.327399508
83333.3274390302
83333.3274579984
83333.3274703922
83333.3273951194
83333.3274481367
83333.3274820641
83333.3275014836
83333.3275160201
83333.3274047555
83333.3274556628
83333.3274968355
83333.3275263428
83333.3275456876
83333.3275612816
83333.3274370696
83333.3274750536
83333.3275126608
83333.327545386
83333.3275705929
83333.3275889512
83333.3276044484
83333.3274905425
83333.3275113348
83333.3275382366
83333.3275664543
83333.3275921371
83333.327613157
83333.3276298783
83333.3276445202
83333.3275580787
83333.3275621702
83333.3275757304
83333.327595011
83333.3276159937
83333.3276357542
83333.3276529393
83333.3276677007
83333.3276809906
83333.3276318037
83333.3276223307
83333.3276231219
83333.3276319235
83333.3276454776
83333.3276606698
83333.3276755621
83333.3276893983
83333.32770212
83333.3277138427
83333.3277057997
83333.3276864927
83333.3276767306
83333.3276755598
83333.3276808229
83333.3276898528
83333.3277004444
83333.3277114157
83333.3277223568
83333.3277330694
83333.3277430917
83333.3277763768
83333.3277505711
83333.3277329461
83333.3277234141
83333.3277208171
83333.3277232379
83333.3277286765
83333.3277356692
83333.3277434994
83333.3277519206
83333.3277606814
83333.3277691159
83333.3278415445
83333.327811878
83333.3277888868
83333.3277730016
83333.3277637522
83333.32775994
83333.3277600505
83333.3277626911
83333.3277668892
83333.3277721842
83333.3277784066
83333.327785384
83333.3277925034
83333.3279003541
83333.3278687872
83333.3278424577
83333.3278220843
83333.3278077399
83333.3277986888
83333.3277938354
83333.3277921295
83333.3277926271
83333.3277946586
83333.3277979005
83333.3278022475
83333.3278076672
83333.3278135961
83333.3279524892
83333.3279204072
83333.3278922789
83333.3278689129
83333.3278507382
83333.3278376124
83333.3278287536
83333.3278231611
83333.3278201054
83333.3278189986
83333.3278193742
83333.3278209974
83333.3278238293
83333.3278279018
83333.3278327125
83333.3278543412
83333.3278483276
83333.327844371
83333.3278421077
83333.3278412522
83333.3278416511
83333.3278433143
83333.3278462959
83333.3278500257
83333.3273110108
83333.3273399141
83333.3273495295
83333.3273583023
83333.3273805654
83333.3273923225
83333.3273506
83333.3274002154
83333.3274232189
83333.3274379519
83333.3273304649
83333.3274014973
83333.3274445474
83333.3274678961
83333.3274850031
83333.3273254772
83333.3273977559
83333.3274532399
83333.3274908039
83333.3275138618
83333.3275319983
83333.3273507254
83333.3274079632
83333.3274615639
83333.3275057444
83333.327537709
83333.3275594284
83333.3275773271
83333.3274059882
83333.3274409381
83333.3274819448
83333.3275222919
83333.3275568516
83333.3275832828
83333.3276028746
83333.3276196768
83333.3274818757
83333.3274944721
83333.3275184369
83333.3275482268
83333.3275782412
83333.3276046545
83333.3276260087
83333.3276431751
83333.3276583803
83333.3275671146
83333.3275615191
83333.32756874
83333.3275853562
83333.327606683
83333.3276284636
83333.3276482239
83333.3276652174
83333.327679925
83333.3276932558
83333.3276532001
83333.3276345817
83333.3276279409
83333.3276317617
83333.3276428726
83333.3276575465
83333.3276728632
83333.3276873679
83333.327700701
83333.3277130249
83333.327724399
83333.3277350481
83333.3277079456
83333.3276910374
83333.3276840797
83333.3276853262
83333.327692045
83333.3277015209
83333.3277118728
83333.3277222551
83333.3277324844
83333.3277425384
83333.3277520691
83333.3278100627
83333.3277779855
83333.3277541228
83333.3277389575
83333.3277317788
83333.3277308554
83333.3277340662
83333.3277395618
83333.3277461305
83333.3277532592
83333.3277608391
83333.3277688515
83333.3277768548
83333.3278772232
83333.3278427109
83333.3278145719
83333.3277936524
83333.3277799316
83333.3277724282
83333.3277696701
83333.3277701582
83333.3277726474
83333.3277763305
83333.3277808738
83333.3277862289
83333.3277924787
83333.3277991322
83333.3279363428
83333.3279011606
83333.3278707606
83333.327846117
83333.3278276486
83333.3278150069
83333.3278071634
83333.3278029557
83333.3278013904
83333.32780163
83333.3278031169
83333.327805615
83333.3278091254
83333.3278138078
83333.3278191487
83333.3279876981
83333.3279530138
83333.3279217862
83333.3278949846
83333.3278732337
83333.3278566387
83333.3278447777
83333.3278367499
83333.3278315511
83333.3278285022
83333.3278270935
83333.3278269381
83333.3278278564
83333.3278298666
83333.3278331625
83333.3278372416
83333.3278617523
83333.3278559735
83333.32785195
83333.3278493789
83333.3278480281
83333.327847761
83333.3278486074
83333.3278507724
83333.3278535845
83333.3272850107
83333.3273049282
83333.3273168455
83333.3273184476
83333.3273447334
83333.3273584104
83333.3273000699
83333.3273609555
83333.3273884747
83333.3274055846
83333.3272594677
83333.3273527878
83333.3274066121
83333.3274348209
83333.3274546598
83333.327232721
83333.327333704
83333.3274073663
83333.3274548207
83333.3274824339
83333.3275035855
83333.3272452701
83333.3273297048
83333.3274049351
83333.3274638628
83333.3275042004
83333.327529932
83333.3275506456
83333.327300295
83333.3273559155
83333.3274167999
83333.3274735041
83333.3275195063
83333.3275526332
83333.3275756318
83333.3275949547
83333.3273860439
83333.3274112777
83333.3274502621
83333.3274947072
83333.3275368278
83333.3275717905
83333.3275982844
83333.3276182572
83333.3276356052
83333.3274861642
83333.3274864727
83333.3275031351
83333.3275308852
83333.3275628952
83333.3275934157
83333.3276193906
83333.3276402387
83333.3276572354
83333.3276723598
83333.3275880289
83333.3275707764
83333.3275688766
83333.3275799338
83333.3275992422
83333.3276215733
83333.327643086
83333.3276620493
83333.3276782604
83333.3276924285
83333.3277053136
83333.3276844362
83333.3276559851
83333.3276404778
83333.3276374116
83333.3276441562
83333.3276568092
83333.3276716875
83333.3276863941
83333.3276999647
83333.327712342
83333.3277238621
83333.3277346232
83333.3277719907
83333.3277371015
83333.3277124898
83333.3276987065
83333.3276946421
83333.327697796
83333.3277052294
83333.327714502
83333.3277241153
83333.3277335109
83333.3277426779
83333.3277518347
83333.3277608249
83333.3278495355
83333.3278115323
83333.3277813833
83333.3277601296
83333.3277476345
83333.3277425132
83333.3277427047
83333.3277461593
83333.3277512678
83333.327757062
83333.3277632
83333.3277697132
83333.3277768629
83333.3277843032
83333.3279171065
83333.3278782303
83333.3278451727
83333.3278191388
83333.3278005616
83333.3277888699
83333.3277827209
83333.3277805841
83333.327781069
83333.3277830977
83333.3277860214
83333.3277896192
83333.3277939629
83333.327799352
83333.3278053265
83333.3279752743
83333.3279369863
83333.3279028694
83333.3278741173
83333.3278514496
83333.3278348638
83333.3278236692
83333.3278167084
83333.3278128349
83333.327811141
83333.3278109075
83333.327811686
83333.3278133129
83333.327815859
83333.3278196552
83333.3278241528
83333.3280248691
83333.3279880668
83333.3279541246
83333.3279241461
83333.327898958
83333.3278788776
83333.3278637144
83333.327852884
83333.3278454395
83333.327840405
83333.3278371693
83333.3278353101
83333.327834515
83333.3278346328
83333.3278357098
83333.3278380906
83333.3278411737
83333.3278695886
83333.3278638689
83333.3278596355
83333.3278566516
83333.327854729
83333.3278537278
83333.3278536617
83333.3278548318
83333.3278565754
83333.3272706762
83333.3272740681
83333.327290379
83333.3272794655
83333.3273089828
83333.327326406
83333.3272492282
83333.3273212622
83333.327353064
83333.327372859
83333.327182751
83333.3273024674
83333.3273680366
83333.3274014943
83333.3274239398
83333.3271241272
83333.3272634357
83333.3273594858
83333.3274185236
83333.3274514856
83333.327475692
83333.3271154397
83333.3272384313
83333.3273425619
83333.3274200485
83333.3274705145
83333.3275010817
83333.3275249627
83333.3271666264
83333.3272525514
83333.3273413313
83333.3274198711
83333.3274803874
83333.3275216741
83333.3275487493
83333.3275710323
83333.3272635969
83333.3273077707
83333.327368539
83333.3274333672
83333.3274915564
83333.3275373571
83333.3275701195
83333.3275934231
83333.3276131141
83333.3273831457
83333.3273924441
83333.3274230548
83333.3274666976
83333.3275133777
83333.3275553988
83333.327589218
83333.3276147557
83333.3276343901
83333.3276514976
83333.3275060528
83333.327491148
83333.3274963931
83333.3275179643
83333.3275487658
83333.3275814483
83333.3276110297
83333.3276355798
83333.3276552406
83333.3276715106
83333.327686047
83333.327621637
83333.3275917381
83333.3275786155
83333.3275813434
83333.3275959325
83333.3276167629
83333.32763884
83333.3276591562
83333.3276766851
83333.3276916103
83333.3277047953
83333.3277169312
83333.3277253786
83333.3276871178
83333.3276619311
83333.3276504629
83333.3276509808
83333.3276598578
83333.3276730199
83333.3276872624
83333.3277007615
83333.3277129495
83333.3277239829
83333.3277344267
83333.3277445175
83333.3278160872
83333.3277738763
83333.3277414747
83333.3277202065
83333.3277097547
83333.3277081095
83333.327712384
83333.3277198121
83333.327728335
83333.3277368052
83333.3277448923
83333.3277527465
83333.3277608861
83333.3277691941
83333.3278941174
83333.3278508121
83333.3278146533
83333.3277871706
83333.3277688339
83333.3277587735
83333.327755153
83333.3277558802
83333.3277590985
83333.327763453
83333.3277681957
83333.3277731291
83333.3277784207
83333.3277845646
83333.3277912093
83333.3279605138
83333.3279179163
83333.3278803719
83333.3278493797
83333.3278257924
83333.3278094862
83333.3277994585
83333.3277942258
83333.3277923101
83333.3277924641
83333.3277937829
83333.3277957648
83333.3277982805
83333.3278014839
83333.3278058585
83333.3278108575
83333.3280165221
83333.3279757281
83333.3279383674
83333.3279058057
83333.3278790376
83333.3278583808
83333.3278434608
83333.3278333993
83333.3278270028
83333.32782318
83333.3278211287
83333.3278202537
83333.3278202069
83333.3278208664
83333.3278223351
83333.3278250914
83333.3278284926
83333.3280634518
83333.3280250637
83333.3279888651
83333.3279560532
83333.3279276364
83333.3279041621
83333.3278856466
83333.3278717039
83333.3278616597
83333.3278545593
83333.3278494799
83333.3278458932
83333.327843468
83333.3278419538
83333.3278411999
83333.3278412369
83333.3278425213
83333.3278444227
83333.3278776221
83333.3278717986
83333.3278672295
83333.327863744
83333.3278611799
83333.3278593541
83333.3278582113
83333.3278582669
83333.3278587821
83333.3272660769
83333.3272541867
83333.3272760513
83333.3272428937
83333.3272773216
83333.3273013116
83333.3272005928
83333.3272820006
83333.3273178787
83333.3273422236
83333.3271035863
83333.3272518023
83333.3273286815
83333.3273672361
83333.3273928791
83333.326997867
83333.3271876473
83333.3273099582
83333.3273813987
83333.3274199713
83333.3274470119
83333.3269530537
83333.3271320485
83333.3272744804
83333.3273745389
83333.327436541
83333.3274725586
83333.3274994775
83333.3269946642
83333.3271260672
83333.327254102
83333.3273613899
83333.3274398351
83333.3274907274
83333.3275225912
83333.3275478275
83333.3271048781
83333.3271776621
83333.3272701592
83333.3273631823
83333.327442402
83333.3275016672
83333.3275419088
83333.3275691921
83333.3275915457
83333.3272498879
83333.3272729529
83333.3273243361
83333.3273907205
83333.3274574193
83333.3275143851
83333.3275579511
83333.3275891227
83333.3276118236
83333.327631098
83333.3274012888
83333.3273902146
83333.3274062643
83333.327443166
83333.3274901053
83333.3275367063
83333.3275766828
83333.3276081568
83333.3276319467
83333.3276506029
83333.3276669205
83333.3275426836
83333.3275111473
83333.3275018656
83333.3275131879
83333.3275389845
83333.3275710647
83333.3276026789
83333.3276301566
83333.3276525533
83333.327670486
83333.3276855463
83333.3276991871
83333.3276676726
83333.3276252237
83333.3275997046
83333.3275918988
83333.327599095
83333.3276159817
83333.3276368867
83333.3276576283
83333.3276760464
83333.3276916497
83333.3277048735
83333.3277167686
83333.3277280714
83333.3277752479
83333.3277278492
83333.3276928662
83333.3276720425
83333.3276647787
83333.3276681231
83333.3276780174
83333.3276907405
83333.3277036828
83333.3277155186
83333.3277259776
83333.3277353942
83333.3277446358
83333.3277539
83333.3278664221
83333.3278177327
83333.3277779085
83333.3277489417
83333.3277313532
83333.3277238344
83333.3277238123
83333.3277284315
83333.3277352535
83333.3277425987
83333.3277496211
83333.3277561712
83333.3277625522
83333.3277695256
83333.3277768888
83333.3279429262
83333.3278951523
83333.3278535392
83333.3278200041
83333.3277955887
83333.3277800165
83333.3277718645
83333.3277691507
83333.3277699007
83333.327772488
83333.3277758053
83333.3277792991
83333.3277828847
83333.3277868231
83333.3277918011
83333.327797323
83333.3280066566
83333.3279610931
83333.3279196571
83333.3278840646
83333.3278555396
83333.3278344015
83333.3278200489
83333.3278112578
83333.327806528
83333.3278044833
83333.3278040387
83333.3278044606
83333.3278053778
83333.3278067166
83333.3278086677
83333.3278118617
83333.3278156516
83333.328059407
83333.3280167639
83333.3279767265
83333.3279407753
83333.3279101399
83333.3278854496
83333.3278666385
83333.3278530958
83333.3278438499
83333.3278377201
83333.3278336988
83333.3278311026
83333.3278294613
83333.3278285101
83333.3278281316
83333.3278284119
83333.3278299456
83333.3278320371
83333.3281028753
83333.3280634583
83333.3280255134
83333.3279902884
83333.3279589363
83333.3279322247
83333.3279104062
83333.3278932771
83333.327880323
83333.3278708201
83333.3278638372
83333.327858525
83333.3278544479
83333.3278513634
83333.3278490575
83333.3278473271
83333.3278461434
83333.3278462161
83333.3278468113
83333.3278856109
83333.3278795284
83333.3278745023
83333.3278704094
83333.3278670584
83333.327864146
83333.327861806
83333.3278606295
83333.3278601229
83333.3272474199
83333.3272706379
83333.327219264
83333.3272586802
83333.3272878691
83333.3271575657
83333.3272459909
83333.3272873582
83333.3273189611
83333.3270288901
83333.3272035361
83333.3272898765
83333.3273336087
83333.3273641764
83333.326858857
83333.3271097962
83333.3272601891
83333.327343346
83333.3273874073
83333.3274182167
83333.3267490449
83333.3270093982
83333.3272015966
83333.3273276157
83333.3274016365
83333.3274431341
83333.3274732882
83333.3267654608
83333.3269694237
83333.3271537124
83333.3272983522
83333.3273980128
83333.3274595179
83333.3274964894
83333.3275245523
83333.3268938324
83333.3270116717
83333.3271513642
83333.3272833504
83333.3273895803
83333.3274650272
83333.3275138261
83333.3275455444
83333.3275706516
83333.3270749254
83333.3271191231
83333.3272017431
83333.3273007198
83333.327394478
83333.3274705085
83333.327525886
83333.3275636471
83333.327589949
83333.3276114977
83333.3272653761
83333.3272604097
83333.3272929055
83333.3273523069
83333.3274218479
83333.3274869853
83333.3275401441
83333.3275800421
83333.3276087177
83333.3276300952
83333.3276483491
83333.3274420836
83333.3274085692
83333.3274053566
83333.3274294976
83333.3274713179
83333.3275188292
83333.327562966
83333.3275994704
83333.3276277894
83333.3276492456
83333.3276664035
83333.3276816352
83333.3275954843
83333.3275476169
83333.3275221113
83333.3275199604
83333.3275368681
83333.327564951
83333.3275962732
83333.3276254412
83333.3276500171
83333.3276697529
83333.3276855289
83333.32769905
83333.3277116603
83333.3277249475
83333.3276709798
83333.3276329468
83333.327613233
83333.3276107933
83333.3276212444
83333.3276388386
83333.3276585745
83333.3276771893
83333.3276932177
83333.327706541
83333.3277177752
83333.3277282441
83333.3277385459
83333.3278327587
83333.3277774086
83333.3277331595
83333.3277026811
83333.3276865628
83333.3276828392
83333.3276878632
83333.3276977349
83333.3277092749
83333.3277204322
83333.3277302851
83333.3277387832
83333.3277464233
83333.3277543123
83333.327762439
83333.3279218218
83333.327867764
83333.3278212661
83333.3277848289
83333.3277597592
83333.3277455609
83333.3277402111
83333.3277410044
83333.3277453148
83333.3277510637
83333.3277569207
83333.3277622915
83333.3277671627
83333.3277719391
83333.3277775757
83333.3277836744
83333.3279949524
83333.3279436783
83333.3278973814
83333.3278582494
83333.3278278193
83333.3278064163
83333.3277931416
83333.327786312
83333.3277839678
83333.3277843127
83333.3277859622
83333.3277880414
83333.3277901624
83333.3277923092
83333.3277947854
83333.3277984264
83333.3278026065
83333.3280546882
83333.328006979
83333.3279623648
83333.3279226973
83333.3278895052
83333.3278635276
83333.3278445866
83333.3278317898
83333.3278238194
83333.3278192214
83333.3278167528
83333.3278154999
83333.3278148941
83333.3278146714
83333.3278147673
83333.3278153538
83333.327817185
83333.3278195381
83333.3281032297
83333.3280594203
83333.3280173356
83333.3279785139
83333.3279443667
83333.3279158085
83333.3278930914
83333.3278758769
83333.3278634068
83333.3278546696
83333.3278485345
83333.3278440983
83333.3278408051
83333.3278383031
83333.3278363777
83333.3278348519
83333.327833755
83333.3278339376
83333.3278346095
83333.328142569
83333.3281026841
83333.3280635323
83333.3280263721
83333.3279924582
83333.3279627493
83333.3279377365
83333.3279174366
83333.3279014842
83333.327889276
83333.3278800728
83333.3278729926
83333.3278672742
83333.3278625774
83333.3278587235
83333.3278554619
83333.32785246
83333.3278499728
83333.3278487327
83333.3278482844
83333.3278932947
83333.3278867917
83333.3278811533
83333.3278762382
83333.3278717189
83333.3278674099
83333.3278638739
83333.3278618215
83333.327211462
83333.3272514483
83333.3272820302
83333.3271355495
83333.3272241522
83333.3272699553
83333.327306866
83333.3269714915
83333.327162467
83333.3272555821
83333.327305375
83333.3273434646
83333.326724672
83333.3270377512
83333.3272137253
83333.3273063249
83333.3273560756
83333.3273924751
83333.3265113972
83333.3268762728
83333.3271278516
83333.3272807709
83333.327365965
83333.3274130064
83333.3274474708
83333.3264570123
83333.3267759099
83333.3270401511
83333.3272320228
83333.3273551618
83333.3274274606
83333.3274695364