/*--------------------------------*- C++ -*----------------------------------*\
  =========                 |
  \\      /  F ield         | OpenFOAM: The Open Source CFD Toolbox
   \\    /   O peration     | Website:  https://openfoam.org
    \\  /    A nd           | Version:  12
     \\/     M anipulation  |
\*---------------------------------------------------------------------------*/
/*   Windows 32 and 64 bit porting by blueCAPE: http://www.bluecape.com.pt   *\
|  Based on Windows porting (2.0.x v4) by Symscape: http://www.symscape.com   |
\*---------------------------------------------------------------------------*/
FoamFile
{
    format      ascii;
    class       volVectorField;
    location    "400";
    object      U;
}
// * * * * * * * * * * * * * * * * * * * * * * * * * * * * * * * * * * * * * //

dimensions      [0 1 -1 0 0 0 0];

internalField   nonuniform List<vector> 
10142
(
(8.17889169983742e-07 0.000848856493382398 6.96683812043612e-05)
(-7.24186276599975e-07 0.000991843118515875 7.372173809573e-05)
(2.07125117703772e-07 0.000831121779180478 0.00016589052177689)
(-4.40774602926968e-06 0.000779776662257203 4.70107451435159e-05)
(-2.615729765841e-06 0.00114184868644868 7.74970968192136e-05)
(-1.59517523101765e-06 0.00094948386442368 0.00016999511018122)
(-1.19699434579539e-05 0.000909733828127378 4.86089535493279e-05)
(-7.04098809654802e-06 0.00106222874748737 0.000251588094115047)
(1.60281937708165e-06 0.000670116480479907 0.000140155548094301)
(-8.81790507740792e-06 0.00066394463832312 3.92477577780222e-05)
(-7.9064474758516e-06 0.00129644439157428 7.27993398585387e-05)
(-4.07131757026631e-06 0.00107206780329163 0.000170339633050182)
(-2.15027133713985e-05 0.00105435950417416 4.93640250376744e-05)
(-9.60983044163816e-06 0.00117996578071497 0.000252143646560311)
(-5.12581906629201e-06 0.000786465646619373 0.000140830524524598)
(-2.52089791766845e-05 0.000788214359088089 4.01520684633662e-05)
(-1.06569803450808e-05 0.00114520644985003 0.00033558915516648)
(-1.97146637106532e-05 0.00095472499454123 0.000227503349356934)
(2.45496565876337e-06 0.000531960472962538 0.000126587130043634)
(-3.71481754250547e-07 0.000611290659914743 3.4856665143836e-05)
(-1.52974166995904e-05 0.0014625137824185 6.15084846145372e-05)
(-8.13662871271648e-06 0.00120344034329561 0.000160890543527199)
(-3.79861393954354e-05 0.00119357237918796 4.09317452957875e-05)
(-1.2766150248407e-05 0.00130462449413974 0.000246736158120747)
(-1.3676202769241e-05 0.00090610182728455 0.000137030926638903)
(-4.60610766107781e-05 0.000922774884839305 4.05553729096959e-05)
(-1.34830538754499e-05 0.00126250010609456 0.000333079012921055)
(-2.77574439118838e-05 0.00106746916954897 0.000224622633699137)
(-1.05308799006745e-05 0.000639547004117748 0.000125862599682085)
(-2.37003111173108e-05 0.000729087399221891 3.53628659635763e-05)
(-1.25895636312925e-05 0.0011690918944257 0.000414638106160944)
(-3.18664843405357e-05 0.00108045243236637 0.000313152775273282)
(-3.3392854049958e-05 0.000857489494719633 0.000213216903692728)
(1.09463890743828e-05 0.000451512090035665 0.000121476451753081)
(1.99322489333728e-05 0.00057523142685171 3.3394299567167e-05)
(-2.40403460535665e-05 0.00163484819102284 4.44164732895541e-05)
(-1.35419351680474e-05 0.00134426159800753 0.000141678310115134)
(-5.9525660618603e-05 0.00134146629610534 2.55079762137748e-05)
(-1.69318000993668e-05 0.00143733610292099 0.00023149486043324)
(-2.61260063059669e-05 0.00103426067634485 0.000123364396567666)
(-7.40244399192008e-05 0.00105091911076967 3.10984959228328e-05)
(-1.68683505924781e-05 0.00138785626249776 0.000323679427737031)
(-3.7330965690129e-05 0.00118749072214983 0.000215693437198004)
(-2.69928093157321e-05 0.000748698770917441 0.00012078734255525)
(-5.3483609304523e-05 0.000855886115376325 3.55299318577844e-05)
(-1.53790340771037e-05 0.00128357511141873 0.000410326226250627)
(-4.04956281250656e-05 0.00119412416455472 0.000307370357070391)
(-4.77614710958895e-05 0.000962501818493863 0.000208832627546453)
(-7.55005812348617e-06 0.000551253053053867 0.000120392968372515)
(-8.06369547931001e-06 0.000687051446322733 3.37964210917369e-05)
(-1.36117733385743e-05 0.00116779985546073 0.000486577207380709)
(-3.82326866908876e-05 0.00112416550760938 0.00039284607563224)
(-5.45861876412664e-05 0.00101400843582773 0.000298397203196291)
(-4.32712590270996e-05 0.000787993243016209 0.000207039191980361)
(2.95256043171732e-05 0.00038970449164249 0.000119916591037584)
(5.28191705428743e-05 0.000543939378114415 3.43081683926278e-05)
(-3.47958934075457e-05 0.00180869482076824 2.00215640483364e-05)
(-2.01483601577698e-05 0.00149286605120156 0.000110228143778509)
(-8.4191951721401e-05 0.00149294484724731 4.7272438342728e-06)
(-2.21152933675493e-05 0.00157887568440902 0.000204312633105016)
(-4.22069753755394e-05 0.00117276912504006 9.97150446400483e-05)
(-0.000107217254618423 0.00118872576203694 1.34053599991861e-05)
(-2.10570314585428e-05 0.00152199182618057 0.000303979779922199)
(-4.95812885836982e-05 0.00131579314452816 0.000196810578930496)
(-4.85887453544409e-05 0.00086567043317192 0.000105841776003532)
(-9.06231456712595e-05 0.000976098192126547 2.60447404491585e-05)
(-1.87061537916759e-05 0.00140685570020386 0.000398528141189115)
(-5.06193874139481e-05 0.00131629504914435 0.000294861200769473)
(-6.49940690999823e-05 0.00107413299097906 0.000198739382815446)
(-3.11397768912051e-05 0.000651399987952866 0.000115226541774669)
(-4.44193069895666e-05 0.000807054066188055 3.38472621089264e-05)
(-1.63025453439595e-05 0.0012785518888884 0.000481503359590457)
(-4.68452532648418e-05 0.00123622802685903 0.000385705332336529)
(-6.97188198739571e-05 0.00112180089457808 0.000291152869428964)
(-6.37701126838082e-05 0.000885653266530668 0.000202250067429933)
(7.09641235684644e-06 0.000482376930614462 0.000119013772242721)
(2.26500359946321e-05 0.000650589537479069 3.44229053020998e-05)
(-1.40811769967523e-05 0.00115259296997395 0.000551382946728362)
(-4.1571555744365e-05 0.001133192080427 0.000464600412588016)
(-6.57220659585808e-05 0.00107417296675916 0.000377455701091021)
(-7.57902942419558e-05 0.000959953020262548 0.000291086656672933)
(-4.69275698233563e-05 0.000730128832035748 0.000204559342219623)
(5.82270800402225e-05 0.000334389411895666 0.000119228385801266)
(9.8313915846562e-05 0.000516540494833221 3.65465801391653e-05)
(-4.72226874798303e-05 0.00197331107808156 -1.32169940135849e-05)
(-2.81459405701681e-05 0.00164813706715551 6.23050610248711e-05)
(-0.00011395099864541 0.00164647893869737 -2.36071921036155e-05)
(-2.83305617094015e-05 0.00172959915615418 0.000161837179008915)
(-6.16831820547393e-05 0.00132016385280791 6.3305863623686e-05)
(-0.000145042260214002 0.00133164380015234 -1.03412465971517e-05)
(-2.60810864526935e-05 0.00166589679321796 0.000270984180735901)
(-6.46329350645986e-05 0.00145334375367127 0.000165674341043979)
(-7.51432682098799e-05 0.000992395370965362 8.07241450664424e-05)
(-0.000134735288435282 0.00110748954575495 9.45631393277376e-06)
(-2.27430935462173e-05 0.00153971785739177 0.000376211451269988)
(-6.29573457851271e-05 0.00144730844622196 0.000272035917493668)
(-8.62423712511133e-05 0.00119369055064209 0.000178931331918774)
(-6.08019107591151e-05 0.000758418588718264 0.000100352038063297)
(-8.85430930061362e-05 0.000920343549766852 2.43639242506834e-05)
(-1.95035046226424e-05 0.00139860854783231 0.000468670439969606)
(-5.69253613091717e-05 0.00135736147382085 0.000371306394802706)
(-8.75173802552462e-05 0.00123774653769008 0.000277657928402623)
(-8.8594356832275e-05 0.000989110494369665 0.000192118039298067)
(-2.18038711450552e-05 0.000574138557234147 0.000114177579323277)
(-1.77932783706455e-05 0.000764697711798492 3.39865857111711e-05)
(-1.66909857613646e-05 0.00125943032190615 0.000546415264233496)
(-4.99528213491653e-05 0.00124223041537819 0.000457201844556261)
(-8.0828684235625e-05 0.00118170723959238 0.000369022583080893)
(-9.74820819662484e-05 0.00106162168899744 0.000283507659467401)
(-7.26145345388744e-05 0.000820669285591686 0.000200102424065912)
(3.37979724938241e-05 0.000420173341951321 0.000118785975353026)
(6.79951010750018e-05 0.000618795892529283 3.69702736358534e-05)
(-1.42614029742667e-05 0.00112840912439451 0.00061027534143321)
(-4.32163813988523e-05 0.00112469463543251 0.000529232791399941)
(-7.17512301819025e-05 0.00109288785219809 0.000448481959572298)
(-9.31117507547973e-05 0.0010307469023067 0.000369069903050038)
(-9.31098929420876e-05 0.000911849529362252 0.000287346227547813)
(-4.37537360378843e-05 0.000677899480880115 0.000203270684236152)
(9.6180502911744e-05 0.000283345270775461 0.000118142533084263)
(0.000155277411213458 0.000495826839863387 3.67904486154325e-05)
(-6.41366523626974e-05 0.00210421513194597 -6.23938653896193e-05)
(-3.77612218771887e-05 0.0018077184364716 -9.19313775219112e-06)
(-0.000150994578014621 0.00178592393880906 -6.16418129201171e-05)
(-3.5811916470029e-05 0.00188993098583804 9.86711221876049e-05)
(-8.49111008500997e-05 0.00147584656175007 9.41583939392025e-06)
(-0.000191738829721468 0.00147653678045984 -4.0768149169173e-05)
(-3.2122418390268e-05 0.0018213171255384 0.00022087962076351)
(-8.26220064853107e-05 0.00160065231645462 0.000119112935365109)
(-0.0001066233662571 0.0011269613615274 4.26804518496727e-05)
(-0.000186081759157424 0.00124439814009499 -1.32222301473472e-05)
(-2.75530127399569e-05 0.0016836751994707 0.000340207685224511)
(-7.77191284119994e-05 0.00158822550607139 0.000235750368029069)
(-0.00011171350551969 0.00132183252440112 0.000147099276045451)
(-9.63235805689026e-05 0.000874287996685873 7.5191353520365e-05)
(-0.000140448879810988 0.00104558150018421 7.75252107876621e-06)
(-2.33510791471592e-05 0.00152896190115652 0.000445371479099367)
(-6.90035264693259e-05 0.00148805541305353 0.000346493028682008)
(-0.000108856102817956 0.00136215024894426 0.000254266695268572)
(-0.000118637296619201 0.00109980164611041 0.000172619163494605)
(-5.74768722992135e-05 0.000671585039544768 9.98565856010588e-05)
(-6.6854351191951e-05 0.000872299229332267 2.44993909946698e-05)
(-1.97566279500023e-05 0.00137585934961516 0.000533669763230719)
(-5.97572612512279e-05 0.00136072710224997 0.000442245810622627)
(-9.84749068360905e-05 0.00129799023722979 0.000353829091402769)
(-0.000123160944618806 0.00117083932281358 0.000270155448236421)
(-0.000103951560966282 0.000915947344763653 0.000190646232119456)
(1.78777580391502e-06 0.000503805803790734 0.000114523001766036)
(2.5574469937846e-05 0.000727626579839939 3.69379030995242e-05)
(-1.67608182886413e-05 0.00123127196739145 0.000606070234880213)
(-5.13088578995962e-05 0.00123023558748221 0.000522325779900871)
(-8.64403134554726e-05 0.00119823477506173 0.000439965158752196)
(-0.000114839533624708 0.00113324575047445 0.000360410550136991)
(-0.000120795497997539 0.00100721170290703 0.000280210944263752)
(-7.33009981700103e-05 0.000761346164829161 0.00019956800080628)
(7.17418532446881e-05 0.00036230189117654 0.000118217451068284)
(0.000126488359969777 0.000594434603285358 3.82617246169942e-05)
(-1.41770377611934e-05 0.00109772597251334 0.000664775378978675)
(-4.38401645444639e-05 0.00110540817674821 0.000588257447086527)
(-7.49071200258258e-05 0.00109114732708033 0.000512523844879857)
(-0.0001026381144732 0.00105673829642045 0.000439233126137132)
(-0.000118023154473224 0.00099045475038565 0.000364186331223404)
(-0.000105444068748067 0.000867226933451086 0.000284943599162672)
(-3.39724641927084e-05 0.000629300275319549 0.000201767856358638)
(0.000142475488821584 0.000235410830184283 0.000115482736136579)
(0.000220896372120533 0.000484715217527 3.46389717693046e-05)
(-8.99411429252715e-05 0.00218872993537012 -0.000133932740001152)
(-4.99435686263512e-05 0.00196900527785982 -0.000112691937479734)
(-0.00020129297901656 0.00189016436698796 -0.00011743063790827)
(-4.47749581898932e-05 0.00206040357837962 7.99897293956059e-06)
(-0.000112809038475222 0.001637514529275 -6.84690010492206e-05)
(-0.000251245635436028 0.00160419490577798 -8.35790168729748e-05)
(-3.9320321498796e-05 0.00199031659126815 0.000148335472514581)
(-0.000103966544600021 0.00175826407527905 5.18718816368869e-05)
(-0.000143680598881153 0.0012682053086211 -1.20496631431009e-05)
(-0.000249031955571015 0.00138290996076874 -4.38100924330129e-05)
(-3.32971066918773e-05 0.0018411398676999 0.000286403342360512)
(-9.52526035479333e-05 0.00174093671555693 0.000182309435017742)
(-0.000141831969594262 0.00145881475011619 0.000100359877528975)
(-0.000137665245626987 0.000996783295526412 3.75836142724599e-05)
(-0.000201995908934171 0.00117659783912132 -1.36662380875848e-05)
(-2.79301056642739e-05 0.00167152579101684 0.000408531947775985)
(-8.33422043714891e-05 0.00162991544934386 0.000307960380146417)
(-0.000134209363371901 0.0014958209180821 0.000217869199297825)
(-0.00015405775070291 0.0012180026195385 0.000141585594607412)
(-9.95486023670226e-05 0.000776853998407979 7.56445589483882e-05)
(-0.00012487731049222 0.000992727397820834 9.41514944184962e-06)
(-2.34054065251614e-05 0.00150314666767876 0.000510772855167403)
(-7.14372458114586e-05 0.0014894765289306 0.000416991678569783)
(-0.00011938297144467 0.00142339395263858 0.000328753719317958)
(-0.000153663238039341 0.0012877657419889 0.000247456732825509)
(-0.000141572031922501 0.00101743770753551 0.000172262564462191)
(-3.74629019017321e-05 0.000591812635603255 0.000101046139223736)
(-2.69241229908127e-05 0.000830329421868002 2.79615330731125e-05)
(-1.96631502482454e-05 0.00134396979565104 0.00059431599865593)
(-6.07408241195206e-05 0.00134548290195794 0.000507796259081982)
(-0.000103556313664057 0.00131268163080372 0.000424368755647966)
(-0.000140330805920644 0.00124394396734064 0.000345497101138152)
(-0.000153726798266721 0.00110925977656456 0.000267783160314841)
(-0.000109562183622355 0.000848408128930702 0.000191225990128603)
(3.87206672107143e-05 0.000437915892705967 0.000114629437919391)
(8.37671743829195e-05 0.000698193779376437 3.93430002731243e-05)
(-1.65620476967041e-05 0.00119660906880993 0.000661765112735743)
(-5.15944550976734e-05 0.00120725361657267 0.000582351611391604)
(-8.90084992864973e-05 0.00119353164685484 0.000504632860706765)
(-0.00012381273209383 0.001157837171719 0.000430582261091335)
(-0.000146008165678185 0.00108752239863775 0.000356057000168225)
(-0.000138142261449117 0.000956116971401395 0.000278731368157757)
(-6.59097520632308e-05 0.000705670951145861 0.000199055600813939)
(0.000119778289799535 0.000307581995304583 0.000116194038870364)
(0.000195476819354356 0.000580439760937541 3.70074585236981e-05)
(-4.36213226536315e-05 0.00107847360390269 0.000643043121619856)
(-7.61352970453751e-05 0.00107702991385831 0.000571225884760067)
(-0.000107761299833737 0.00106048802424296 0.000502693991503365)
(-0.000131957527688451 0.00102237706443754 0.000433498820715485)
(-0.000139005798177807 0.000952147115944294 0.000360757736581036)
(-0.000112480555849263 0.000824881121144286 0.000282507290197734)
(-1.79068406156105e-05 0.000582748464087637 0.000198948873762206)
(0.000195971169319709 0.000188905876682078 0.000110248796463211)
(0.000289693692105505 0.000486183573931997 3.05072855680501e-05)
(-0.000125929867356455 0.00220949102336363 -0.000233117544747037)
(-6.56843175742789e-05 0.00213002103951882 -0.000256319506393972)
(-0.000268106995171643 0.00195664298826961 -0.000203170616879642)
(-5.57795950480902e-05 0.00224184168860809 -0.000118298584608618)
(-0.000147576607696065 0.00179854273208746 -0.000176271936474255)
(-0.000326199628246279 0.00170512218732499 -0.000147578845335173)
(-4.79532562863042e-05 0.00217500839577541 4.65964650826179e-05)
(-0.000129317311642925 0.00192669779835612 -4.21658322785751e-05)
(-0.000187944758652155 0.00141298189238214 -8.86907316100255e-05)
(-0.000324492256158609 0.00150990751252826 -9.10540637897989e-05)
(-4.01886164260838e-05 0.00201514398838375 0.000209789875321796)
(-0.000115983564066187 0.00190751472562378 0.000106616624153823)
(-0.000177054869069018 0.00160484707578775 3.41318022400633e-05)
(-0.000185567068317752 0.00112416034457734 -1.48242466497259e-05)
(-0.00027680028431714 0.00131206135880596 -4.35292675018012e-05)
(-3.33610303563951e-05 0.00182919650562558 0.000354348137972246)
(-0.000100322313342093 0.00178541661603786 0.000251617084794629)
(-0.0001639642511347 0.00164042661360273 0.000165054554650717)
(-0.000195330085961203 0.00134371340101614 9.64200443379504e-05)
(-0.000147924955708904 0.000887378214429244 4.04561787596671e-05)
(-0.000194583960272717 0.00112081020698882 -1.03135204056475e-05)
(-2.77349103228049e-05 0.0016434407243959 0.000474945762776723)
(-8.5298491346329e-05 0.00163047596139706 0.0003782398361002)
(-0.000144078605344273 0.00155929574081167 0.000290532674384279)
(-0.000189551215671373 0.00141296729298635 0.000212463903217191)
(-0.000185491613725753 0.00112519219602923 0.000143067837961206)
(-8.34219384401619e-05 0.000686487683195965 7.8599147478021e-05)
(-9.05489174680727e-05 0.000946488857741493 1.43848344440839e-05)
(-2.31168073580698e-05 0.00146791539432276 0.000572956529155336)
(-7.19451163567402e-05 0.00147151686107247 0.000483338595833876)
(-0.000123762427695207 0.00143688859654405 0.000399057952481094)
(-0.000170378841914645 0.00136302253064954 0.000321350487471007)
(-0.000192675859542518 0.00121798650198408 0.000246653272240865)
(-0.000152950725807005 0.000940495877157049 0.000174513931329822)
(-1.95446784477867e-06 0.000516553921165243 0.000102330321408237)
(2.92055249285448e-05 0.000795610317210295 3.23454872848847e-05)
(-1.93088152033999e-05 0.00130547479273644 0.000651627381623818)
(-6.05701928009284e-05 0.00131898861945275 0.000569042337353919)
(-0.000105427327601154 0.00130522113484596 0.000489536977876342)
(-0.000148561819360975 0.00126748697572106 0.000415340343230846)
(-0.000178932586706697 0.00119199765399602 0.000342204494585149)
(-0.000177143565264922 0.00105068393443255 0.000267728774876786)
(-0.000105434741833621 0.000784545497397223 0.000192037072456542)
(8.77478483709497e-05 0.000375166874503001 0.000113665596059623)
(0.000154366961075884 0.000679604252939299 3.90311490350741e-05)
(-1.6126898499038e-05 0.00115651889112107 0.000714522409790059)
(-5.10394133788571e-05 0.00117645622272881 0.000638603890052866)
(-8.96013130124637e-05 0.00117606307824791 0.000564382154521004)
(-0.000128124084150247 0.00115918430972618 0.000494734929912158)
(-0.00015936913519637 0.0011187570543176 0.000425432859812838)
(-0.000172470142379738 0.00104347879437098 0.000353636371031736)
(-0.000149016152541345 0.000907181010450245 0.000277479291202931)
(-5.08072449242479e-05 0.000652080415801834 0.000197238294977368)
(0.000176653910791256 0.000254627732467287 0.000111786265746327)
(0.00026971092342344 0.000580161126103173 3.38395273451843e-05)
(-7.58753007898484e-05 0.00105411195983135 0.000625873316717853)
(-0.000109954891735872 0.00105076730522495 0.000561096648326612)
(-0.000139677627201199 0.00103089167676725 0.000496413190589977)
(-0.000158052567133148 0.000989153210471465 0.000429309455118864)
(-0.000155415183507388 0.000915202324839971 0.000357399015264998)
(-0.000114149071306712 0.000783690111251533 0.000278858326423763)
(4.08880987577463e-06 0.000536680940746271 0.000193603048209397)
(0.0002548909863444 0.000142034147658849 0.000101359062243544)
(0.000360018967498543 0.000483864681911615 2.34841622187914e-05)
(-0.000161621554152472 0.00212783541642197 -0.000358456298656709)
(-8.53840735389965e-05 0.00228206343826964 -0.000447265444535289)
(-0.000341080359114427 0.00199152508111343 -0.0003263265219532)
(-6.93426925776911e-05 0.0024342996007854 -0.000289112695837216)
(-0.00019074128410575 0.0019554960565332 -0.000318792889801508)
(-0.000409053960177065 0.00179311139737835 -0.000242567389095431)
(-5.84461444599779e-05 0.00237836944554464 -9.27124841919397e-05)
(-0.000159994101785702 0.00210534486883184 -0.000169798549426879)
(-0.000240741707350973 0.00155362236014236 -0.000191682829656313)
(-0.00040755499037908 0.00162652259638793 -0.00016182207036742)
(-4.84635527505508e-05 0.00220931106946197 0.000103746875376343)
(-0.000140694552483052 0.00208977606131763 2.3145348237497e-06)
(-0.000218536896472935 0.00175983257061969 -5.66979455767483e-05)
(-0.000241781335672047 0.00125372595078921 -8.71020476499726e-05)
(-0.000364512841034939 0.0014476895357936 -9.09719245777057e-05)
(-3.98765724995955e-05 0.00200563382004582 0.000278033365324994)
(-0.000120573578888911 0.0019575514456451 0.000172612937177756)
(-0.000198943556537861 0.00179763170292494 9.14324924428438e-05)
(-0.000243086448490348 0.00147674846763457 3.34821510420669e-05)
(-0.000203360812159109 0.00100099410589917 -7.83607020170319e-06)
(-0.000279614126097331 0.00125635142612288 -3.95533497590057e-05)
(-3.28873459448587e-05 0.00179998777684833 0.000422848823208609)
(-0.000101737020219562 0.00178666898910519 0.000322191658862303)
(-0.000173140172342166 0.00170787131697859 0.000235387279292851)
(-0.000231344264594125 0.00154777360168153 0.000162085441572331)
(-0.000236081366773538 0.00123891068428787 0.00010098600870759)
(-0.000135998679910566 0.000785097379365407 4.64850321034588e-05)
(-0.000168800000115794 0.00107145178414648 -4.76461641909206e-06)
(-2.72207242274106e-05 0.0016053940566437 0.000539594322133542)
(-8.52598731868618e-05 0.00161056036134176 0.00044605732127885)
(-0.000147619722950507 0.00157260969140182 0.0003608727245226)
(-0.000205666975364585 0.00149157295921327 0.000284818960548781)
(-0.000238115901337354 0.0013336819057498 0.000214158521967053)
(-0.00020327773329688 0.00103746692221226 0.000147954556551629)
(-4.93691356263609e-05 0.000600550105618756 8.22316377000048e-05)
(-3.85285420125041e-05 0.000906547773758112 1.94223568233467e-05)
(-2.25736710662405e-05 0.00142592711545212 0.000632688199150353)
(-7.12487820581601e-05 0.0014418620648221 0.000546400800074379)
(-0.000124812045494581 0.00142715998954865 0.000465094651907429)
(-0.0001776650897659 0.00138614905377899 0.000391055686498065)
(-0.000217625838110348 0.00130382485495705 0.000319844375597209)
(-0.000223153752851725 0.00115073091550367 0.000248742893384125)
(-0.000152686966624324 0.000867159608155882 0.000177336491937384)
(4.77254373596785e-05 0.00044465239384081 0.000103200819688748)
(9.95519316638697e-05 0.000772241525540983 3.2753332713514e-05)
(-1.87285803906637e-05 0.00126151896705186 0.000706561352707145)
(-5.95605436749721e-05 0.00128448513458828 0.000626991942926669)
(-0.000105237980936609 0.00128457063429149 0.000550499271521472)
(-0.000151889299944186 0.00126662705848663 0.00048000166049606)
(-0.000191461675344889 0.00122292752707014 0.000411295383362343)
(-0.000211882734762089 0.00114127162485702 0.000341350374093896)
(-0.00019268078591682 0.000994087348903736 0.000268202856521502)
(-9.1890514371859e-05 0.000722734833828744 0.000191827576041307)
(0.000147511114155377 0.000314311643941017 0.000110675649298394)
(0.000232244607794058 0.000675347437000972 3.67462232059105e-05)
(-1.54993919098368e-05 0.00111118902919304 0.000764748460870327)
(-4.97477020984707e-05 0.00113929276076553 0.000691850985085855)
(-8.87107282077218e-05 0.00114963580012568 0.000620573782720574)
(-0.000129397494762338 0.00114650541871717 0.000554186797879189)
(-0.000166119672440224 0.00112542240335098 0.000489064446892054)
(-0.000191054061613786 0.00108044083190745 0.00042228978871825)
(-0.000193361062715718 0.00100057782692819 0.000351552878773267)
(-0.000153277400651705 0.000859316341249839 0.000275131489406652)
(-2.8323399592634e-05 0.000598959223222809 0.000193041186368514)
(0.000240555984045456 0.000201665427666245 0.000103926501696934)
(0.000346175541888508 0.000578464494835336 2.80786367883235e-05)
(-0.00010992555622662 0.00103143792222241 0.000615590694006177)
(-0.000143289683691035 0.00102515056328315 0.000554530483458686)
(-0.000168887982436293 0.00100196443448067 0.000491730195923096)
(-0.000180061948231169 0.000956783423837152 0.000425250771696886)
(-0.000166979352300699 0.000878965588075938 0.000352852502628468)
(-0.000110455044611174 0.000742666182942742 0.000272671462151507)
(3.14204670419855e-05 0.000489522828555842 0.000184233240638737)
(0.000316407363742738 9.26937304517807e-05 8.69946034341788e-05)
(0.000429934564512787 0.000461178511266151 9.01091814060811e-06)
(-0.000180172242010836 0.00190299899307949 -0.000525232951238476)
(-0.000108692433009206 0.0024020822262298 -0.000684940276280239)
(-0.000416534478371638 0.00199738916901206 -0.000481941323299087)
(-8.59136181184322e-05 0.00263579331790198 -0.00051386516341414)
(-0.000242549351268825 0.00209526282948308 -0.000501741307635335)
(-0.000499814054395204 0.00188368934825745 -0.000366821310781735)
(-7.16676265818608e-05 0.00260351514070679 -0.000279744290058032)
(-0.000197538398085425 0.00229285198507232 -0.000338136453019846)
(-0.000302771505102474 0.00168666606510244 -0.000325865021356684)
(-0.00050469321527222 0.00175139549741847 -0.000253212102718759)
(-5.86164995231149e-05 0.0024282535080964 -4.03390382506749e-05)
(-0.000170528412293507 0.00228978070233476 -0.000138155179585168)
(-0.000267761494811652 0.00192198556277755 -0.000177516511467403)
(-0.000305717557761884 0.00137733853656725 -0.000184209126976647)
(-0.000466927278436456 0.00158722845096405 -0.000158310595807731)
(-4.77974685986652e-05 0.00220560829265392 0.000173347840475135)
(-0.000144788070674331 0.00214963402999893 6.4551411275529e-05)
(-0.000240352461723326 0.00196868974192745 -8.55123307470455e-06)
(-0.000298620609232152 0.00161630222975347 -5.12743084042642e-05)
(-0.00026740704705305 0.00111574793466175 -7.45540359957652e-05)
(-0.000384411674411462 0.0013966508857869 -8.33509773604484e-05)
(-3.90854641786428e-05 0.00197699684821746 0.000350195292574723)
(-0.000121401529743759 0.00196161852209917 0.000244093816079764)
(-0.000207590529077298 0.0018717541438739 0.000158995040418592)
(-0.000280169446719177 0.00169325740952186 9.27653970361984e-05)
(-0.000294049002168263 0.00135787182528796 4.33857086249607e-05)
(-0.000195896863705166 0.000884978668681504 2.57631920784329e-06)
(-0.000265673033173426 0.00120187145999298 -3.38282048041769e-05)
(-3.21251794485592e-05 0.00175986948436937 0.000491411572741067)
(-0.000101139660399733 0.00176592488881177 0.000392593159328987)
(-0.000175861799193647 0.00172251061244407 0.000306284924130279)
(-0.000247005815359253 0.00163139281429708 0.000232582699658816)
(-0.000290712820244969 0.00145724859850746 0.000167716914025448)
(-0.000260810459319574 0.0011387396804475 0.000110004318932411)
(-0.000103664288952185 0.000687170327042542 5.35080834603836e-05)
(-0.000123234832859819 0.00102561503132595 1.29201398880346e-07)
(-2.64702053174384e-05 0.00156022823545897 0.000602869737965015)
(-8.39883993761577e-05 0.00157826521823204 0.000511935478220279)
(-0.000147761700865032 0.00156133078702146 0.000428437917986897)
(-0.000211862957733662 0.00151524789460756 0.000354695586988478)
(-0.000262793463203421 0.0014237575297914 0.000286059565172195)
(-0.000276509386079028 0.00125625958962952 0.000219461996211205)
(-0.000207229800070104 0.000953190334261454 0.000153963364293532)
(9.49245152984563e-07 0.000518231855383808 8.55492736720775e-05)
(2.9333853640764e-05 0.000877634703772697 2.07607989264045e-05)
(-2.18177158513709e-05 0.00137834457203012 0.000690713651141701)
(-6.96920414368645e-05 0.00140394837758254 0.000606970081163365)
(-0.000123733070083871 0.00140363747799087 0.000527830133810686)
(-0.000179839828426768 0.00138355300823841 0.000456566293443087)
(-0.000229093806158416 0.00133510034855989 0.000388840955311798)
(-0.000258083574801951 0.00124522379555669 0.000321330913379761)
(-0.000244103438653943 0.00108519362759041 0.000251727861463088)
(-0.000141139802113065 0.000795854863032915 0.000179556687259059)
(0.000109958105002308 0.000374741636983048 0.000102059705398645)
(0.000178286403487004 0.00076353450458968 3.09392926315077e-05)
(-1.79545958967139e-05 0.00121240680419736 0.000759717917032103)
(-5.78413609800623e-05 0.00124349870343779 0.000682528574454336)
(-0.000103548809532664 0.00125463476792281 0.000608228990032495)
(-0.000152054848661594 0.00125117571178247 0.000540616531163949)
(-0.000197009353468202 0.00122795984587183 0.000475410284833482)
(-0.000229693467691338 0.0011786120991089 0.000409750742787584)
(-0.000238056840818176 0.00109138111365388 0.000341127697496935)
(-0.000200143564336016 0.000938425456531195 0.0002677685586065)
(-6.93663045904326e-05 0.000661324421433841 0.00018937369455556)
(0.0002158240932465 0.000253505806568627 0.000104066940808985)
(0.000310912496164569 0.000675592359331624 3.23020985821069e-05)
(-1.47227223013901e-05 0.00106085943926071 0.000813304362459851)
(-4.78641454572821e-05 0.00109626779036576 0.000742449688547384)
(-8.65634418079084e-05 0.00111590558516553 0.00067374422739743)
(-0.000128428380333582 0.00112401937351995 0.00061028771730839)
(-0.000168566330739712 0.00111714738474716 0.0005482054596535)
(-0.000200851016404287 0.00109193784827079 0.00048543157408333)
(-0.000217780432363629 0.00104270570541058 0.000419538828162575)
(-0.000208314696076758 0.000958220743524949 0.000348401742425943)
(-0.000150914857260349 0.000811527696745255 0.000270302215041211)
(8.50263974544447e-07 0.000544667297777462 0.000184783823537231)
(0.000308397514355923 0.000146004981919356 9.02092822047402e-05)
(0.000422901616872228 0.000553337561008834 1.62757719385611e-05)
(-0.000143806251676096 0.00100919896270481 0.00060889147130231)
(-0.00017430930381458 0.000999960944897929 0.000549586916264543)
(-0.000194385433735318 0.000973627667251158 0.000487223234207893)
(-0.000197586916508587 0.000924924251296551 0.00042002878325805)
(-0.000173552344538326 0.000842868606032869 0.000345729180928315)
(-0.000101548801380829 0.000700826387932132 0.000262262548482525)
(6.31489619882499e-05 0.000439236426818758 0.000168556406751534)
(0.000377637804385527 3.69108120574294e-05 6.30210109051047e-05)
(0.000491345043266637 0.000427763072281911 -1.50950186366532e-05)
(-0.000206755220013795 0.00150528647199288 -0.000717253975210256)
(-0.000136762793869833 0.00244550866707759 -0.000958384599775119)