/*--------------------------------*- C++ -*----------------------------------*\
  =========                 |
  \\      /  F ield         | OpenFOAM: The Open Source CFD Toolbox
   \\    /   O peration     | Website:  https://openfoam.org
    \\  /    A nd           | Version:  12
     \\/     M anipulation  |
\*---------------------------------------------------------------------------*/
/*   Windows 32 and 64 bit porting by blueCAPE: http://www.bluecape.com.pt   *\
|  Based on Windows porting (2.0.x v4) by Symscape: http://www.symscape.com   |
\*---------------------------------------------------------------------------*/
FoamFile
{
    format      ascii;
    class       surfaceScalarField;
    location    "0";
    object      phi;
}
// * * * * * * * * * * * * * * * * * * * * * * * * * * * * * * * * * * * * * //

dimensions      [0 3 -1 0 0 0 0];

internalField   nonuniform List<scalar> 
28758
(
-2.00143821694286e-05
-2.99624270364174e-06
1.78316034450329e-07
-1.06057287791244e-05
-9.38302082800346e-06
-2.56327752111064e-08
-2.13817936674379e-05
-3.9115611054701e-07
-1.75509510273184e-05
-1.88859101933818e-06
-4.36365974372591e-06
-5.76350530262029e-06
-4.78563686499866e-07
6.49025603014804e-06
-5.40505112415128e-06
-1.08580685425866e-05
3.89842383165464e-07
-1.00281374452745e-05
-1.52030011674944e-06
-6.0281463407034e-06
-1.57019639004189e-05
1.18492236488388e-06
-3.74496633894673e-07
1.0515817762251e-08
-4.28657981577154e-06
3.665119979178e-08
3.8482559402453e-06
2.98791645157862e-06
-4.03460136044991e-06
-8.31390680106468e-07
-4.76218354057638e-07
-3.8874414108019e-06
-2.85359208503194e-06
-7.95160612606734e-06
-3.63358548907818e-07
-4.07731243302127e-06
-5.29515912599913e-06
-1.13422966684213e-06
2.84698626303144e-06
-2.45574505705968e-06
-1.04216324149631e-05
-8.27678195656398e-07
1.50706895764766e-06
-9.75129673007863e-07
-1.73581855760913e-06
1.59372105021771e-06
-8.91249987282742e-06
-6.4905369939425e-06
-9.53166081566759e-06
-3.23829965947242e-06
-2.3382751677706e-06
1.05549693113262e-06
-1.25016417745895e-05
1.2045915131025e-06
-1.55792828200062e-06
-1.68100722396752e-05
-1.70683292326522e-06
-7.39086757037538e-07
-3.04713559029094e-06
-9.88245867166833e-07
3.29121238049495e-06
3.69671838308678e-07
-2.86877482822371e-07
-3.39878188191002e-06
-6.00920669759644e-07
4.37905164480561e-06
-2.60250497478261e-07
-3.18077301016016e-06
-4.56413361010861e-06
-4.13834995908076e-06
-1.83129059358404e-07
-4.3818388643054e-06
-9.72055849450766e-07
-3.58147500182228e-06
-3.5621975483415e-07
-6.38481389153975e-06
-1.49414799359642e-06
-8.62912863129991e-06
-2.84074902221938e-07
4.30489444210656e-06
-2.48719782075873e-06
-7.09632751686208e-06
-3.79887342856076e-07
-3.54312648826906e-06
-3.55739887731111e-06
-2.9462042469319e-06
6.18640059040233e-07
-8.15059829745044e-07
-1.00897173587775e-05
-1.35495607233879e-07
7.34734254084042e-06
2.84847857980781e-06
-1.94743317793627e-06
-1.06351484333846e-05
1.55908109489666e-06
-1.24271730283283e-06
1.33418201068949e-06
2.08623310825643e-06
2.28257334322115e-06
8.19636081244557e-07
1.29080309121609e-06
-5.1671840711689e-07
-1.39842901879698e-07
-6.67165978396913e-06
8.33555643811451e-06
-8.01459114511951e-06
2.38202894584036e-07
-4.57984286779374e-06
-1.34508243176823e-05
8.12095976061001e-06
1.32034273078424e-06
-5.25763227109529e-07
2.40089601632857e-06
-1.13867527176111e-05
-2.00350032853031e-07
-2.95899489833064e-07
-1.36985478702163e-05
-1.41168075182615e-06
-4.9525284488781e-07
1.11920683757954e-05
-1.32843018640177e-05
1.83808426660653e-06
1.54469851871802e-06
-1.53852307862658e-05
-3.13928785855415e-06
-5.68642557307076e-07
-1.4422417774949e-06
-1.76894931315646e-05
-1.53374995793994e-06
-2.88522132470255e-07
4.68361826674308e-06
3.09906075435895e-07
3.15140806453806e-06
9.61026685999035e-07
-6.58469618457361e-07
-1.44392025390039e-07
3.68224006800212e-08
-1.62771766264547e-07
3.773819879359e-06
3.99389272397228e-09
-3.78568773175386e-06
-4.52260490032005e-06
2.39862707932859e-07
-4.56097416369275e-06
-2.28205715955095e-06
-2.23312530166681e-06
-4.68396031517876e-07
-5.95649675491044e-06
-1.48708357284152e-07
-7.73025371980272e-06
-5.47262935714031e-07
-8.83264440654791e-06
-6.42813714859273e-08
-1.14726792492479e-06
-8.47743502895073e-06
2.96866892969218e-07
5.59753775431035e-07
-2.02206754665526e-06
-7.05481559432647e-06
-3.17511161037604e-06
-5.88299880736704e-06
-2.70263537159316e-07
-5.29864825729315e-08
-9.60205612202558e-06
-1.64411498273e-07
7.64080087545925e-07
-7.58190572736616e-07
-1.09446968872851e-05
1.68162696485144e-07
-4.34135294822867e-07
4.43640458902384e-06
-2.74337382061762e-06
-1.31506396689256e-05
6.15209625229254e-07
1.1506450767416e-06
1.63801579900574e-06
-1.18437315378955e-05
1.92739650164025e-06
-3.34880834814374e-06
3.10733133824411e-06
-8.20724990063975e-06
-2.30785322512591e-05
1.99035927034301e-06
2.56332746908085e-07
9.54942772745368e-07
1.40978895353437e-06
-1.1606822812489e-06
-1.05041896884745e-05
-9.09983242994146e-07
-2.42843793345939e-07
-1.21424950866563e-05
-1.47941558571073e-06
-2.76987755703171e-07
-1.28282224580809e-05
-8.37909722408187e-08
9.58913712368151e-08
-1.36103550649679e-05
-2.7300058901283e-06
-4.56551311211454e-07
-1.52219245158958e-05
-1.14499658208456e-06
2.0258436157908e-08
-1.81068282820279e-05
1.02365895714011e-06
-1.42608401369007e-08
-1.47165640117943e-05
-4.39101221971906e-06
-5.46612158464003e-07
-1.72252026497397e-05
-3.48202298355121e-06
-8.99149766842599e-07
-2.19890313799577e-05
-2.13168412152309e-06
-1.07496774153371e-06
8.02081458826198e-07
4.29615696229043e-06
-1.05118813111136e-06
2.49544934698366e-08
-5.47738895928429e-07
-4.90943001643442e-06
-5.27132789875356e-06
1.46847093935228e-07
-7.39932035924461e-06
-5.01767982398156e-08
-8.22734000362014e-06
-7.33345696095943e-08
-8.71929867880124e-06
-9.29977656391054e-08
-4.38500160110506e-07
-8.98458804669819e-06
1.23180930386951e-07
2.25339365820726e-07
-1.44728384203628e-06
-8.2793784518131e-06
-1.84332793062065e-06
-7.16314002469706e-06
-8.78344332631918e-07
5.14421898254538e-07
-9.03123815010557e-06
-2.06895754411753e-07
-3.46342108945595e-07
-3.75945475358982e-08
-1.05654531789604e-05
-1.59718982222452e-07
-4.99630660053988e-08
9.43820716937949e-07
-9.33940510828885e-07
-1.2942394820629e-05
-1.15161951894475e-06
-1.38765712217049e-05
-4.63839402565141e-07
1.20477109692148e-06
1.50965737748763e-07
-1.00921377182703e-05
-2.11415250031128e-05
-6.35980919252396e-07
-3.18853220306289e-07
-1.08790940881239e-06
6.85190330076597e-07
-7.85449411187507e-06
-9.73678608414385e-06
-1.34798207513932e-06
-2.97766332706424e-07
-1.10040488697178e-05
-1.70366608371652e-06
-3.44763643703041e-07
-1.20177710826961e-05
-9.85011872522022e-07
-4.14626085214937e-07
-1.21616198411318e-05
-2.55089087355307e-06
-3.77260263413251e-07
-1.37511055590386e-05
-1.52747204387901e-06
-3.0412625154754e-07
-1.65799764242142e-05
-2.91438892656483e-07
-1.95701860940494e-07
-1.31714945201621e-05
-3.84272530323855e-06
-4.32350619988393e-07
-1.51801621338727e-05
-3.03327966890076e-06
-6.13309420139614e-07
-1.80067295875926e-05
-1.90071777646259e-06
-1.03766761019094e-06
-1.86617662923648e-05
-5.9118073967149e-07
-6.98068688009767e-07
-1.39991099212165e-05
-5.32371911200766e-07
-1.63106864692182e-05
-4.92513961793782e-06
-1.10173357123043e-06
-1.9622972460737e-05
-4.10084487152208e-06
-1.54396074066359e-06
-2.11680583003735e-05
-2.8095105501496e-06
-1.71005897920069e-06
-4.04477738576806e-07
-6.3482803793674e-06
-6.97624244618023e-06
7.43741274838953e-08
-7.96237156678424e-06
-6.58434006812622e-08
-8.23483127781941e-06
2.32864499928845e-07
-8.28716985589877e-06
-1.50571617966945e-07
-6.34152618942056e-08
-8.97763262203266e-06
-7.41325523428955e-08
8.80953726354746e-08
-5.10063339471707e-07
-8.6681702242823e-06
-6.89809087235013e-07
-7.47314500217441e-06
-1.24144902701253e-06
8.29797321317155e-07
-8.40953741016436e-06
-2.10049372381737e-07
-1.01921920702974e-06
6.20034762570501e-07
-9.98531869440034e-06
-3.87846156414022e-07
-2.14916021793415e-07
-5.53673913425962e-07
-8.41810500723007e-09
-1.23251061125091e-05
-2.36572285399508e-06
-1.47114783143288e-05
-1.03205365260677e-06
-4.03289251915219e-07
-1.0521813971929e-06
-1.2270135369507e-05
-1.74935620724088e-05
-1.78590961962616e-06
-1.75439928414568e-06
1.29829597740155e-07
-4.47804607838656e-07
-9.08897301270137e-06
6.92853567687721e-08
-6.87473672057162e-07
-7.45122189939396e-06
-9.02569232597709e-06
-1.64675392387635e-06
-3.05789397980464e-07
-1.00909386546914e-05
-1.90745528589461e-06
-3.53637273215145e-07
-1.11837154700813e-05
-1.50214785714998e-06
-6.48894100099846e-07
-1.10154670223467e-05
-2.5030207403432e-06
-3.46798438283286e-07
-1.25386930965437e-05
-1.88946375746689e-06
-6.52724762058589e-07
-1.53471324546628e-05
-1.17194470078997e-06
-1.0292003148784e-06
-1.18675459419849e-05
-3.49065896461503e-06
-3.64180864032894e-07
-1.35723199596833e-05
-2.85736826831415e-06
-6.55206721884686e-07
-1.58241659938953e-05
-1.93247824536487e-06
-8.45651345515863e-07
-1.66888386643344e-05
-9.75982699379105e-07
-1.06281812927317e-06
-1.26329098060913e-05
-4.2261765986008e-07
-1.45918101895149e-05
-4.31877982441547e-06
-8.6572742758895e-07
-1.73012466668747e-05
-3.60644782350265e-06
-1.22930616471069e-06
-1.87269623997499e-05
-2.48555310535087e-06
-1.58439230475856e-06
-1.54926913489279e-05
-1.47482098361913e-06
-1.62740852752389e-06
-1.54622789505085e-05
-1.09928849759826e-06
-1.84501815426745e-05
-5.68560697414934e-06
-1.74524446096285e-06
-2.08310601028603e-05
-4.70920073757473e-06
-2.31729202873535e-06
-2.01125697394816e-05
-3.42119832030527e-06
-2.62952096785383e-06
-1.23986583962212e-07
-6.91410292161534e-06
-7.53591824740571e-06
-6.16788034798273e-08
-8.02995147631111e-06
-1.21111338417815e-07
-7.88085560195995e-06
4.37413692595537e-07
-7.74866988492198e-06
-1.46116593778327e-07
2.80169713927768e-07
-8.57644486224527e-06
-2.11894401554105e-07
-7.77999579203516e-08
-6.5064391529075e-08
-8.6078564781311e-06
-6.07337648940779e-08
-7.42092564095187e-06
-1.52562787913221e-06
1.06895705698957e-06
-7.74268138748586e-06
-2.10185590424946e-07
-1.43843985461977e-06
9.38976057133437e-07
-9.31276960385163e-06
-3.83134993400464e-07
-2.93584946568699e-07
-1.45487331534145e-06
7.01436272939988e-07
-1.16659305888866e-05
-3.13040314698511e-06
-1.48131144024599e-05
-1.10801184848563e-06
-8.06489467312978e-07
-1.96570755033005e-06
-1.29914632838788e-05
-1.68809543740268e-05
-2.21196488056511e-06
-2.86507962135869e-06
-4.64618463274192e-07
-1.26510481225473e-06
-1.09882171081298e-05
-2.85834862619792e-07
-1.11106267375218e-06
-8.37954979530356e-06
8.14308452490574e-07
-1.51430459980733e-06
-7.04481062768175e-06
-8.35325447128045e-06
-1.88513075512618e-06
-3.12935550205882e-07
-9.32365900662097e-06
-2.07665494950846e-06
-3.37378821282336e-07
-1.03715423744399e-05
-1.83175304044798e-06
-7.24650157748505e-07
-1.0080366419896e-05
-2.50746678528459e-06
-3.35089191977097e-07
-1.1536510808114e-05
-2.11139427428517e-06
-7.46573581807381e-07
-1.42715826093544e-05
-1.69188471006148e-06
-1.48743366588202e-06
-1.07822530902471e-05
-3.26744089369163e-06
-3.2087289271725e-07
-1.2311055554569e-05
-2.80484180037298e-06
-6.926850644519e-07
-1.43621402500559e-05
-2.20213301993723e-06
-1.08456290735915e-06
-1.52505720271803e-05
-1.39740285308101e-06
-1.35589987011284e-06
-1.14614531920894e-05
-4.31579801058644e-06
-3.46317884623927e-07
-1.31531633005027e-05
-3.92272289110486e-06
-7.37473430076379e-07
-1.54241593484321e-05
-3.3458258936097e-06
-1.11894691694088e-06
-1.66435877516256e-05
-2.41016754133883e-06
-1.49484196250036e-06
-1.3928763404096e-05
-1.46902216619191e-06
-1.6223430174516e-06
-1.39678022813872e-05
-8.74213465668613e-07
-1.65317323477484e-05
-4.99718859461398e-06
-1.39343657086113e-06
-1.85016117345173e-05
-4.13763614595148e-06
-1.90667244006069e-06
-1.79746024166802e-05
-2.97784565419652e-06
-2.21933591311345e-06
-1.50634711429348e-05
-1.88724180773061e-06
-2.36414022901177e-06
-1.74764487244156e-05
-1.72542893620598e-06
-1.98826687806587e-05
-6.32139178611746e-06
-2.44199506817647e-06
-2.06548732890768e-05
-5.10907043532411e-06
-3.05758915254788e-06
-1.90576196002772e-05
-3.69852539749592e-06
-3.41516018194674e-06
4.7408910017686e-08
-7.02224551905194e-06
-7.61525250837051e-06
-1.6882259486841e-07
-7.70207048821325e-06
-8.24496575115248e-08
-7.36099242060856e-06
5.24664817182735e-07
-7.11275880766413e-06
-9.16192095012424e-08
4.33975912371164e-07
-8.02943838228191e-06
-1.88122887408728e-07
-2.01071167650858e-07
3.28089845061894e-07
-8.24533301004352e-06
3.26389426966047e-07
-7.13407742547216e-06
-1.81052516009543e-06
1.26282359417e-06
-7.0428549324607e-06
-1.52125454090472e-07
-1.75384795291803e-06
1.15260287327656e-06
-8.55051533770666e-06
-3.71195189799249e-07
-2.44564606742727e-07
-2.01322359955836e-06
1.08402211059486e-06
-1.0875299594893e-05
-3.5774624318652e-06
-1.46883433709833e-05
-1.1241252493436e-06
-9.45686954102757e-07
-2.54835017387926e-06
-1.32847855348789e-05
-1.65395725498975e-05
-2.35467219614679e-06
-3.55011148925807e-06
-7.58225667884851e-07
-1.80028257935364e-06
-1.1698060249195e-05
-6.66500622002482e-07
-1.45343475297289e-06
-9.97934473003407e-06
-6.28372207774317e-07
-1.53298448989176e-06
-7.73249837459765e-06
1.21129037184235e-06
-1.99498210684119e-06
-6.50568325357657e-06
-7.70786526542752e-06
-2.12810593556159e-06
-3.27809087484538e-07
-8.66967450462569e-06
-2.21049477731435e-06
-3.28620704976641e-07
-9.5596327465478e-06
-2.09829129527981e-06
-7.80402843685048e-07
-9.29711118303751e-06
-2.5263892046553e-06
-3.33521116457916e-07
-1.06661783990375e-05
-2.25922471256723e-06
-7.8024010425972e-07
-1.32277550479112e-05
-2.00852892348981e-06
-1.77317372216119e-06
-9.87958304868481e-06
-3.12040885452508e-06
-2.89728166066914e-07
-1.12818466623309e-05
-2.79115998683137e-06
-6.84532668332519e-07
-1.32086269658889e-05
-2.389436346327e-06
-1.20253603678221e-06
-1.40995131305782e-05
-1.68528785761612e-06
-1.5815779549724e-06
-1.04644962915845e-05
-3.97207202426574e-06
-2.92326001109374e-07
-1.19618541636168e-05
-3.66172323447396e-06
-6.55300922351812e-07
-1.39908727987792e-05
-3.23835843952574e-06
-1.08974690074737e-06
-1.51206250573326e-05
-2.4983911039448e-06
-1.50653835862198e-06
-1.27237198830645e-05
-1.57656979490042e-06
-1.65087492595093e-06
-1.10000768448457e-05
-5.02593645581328e-06
-3.25909890317495e-07
-1.26866643817906e-05
-4.83274354276451e-06
-7.17435407780783e-07
-1.4917377946095e-05
-4.52846411257242e-06
-1.16919011377461e-06
-1.65877608535708e-05
-3.79728936185356e-06
-1.64567688565772e-06
-1.61974064180435e-05
-2.76600326945292e-06
-1.97505764231725e-06
-1.36174201135158e-05
-1.74565425474906e-06
-2.08096603516277e-06
-1.58168160653243e-05
-1.3776919610634e-06
-1.78878839230677e-05
-5.56454538089435e-06
-1.96131317927652e-06
-1.85659719297592e-05
-4.48538329933014e-06
-2.48803726766323e-06
-1.71509491656826e-05
-3.22956557683665e-06
-2.78368351629565e-06
-1.49201162460167e-05
-2.0505521875414e-06
-2.87873220852165e-06
-1.89234254254826e-05
-2.37594971568491e-06
-2.02043374009383e-05
-6.64408273816546e-06
-3.104376847167e-06
-1.99882285021271e-05
-5.24576814969778e-06
-3.68193502331775e-06
-1.83619798682089e-05
-3.76519908619511e-06
-3.96943197004612e-06
1.15172116267589e-07
-6.81102802794548e-06
-7.34081307387159e-06
-1.58025750750934e-07
-7.19251836886164e-06
-8.16249372449993e-08
-6.75470284420942e-06
6.33053489996183e-07
-6.36958213724663e-06
-1.13406979518646e-07
5.49757646958387e-07
-7.33798218728433e-06
-1.80229987550865e-07
-1.52609088309509e-07
5.20540970207093e-07
-7.71736507338752e-06
5.5826211393118e-07
-6.63365779607507e-06
-2.1701686660845e-06
1.60706031829645e-06
-6.30546149311033e-06
-1.74285545266106e-07
-2.06783330571623e-06
1.39116697297382e-06
-7.64211953455172e-06
-3.83855286841493e-07
-2.88583776438892e-07
-2.42639002311918e-06
1.38912832772757e-06
-9.92064923837088e-06
-3.77555218594214e-06
-1.43843893922662e-05
-1.10990529751698e-06
-9.87185430580292e-07
-2.90350190635119e-06
-1.33460070867959e-05
-1.61468946248045e-05
-2.36696303637942e-06
-3.93569393782834e-06
-8.61140860945089e-07
-2.17376732045386e-06
-1.20501604572183e-05
-7.92007930667232e-07
-1.71862791082725e-06
-1.06408594566465e-05
-7.40858763240468e-07
-1.61459671485297e-06
-9.15687402419614e-06
-7.14144030160322e-07
-1.83866948514255e-06
-7.17466773451015e-06
1.47882398078802e-06
-2.33523298046232e-06
-5.93785792772608e-06
-7.20815214678271e-06
-2.46400123166176e-06
-2.05881258348481e-07
-8.11751456745283e-06
-2.3272348445112e-06
-3.53031210473524e-07
-8.72617948235421e-06
-2.40334784622914e-06
-8.25748834902629e-07
-8.65160589751217e-06
-2.54989470868386e-06
-3.06105318471451e-07
-9.8885553487407e-06
-2.38647862786773e-06
-8.18056893059228e-07
-1.21750717164629e-05
-2.26983302208964e-06
-1.98964451639889e-06
-9.12195957059936e-06
-3.01509561498157e-06
-2.68917153301864e-07
-1.04219444227677e-05
-2.78335594427643e-06
-6.69292292479493e-07
-1.22171380276413e-05
-2.51064413905826e-06
-1.26961463913176e-06
-1.30176505676206e-05
-1.85736699311478e-06
-1.7118143944342e-06
-9.61721442624228e-06
-3.71452798970028e-06
-2.53162917835991e-07
-1.09687423450644e-05
-3.48047686077482e-06
-5.93523239018972e-07
-1.28297472536961e-05
-3.18136154631859e-06
-1.05373347907645e-06
-1.39032507844523e-05
-2.57621532899049e-06
-1.52898371484495e-06
-1.17167414754638e-05
-1.66107692099524e-06
-1.6683388420009e-06
-1.00996627852226e-05
-4.6015448360164e-06
-2.70941480818288e-07
-1.15941310640251e-05
-4.44076338175443e-06
-6.05819480568635e-07
-1.35812889576299e-05
-4.20771942042859e-06
-1.02202941180369e-06
-1.50796883149713e-05
-3.60668546155737e-06
-1.48952594843729e-06
-1.47673990135963e-05
-2.68637185860375e-06
-1.82674453158475e-06
-1.24570960298475e-05
-1.69963655582816e-06
-1.90357098792332e-06
-1.05027608489193e-05
-5.62563880383781e-06
-3.0511150542865e-07
-1.21944012636202e-05
-5.61128350475888e-06
-6.81810403844787e-07
-1.43891618877693e-05
-5.54463717713226e-06
-1.12891690804221e-06
-1.61959763093847e-05
-5.0299510731149e-06
-1.62843669728962e-06
-1.68005043175262e-05
-4.07690249215606e-06
-2.1002461164549e-06
-1.55637666631954e-05
-2.9416299624466e-06
-2.36626512866064e-06
-1.35779120463309e-05
-1.86098411763123e-06
-2.42332762396973e-06
-1.71833404908506e-05
-1.90401086956207e-06
-1.82918724575239e-05
-5.86319513093904e-06
-2.49596740506459e-06
-1.81088685058313e-05
-4.62227549719986e-06
-2.97468842961908e-06
-1.66686418726747e-05
-3.31562406895519e-06
-3.21195060761944e-06
-1.47296647411687e-05
-2.09131126760107e-06
-3.19183727324658e-06
-1.93791802484907e-05
-2.9826736677961e-06
-1.97971775525398e-05
-6.68151082935002e-06
-3.65511424752338e-06
-1.9230234695767e-05
-5.20869072924353e-06
-4.13811997646042e-06
-1.77248268940776e-05
-3.71935080151985e-06
-4.29094976021994e-06
1.19094449620938e-07
-6.37186003183885e-06
-6.85920332732551e-06
-1.34620923714257e-07
-6.58976467208971e-06
-1.04907694121926e-07
-6.01674199007227e-06
8.53658326304851e-07
-5.48510451888377e-06
-1.31076067601468e-07
6.65967524007959e-07
-6.49708028618653e-06
-2.29109717727102e-07
-1.63683437258275e-07
6.73906599795594e-07
-7.01868947105189e-06
6.90832713349658e-07
-6.00934922363594e-06
-2.75731629699562e-06
2.20750215840533e-06
-5.3495374043983e-06
-4.06111226101834e-07
-2.52860663132236e-06
1.74751139415286e-06
-6.59855789954361e-06
-4.36752780899406e-07
-3.78501102705466e-07
-2.81048501801944e-06
1.68761032447549e-06
-8.80312925360053e-06
-3.77865506670976e-06
-1.39460170615156e-05
-1.07936429095999e-06
-9.88856436401308e-07
-3.07497624688564e-06
-1.3224059588934e-05
-1.56522823979136e-05
-2.3191621359782e-06
-4.09088184826491e-06
-8.93408951612579e-07
-2.41691799462732e-06
-1.2209448149925e-05
-8.26908940921284e-07
-1.92128107582017e-06
-1.10205987745001e-05
-7.92999306076894e-07
-1.69764613623513e-06
-9.76481096150778e-06
-7.94315276568324e-07
-1.75749549282423e-06
-8.44373300460758e-06
-7.71829507929793e-07
-2.11501696831695e-06
-6.62305506066127e-06
1.77055104245147e-06
-2.73827261430076e-06
-5.34863709619758e-06
-6.81441484660473e-06
-2.77117663278192e-06
-3.79877931668114e-07
-7.71964195281528e-06
-2.44400457319488e-06
-4.17869687796522e-07
-7.79632400181136e-06
-2.8369403274909e-06
-8.2740400231222e-07
-8.12647259303359e-06
-2.55581864696059e-06
-2.9654955496608e-07
-9.20849101922389e-06
-2.52896268256264e-06
-9.07481302095313e-07
-1.10596908265174e-05
-2.53683055821803e-06
-2.21478562544888e-06
-8.48111015830506e-06
-2.93044507682285e-06
-2.60299163900128e-07
-9.68171616154789e-06
-2.77397497705451e-06
-6.58837470490011e-07
-1.13453671414944e-05
-2.61046926154462e-06
-1.3491924358919e-06
-1.19620137503175e-05
-1.99108280360249e-06
-1.82602920693475e-06
-8.89405507088706e-06
-3.51344109853846e-06
-2.24814052879715e-07
-1.01294252695256e-05
-3.34400907373296e-06
-5.47581334573421e-07
-1.18515992623596e-05
-3.1361864090616e-06
-1.02189872718609e-06
-1.28681710541273e-05
-2.62134343394845e-06
-1.54071903559764e-06
-1.08163146212493e-05
-1.72344928303368e-06
-1.68310796122664e-06
-9.31781436244863e-06
-4.26647779266839e-06
-2.29898834230656e-07
-1.06607080257711e-05
-4.14273840108884e-06
-5.24324564457456e-07
-1.24639294702564e-05
-3.97618981583256e-06
-9.16054871401565e-07
-1.38443263011204e-05
-3.48147081943084e-06
-1.38384096228491e-06
-1.35876889673829e-05
-2.645196811907e-06
-1.72457466855639e-06
-1.14768957867129e-05
-1.67369686668126e-06
-1.76784200906633e-06
-9.69948514228231e-06
-5.15180937398336e-06
-2.53011400169219e-07
-1.12049187058849e-05
-5.13408118832274e-06
-5.67106529476993e-07
-1.31666000588178e-05
-5.08640850863119e-06
-9.49692642886546e-07
-1.47795693980488e-05
-4.64829380432789e-06
-1.39682880329669e-06
-1.5335652323099e-05
-3.80760092379565e-06
-1.83314990622833e-06
-1.4245338900638e-05
-2.76543462267169e-06
-2.07937497878664e-06
-1.24575085002053e-05
-1.74596771641551e-06
-2.10491641079625e-06
-9.98724180545877e-06
-6.12684682176552e-06
-2.82496255133171e-07
-1.166359230468e-05
-6.27018013531755e-06
-6.40909473992219e-07
-1.38480212802322e-05
-6.41734223319618e-06
-1.07450582140843e-06
-1.56752756899502e-05
-6.10859696176817e-06
-1.55833636824375e-06
-1.66485785103888e-05
-5.29112863199787e-06
-2.05750528078068e-06
-1.64998818566356e-05
-4.17998178855729e-06
-2.47088175013656e-06
-1.52249161295225e-05
-3.00026516486298e-06
-2.67071054362283e-06
-1.35090834726185e-05
-1.89225260472303e-06
-2.64506598197377e-06
-1.76805550794707e-05
-2.39967629316794e-06
-1.80474163837124e-05
-5.9226469893384e-06
-2.94535822526073e-06
-1.75571530876024e-05
-4.61866902071883e-06
-3.34472617438782e-06
-1.62415907152569e-05
-3.30588901445093e-06
-3.48061007962563e-06
-1.44272658640706e-05
-2.0724047234411e-06
-3.33330661330815e-06
-1.91001247166083e-05
-3.48490724486154e-06
-1.91118974029368e-05
-6.55700565251646e-06
-4.05706241559859e-06
-1.84729818125053e-05
-5.08252529333418e-06
-4.40872754288407e-06
-1.70474853750146e-05
-3.61458763939949e-06
-4.40835510326546e-06
7.20819657188518e-08
-5.75310902167747e-06
-6.24783563217527e-06
-1.7193815512341e-07
-5.85676655961171e-06
-1.14680313963543e-07
-5.04840336382061e-06
1.22467935146244e-06
-4.30330355633843e-06
-1.98978123954368e-07
8.96626744912277e-07
-5.50146949486986e-06
-2.75801742238006e-07
-2.11885621864699e-07
8.18534931929786e-07
-6.16683734580595e-06
8.36969996195441e-07
-5.28765340016769e-06
-4.50826245377676e-06
3.34814923735083e-06
-4.03909156109682e-06
-1.50332049599198e-07
-3.50372447829934e-06
2.252751769247e-06
-5.47481721721343e-06
-2.78878785193194e-07
-5.73515882028508e-07
-3.37164246031997e-06
1.99518049258437e-06
-7.28990385058729e-06
-3.63163147777571e-06
-1.34269319084851e-05
-1.040904573583e-06
-9.72097180791408e-07
-3.09531296848923e-06
-1.29535841962845e-05
-1.50739920919151e-05
-2.2432608600665e-06
-4.06367024102166e-06
-8.966442536095e-07
-2.54092239328458e-06
-1.2203411744463e-05
-8.3228248018018e-07
-2.06153094978867e-06
-1.12369163688873e-05
-8.25161843016096e-07
-1.75443102541152e-06
-1.01386523902967e-05
-7.9840277526036e-07
-1.7047669306904e-06
-9.0191369254474e-06
-8.10913404913745e-07
-1.93423884100322e-06
-7.81359798467376e-06
-8.3706853932009e-07
-2.22016764889607e-06
-6.30409241508194e-06
2.1764495993931e-06
-3.27840579639221e-06
-4.82019685287853e-06
-7.99781927825938e-06
-3.22723378901247e-06
-9.76249137851803e-08
-7.4287011185654e-06
-2.50251883597261e-06
-5.59598991769983e-07
-7.73995908881126e-06
-3.44651665642354e-06
-4.93452276841922e-07
-7.707894361831e-06
-2.5275892484901e-06
-3.34993533503278e-07
-8.70084538685725e-06
-2.70510537012174e-06
-1.05735082525283e-06
-9.71146938119172e-06
-2.85575021573346e-06
-2.69151920489018e-06
-7.94361455877684e-06
-2.85172061463439e-06
-2.4159367900962e-07
-9.06084947527661e-06
-2.77249829710485e-06
-6.73880771586358e-07
-1.05652455357141e-05
-2.7250415879514e-06
-1.49939275664058e-06
-1.09676482316923e-05
-2.01949087009555e-06
-2.02672995178465e-06
-8.27196712707789e-06
-3.34756658385678e-06
-2.04966611278867e-07
-9.4149308871739e-06
-3.23207278792281e-06
-5.16695813503744e-07
-1.10118574349404e-05
-3.09951835513272e-06
-1.00953069244733e-06
-1.19770099228047e-05
-2.65130983688649e-06
-1.58012748523474e-06
-1.00085971646673e-05
-1.70702849161513e-06
-1.73763219984417e-06
-8.63668367529435e-06
-3.99560014138929e-06
-1.98971875152682e-07
-9.85771158592675e-06
-3.90754831412812e-06
-4.64271520072789e-07
-1.15126085385863e-05
-3.79708699716082e-06
-8.38002143539128e-07
-1.2797816744951e-05
-3.38239103327462e-06
-1.3073616400155e-06
-1.25948688699709e-05
-2.60803680319291e-06
-1.64895248086582e-06
-1.06227985529694e-05
-1.65833329880555e-06
-1.67727520203558e-06
-8.98705175111243e-06
-4.76601538994055e-06
-2.12896038016866e-07
-1.03413290720769e-05
-4.75530817415481e-06
-4.80918876958237e-07
-1.21158485056867e-05
-4.7330088169051e-06
-8.18257455539367e-07
-1.3582998552146e-05
-4.36365832269606e-06
-1.23043888468094e-06
-1.41070947383836e-05
-3.61438376390477e-06
-1.64321249172741e-06
-1.31307902881195e-05
-2.64317650839765e-06
-1.86964429036943e-06
-1.15104972928372e-05
-1.66990507451084e-06
-1.87011050271159e-06
-9.27688801016919e-06
-5.62743448414125e-06
-2.34728942008354e-07
-1.07777346927938e-05
-5.74123821980301e-06
-5.31712298713862e-07
-1.27389879530295e-05
-5.86931266900718e-06
-8.93236099559968e-07
-1.43730674005351e-05
-5.59566304540915e-06
-1.3045323818087e-06
-1.5246290507243e-05
-4.86666268486058e-06
-1.7400559858511e-06
-1.51289547020729e-05
-3.86210108848762e-06
-2.10741155978929e-06
-1.39941009888145e-05
-2.77779736842344e-06
-2.27836123089124e-06
-1.24558902300364e-05
-1.74991651302199e-06
-2.24047637498816e-06
-9.46690934922891e-06
-6.54338024836838e-06
-2.58452301943963e-07
-1.11037366095107e-05
-6.82344562518269e-06
-5.93765310461593e-07
-1.32650014596095e-05
-7.16033724811621e-06
-1.01080605768314e-06
-1.51076199739394e-05
-7.04505864296858e-06
-1.48004793331549e-06
-1.61918603474103e-05
-6.37471208790499e-06
-1.96344830433693e-06
-1.65199861769419e-05
-5.34633625082868e-06
-2.41858181740322e-06
-1.60976555289061e-05
-4.17476588622981e-06
-2.75587939141261e-06
-1.49404890413561e-05
-2.99255219453563e-06
-2.87151341886883e-06
-1.33374888719812e-05
-1.88048705480407e-06
-2.75100100741508e-06
-1.75242932351134e-05
-2.81765732617126e-06
-1.75445560325331e-05
-5.84709656586929e-06
-3.28427319236689e-06
-1.70026147347138e-05
-4.54082014732511e-06
-3.58016321480109e-06
-1.57628761758906e-05
-3.24205890047811e-06
-3.59556618427443e-06
-1.40240650067404e-05
-2.02410025129925e-06
-3.33123175043521e-06
-1.84905128356102e-05
-3.85034329071349e-06
-1.83504751804188e-05
-6.36017410661745e-06
-4.2965908962289e-06
-1.76976218383179e-05
-4.9114149558783e-06
-4.50132357142511e-06
-1.63316655874192e-05
-3.48160540211009e-06
-4.35473548976202e-06
1.01975680682343e-07
-5.01811434731935e-06
-5.49926307542413e-06
-1.98209859255368e-07
-4.8766100924217e-06
-6.47502689753473e-08
-3.75897362116093e-06
1.74685623645302e-06
-2.67955260209191e-06
-2.2457147433381e-08
1.18157276607183e-06
-4.41073363339072e-06
-2.18534996024108e-07
-3.33413175806109e-07
9.4724701953895e-07
-5.06129205022042e-06
1.04534702794697e-06
-4.48996316462438e-06
4.97334625216316e-06
-8.86669944274327e-06
-1.45737984957402e-07
-3.87186953619044e-06
3.15062502692855e-06
-4.49855884507319e-06
-4.05346893035741e-07
-1.200468051688e-06
-4.29002258399621e-06
2.02482706112113e-06
-4.10311998690129e-06
-3.37110324484719e-06
-1.28797712065346e-05
-9.99584387136089e-07
-9.46131603742195e-07
-2.99357804028898e-06
-1.25825362769748e-05
-1.44542739968279e-05
-2.15607320475389e-06
-3.8923771924513e-06
-8.85777443610224e-07
-2.55698822924421e-06
-1.20517417943651e-05
-8.27425319477413e-07
-2.13330759003023e-06
-1.13042104907025e-05
-7.97932116790581e-07
-1.80041268356616e-06
-1.03930031042118e-05
-7.90201061454304e-07
-1.65999046418843e-06
-9.39322809625221e-06
-7.94599956630819e-07
-1.75736411252621e-06
-8.40141183114221e-06
-7.92108101055122e-07
-1.91204470387006e-06
-7.32961310058132e-06
-9.45454512965386e-07
-2.43683315241348e-06
-6.20021154325308e-06
3.13347374887276e-06
-4.94514119939725e-06
-4.20899799316587e-06
1.54292535059583e-06
-6.15346448361471e-06
-2.76078983112339e-06
-6.26491184047627e-07
-7.68882819711231e-06
-2.37771625122502e-06
-5.89391669423531e-07
-3.68155223898253e-06
-6.67330475294118e-06
-1.35459823702007e-06
-7.3210017071246e-06
-2.45062000100217e-06
-4.38791743075673e-07
-8.95513532280761e-06
-2.61834455970717e-06
-1.13348229973062e-06
-3.49603213804685e-06
-6.77810130813838e-06
-4.2208126177221e-06
-7.47682338666339e-06
-2.76015497349813e-06
-2.3422560668512e-07
-8.61658180374051e-06
-2.75597685740274e-06
-7.28390028231063e-07
-9.84450988917022e-06
-2.89048108088468e-06
-1.74335668505208e-06
-1.01206499168172e-05
-2.20110234757365e-06
-2.28287100296664e-06
-7.73068453019627e-06
-3.20109639501866e-06
-1.91907014978234e-07
-8.80300383548174e-06
-3.12934663828539e-06
-4.96672630097523e-07
-1.03044484480538e-05
-3.07486043117601e-06
-1.03147168350487e-06
-1.1156806617109e-05