/*--------------------------------*- C++ -*----------------------------------*\
  =========                 |
  \\      /  F ield         | OpenFOAM: The Open Source CFD Toolbox
   \\    /   O peration     | Website:  https://openfoam.org
    \\  /    A nd           | Version:  12
     \\/     M anipulation  |
\*---------------------------------------------------------------------------*/
/*   Windows 32 and 64 bit porting by blueCAPE: http://www.bluecape.com.pt   *\
|  Based on Windows porting (2.0.x v4) by Symscape: http://www.symscape.com   |
\*---------------------------------------------------------------------------*/
FoamFile
{
    format      ascii;
    class       volVectorField;
    location    "0";
    object      U;
}
// * * * * * * * * * * * * * * * * * * * * * * * * * * * * * * * * * * * * * //

dimensions      [0 1 -1 0 0 0 0];

internalField   nonuniform List<vector> 
10107
(
(-0.00042581472296913 -0.0016140768601409 0.0154392553128273)
(0.000311985563891831 -0.00777027063300624 0.00569587158331989)
(-0.000179586261379376 -0.00167583448919994 0.0122472127301776)
(-0.00075298929303834 -0.00133712251418668 0.0156934377924789)
(-9.35597954711632e-05 -0.00419916084568378 0.00206321351067214)
(0.000228565960691705 -0.00330781731845008 0.0065241584684306)
(0.000661537906333966 -0.00839950739246436 0.00520109218267297)
(3.70034329038849e-05 -0.00185060371027322 0.0103824635399545)
(-0.0007876536809513 -0.00440777932805919 0.0189807639578831)
(-3.94994707913816e-05 -0.00218904110961539 0.0136563421431081)
(-0.000105493055778912 -0.0012163175791976 0.0012760342803386)
(1.37612125551857e-05 -0.0023239239641379 0.00423332120273612)
(-0.000140920595051121 -0.00428690399394813 0.00208803063491548)
(3.43988049131337e-06 -0.00130492743995497 0.00655034755020543)
(0.000672444940010334 -0.00583832675358593 0.00808391936291118)
(0.000862085187799767 -0.00828619443615305 0.00618771044228015)
(-0.000450074045438396 -0.0056990681537357 0.00645890239002665)
(-0.000204945019339044 -0.000717873454203239 0.00809654306532503)
(3.18235636965439e-05 0.000273863128283091 0.00968740533884583)
(0.000283084785785418 -0.0027387540838046 0.0149145410413742)
(-0.00125535655328502 -0.00278670999582462 0.0178956567921123)
(0.000187850237188385 -0.00188479419886638 0.0124959507251264)
(0.0013396937148024 -0.0018513734205453 0.0130401409107385)
(-0.000354912408435401 -0.00485539214417386 0.0177011282102053)
(0.00097149384633289 -0.00275088044635358 0.013557319497052)
(-0.000269531015487423 -0.00117802210425206 0.00120267774835882)
(1.18779182673087e-05 -0.000770253311145633 0.00332927031934834)
(5.72350193692433e-05 -0.00112476459677419 0.00523350030655372)
(0.000168260090464586 -0.00227650896626962 0.00422744737945423)
(-0.000610426091167818 -0.0042883136822947 0.0016124355871937)
(-3.46582895321806e-05 -0.000342480016029549 0.0062921335282437)
(-2.74610303297487e-05 -0.00135194261021141 0.00628460699678741)
(0.000335081364571102 -0.00331861998941549 0.00613173238613623)
(-0.000243657160613674 -0.00380821933034571 0.00710994802543726)
(0.000685318651999565 -0.00686974584400129 0.0118685156578571)
(0.000697767522280419 -0.00472409670395922 0.00597477332444474)
(0.000210818134820026 -0.00351497130170238 0.00623565726489018)
(-0.000404003008607075 -0.00455133936887487 0.00762456522521573)
(0.00126724444301895 -0.0111635935910969 0.0107081766834791)
(-8.03209424440182e-05 -1.67816572760051e-05 0.00697887532750175)
(-3.32613151750824e-05 0.000339973043095478 0.00844615044121779)
(-0.000306643793227019 -0.000711816610903152 0.0075689439332413)
(-9.76122076090223e-05 0.00140838755661748 0.00949147677420189)
(-0.000321521666823256 0.000398336530316589 0.00976290912156896)
(-0.000915767166252288 -0.00281175973349127 0.00828035367269687)
(0.00134384348946547 -0.00677273825682191 0.0124574896843022)
(-0.000785607273028075 -0.00639801698678286 0.0183157185901583)
(-1.47366768325592e-06 -0.000125599581176175 0.0104367889183585)
(-0.000882730155938334 -0.000507486351290765 0.0137109951832133)
(-0.000500955183791525 -0.00692552093249479 0.0179885420264702)
(0.000643123547751206 -0.0027217972390652 0.0141117731385684)
(-0.000611324178972017 -0.00117921785871164 0.000961308005378753)
(0.000110921611320514 -0.000741681613722022 0.00328824423160999)
(4.38457691708652e-05 -0.000421525936033293 0.00464747205811115)
(3.58470517205646e-06 -0.000356247111679905 0.00565326791688409)
(5.85471595857481e-05 -0.00104661615349322 0.00507984690205397)
(0.000206963035340356 -0.00257981133166006 0.00393364406552074)
(0.000436312955008242 -0.00308054737193865 0.00385065440853331)
(-3.58853944555801e-05 8.80814265013108e-05 0.00600462462663643)
(-3.49705239813203e-05 -0.0003557780124599 0.00609250903788342)
(2.92320593857187e-05 -0.00147202656120147 0.00630882960900562)
(-0.000960204935243793 -0.00385621190089709 0.0070107532647215)
(0.00141981499275926 -0.00165590289757519 0.00990883581262729)
(0.000187193870703296 -0.00196109518678845 0.00620798539343858)
(-0.000267129776908505 -0.00219421805182282 0.00990814372451934)
(-0.000174823144605089 -0.00462959103271895 0.00616193798923179)
(0.00122541921559035 -0.0114869111243456 0.0137589867527045)
(-4.98416335989514e-05 0.000366991883088986 0.00635685748523183)
(-6.23580960262548e-05 0.000583978527578851 0.00739509082705665)
(-0.000122358868731342 -5.01016139535897e-05 0.00675583187779453)
(-8.84762514129849e-05 0.00128786999265587 0.00836546471035157)
(-0.000252068660484621 0.000325151800681831 0.00836004140019682)
(-0.000249350261723819 -0.000767930414099094 0.00797442843554911)
(-0.000103824901511776 0.00228690626090433 0.00921182980710121)
(-0.000295867983107373 0.00136572052964417 0.0094637799449931)
(-0.000613384756163363 0.000209670432594187 0.00952660647508721)
(-0.000498824698460491 -0.00379345519559271 0.00789904939455269)
(-0.000560752161791016 -0.00246949650017114 0.011131491515167)
(-4.02874583556344e-05 -0.0039678727923787 0.0138879007096805)
(0.000549503252376273 -0.00492061102198329 0.0142982325575025)
(0.000400066877674431 -0.00101608897852618 0.00332822163365562)
(0.000216360209727238 -0.000845357580116753 0.00319531972691025)
(0.000181153775320506 -0.000331044195213188 0.00458608344997116)
(1.9078729715949e-05 -0.000141312203884397 0.00531639018616132)
(-1.50901796760074e-05 -1.81250986880552e-05 0.00569444666763574)
(3.93179124755053e-05 -0.000335524215423431 0.00551684730573546)
(0.000113375549311935 -0.00123632674757693 0.00493943198085639)
(0.000152121779191614 -0.00141320670000219 0.00497250942105259)
(-4.15690338408456e-05 0.000373595041428896 0.00567653166345765)
(-7.50953934540608e-05 8.91350373537771e-05 0.00593630176442961)
(9.42120218511093e-06 -0.000393330836557591 0.0062047848714015)
(-0.000361413826633536 -1.87635150888393e-05 0.00955458767685784)
(0.000342197367131431 -0.000634275062393524 0.00789439528809574)
(-0.00031144862952424 -0.000563266484098783 0.00951324626410914)
(2.7744526250361e-05 -0.000542754224351958 0.00616451270841533)
(-0.00111057411911634 -0.00459913043092867 0.00885328075356142)
(-5.30935997473509e-05 0.000612006436420729 0.00586913852739359)
(-6.15227048126789e-05 0.000789357110767307 0.00662077741617366)
(-0.000136479418379405 0.000358665548644958 0.00630198000462905)
(-6.98577560543961e-05 0.00125719036073592 0.00744490022718669)
(-0.000155508764223493 0.000556370689111793 0.00731247782600096)
(-0.000137884361364428 -5.47011185680827e-05 0.00693422294231746)
(-8.29764791449417e-05 0.00201990033688986 0.00820256306355663)
(-0.000232869407752538 0.00121478414073732 0.00834209484015541)
(-0.000479678269689132 0.000505387911317244 0.00838268600118794)
(-0.000365313121182217 -0.000102198583470074 0.00810106798084318)
(-0.000104650149130775 0.00300893576618874 0.00879841729848223)
(-0.000319182991203779 0.0022973717939674 0.0091642415350055)
(-0.00050698720587375 0.00147542116022464 0.00936342074430889)
(-0.000648589299963783 0.000642465139132116 0.00936615493811719)
(0.000222119251807471 -0.000519504644853136 0.00454167093743176)
(0.000334510164448763 -0.000435735705016932 0.00453044110379158)
(8.10927285411461e-05 -0.000129819677942453 0.00525335607593195)
(-3.18180396307529e-06 -1.48392473219874e-05 0.00552333152493203)
(-3.14158803211552e-05 0.000196423468252969 0.00552364566600905)
(-2.48731499490445e-05 -2.59550889491754e-05 0.00562970985911055)
(7.29090394087187e-05 -0.00039797793940151 0.00552003371889094)
(4.51144562086132e-05 -0.000471623528126815 0.00546171330745257)
(-4.33308156286398e-05 0.000514462166330494 0.00531392252668121)
(-0.000128898780138932 0.000390178210702446 0.0056488013606978)
(-0.000104898856742202 0.000110325548651932 0.0059590034770329)
(-0.00123108702033968 0.000213641401580122 0.00910571678893724)
(-0.000410931944326334 5.49937162132327e-05 0.00814056903039896)
(-0.000679582165012364 0.000373573213721056 0.00935649635861599)
(-9.76373517241102e-05 -9.77304157940252e-05 0.0069684912078326)
(-0.000129815634945089 0.000153097492212568 0.00589641961827452)
(-5.35408561648549e-05 0.000745307287674843 0.00543458708856006)
(-5.67389627171294e-05 0.000926851937012605 0.00602857117815398)
(-0.000171216858729476 0.000609639436186275 0.00586203567116454)
(-5.86011032507697e-05 0.00127487814794002 0.00670312069251404)
(-0.00017435417966704 0.000775117609760643 0.00660194650064499)
(-0.000251656055970948 0.000371565867141423 0.00635384498139989)
(-6.80269647418469e-05 0.00185831938725316 0.00736180685847541)
(-0.000199346665754515 0.00124653274524072 0.0074256912868253)
(-0.000281095456724415 0.000611118744711226 0.00740564053643897)
(-0.000323240273521088 0.000242907221919154 0.00720315368741097)
(-8.31005309648545e-05 0.0026476375052767 0.00792155981359829)
(-0.00025159493617592 0.00202571630330697 0.00817056538079228)
(-0.000392998829955633 0.00136485511962613 0.00829113982061553)
(-0.000586741978106529 0.000696876273872548 0.00824366106083036)
(-0.000594311365207522 0.000386521039240103 0.00816320441452045)
(-0.000321255774559934 0.00301321703145257 0.00875198982039211)
(-0.000556672752587404 0.00233301801441694 0.00906564589579169)
(-0.000772219386788435 0.00160236312324139 0.00921372515458595)
(-0.000942632173269335 0.00103189314192781 0.00919131696781544)
(7.5657516906813e-05 -0.000186344931174332 0.00515252694817535)
(0.000129830584473828 -0.000149505716501608 0.00522210089680773)
(-7.72643378742222e-07 -1.85771886047026e-05 0.00548482639397207)
(-2.43984454831688e-05 5.85624579140864e-05 0.00542688728705743)
(-3.40834491497234e-05 0.000307455310201828 0.005215942835507)
(-8.10709110314743e-05 0.000217987850179877 0.00549271190263579)
(-2.40930354154929e-05 -2.68462939704254e-05 0.00560167973067747)
(-1.74799785152943e-05 -5.79745083422472e-06 0.00553103949649018)
(-4.62080712214242e-05 0.000607773477713381 0.00492017564473582)
(-0.000133259769985952 0.000541119840596717 0.00530040036120166)
(-0.000210354206965489 0.000430531227566696 0.00564164677672249)
(-0.00159982267239006 0.000235739447179494 0.00866592209666843)
(-0.000918416755106022 0.00017149719411786 0.00806299821421472)
(-0.00121148668165797 0.000665859854241339 0.0090176306771335)
(-0.0004938145456931 0.000103091730534823 0.00723481531988286)
(-0.000512716964075583 0.000148488840752799 0.00635288911405708)
(-0.000235527399851847 0.000577208883444686 0.00558423135357983)
(-5.58822633325992e-05 0.000835422246915563 0.00501908223993049)
(-5.21221781381564e-05 0.00101259723235726 0.00553748755579944)
(-0.0001826253698976 0.000756531527247295 0.00543575209789589)
(-5.36368633411063e-05 0.00129887195515973 0.00609889714699092)
(-0.000173610402650538 0.000919061371066175 0.00603265298252346)
(-0.000333211407990732 0.000632033434088444 0.00587995620258881)
(-5.7778273518965e-05 0.00175789496196184 0.00666259024313813)
(-0.000177645165507048 0.00127747081891665 0.00669401008742563)
(-0.000297744942879807 0.00079736474980629 0.00662263258140577)
(-0.000440929675879196 0.000434291694300351 0.00651262267269496)
(-6.76382316314918e-05 0.00239171653868651 0.00717055645179316)
(-0.000207473505656866 0.00186590292646837 0.0073403151553101)
(-0.000341294346378593 0.00129502259825921 0.0074065484369716)
(-0.000462964617374329 0.000768424765813932 0.00736065976796001)
(-0.000590115984387178 0.000435613097569153 0.0072722147330119)
(-0.000255042332659321 0.00265234045031933 0.00788856969076736)
(-0.000439125115105641 0.00206235852585261 0.00810577883394491)
(-0.000615173746231016 0.00144786919702406 0.00819116171646959)
(-0.000775432675117188 0.000927081547945743 0.00814512424220554)
(-0.00096611656413891 0.000568677915407653 0.00802706615337024)
(-0.000559159246437529 0.00301627460393702 0.00865987968241431)
(-0.000820280532643485 0.00237525471547632 0.00890282049387248)
(-0.00106273788871706 0.00174088893535063 0.0089753037897438)
(-0.00130358884376006 0.00120268718714575 0.00887619227546394)
(2.26018433757547e-06 -1.83364196788525e-05 0.0053552139306811)
(4.44231106881817e-06 -2.12392772996106e-05 0.00543768079448253)
(-6.16897899668454e-05 6.75010547283369e-05 0.0054086728731554)
(-2.12776308375093e-05 0.000103953392926579 0.00514836260611333)
(-2.55232731838211e-05 0.000362404051310617 0.00484430897705079)
(-8.451681294159e-05 0.000319260065473192 0.00519874357876758)
(-0.000106154154372024 0.00024144394755713 0.00545253585525004)
(-6.74597437557752e-05 0.000275641957816309 0.00539147478453326)
(-4.0257364789298e-05 0.000684605803104797 0.0044975034272996)
(-0.000137235088196827 0.000634416500877184 0.00490967009866662)
(-0.000229322817562257 0.000607155204716777 0.00529692729014366)
(-0.00180865775788711 0.000235879756528512 0.00823986405888309)
(-0.00124875724791711 0.000203160933884148 0.00781308171591531)
(-0.00158144460602037 0.000719636542127878 0.0086163743971966)
(-0.000820160095341332 0.000168998358168074 0.007209314566526)
(-0.000640179878149325 0.000168937852510744 0.00650977880480065)
(-0.000764150428355034 0.000308160481694213 0.00585241429069503)
(-0.0002764920087664 0.000804634873826767 0.00522286212860386)
(-6.27655000200491e-05 0.000922674459650508 0.0046066892426184)
(-5.05302588844956e-05 0.00106954249910059 0.00510727627125067)
(-0.000193152406247245 0.000856598240680341 0.00501562785538189)
(-5.27509460354463e-05 0.00131523283610659 0.00558939111675646)
(-0.000171099100225227 0.00100565673388758 0.00554981626154008)
(-0.000379372453463107 0.000784961647919521 0.00544908591814153)
(-5.09816656925376e-05 0.00168849821537111 0.00607620643737442)
(-0.00016541608792726 0.00129916276093029 0.00609700093646134)
(-0.000306299416360555 0.000924929704385481 0.00604049889342487)
(-0.000523715870196412 0.000568873001400675 0.00597440121459652)
(-5.65489827785983e-05 0.00220637025539205 0.00652884864090882)
(-0.00017758834137025 0.00176368041448339 0.0066488944828733)
(-0.000308752152887684 0.00129501172174945 0.00668058655592428)
(-0.000449798378669957 0.000853351053521896 0.00663346902455954)
(-0.00060769244446879 0.00050913183300018 0.00658053088334142)
(-6.52216250792477e-05 0.00285035310303817 0.00690808910703756)
(-0.000207940307690712 0.00239569052285419 0.0071474090623427)
(-0.000362124412926345 0.00188535338597094 0.00729864979889803)
(-0.00051494873099115 0.00135749035247308 0.0073473847324754)
(-0.000664137217745159 0.000898169804399945 0.00730148180115543)
(-0.000833601124829693 0.00053948156139683 0.00721400792151724)
(-0.000444750089451488 0.00265829562933262 0.00782280928938413)
(-0.000650525085294645 0.00209609837426827 0.00799465543775633)
(-0.000845993683013452 0.0015382178452801 0.00803639990877286)
(-0.00103552146864488 0.00105421241881026 0.00796048416381113)
(-0.00124850777178613 0.000628103394544394 0.00778534655789137)
(-0.000814100383778854 0.00301021215988732 0.0085076798578167)
(-0.00109071723822719 0.00240533070111707 0.0086678967199209)
(-0.00134737032417149 0.00180719237024866 0.00866246711316055)
(-0.00158734890210218 0.00124770874035863 0.00849695404358858)
(-2.93383442511751e-05 7.94875753393936e-05 0.00529365360995277)
(-6.37770119082893e-05 7.85711432029872e-05 0.00536648173047775)
(-6.14546668781049e-05 0.000101193352279169 0.00513298581460421)
(-2.40197533764795e-05 0.000113354470350636 0.00478739571976435)
(-3.84133744565711e-05 0.0004106603275156 0.004409415751063)
(-8.05485864865431e-05 0.000380383227573853 0.00482325647312492)
(-0.000103243457231126 0.000372735341530246 0.00516523632092913)
(-6.55834664765936e-05 0.000426005124920929 0.00510117849060143)
(-6.40652559171912e-05 0.00080840895385065 0.00403381908086901)
(-0.00013840819186252 0.000723009930236531 0.00446724136192288)
(-0.000258455881229095 0.000726142761012437 0.00489245123825872)
(-0.00190871187081454 0.000229168132304031 0.00781665798897619)
(-0.00143983016606446 0.000208426253662592 0.00752308775769104)
(-0.00179209819913491 0.00071910242174448 0.00819744486936086)
(-0.0010394181357361 0.000186918252612838 0.00707906339570513)
(-0.000788092869250188 0.000180263761021719 0.00652190271066577)
(-0.000753296962133682 0.000194201887562607 0.0059313216905521)
(-0.000939303812654215 0.000370270793314288 0.00541062785279535)
(-0.000320404975417554 0.000945348497178235 0.00480621699391812)
(-5.11978456832693e-05 0.00103858764659826 0.00420634741225107)
(-5.69789219702951e-05 0.00112422685844357 0.00471738004865789)
(-0.000204505381395829 0.00094993342902765 0.00459346346120553)
(-4.75819890977031e-05 0.00132418112152444 0.00514995925730961)
(-0.0001732813423119 0.00106781046812677 0.00511687648922783)
(-0.000411868399218776 0.000890824832555765 0.00502508484159545)
(-4.67810054726052e-05 0.0016346609070319 0.00557634766822952)
(-0.000160195551616911 0.00130848305556541 0.00559600498109186)
(-0.000313534384638587 0.00100001389101103 0.00555737462320444)
(-0.000584066202425156 0.000621344413431289 0.00551099383643002)
(-4.85798710133379e-05 0.00206652372573802 0.00597831351912725)
(-0.000157312430351618 0.00169107048443889 0.00606837689087988)
(-0.000287970307551166 0.00130152701691462 0.00608930376386834)
(-0.00045044140876563 0.000914624432325088 0.00605589545151695)
(-0.000633090787043426 0.000541692615783522 0.0060245685758085)
(-5.4127741066544e-05 0.00260831957345984 0.00633067054379236)
(-0.00017418073953369 0.00220880785792479 0.00651289200279845)
(-0.000309945900229385 0.0017716665211642 0.00662109217946558)
(-0.000455848396275691 0.00132007146955151 0.00664852410056889)
(-0.00060847838516654 0.000901873194481915 0.00661384684645569)
(-0.000761364353544369 0.000539293554222586 0.00655402528550196)
(-6.14059477952548e-05 0.0032399573254385 0.00660299335318453)
(-0.000201240720484244 0.00284925849299055 0.00688676717609712)
(-0.000362828973344163 0.00239907461752076 0.00710082652359509)
(-0.000533850105170374 0.00190659937330941 0.00722386753874867)
(-0.000701144178882574 0.00141509862287102 0.00724838626095204)
(-0.000864323966926096 0.000972795032861088 0.00718994767864187)
(-0.00103336602218067 0.000574206068555352 0.00706900028181224)
(-0.000649657371691123 0.0026574646811677 0.00771282509175059)
(-0.000867800451310255 0.00212116177225382 0.00783103274103091)
(-0.00107105264988585 0.00159220055797082 0.00782630772451923)
(-0.00126130098856049 0.00109918174761504 0.00770870597941675)
(-0.00143054518808203 0.00063707142816163 0.00749421518017674)
(-0.00106560340355244 0.00298617935590843 0.0082913216651295)
(-0.00133802191544254 0.00240005222704315 0.00837179963243495)
(-0.00157711321420413 0.00180874481897701 0.00830125517949406)
(-0.00177038863206051 0.00123505635749877 0.0080920522805425)
(-3.77595077396599e-05 0.000134754873795526 0.00504293743335694)
(-7.5125357875465e-05 0.000122896439368442 0.00510115885620527)
(-6.59800519918362e-05 0.000123164154914212 0.00476590015943791)
(-3.87636275684884e-05 0.000135472121704268 0.00436058656486635)
(-5.92837455913839e-05 0.000520046583670269 0.00388490483812407)
(-0.000112010633924907 0.000442925058380843 0.00436979755012345)
(-0.000117108362490331 0.000467981512570247 0.00478088374960964)
(-7.65272234173383e-05 0.000511823999598521 0.00469947310120287)
(-0.000118448594406986 0.00104197466396412 0.00347843493215786)
(-0.000182781541352577 0.000865736959285773 0.00398759569832014)
(-0.000297545235501528 0.000827343413030173 0.00443049730332835)
(-0.00192363687559396 0.000219928002661229 0.00740520749720665)
(-0.00153849366852235 0.000204999941666472 0.0072113911748535)
(-0.00189260620529887 0.000699249922077452 0.00777720217492022)
(-0.00118118425820205 0.000189454537951163 0.00688803033473975)
(-0.000910981561510505 0.00018033103263096 0.00645562247730321)
(-0.000790728046841171 0.000181245752385672 0.00595123167977392)
(-0.000839527829061857 0.000209732708891225 0.00544812200844278)
(-0.00107814451532745 0.000417853098608147 0.00501091699263656)
(-0.000367141683399399 0.0010824189122343 0.00438394262889455)
(-7.49947258973763e-05 0.00122729144021181 0.00383219079947976)
(-7.36245987571283e-05 0.00120555229873078 0.00435711414847651)
(-0.000189485923997177 0.00107560317421691 0.00416189763383977)
(-4.63810635244995e-05 0.00133069388794792 0.00476797956363257)
(-0.000190795369759832 0.00113100262601142 0.00472174050754049)
(-0.000436614719321453 0.000976589278130698 0.00459684086237221)
(-4.51089491826655e-05 0.00159201977194554 0.00514258485433823)
(-0.000151912568810622 0.00131193689428467 0.00516063677368255)
(-0.00032541822318133 0.00105406723858305 0.00513195070649205)
(-0.000627257345365873 0.000654718555492828 0.00507036553433157)
(-4.28718043876304e-05 0.00195616053017687 0.00550177194192639)
(-0.000143881346667849 0.00163351784390324 0.00557351981837384)
(-0.000275190803045209 0.00130104180376315 0.00559251819023608)
(-0.000453380272810911 0.00094700323321801 0.00557382219916892)
(-0.000645557473901396 0.000561785144283608 0.00554314721685161)
(-4.58164967547002e-05 0.00241822529193536 0.00582498872710492)
(-0.000149788970385418 0.00206725847552281 0.0059676532250083)
(-0.000273898079314427 0.00169063027124848 0.0060501899617658)
(-0.000418528629672189 0.00129734051114372 0.00607097500223711)
(-0.000576841349811113 0.000903988669785211 0.00604913367728882)
(-0.000713389381128301 0.000531932565615483 0.0060076107360274)
(-5.09023952416088e-05 0.0029623172731157 0.00609043222285671)
(-0.000167149956239038 0.0026071509853311 0.00631516784508552)
(-0.000303801441101571 0.00220860928829013 0.00647983052071614)
(-0.000453790902569759 0.00177769350520021 0.00657078758497109)
(-0.000607045339698576 0.00134012708625896 0.00658775090014016)
(-0.000755241285010371 0.000927255744700887 0.00654619019046055)
(-0.000891455499718799 0.000543425818186231 0.00646036782527225)
(-5.68401283960708e-05 0.00356845978490988 0.00627489172151711)
(-0.000189878606601262 0.00323557151008202 0.00658443415183361)
(-0.000350872472841018 0.00284281234188954 0.00684161038594332)
(-0.000530032543794682 0.00239706011313485 0.00702170554591631)
(-0.000710111305695162 0.00192069118066952 0.00711021603295159)
(-0.000879845936090582 0.00144687312453265 0.00710691259208193)
(-0.00103629154764651 0.000998748532967126 0.00702295720175325)
(-0.00117213665951324 0.00057818591168329 0.00686994826711233)
(-0.000853799795160377 0.00264392494009887 0.00755399240485626)
(-0.00106941177904151 0.00212336663308998 0.00761843820750459)
(-0.00126045092012501 0.00160191887543521 0.00756971337877045)
(-0.00141922034534322 0.00109803269119363 0.00741736598135931)
(-0.00152745814022874 0.000625989117099627 0.00718159652970246)
(-0.00128851460581436 0.00293723974071901 0.00802083954618616)
(-0.00153511345258103 0.00235891505367993 0.0080346071474711)
(-0.00173170433285558 0.00177024406841769 0.00791610025336458)
(-0.00186130898337891 0.00119790110953252 0.00768281725127072)
(-3.15610921978164e-05 0.000162581561319794 0.00465157025749335)
(-6.83825702662558e-05 0.000156018442190416 0.00472228089574294)
(-9.64905270102702e-05 0.000146115059919069 0.00433021007050957)
(-4.99679682512094e-05 0.000174734706995701 0.00381519080029632)
(-9.45791427139678e-05 0.000718334725108441 0.00321668312453022)
(-0.000160604998826949 0.000570388502403227 0.00383940260996787)
(-0.000154783253262918 0.000554752992186417 0.00431149936417709)
(-9.67010258390723e-05 0.000600967348913105 0.00423248627754151)
(-1.10914263782628e-05 0.00155221640375306 0.00273630350418614)
(-0.000348935662865953 0.0011122004643781 0.00346152490680785)
(-0.000357912017164148 0.000971242284943312 0.00391167198064529)
(-0.00186928764960203 0.000210096122859886 0.00701628598591981)
(-0.00156552729612616 0.000198539584081921 0.00689462750342164)
(-0.0019077645691461 0.000672112378351744 0.0073687182108241)
(-0.0012605789235447 0.000186348059045087 0.00666242944544296)
(-0.00099990355220939 0.00017671590080831 0.00633113330092038)
(-0.000836345079374161 0.000179884542394887 0.00591938844841778)
(-0.000804005042156935 0.000182130380206916 0.00547004355006759)
(-0.000927119065376317 0.000216407889433573 0.00502574202661071)
(-0.00114302269176956 0.00045785558322428 0.00470599922415363)
(-0.000420460406064783 0.00128853501431727 0.00397803495128087)
(-9.21594624151627e-06 0.00159397347483795 0.00356241250798377)
(-8.77568172839934e-05 0.00131786877265137 0.00403975183893379)
(-0.000231744912848001 0.0011830071921709 0.0038243102430302)
(-5.3578152110861e-05 0.00134590088356976 0.0044300940730665)
(-0.00022504661326223 0.00120665121507915 0.00437069244679121)
(-0.000469884173282731 0.00108141635594266 0.00416936330206077)
(-4.15797922327235e-05 0.00155555018485995 0.00476376465143812)
(-0.000151173464287959 0.00131900277130611 0.00477325893903736)
(-0.000352839464253321 0.00109746783124635 0.00474876147746117)
(-0.000674379887667119 0.000664847954960015 0.00465497361186594)
(-3.8906361795409e-05 0.00186614332280581 0.0050849514231677)
(-0.000135989424088717 0.00158416252751511 0.00514477048212673)
(-0.000267514341290612 0.00129627199699561 0.00516176423447661)
(-0.000463850591787349 0.000965584043858628 0.00515644669453757)
(-0.000665703373565517 0.000556692016882122 0.00511079184557962)
(-3.95548776104034e-05 0.00226511093673154 0.00537997332465517)
(-0.000132085988460856 0.00195525328530755 0.00549511280983373)
(-0.000248790763269472 0.00162640661439174 0.005562272026725)
(-0.000393779064352558 0.00127546345147676 0.00558262368540779)
(-0.000554415287887178 0.000901684755335854 0.00557412891006927)
(-0.000680851883481916 0.000526374347437846 0.00553637223245731)
(-4.27917070126298e-05 0.00273813401341515 0.00563286187011036)
(-0.000141525947818646 0.00241666522949456 0.00581382120197039)
(-0.000260819463510689 0.00206348251805576 0.00594427126059835)
(-0.000397701402782332 0.00168330732674372 0.00601590943509407)
(-0.000543505207179497 0.00128680509244091 0.00603182556527039)
(-0.000680403171204846 0.000893691171388396 0.00600438971491034)
(-0.00078907013138392 0.000525626908463969 0.00594273764206764)
(-4.72207856994824e-05 0.00327070846652161 0.00582441121853804)
(-0.000157472542108869 0.00295875758604681 0.00607636505511115)
(-0.000291459687438493 0.00260097298305126 0.00628162627952189)
(-0.000442838707137977 0.00220230721169977 0.00642275675479325)
(-0.000598580142086363 0.00177686718809356 0.00649176446010986)
(-0.000747237480548657 0.0013462392477348 0.0064918565346922)
(-0.000879656443306469 0.000929762204946234 0.00643247045322068)
(-0.000986968928702588 0.000536206888294855 0.00632159707136837)
(-5.19201525480088e-05 0.00384372832485297 0.00593727206201182)
(-0.000175908932553078 0.00356238152158072 0.00625891622514154)
(-0.000330957014103664 0.00322346281001044 0.00654313480672764)
(-0.000510437537019569 0.00282720870771754 0.00676489418903477)
(-0.000696944767704743 0.00238527660560857 0.00690540735580775)
(-0.000873766649361209 0.00191885639651588 0.00695795573875751)
(-0.00103106372053481 0.0014501026064219 0.00692527770791876)
(-0.00116146797386291 0.000995388586118187 0.00681523110030542)
(-0.00125151809870021 0.00056885884685478 0.00664036454599686)
(-0.00103770837941023 0.00261241847488503 0.00735132416168219)
(-0.00123489615777366 0.00209914010506217 0.00736817240727021)
(-0.00139523591348196 0.00157971190043442 0.00728318728713548)
(-0.00150632283351637 0.00107448530994286 0.00710798997489626)
(-0.00155403507990535 0.000607026039863833 0.00686538340146143)
(-0.00146369283119613 0.00286459454645206 0.00771333250015481)
(-0.00166836196913807 0.00229208770177581 0.00767573408738765)
(-0.0018096351906939 0.00171112213173343 0.00752596523663557)
(-0.00187349623343398 0.00115111953764893 0.00728446279252632)
(-4.74063462057467e-05 0.000194039888549378 0.00416321658445284)
(-0.000100898030293366 0.00018660403094346 0.00425998387580211)
(-0.000134926474391946 0.000200093049006507 0.00377451128925207)
(-6.86999318687392e-05 0.000264652063335058 0.00308645101107668)
(-5.02395326843793e-05 0.00102565691837872 0.00236284184503059)
(-0.000247643308527824 0.000787153680632395 0.00317537771911047)
(-0.000213154545763893 0.000658977459801598 0.00375237661774312)
(-0.00013052564259575 0.000736701902754455 0.00371746988825445)
(-5.88728464551216e-05 0.00246855909228419 0.00201295851787976)
(-0.000199145061909071 0.00162390175428294 0.00286130850444153)
(-0.000401363598195159 0.00133404631179989 0.00344707552691942)
(-0.00175857260849572 0.000200607000136923 0.00665901065938444)
(-0.00153365206050627 0.000191201251995138 0.00658635239426569)
(-0.00185393759823468 0.000643100460979885 0.00698330527656839)
(-0.00128645097016344 0.000181166018773125 0.00642116337370743)
(-0.00105299727284777 0.00017204885634462 0.00616865127710598)
(-0.000873610337920655 0.000169186709464888 0.0058419725925776)
(-0.000795103698277836 0.00017160962599008 0.00545714739850053)
(-0.000835668096392983 0.000181066122676949 0.00506026352758099)
(-0.000911045878276511 0.000210695752786285 0.00467714424843695)
(-0.00123572963608326 0.000540094917900938 0.00456978695317098)
(-0.000326941536409799 0.00178743473909003 0.00343854862852764)
(-0.00035715407539799 0.00229614965411466 0.00384196450084456)
(-8.51275947115829e-05 0.0014859177731554 0.0038200420905729)