/*--------------------------------*- C++ -*----------------------------------*\
  =========                 |
  \\      /  F ield         | OpenFOAM: The Open Source CFD Toolbox
   \\    /   O peration     | Website:  https://openfoam.org
    \\  /    A nd           | Version:  12
     \\/     M anipulation  |
\*---------------------------------------------------------------------------*/
/*   Windows 32 and 64 bit porting by blueCAPE: http://www.bluecape.com.pt   *\
|  Based on Windows porting (2.0.x v4) by Symscape: http://www.symscape.com   |
\*---------------------------------------------------------------------------*/
FoamFile
{
    format      ascii;
    class       volScalarField;
    location    "300";
    object      k;
}
// * * * * * * * * * * * * * * * * * * * * * * * * * * * * * * * * * * * * * //

dimensions      [0 2 -2 0 0 0 0];

internalField   nonuniform List<scalar> 
10252
(
0.000140159924467701
0.000140397979858795
0.000143152377031552
0.000398227003335556
0.000140534656927609
0.000143416191059075
0.000398480768838855
0.000146941873815392
0.000398898824594842
0.000582774553996917
0.000140545589849769
0.00014356620245162
0.000398516695122188
0.000147222692224344
0.000399164240892714
0.000582983028851816
0.000147929433017582
0.000398989643583208
0.000582393037786716
0.000730034855165602
0.000140425427511515
0.000143574553079478
0.000398318634870976
0.000147379874842622
0.000399204011484202
0.000582878297224952
0.0001482162045634
0.000399260919386285
0.000582612616644821
0.000730184504637029
0.000144451928766536
0.000395978531262725
0.000579679520896386
0.000729121170581236
0.000856810870537096
0.00014017048686418
0.000143448834322653
0.000397869861531981
0.000147384047159695
0.000399004984271161
0.000582452425511981
0.000148375886174704
0.000399301762376336
0.000582510374880014
0.000729935773480059
0.00014473724208272
0.000396248174140477
0.000579903575207941
0.000729283792357151
0.00085689446489366
0.00013747480996463
0.000388247656699573
0.000573194876948394
0.000724605998381223
0.000855296126578113
0.000970101049649401
0.000139772380713078
0.000143186915873535
0.000397152118913876
0.000147247983190506
0.000398553571532264
0.000581682016187713
0.00014837621672814
0.000399099095982841
0.000582083897473309
0.000729286668525383
0.000144897683543973
0.000396286805623023
0.000579801772972757
0.000729037891581553
0.00085650229756799
0.000137754144973207
0.000388510152216629
0.000573415064818879
0.000724774318948173
0.000855395050481727
0.000970113609692367
0.000128700424628652
0.000376099688138155
0.000561876412909134
0.000715410512698499
0.000849257214882811
0.000967878516433005
0.00107339536519438
0.000139218481717298
0.000142780873055163
0.000396143280605668
0.000146974623842292
0.000397832495934801
0.000580539528056146
0.000148233283615838
0.000398641533793469
0.000581311813003321
0.000728210563617824
0.000144895891768043
0.000396079761613403
0.00057937291437887
0.000728388481804615
0.000855636550537863
0.000137913620189084
0.000388544778923518
0.000573310329947079
0.000724529867307966
0.000855006771207973
0.000969579525195089
0.000128969966772911
0.000376351393518806
0.000562086727378391
0.000715574918052994
0.000849363723364799
0.000967908961296068
0.00107333313213542
0.000119025586534084
0.000360687652098919
0.000545831635637172
0.00070093485369582
0.000837728461383018
0.000960380713349823
0.0010705678599707
0.00116876004934838
0.000138493106078717
0.000142217829119672
0.000394815949540546
0.000146554281640061
0.000396819917129345
0.000578992824377001
0.000147950482675318
0.000397913193262879
0.000580167212800192
0.000726673780132187
0.000144752669329787
0.000395616703634386
0.000578597226914666
0.000727311155760658
0.000854268582706431
0.000137912124089686
0.000388334644478139
0.000572878191299916
0.00072387947190688
0.000854141642142637
0.000968503884907616
0.000129127345693686
0.000376381131555885
0.000561976655556515
0.000715328545311583
0.000848978629102172
0.000967380182608722
0.00107265871472977
0.000119282069296503
0.000360925529702787
0.000546028163646838
0.000701088651955308
0.000837831952989102
0.000960420950283052
0.00107052602742685
0.0011686200022697
0.000108599783932042
0.000342820593849428
0.000525774569401306
0.000681401225765581
0.000820416361424505
0.000946759737957598
0.00106182272204259
0.0011655265786284
0.00125758185925552
0.000137579670912349
0.000141481067404765
0.000393137676852106
0.000145975392703859
0.000395488532637997
0.000577004220904933
0.000147518757781122
0.000396892382052447
0.000578618117436907
0.00072463683959054
0.000144469285616511
0.000394882416766149
0.000577448621309019
0.000725772880004877
0.000852360328204373
0.000137772243843831
0.000387869942264902
0.000572099434926851
0.000722800519777545
0.000852773557921773
0.000966856425197973
0.000129127751112585
0.000376169780586023
0.000561541977929537
0.00071467686103287
0.000848114456978084
0.000966306564232607
0.00107137961403053
0.000119437437064845
0.000360949818171417
0.000545911568818648
0.000700837674871178
0.000837446874268069
0.000959897504038942
0.00106985837738367
0.00116780675651334
0.000108840940009467
0.00034304205562639
0.000525954444657956
0.000681540435297702
0.00082050968184139
0.000946798442695198
0.00106179299510237
0.00116540926869568
0.00125736141823094
9.74029654159693e-05
0.000322766999987425
0.000502272438131167
0.000657375341666396
0.000797712660224951
0.000926926865701701
0.00104643344095208
0.0011558343319514
0.00125409718906451
0.00134078521078835
0.0001364564655791
0.000140551751713514
0.000391072451779932
0.000145216548377896
0.000393805623478546
0.000574530317154267
0.000146927746071747
0.000395551903867707
0.000576626861944303
0.000722054031379244
0.000144038309746838
0.000393855738663775
0.00057589548262882
0.00072373437687034
0.000849866660473796
0.000137496251161975
0.000387135820704176
0.000570948599424336
0.000721260852670854
0.000850865212683693
0.000964595655186277
0.000128994103418343
0.000375707702080142
0.000560763446697082
0.000713597867038016
0.00084674718206922
0.000964660675472593
0.00106946382411901
0.000119440346323531
0.000360739034747268
0.000545476033658681
0.000700185546428828
0.000836584174660166
0.000958827237240891
0.00106858258919332
0.00116632975668819
0.000108993493011062
0.000343060651101692
0.000525830877946948
0.000681283616743005
0.000820121908341597
0.000946277447397858
0.00106113286438516
0.00116460402405114
0.00125641052190623
9.76288199709795e-05
0.000322970145966353
0.00050243335677424
0.000657497353322394
0.00079779186230145
0.000926956564581756
0.0010464039580355
0.00115573136653251
0.00125390154456604
0.00134048187304562
8.55123947113302e-05
0.000300559214238989
0.000475593852869449
0.000629279982421569
0.000770160821657901
0.000901397333399344
0.00102444083596079
0.00113902665062691
0.00124370103231229
0.00133713036999071
0.00141893185613669
0.000135099743218626
0.000139408777345891
0.000388577441647749
0.000144259463292598
0.000391733953819908
0.000571520693479457
0.000146154957411855
0.000393858505698668
0.00057414981561942
0.000718873201140724
0.000143448565100926
0.00039250993041672
0.000573900244132812
0.000721150002458231
0.000846735421359654
0.000137077130228139
0.000386111579572568
0.000569394652787606
0.000719221590074436
0.000848371747147714
0.000961671777892888
0.000128729400249374
0.000374980638533503
0.000559615999134244
0.000712060095332846
0.000844840501428866
0.000962401835677554
0.00106686674887078
0.000119314017423322
0.000360283395745179
0.000544702133115355
0.000699110191741326
0.00083522051954037
0.000957185096312751
0.00106666987707626
0.0011641551926569
0.000108999209158145
0.000342851969804122
0.000525396518166626
0.000680632900198834
0.000819261919764132
0.000945211827173866
0.00105986275551528
0.0011631312876304
0.00125474008307517
9.77806962463416e-05
0.000322983488710984
0.000502302894031929
0.000657234546614643
0.000797400293633667
0.000926435411805495
0.00104574880356725
0.00115493560179041
0.00125295962323001
0.00133939403288224
8.57236429741582e-05
0.000300743255868003
0.000475734004102074
0.000629382840757874
0.000770223585195031
0.00090141414993633
0.00102440391244543
0.00113892577445874
0.00124352179003799
0.00133685369556798
0.00141854317448164
7.31184966296427e-05
0.000276210646328372
0.00044585155156253
0.000597345234324077
0.000738118977603144
0.000870723169379149
0.000996439517056229
0.00111521846534972
0.00122574912727422
0.00132617741065
0.00141513928559266
0.00149231927965253
0.000133483599586922
0.000138029297762133
0.000385606507443585
0.000143083532866101
0.000389231600014524
0.000567921589796461
0.000145180980310348
0.000391774739468259
0.000571137305928486
0.000715035413794753
0.000142682218410175
0.000390811346058681
0.0005714194700985
0.000717967559711331
0.00084290747875097
0.000136503877655585
0.000384771096414689
0.00056740024550154
0.000716637436926203
0.000845241109542841
0.000958027352079935
0.00012832817268819
0.000373968486057241
0.000558069067643592
0.000710025134769718
0.000842350141947411
0.000959480644667269
0.00106353480198753
0.000119064225706631
0.00035956922677438
0.000543565164903671
0.000697580579719351
0.00083332036545252
0.000954931550254342
0.00106407663098464
0.0011612358213014
0.000108882132795803
0.000342406031129102
0.000524631739079188
0.000679566015260094
0.000817906314910195
0.000943577336869194
0.00105795656195343
0.00116096091697973
0.00125231487425011
9.77912523243517e-05
0.000322778871021094
0.000501872000270896
0.000656587763512121
0.000796545247349838
0.000925376176943609
0.00104448645030445
0.00115347048503361
0.00125129421529081
0.00133753395230433
8.58799599090046e-05
0.000300753642004685
0.000475597342819558
0.000629114599120957
0.000769828438263182
0.000900891959739488
0.0010237513552904
0.00113813736734372
0.00124259105183266
0.00133577569450471
0.00141731889476899
7.33067964900595e-05
0.000276376075382608
0.000445969708658709
0.000597427448645251
0.000738163710617515
0.000870725053105546
0.000996391375709598
0.00111511188532448
0.0012255737762145
0.00132591905681026
0.00141477902147927
0.00149184307534342
6.04895873282344e-05
0.000249769117015091
0.000413112826598889
0.000561710603004407
0.000701787285743106
0.000835237257378904
0.000963006920207306
0.00108506484601023
0.00120039552866284
0.00130726115376762
0.00140370699164271
0.00148839992220617
0.0015610775131673
0.000131578729872365
0.000136387508578741
0.000382109149973444
0.000141665994241894
0.000386252413597489
0.000563672939671434
0.000143985386778691
0.00038925901613709
0.000567534807207235
0.000710476771983691
0.00014171718314821
0.000388722847033654
0.000568403893080998
0.000714128431536088
0.00083831700280265
0.00013576091066372
0.000383082140880137
0.000564922354127463
0.00071345653034103
0.000841414227692982
0.000953597308396979
0.000127779790417481
0.000372645903824241
0.000556086289378168
0.000707448274418633
0.000839224462672705
0.000955839788552055
0.00105940594239556
0.000118684922198915
0.000358577241609382
0.000542035203621028
0.000695558854497247
0.000830840118991567
0.000952017891183239
0.00106074962617878
0.00115751457200376
0.000108650097254427
0.000341709763081302
0.000523512209730527
0.000678052241882704
0.000816020017454584
0.000941335340304635
0.00105537199840367
0.00115804666947435
0.00124908498152632
9.76859131326155e-05
0.000322346181374341
0.000501120844225277
0.000655534608403169
0.000795203153186342
0.000923754579012312
0.00104259174135889
0.0011513088698928
0.0012488739112383
0.00133486490452669
8.58997474266457e-05
0.000300556569801593
0.000475172750875046
0.000628474793192173
0.000768981398200948
0.000899841800087148
0.00102249912265816
0.00113668278868342
0.00124093487543069
0.00133392122956971
0.00141527239562784
7.3469542453307e-05
0.000276388858862872
0.000445828447035706
0.000597154920778786
0.000737766039621315
0.00087020241437223
0.000995740840035241
0.00111432881380199
0.00122465260013797
0.00132485378562246
0.00141356538687727
0.00149048291513642
6.06498802907799e-05
0.000249919037919332
0.000413208336991827
0.000561771178735614
0.000701812881866422
0.000835222961799392
0.000962945772268001
0.00108494894753091
0.00120021627196334
0.00130700845253745
0.00140336687174247
0.00148795373270656
0.00156051177823348
4.79530678063571e-05
0.000221331738527944
0.000377436684422523
0.000522481262976877
0.000661308322382912
0.000795123443505934
0.000924477497331841
0.00104918437660284
0.00116834919659417
0.00128055521595289
0.00138393830875309
0.00147652995556995
0.00155703604248632
0.00162524401404596
0.000129352841060089
0.000134454458927661
0.000378029930175521
0.000139980717646569
0.000382745797235319
0.000558710052606737
0.000142546382167653
0.000386265490591043
0.000563282455108813
0.000705127631409115
0.000140533819567288
0.000386203342772451
0.000564799076626787
0.000709568484122129
0.000832892204312761
0.000134828665261812
0.000381007205875981
0.000561912342188642
0.000709620671567781
0.000836825373294552
0.000948310019260126
0.00012707044652536
0.000370982257801222
0.000553625023546234
0.000704278279148798
0.000835404813741162
0.000951414415306924
0.00105441021085376
0.000118166264485961
0.000357282960995311
0.000540076832964505
0.00069300111169843
0.000827728822607768
0.000948387330462477
0.00105662702698576
0.00115292537594631
0.000108296359558934
0.000340744678007426
0.000522008740914422
0.000676054571706924
0.000813560161322657
0.000938437934343254
0.00105205660821593
0.00115433190028961
0.00124499019170417
9.74743335559115e-05
0.000321672848602181
0.000500025471685268
0.00065404474578275
0.000793339310473816
0.000921532551291357
0.00104002341907883
0.00114840596888286
0.0012456499751188
0.00133133442962662
8.58085183505608e-05
0.00030014149923593
0.000474440111158257
0.000627440953084016
0.000767658838311173
0.000898239230861563
0.00102062204129545
0.00113453598944227
0.00123852507266878
0.00133125761822641
0.00141236546541801
7.35041837698378e-05
0.000276205197621891
0.000445413909706164
0.000596525720032368
0.000736930747783672
0.000869164950125326
0.000994501986488991
0.00111288788854861
0.00122300944451821
0.00132300995003823
0.00141152505217836
0.00148825304437807
6.08116830391484e-05
0.000249944670249534
0.00041306519421352
0.000561496155872867
0.000701414380758215
0.000834701405960326
0.000962298261674858
0.00108417104450492
0.0011993030924349
0.00130595482734492
0.0014021674339106
0.00148660496685281
0.00155901640730465
4.80877787286543e-05
0.000221459445561746
0.00037750960881309
0.000522519784885063
0.000661314193869407
0.000795092232125667
0.000924402428126827
0.0010490576615275
0.00116816264895244
0.00128030044946749
0.00138360557618801
0.00147610564897234
0.00155650185806831
0.00162458715038791
3.57957540490661e-05
0.000191008877180236
0.0003388704019483
0.000479741012606274
0.000616804778168489
0.000750522116642955
0.000881031729014969
0.00100793178793777
0.00113027698529984
0.00124681721984098
0.00135601720636944
0.00145598253509174
0.00154475650535524
0.00162108505716937
0.00168481226932538
0.000126771590271571
0.000132197074509357
0.000373308262109066
0.000137997826869286
0.000378656119095379
0.000552963843918588
0.000140838113100116
0.000382743664860083
0.000558315614825687
0.000698913761650656
0.000139110417171124
0.000383207577944569
0.000560545458754181
0.000704218192840573
0.000826555941464397
0.000133685342595503
0.000378506276245493
0.000558316367760305
0.000705066031430771
0.000831402807364166
0.000942087228600975
0.000126182502527864
0.000368940529772121
0.0005506376297842
0.000700457640328074
0.000830825912760979
0.000946132811322963
0.00104847044640326
0.000117496610178565
0.000355657374897785
0.00053764824379249
0.000689856988173008
0.000823928570032813
0.000943975534149229
0.00105163902185543
0.00114739381485965
0.000107812335053026
0.000339487302572442
0.000520086989082785
0.000673529809847359
0.000810476688981107
0.000934829138725824
0.00104794916312051
0.00114975076782859
0.00123996077621651
9.71503122257877e-05
0.000320741168107374
0.000498557491961239
0.000652081987427841
0.000790911636633911
0.000918662995546445
0.00103672994364952
0.00114470598421222
0.00124156263762877
0.00132687953651998
8.56169532647869e-05
0.00029949656165947
0.000473375820436238
0.000625983188181633
0.000765826490451844
0.000896046664157077
0.00101807951442569
0.00113165332912459
0.00123531451589205
0.00132773376278883
0.00140854346721318
7.34314202073579e-05
0.000275813255893832
0.000444705376406175
0.000595517273537763
0.000735634248093323
0.000867588186306182
0.000992649481022118
0.00111076309080318
0.00122061733800208
0.00132035830996183
0.00140862408312659
0.00148511398244117
6.0860651329126e-05
0.00024978325700479
0.000412665692700144
0.000560881897947801
0.000700595222518752
0.000833681037445358
0.000961077015372974
0.00108274773413771
0.00119767691995408
0.00130412630070727
0.00140013904686501
0.00148438185040101
0.00155660655204657
4.82485896287509e-05
0.000221509216279533
0.000377368590102929
0.000522244860331094
0.000660917186999973
0.000794573973556023
0.000923759964906326
0.00104828639495811
0.00116725778929105
0.00127925742162054
0.00138241980248825
0.00147477249797262
0.00155501865673124
0.00162295766449504
3.59103025164719e-05
0.000191113959761522
0.000338923495493162
0.000479757819569183
0.000616790941404658
0.000750473774480726
0.000880942355228748
0.00100779367918637
0.00113008197869656
0.00124655728827375
0.00135568428592212
0.00145556733243986
0.00154424589116775
0.00162046119187291
0.00168406315567561
2.42678471118325e-05
0.000158843562282099
0.000297436032831794
0.000433543642589914
0.000568377972317049
0.000701562082217126
0.000832808913720218
0.000961493825444333
0.00108656142319857
0.00120676102735804
0.00132074366248933
0.00142694899086057
0.00152348646841955
0.00160842113295422
0.00168054183930863
0.00173975928115442
0.000123786223137558
0.000129578526992448
0.000367880989073949
0.000135682345343014
0.00037392281578879
0.000546361562043404
0.000138829241669863
0.000378637808974773
0.000552565221055364
0.000691757178987871
0.000137421845777515
0.000379685473984166
0.000555578769214731
0.000698003403059076
0.000819226803756468
0.000132310044252055
0.000375534916824488
0.000554075559434247
0.000699723518801224
0.0008250695042303
0.000934845668530758
0.000125096379247683
0.000366481882579629
0.000547071239492402
0.000695923284523239
0.000825416497940137
0.000939916968793257
0.00104150317998779
0.000116658643243717
0.0003536643130681
0.000534703079031666
0.000686070049655603
0.000819374898295144
0.000938711252920103
0.00104570858138662
0.0011408380065538
0.000107187979140672
0.000337909868663949
0.000517706180091771
0.000670428762987686
0.000806712653723327
0.000930445470996785
0.00104298042079356
0.00114422902735799
0.00123391826729067
9.67066400221269e-05
0.000319528845478218
0.000496683725817126
0.000649604084709631
0.000787871088103565
0.000915090919045148
0.00103265099049556
0.00114014374163572
0.00123654241053781
0.00132142698230148
8.53280841323783e-05
0.000298605141985525
0.00047195233472546
0.000624066231566505
0.000763443129870241
0.000893217825618803
0.00101482091604985
0.00112798002005614
0.00123124434541432
0.00132328700145231
0.00140374030971282
7.32649003724174e-05
0.000275202481556192
0.000443679591855921
0.000594100169762179
0.000733842802554626
0.000865435081697719
0.000990143270873226
0.00110791152213796
0.00121743041501653
0.00131684952002998
0.0014048091771716
0.001481008761697
6.08095051278943e-05
0.000249421795049746
0.000411987769292944
0.000559905553261744
0.000699331884709891
0.000832137468096306
0.000959256678098674
0.00108065285649379
0.0011953108464619
0.00130149495630223
0.00139725141578178
0.00148124923802702
0.00155324109690593
4.83062936123954e-05
0.000221380656151318
0.000376990579836636
0.000521650712258937
0.000660119215187612
0.000793575796048732
0.000922561382916059
0.00104688561021406
0.00116565335763756
0.00127744905962383
0.00138040891560036
0.00147256262842203
0.00155261604265866
0.0016203713191631
3.60777334055298e-05
0.000191178581610941
0.000338790702632661
0.000479486696172745
0.000616398472219652
0.000749961656469172
0.000880307680052353
0.00100703157089139
0.00112918742040644
0.00124552572202333
0.00135451167481182
0.00145424982639146
0.00154277970443702
0.00161884460567572
0.00168230103240445
2.43797873733579e-05
0.000158935169198979
0.000297469708414057
0.000433540671061137
0.0005683451422995
0.000701496964957247
0.000832705368362524
0.000961344279271339
0.00108635773527763
0.00120649512676297
0.00132040778475067
0.00142653551132632
0.00152298666427989
0.00160782246668292
0.00167982705416559
0.00173891719626564
1.39695911944303e-05
0.000124861602861002
0.000253134607610446
0.000383890254181519
0.000516087936241563
0.000648349386353662
0.000779937466362472
0.000910010085634823
0.001037399317441
0.00116079614636668
0.00127887277248949
0.00139026546671674
0.00149342433769551
0.00158647826852125
0.0016675193804758
0.00173538458971243
0.00179005981312434
0.000120365838323234
0.000126523821825968
0.000361679500755357
0.00013299378421326
0.000368481038672353
0.000538828513657783
0.00013648394872068
0.000373887136121362
0.000545958541809582
0.000683577525954142
0.000135437295800307
0.000375581600571036
0.000549830292055001
0.000690846228136781
0.000810820291500937
0.000130679449515085
0.000372043854279425
0.000549126283310535
0.000693519478030112
0.000817744146364813
0.000926498084439645
0.000123788342206381
0.000363562980994612
0.00054286814232534
0.000690606975243795
0.000819100080910122
0.000932683725174
0.00103341985333361
0.000115634354258138
0.000351266711816251
0.000531189765483679
0.000681578262957084
0.00081399743884102
0.000932517078235176
0.00103875237894568
0.00113316970408125
0.000106407058084729
0.000335979024123986
0.000514821448127175
0.000666696377155437
0.000802204753972622
0.000925216590710143
0.00103707392910428
0.00113768494824063
0.00122677645868273
9.61328049042079e-05
0.000318009474101284
0.000494364852085383
0.000646563183635976
0.000784161899481711
0.000910753955580366
0.00102771825818702
0.00113464562176356
0.00123051101363554
0.00131489465808315
8.49288108901891e-05
0.000297446325339844
0.000470137514089667
0.000621648905785771
0.000760460872784293
0.000889698839568486
0.00101078700197949
0.00112345187250729
0.00122624578847387
0.00131784445133232
0.00139787987891257
7.30107848995638e-05
0.000274358326533649
0.000442310015409799
0.000592240173238646
0.000731516154603098
0.000862660264714566
0.000986933657561235
0.00110427939789122
0.00121339090807328
0.0013124218626522
0.00140001483727312
0.00147586874902225
6.0671745059109e-05
0.000248852046978231
0.000411008473086885
0.000558538198360495
0.000697591251480517
0.000830034316682118
0.000956797807782735
0.00107784411626778
0.00119215982414642
0.00129801281669058
0.00139345308228264
0.00147715167554281
0.00154886106462566
4.82723118016622e-05
0.000221057749457938
0.000376350889301317
0.00052071390318429
0.000658896770464275
0.000792073456001636
0.00092078145681376
0.0010448291518108
0.0011633223115639
0.00127484753677592
0.0013775440370978
0.0014694446874182
0.00154925757837778
0.00161678564604398
3.61522428324847e-05
0.000191084715096304
0.000338441870933997
0.000478918901683203
0.000615627477285238
0.000748991440243562
0.000879137531162662
0.00100565905041854
0.00112761038067821
0.0012437431223054
0.00135252404128244
0.00145205960214692
0.00154039159830073
0.00161626605439224
0.00167954228606072
2.45578081652743e-05
0.000159025018012135
0.000297352808614614
0.000433278730216793
0.000567961168315273
0.000700994492354283
0.000832081851536008
0.000960594586071584
0.00108547651611759
0.00120547755002024
0.0013192497686629
0.0014252337121156
0.0015215380802579
0.00160622426441787
0.00167807856522262
0.00173702452955293
1.40403352627065e-05
0.000124966055227792
0.000253155520715613
0.000383871089612457
0.00051603778131658
0.000648268435018146
0.000779820432931048
0.000909849563115197
0.00103718725362719
0.00116052442398794
0.0012785335239001
0.00138985130462976
0.00149292819510619
0.00158589210190708
0.00166683134807763
0.0017345781015436
0.00178912459275549
5.89622482764424e-06
8.93851520613738e-05
0.000206048168226527
0.000330732395253254
0.000459912788824876
0.000590933843766736
0.00072251583681466
0.000853603613333614
0.000982930037858405
0.0011091284603418
0.00123083644238636
0.00134672134814853
0.0014554373316178
0.00155546216737306
0.00164495199315771
0.00172203064535951
0.00178558884614107
0.00183569335749258
0.000123012406010338
0.000354660362543333
0.000129842553720206
0.000362259157891009
0.000530293682190668
0.000133764244949065
0.000368425873930912
0.000538420876410043
0.00067429339152253
0.000133121762656328
0.000370835565224053
0.000543227612423911
0.000682666253090915
0.000801250080633541
0.000128764014242183
0.000367978692056402
0.000543400645371011
0.000686376531858567
0.000809342298878424
0.000916954774910363
0.000122238232230679
0.000360135879251143
0.000537965654930907
0.000684435964868358
0.000811795914035352
0.000924345955901222
0.0010241282721282
0.000114404889412076
0.00034842245149571
0.000527052056064595
0.000676314666532879
0.000807720681281474
0.000925310459274574
0.00103068199913764
0.00112429564798653
0.00010545252366559
0.000333657175055916
0.000511382829567171
0.000662271955090452
0.000796883872588303
0.00091906609367477
0.00103014698928313
0.00113003043960193
0.00121844281633559
9.54157702179739e-05
0.000316152902238757
0.000491557469217996
0.000642905828310697
0.000779722199238529
0.000905583012788587
0.00102185629708887
0.00112813053109278
0.00122338242428802
0.00130719229251517
8.44107570417772e-05
0.000295995271920909
0.000467894782245794
0.000618684919812062
0.000756825320367846
0.000885428660808392
0.00100591068859834
0.00111799628513722
0.00122024123415931
0.00131132410563065
0.00139087630331166
7.26589941841768e-05
0.000273261315293264
0.000440565987599687
0.000589897306711926
0.000728607733995087
0.000859211113533192
0.00098296260353738
0.00109980369559376
0.00120843109774605
0.00130700322188127
0.00139416506044361
0.00146961459151702
6.04515470788097e-05
0.000248062195623333
0.00040970254418305
0.000556746748896494
0.000695334164297191
0.000827327246384419
0.000953651715815313
0.00107426874052253
0.00118816716844487
0.00129361932714388
0.00138867960740815
0.00147202104154952
0.00154339526710706
4.8158320778914e-05
0.000220536388290208
0.000375426762189944
0.000519405956314695
0.000657217445890716
0.000790031320676473
0.000918381473727895
0.00104207539199113
0.00116022026299682
0.00127140576168198
0.00137377516559333
0.00146536517962605
0.00154488577096804
0.00161213948019398
3.61368497713509e-05
0.000190805581548464
0.000337848899275406
0.000478029925912198
0.00061445432711742
0.000747539020667683
0.000877406943732694
0.00100365012502818
0.00112532383420798
0.00124118153124463
0.00134969261712412
0.00144896680312254
0.00153704913734074
0.00161268785759905
0.00167574283796983
2.46512387184921e-05
0.000158969837557419
0.000297041885421961
0.000432744799088881
0.000567223833011278
0.000700058696667477
0.000830946584262044
0.000959256785426721
0.00108393330815401
0.00120372713438492
0.00131729183569422
0.00142306976991576
0.00151917173018583
0.00160366148244871
0.00167532810310039
0.00173409789567774
1.42155330640233e-05
0.000125104464258354
0.000253061313660397
0.000383625916297181
0.000515667523756844
0.000647779888374882
0.000779212065261355
0.000909116145897878
0.00103632312947189
0.00115952440862258
0.00127739319726755
0.00138856722741887
0.00149149784514724
0.00158431343328545
0.00166510257524992
0.00173269970269096
0.00178710390186488
5.956872989607e-06
8.95856376505605e-05
0.000206074403335947
0.000330701304093572
0.000459848257896352
0.00059083845043482
0.000722386531284158
0.000853433082670734
0.000982710376043433
0.001108851570624
0.00123049435455863
0.00134630650070108
0.00145494283328657
0.00155488161690945
0.00164427812172538
0.00172125239088628
0.00178469036280666
0.00183466525935025
1.25072468229189e-06
5.35049174378275e-05
0.000156606644094325
0.000274091157043432
0.000399714559560418
0.000529245639236177
0.000660565654821685
0.000792355115223553
0.000923266828001197
0.00105189491695829
0.00117684641210997
0.00129676557024032
0.00141034292468969
0.00151626718452279
0.00161305248436909
0.0016988871267506
0.00177193128829268
0.00183113447639112
0.00187664692372927
0.000126200811942167
0.000355211066771062
0.000520697525089401
0.000130584340100396
0.000362179552748333
0.000529879479543598
0.000663825552290114
0.000130429987168141
0.000365382279340177
0.000535696157091163
0.000673382206671957
0.000790430282004359
0.000126530009139334
0.000363280057246209
0.000536827038442811
0.000678214751489372
0.000799777819793474
0.000906124977115965
0.000120418150582809
0.000356147590391363
0.000532297203631477
0.000677333866351719
0.000803420149587639
0.000914814003942937
0.00101353410134259
0.000112948150770331
0.000345085398183875
0.000522228822157019
0.000670207840934524
0.000800464919125273
0.000917004901950901
0.00102140536829803
0.00111411923099617
0.000104307632656183
0.000330905012259913
0.000507335790008737
0.000657090157953217
0.000790675875686254
0.000911912503149228
0.00102211185045972
0.00112117240175547
0.00120881962682796
9.45390096273604e-05
0.00031392071710203
0.000488213407168772
0.000638572957839168
0.000774484426760408
0.000899503055533281
0.00101498348985359
0.00112051104812181
0.00121506419461271
0.00129822307921202
8.37644927950084e-05
0.000294224494485464
0.000465181253501189
0.000615122591199637
0.000752476262998287
0.000880339712882309
0.00100011786824045
0.00111153324305473
0.00121314534547361
0.00130363592869546
0.00138263563693924
7.22020093418665e-05
0.000271888489185355
0.000438413128240611
0.00058702715484993
0.00072506472086757
0.000855028092996837
0.000978164448786963
0.00109441311771591
0.00120247445636914
0.00130051228043901
0.00138717426887837
0.00146215716709515
6.01517418774271e-05
0.000247035294116461
0.000408041121129743
0.000554492661609038
0.000692515503502642
0.000823965039529603
0.000949761708293438
0.00106986499969933