/*--------------------------------*- C++ -*----------------------------------*\
  =========                 |
  \\      /  F ield         | OpenFOAM: The Open Source CFD Toolbox
   \\    /   O peration     | Website:  https://openfoam.org
    \\  /    A nd           | Version:  12
     \\/     M anipulation  |
\*---------------------------------------------------------------------------*/
/*   Windows 32 and 64 bit porting by blueCAPE: http://www.bluecape.com.pt   *\
|  Based on Windows porting (2.0.x v4) by Symscape: http://www.symscape.com   |
\*---------------------------------------------------------------------------*/
FoamFile
{
    format      ascii;
    class       volScalarField;
    location    "300";
    object      nut;
}
// * * * * * * * * * * * * * * * * * * * * * * * * * * * * * * * * * * * * * //

dimensions      [0 2 -1 0 0 0 0];

internalField   nonuniform List<scalar> 
10252
(
5.68175779341614e-05
5.69140942742679e-05
6.01056244666797e-05
0.00047891050036031
5.6969521075044e-05
6.02164371649509e-05
0.000479250852971399
6.42510103192556e-05
0.000489660489962253
0.0011596838676798
5.69739680124809e-05
6.02794667267008e-05
0.000479380219132365
6.43738687765863e-05
0.000490021770628138
0.00116030575788185
6.67518393770787e-05
0.000503446584645435
0.00117147889093059
0.00192411055303018
5.69252304851403e-05
6.02830000715482e-05
0.000479291813033448
6.44426485652418e-05
0.000490159026666606
0.00116047562343002
6.68813107536488e-05
0.000503828252090519
0.00117212225545254
0.00192497717970594
6.60436560221966e-05
0.000511853755621434
0.00118559768227642
0.00193236934160574
0.00268315994852621
5.68218471953556e-05
6.02301695030074e-05
0.000478974849791248
6.44448515518237e-05
0.000490068631797944
0.00116021207981145
6.69533927876916e-05
0.000503972905015388
0.00117229933124186
0.00192511885019951
6.6174141731139e-05
0.00051224577674938
0.00118626049200475
0.00193325581535004
0.00268418420996098
6.28832170603118e-05
0.000509707160799144
0.00119273559992869
0.00193932606772537
0.00268579313412349
0.003395366292066
5.66604646669926e-05
6.01201145725101e-05
0.000478414413578887
6.43849683947835e-05
0.000489744168521855
0.00115949518396908
6.69539229464102e-05
0.000503878383148606
0.00117203403265585
0.0019245797917717
6.62474902044442e-05
0.000512393205574679
0.00118644318111739
0.0019334028314628
0.0026842009055734
6.30110403812641e-05
0.000510098006505424
0.0011934035942706
0.00194022710974134
0.00268683583833839
0.00339645062010985
5.87156063443725e-05
0.000498445665166588
0.00118628538719509
0.00193753980334197
0.00268257041394451
0.00339219410908153
0.00404521243270712
5.64359925962569e-05
5.99496044822413e-05
0.000477591077269482
6.426532888686e-05
0.000489171554469034
0.00115829315313652
6.68890443644768e-05
0.000503540707478105
0.0011713096609615
0.00192333119734753
6.62466727044736e-05
0.000512292448504748
0.00118617169771182
0.00193286071716799
0.00268327521308449
6.30839357093384e-05
0.000510243185505999
0.00119358440419002
0.00194037547942891
0.00268685692435778
0.00339624708116384
5.88386046627386e-05
0.000498827189479687
0.00118694307738534
0.00193843597158293
0.0026836235859609
0.00339329706935857
0.00404626976529534
5.42294035082032e-05
0.000482122929324764
0.00116655876531847
0.00192125609784448
0.00266790253718371
0.0033786331703751
0.00403771082233509
0.00463045877556968
5.61418787649912e-05
5.97132570177791e-05
0.000476478960324925
6.40811339366568e-05
0.000488331200033298
0.0011565641776556
6.67613368033341e-05
0.000502948505823081
0.00117009525241021
0.00192132286284025
6.6181194323032e-05
0.000511941748196317
0.00118543216271989
0.00193160402650191
0.00268136896058707
6.30832586573847e-05
0.000510135804758965
0.00119330191026981
0.00193982391231431
0.00268592792635043
0.00339483745184717
5.89103759930992e-05
0.000498966860617699
0.00118711375959513
0.00193857496515967
0.00268364286052857
0.00339309865697431
0.00404576715695678
5.43461915221972e-05
0.000482490184864375
0.00116719411080072
0.00192212867448384
0.00266894119119442
0.00337974504481392
0.00403878865674223
0.00463141982277944
4.9473112276209e-05
0.00046312606098918
0.0011373456666475
0.00188979783580647
0.00263761503637785
0.00335046238009339
0.00401573842169817
0.00462035357741837
0.00515483740385021
5.57716812812983e-05
5.94039729650533e-05
0.000475045129360441
6.38284505158837e-05
0.000487197516135755
0.00115425496855449
6.65661009717476e-05
0.000502080967364605
0.00116834912091432
0.00191848815513597
6.60515773088387e-05
0.000511330435928224
0.0011841951363513
0.00192958361213646
0.00267841338492984
6.30192826093093e-05
0.000509776663728234
0.00119254365473238
0.00193855007087405
0.00268401468773225
0.00339217426367618
5.89105955278037e-05
0.000498854375334226
0.00118681761318095
0.00193800685808709
0.00268270274606171
0.00339168764568997
0.00404380168364767
5.44170658164603e-05
0.000482622840875345
0.00116734852266337
0.0019222472732417
0.00266894487611797
0.00337954430270498
0.00403829343064557
0.00463056107987481
4.95828671606632e-05
0.00046347576815162
0.00113795022425051
0.00189063213293748
0.00263861690576187
0.00335155305223164
0.00401682606451578
0.00462133804644623
0.00515565122242533
4.43788484049663e-05
0.000441839895027938
0.00110135617268121
0.0018454045940331
0.00259075937685942
0.0033047667225032
0.00397572836512443
0.00459234950565971
0.00514318208652386
0.00562380886149773
5.53163033464688e-05
5.9013783326965e-05
0.000473255506940597
6.3496759865156e-05
0.000485736899422799
0.00115130101279311
6.62998569876983e-05
0.00050091222031602
0.00116601760588291
0.00191474368068058
6.58544747549139e-05
0.000510437883140141
0.00118241809766627
0.00192673299428041
0.00267431724529988
6.28930008540717e-05
0.000509154187969073
0.00119128119308867
0.00193650603782549
0.00268104976438402
0.00338817148966002
5.88496377339558e-05
0.000498491109767672
0.00118604264129616
0.00193671042604485
0.00268077281323787
0.00338902101327278
0.00404031554940155
5.44184532054939e-05
0.000482506638159736
0.00116703814509081
0.00192165777419586
0.00266798495177716
0.00337812338713479
0.00403632889044175
0.00462799256467965
4.96525038994594e-05
0.000463601013624536
0.00113808454205563
0.00189072164129479
0.00263859105007917
0.00335133363750171
0.00401633011483653
0.00462048907184619
0.00515439897798529
4.44817011430834e-05
0.000442170013572384
0.00110192340090965
0.00184618910112066
0.00259170728737879
0.00330580989325554
0.00397679106409663
0.00459334606313963
0.00514402212959899
0.00562443917178152
3.89612967025344e-05
0.000417936356595987
0.00105933089356384
0.00178986884678644
0.00252816559732305
0.00324062463553065
0.00391535296662378
0.00454273521917508
0.00511079170583636
0.0056110136099859
0.00604269742428564
5.4766290119376e-05
5.85338316415113e-05
0.000471063808998404
6.30782572056139e-05
0.000483911044964964
0.00114762119875465
6.59512703464454e-05
0.000499407539773001
0.0011630344990629
0.00190998854215529
6.5584890885098e-05
0.000509238024550024
0.00118004785399864
0.00192296845217362
0.00266896686128672
6.27011902200211e-05
0.000508248569883573
0.00118947248228921
0.00193362571809427
0.00267694230895233
0.0033827139759492
5.87288397135089e-05
0.000497865973625575
0.00118476060710141
0.0019346386906232
0.00267778727254336
0.00338501402539003
0.00403520559306784
5.43609774439242e-05
0.000482142853758581
0.0011662504796795
0.00192033850187107
0.00266603202276623
0.00337544385322634
0.00403284289555318
0.00462364597672682
4.96551800816687e-05
0.000463482129205546
0.00113776027287648
0.00189010811771529
0.00263760415297723
0.00334989286956607
0.00401435844899011
0.00461792334215298
0.00515120070873753
4.45510687589454e-05
0.000442288252998445
0.0011020354221827
0.00184624334196959
0.00259164083456534
0.00330555490178385
0.00397627595694732
0.00459249878174387
0.00514278154930724
0.00562277138054615
3.90574978824446e-05
0.00041824700486563
0.00105985537027523
0.00179059347341339
0.00252904546479979
0.00324160045030837
0.00391636036567707
0.0045437051106896
0.0051116464724968
0.00561167272561123
0.00604311960351627
3.33093986557514e-05
0.000391086160582728
0.00101096722605889
0.00172362543987416
0.00245040847397407
0.00315793403979076
0.00383375472928742
0.00446918132343864
0.00505327594630928
0.00557506192095287
0.00602885412847111
0.00641621842458877
5.41111328414959e-05
5.79545849151719e-05
0.000468421993508007
6.25639809816354e-05
0.000481675747102821
0.00114313176687175
6.55118382478735e-05
0.000497526616179701
0.00115932105799266
0.00190410101237618
6.52346563749632e-05
0.00050769387536449
0.00117701719644598
0.00191818822745043
0.00266222536017096
6.24390359380808e-05
0.000507033376347408
0.00118706337711774
0.00192982546235923
0.00267157863351039
0.00337565968731442
5.85456480561006e-05
0.000496959592749349
0.00118293014335574
0.00193172591383573
0.0026736561400226
0.00337955266427447
0.00402833584144744
5.42470870354685e-05
0.000481520996697378
0.00116495763641058
0.00191824293159093
0.00266302141870698
0.00337142297008391
0.00402773431990584
0.00461740335678425
4.96019748811496e-05
0.000463120281273411
0.00113696399322857
0.00188876883975878
0.00263562619348768
0.00334719372004728
0.00401086455009655
0.00461357990542411
0.00514598031928924
4.45559417466994e-05
0.000442167999970709
0.00110169810453615
0.00184560473765181
0.00259062245479394
0.0033040852019958
0.00397428670787454
0.00458992893032643
0.00513958798014943
0.0056189346801116
3.91287502134581e-05
0.000418362588546758
0.00105994472533855
0.0017906079454728
0.00252893015375855
0.00324129659307072
0.00391580681590684
0.00454283981364583
0.00511041016209504
0.00561001846906035
0.00604102689637691
3.3395235630857e-05
0.00039138094303394
0.00101144529220946
0.00172428059339538
0.00245120728186303
0.00315882618420825
0.00383468429307379
0.00447009067556666
0.00505410354316065
0.00557573854040003
0.00602930760908529
0.00641641767690482
2.75597131574917e-05
0.00036103269992948
0.000955595868758313
0.00164612703893968
0.00235715981830616
0.00305624576975853
0.00373038544356437
0.00437086982478915
0.00496794484845584
0.00551068754989668
0.00598969793750026
0.00640133260824474
0.0067485393574786
5.33389301008853e-05
5.7265259679896e-05
0.000465275632065316
6.19441011029081e-05
0.000478981800382582
0.00113773177972812
6.49721625226023e-05
0.000495224753190306
0.00115478952062723
0.00189694653597524
6.47934805391823e-05
0.000505765462883873
0.0011732471382892
0.00191227182535741
0.00265393149766627
6.20992970412888e-05
0.000505472924308401
0.00118398644516215
0.00192500324022916
0.00266482162702876
0.00336683711945351
5.8295554485009e-05
0.000495746359727094
0.0011804971689158
0.00192788874781048
0.00266826616768247
0.00337249498001951
0.00401953773086015
5.40741672747296e-05
0.000480622517760628
0.0011631190636
0.00191530581724713
0.00265886402467729
0.00336594808229661
0.00402086803179465
0.00460910895918682
4.94961481622094e-05
0.000462505468004737
0.00113566815256376
0.00188665753303679
0.00263259299351957
0.00334315495483227
0.00400574992975374
0.00460734263016482
0.00513860500895335
4.45080621324086e-05
0.000441810445049691
0.00110089674477036
0.00184424924398381
0.00258862101453995
0.00330136334554812
0.00397077880214027
0.00458558235185615
0.00513437268778744
0.00561284513646745
3.91378126823633e-05
0.000418244787180927
0.00105959643377463
0.00178994425198852
0.00252787789313266
0.00323979189369084
0.00391379004979712
0.00454025592259157
0.00510721557066949
0.0056061880028157
0.00603655620500273
3.34693985487516e-05
0.000391507114644589
0.00101151641717292
0.00172425253819838
0.00245103656289186
0.00315846353293444
0.00383407726757665
0.00446918664832949
0.00505285145103427
0.00557409137429376
0.00602723035202067
0.00641390085840615
2.76327680113229e-05
0.000361335625874304
0.000956026714087286
0.00164670369726444
0.00235786473817631
0.00305703915371759
0.0037312190097398
0.00437169387284716
0.00496870872186219
0.00551133747731519
0.00599017185192482
0.00640156523626055
0.00674850762425433
2.18771233135501e-05
0.000327638513847352
0.000892323960806976
0.00155617142184909
0.00224725328625348
0.00293439396164256
0.0036041429057057
0.00424715202383851
0.0048539783141791
0.00541468268914663
0.00591910226544283
0.00635916121740367
0.00673262682293123
0.00704341319420268
5.24367277933283e-05
5.64536703728962e-05
0.000461562373952886
6.12072391197671e-05
0.000475773518383786
0.00113130764803712
6.43226946313397e-05
0.000492452040419194
0.00114933899996279
0.001888368720276
6.42523048689013e-05
0.000503407365856766
0.00116864807490966
0.00190508249345452
0.00264390037112667
6.16728588127019e-05
0.000503526486086784
0.00118016295152496
0.00191903898880825
0.00265651020684742
0.00335604789532809
5.79719847759817e-05
0.000494192857877521
0.0011773950822448
0.00192302555951347
0.00266148065618257
0.00336367033489244
0.00400860946596341
5.38378420428273e-05
0.000479422787389784
0.00116068212720227
0.00191144492262235
0.00265344758753437
0.003358878239235
0.00401207602554148
0.00459857034608072
4.93349424991455e-05
0.000461620186834807
0.0011338332704775
0.00188371002574672
0.00262841663950518
0.00333766539351841
0.00399888108123324
0.00459905691117705
0.00512890121787043
4.44115500387978e-05
0.000441205995159668
0.00109960403274546
0.00184213079492088
0.00258557260433834
0.00329730893096697
0.00396565575464368
0.00457934597015306
0.00512700549427916
0.00560435617030636
3.90963424394653e-05
0.000417894830486074
0.00105879381943753
0.00178857654331708
0.00252585631304252
0.0032370479789387
0.00391026530346058
0.00453590190635345
0.005102001446107
0.00560010527132929
0.0060296162922134
3.34852127915291e-05
0.000391401432270932
0.00101116297669761
0.00172356533919928
0.0024499495068779
0.00315692055353373
0.00383202627665331
0.00446657920563674
0.00504964736735353
0.00557026316911161
0.0060227676410784
0.00640881111819815
2.77065028412218e-05
0.000361507616434446
0.000956093390690276
0.00164663366622536
0.00235763352820321
0.00305660985368492
0.00373054761894717
0.00437073526188535
0.00496741978479683
0.00550967777196386
0.00598810487526607
0.00639906574653045
0.00674557468987473
2.19385628026664e-05
0.00032792621779836
0.000892716761716983
0.00155666147973299
0.00224785172189129
0.00293507391867584
0.00360486410259622
0.00424787135206819
0.00485465218933938
0.00541526758165967
0.00591955086769569
0.00635941731207576
0.0067326305957875
0.00704314824851856
1.63735889033941e-05
0.000290690804407622
0.000819933542014462
0.00145192201126921
0.00211873567836745
0.0027904749217556
0.00345318877239757
0.00409661438815563
0.00471079569818655
0.00528618203983158
0.00581331589815646
0.00628281447337067
0.00668761319364773
0.00702652147160161
0.00730425553163893
5.13902972808777e-05
5.55058987719226e-05
0.000457210310346067
6.03402701192026e-05
0.00047198693926939
0.00112373065318762
6.35519615692902e-05
0.000489151387578254
0.00114285496709087
0.00187819075904379
6.36014098931394e-05
0.000500569397475772
0.00116311863605873
0.00189646374998741
0.00263192072225093
6.11498997928256e-05
0.000501149274831249
0.00117550281513647
0.00191179512408625
0.00264645914260719
0.00334306042636428
5.75669208339241e-05
0.000492258200094592
0.00117354608131912
0.00191701702712142
0.00265313914691205
0.00335287937532552
0.00399531517722069
5.35328323497541e-05
0.000477890252494289
0.00115758135295854
0.00190656005502931
0.00264663662697286
0.00335004393924578
0.00400115699588637
0.00458555741595538
4.91143297213396e-05
0.000460440540499862
0.00113140846181447
0.00187984545778512
0.00262298645103468
0.00333058576175405
0.00399009145256322
0.00458853099265251
0.00511665479669904
4.42638635295083e-05
0.000440338193393954
0.00109778172728175
0.00183918657059716
0.0025813906842155
0.0032918123565529
0.00395878603531011
0.00457106712156358
0.00511731401592402
0.00559327883377585
3.9008961084934e-05
0.000417304496149484
0.0010575097725785
0.00178645885708465
0.00252280174025461
0.00323298509178847
0.00390513736643011
0.00452966716965323
0.00509464125539723
0.0055916271760183
0.0060200493162564
3.34521426632734e-05
0.000391064893947291
0.00101036484426669
0.00172219021163189
0.00244791212914581
0.00315415791982082
0.00382848577570075
0.00446221687016714
0.005044433143113
0.0055641860567867
0.00601583671063917
0.00640105154223592
2.77288352726621e-05
0.000361433081871206
0.000955748163493367
0.00164592783844491
0.00235651244050785
0.00305502742293
0.00372845918844459
0.00436809827131032
0.00496419842152183
0.00550584567963404
0.00598364826350749
0.00639398624178599
0.0067398899967683
2.20119312036523e-05
0.000328182510820838
0.000892806146884767
0.00155655538494478
0.00224755713666197
0.00293457175641641
0.00360412023613883
0.0042468472284164
0.00485331078750305
0.00541357489615773
0.0059174755984056
0.00635693166451097
0.00672971720656308
0.0070398132701375
1.64259549397429e-05
0.000290954556336454
0.000820292495558026
0.00145231999721404
0.00211921576784175
0.00279102750263554
0.00345378229026572
0.00409721213618537
0.00471135960583694
0.00528667490832243
0.00581369987102368
0.00628304747719446
0.00668764370003511
0.007026294108296
0.00730375963994516
1.10953364683673e-05
0.000249440292368427
0.000736548031950994
0.00133068108535021
0.00196875286023679
0.00262177962526926
0.00327498644971879
0.00391698655750325
0.00453689339861632
0.00512472720078403
0.00567140023558174
0.00616804053169067
0.00660595115429802
0.00697886878792729
0.00728645669955029
0.00753416894241926
5.01800171182781e-05
5.44064440740232e-05
0.000452140765213559
5.93278412053143e-05
0.000467548646630418
0.00111485503801037
6.26455362568722e-05
0.000485256908851969
0.00113520750139385
0.00186621324189952
6.28294513020438e-05
0.000497193977115023
0.00115654336268914
0.00188623829312959
0.00261775403042281
6.05207072253057e-05
0.000498291174800308
0.00116990430945621
0.00190311514013859
0.00263445731270685
0.00332761224068956
5.70714344115787e-05
0.00048989886990786
0.00116886087836653
0.00190972610107152
0.00264305695397642
0.00333989168380219
0.00397938294068103
5.31511287602972e-05
0.000475985152153641
0.00115374075737765
0.00190053337912544
0.00263827219853855
0.00333924666220859
0.00398787551516621
0.00456980142417151
4.8830033289954e-05
0.000458936888907092
0.00112832986537753
0.00187496581812853
0.0026161689701986
0.00332174852965538
0.0039791812475805
0.00457553544425548
0.00510160993969159
4.40616133942571e-05
0.000439184018210762
0.00109538070593028
0.00183533743029489
0.0025759666914739
0.0032847365981389
0.00395000533026753
0.00456055581568786
0.00510508484718078
0.00557937848736034
3.88772967165361e-05
0.000416458628645278
0.00105570747501989
0.00178352991465981
0.00251862922998541
0.00322749535018591
0.00389827684181797
0.00452140146852511
0.00508496480351714
0.00558056522349981
0.0060076496808839
3.33761980829729e-05
0.00039049300303788
0.00100909569346929
0.00172008108829928
0.00244486091866322
0.00315009658608089
0.00382336163739384
0.00445599076418324
0.00503708521958691
0.00555572116190886
0.00600628290753835
0.00639045278284239
2.77055689801785e-05
0.000361120561229039
0.000954964391221965
0.0016445522194075
0.00235446489389756
0.00305225137837754
0.00372490746561064
0.00436373092870162
0.00495898679630433
0.00549977687184567
0.00597672804024327
0.00638623796599623
0.00673134963157913
2.20382520634171e-05
0.000328168565694324
0.000892492203288912
0.00155584098847559
0.00224640542314455
0.00293295079922003
0.00360199405838938
0.00424417877465193
0.00485006822334594
0.00540973394880372
0.00591302186061451
0.00635186273899536
0.00672404471770734
0.00703356248491212
1.65025199029491e-05
0.000291245075877175
0.000820431709749261
0.00145218953209068
0.00211885811164345
0.00279044844171895
0.00345296017880766
0.00409611515474002
0.00470995575290716
0.00528493481645736
0.0058115972811376
0.00628055871050176
0.00668474813885837
0.00702298086664131
0.00730004046084426
1.11464830383054e-05
0.000249695265859239
0.000736846450598094
0.00133098190262942
0.0019691047866926
0.00262219260881169
0.00327543864437749
0.00391744773971139
0.0045373307095471
0.00512510822787071
0.00567169260274256
0.00616821086711341
0.00660596157945615
0.00697867160207085
0.00728600028911942
0.00753344725862564
6.30371441451694e-06
0.000202290268706742
0.000639040667620581
0.00118841850462631
0.00179328060608753
0.00242463271498357
0.00306624245885449
0.00370530087876795
0.00432977933976047
0.00492884125578403
0.00549302456612951
0.00601382131894282
0.00648295415466427
0.0068923404637955
0.00723639687321728
0.00751554796999061
0.00773594615661455
4.87934151499655e-05
5.31237976565906e-05
0.000446255514345538
5.81522484137097e-05
0.000462375579464857
0.00110451630646819
6.15872630104866e-05
0.000480692955078551
0.00112624946759476
0.0018522131185713
6.19221968442308e-05
0.000493213599656738
0.00114879108397937
0.001874206254328
0.00260113225890439
5.97748713794121e-05
0.000494894792874037
0.00116325206392543
0.00189282181889571
0.00262026620067756
0.00330940678720255
5.64745837364303e-05
0.000487065047190971
0.00116323848856031
0.00190099711176515
0.00263102388828724
0.00332444513367611
0.00396050311451892
5.26843789617523e-05
0.000473665457816612
0.00114907285155884
0.0018932295712451
0.00262817135815867
0.00332625764857408
0.00397196031063667
0.00455099292189043
4.8474405910871e-05
0.000457071853393231
0.00112452388787861
0.0018689558603597
0.00260780777914508
0.00331095744528439
0.00396591667576497
0.00455980213899095
0.00508346789797497
4.38002812576807e-05
0.000437715623898015
0.00109233945116138
0.00183048805875608
0.00256916989602105
0.0032759170009169
0.00393911645560852
0.00454758450195908
0.00509006296311534
0.00556237657993022
3.8695288745242e-05
0.000415335639957217
0.0010533394524162
0.0017797125764498
0.00251323277977073
0.00322044451540445
0.00388952231747654
0.00451091753218738
0.00507276070319128
0.00556668620313609
0.00599216643702034
3.32603932133042e-05
0.000389673906836082
0.00100732074880511
0.00171717847783037
0.00244071273524029
0.0031446306016577
0.00381652681753369
0.00444775331041627
0.00502743623036995
0.00554468228369851
0.00599390247081202
0.00637679611961342
2.76427621357593e-05
0.000360574268616926
0.000953718185737738
0.00164246046377812
0.00235142728419938
0.00304820342570209
0.00371979955298305
0.00435752590739073
0.00495166351981848
0.005491335922432
0.00596719409318884
0.00637565555785764
0.00671977490315932
2.20227723980458e-05
0.000327895058784038
0.000891738659476843
0.00155447528747513
0.00224435554855062
0.00293016877194097
0.00359843861237083
0.00423981371289579
0.00484486641019852
0.0054036809683878
0.00590611959953239
0.00634413094888165
0.00671551846898048
0.00702428673734978
1.65366048877042e-05
0.000291289593670103
0.000820176398477055
0.00145148167014577
0.00211768284554937
0.00278879276520524
0.00345079885158448
0.00409341702769586
0.00470669261719594
0.00528108428661922
0.0058071450638837
0.00627550049475896
0.00667909108309392
0.00701674472344653
0.00729325694822925
1.12278498428544e-05
0.000250023081729528
0.000737029216069582
0.00133083819376359
0.00196868805998518
0.00262153588963048
0.00327453556457582
0.00391627383338883
0.00453585875790477
0.00512331255690222
0.00566955023662919
0.00616570199376848
0.00660306887681427
0.00697538045695101
0.00728230522034823
0.00752936494522341
6.33558391667822e-06
0.00020260953360802
0.000639293122209882
0.00118862025831117
0.00179349888857263
0.00242489753013298
0.00306654288822834
0.00370561327866742
0.00433007615069461
0.00492909468138351
0.00549320628253582
0.00601390263275892
0.00648290523942227
0.00689212687221983
0.0072359741583084
0.0075148677324852
0.00773500643801408
2.57817425971564e-06
0.000147582425711632
0.000522554408949209
0.0010192882957557
0.00158676012932628
0.0021941938716468
0.00282278673895378
0.00345791808870377
0.00408625968052479
0.00469595878973665
0.00527679447267883
0.00581994705971688
0.00631753529916542
0.00676188036984662
0.00714546716018846
0.00746332691531348
0.00771659225893871
0.0079120725032286
5.1649426130392e-05
0.000439484143675924
5.67743345793202e-05
0.000456364739526284
0.00109253865716784
6.0360012485124e-05
0.000475372048427924
0.00111581535684276
0.00183593883626191
6.08635387447796e-05
0.000488551504307322
0.0011397132420984
0.00186014317997824
0.00258175401280313
5.88988274267714e-05
0.000490893329914744
0.00115541464890402
0.00188071531516685
0.00260361763732323
0.00328811148117073
5.57674546215532e-05
0.000483700562074403
0.00115656448010587
0.00189065407701296
0.00261680254615056
0.00330624379981465
0.00393832603935605
5.21241472757753e-05
0.000470882411039545
0.00114347845611828
0.00188449507924087
0.00261612610536952
0.00331081662205943
0.0039531025485315
0.00452877935153442
4.80394475740822e-05
0.000454802754707076
0.00111990542532584
0.00186168296599445
0.00259772298023278
0.00329798663341604
0.00395002857623333
0.00454102244635904
0.0050618855940606
4.34736984882203e-05
0.000435898289890245
0.00108858651515259
0.00182452653944547
0.00256084742390341
0.00326516083586423
0.00392588870338626
0.00453188715264847
0.00507195046016216
0.0055419467736614
3.84593586748744e-05
0.000413909008734369
0.00105034806752236
0.00177491469747995
0.00250648495056998
0.00321167161356831
0.00387868027504313
0.00449799098889113
0.0050577760910225
0.00554971187685962
0.00597329845756133
3.31000567648169e-05
0.000388587585701238
0.00100499505830751
0.00171340753665231
0.00243536454074787
0.00313762900679772
0.00380782340588753
0.0044373207692268
0.00501527794136524
0.00553083851918475
0.00597844453536326
0.00635981315115076
2.754240776453e-05
0.000359787866598936
0.000951978607665071
0.00163959535462375
0.0023473185214781
0.00304277979697293
0.00371301107993582
0.00434933861201186
0.00494206441900056
0.00548033983986373
0.00595484551444724
0.00636202171717176
0.00670493460062367
2.19707609751215e-05
0.000327384572026969
0.000890526909790039
0.00155241166322253
0.00224134340464241
0.00292614793851446
0.00359336239013579
0.00423364651204787
0.0048375860047303
0.00539528314460554
0.00589662256600573
0.00633357592733357
0.00670396354016051
0.00701179770366742
1.65295844104717e-05
0.000291066170488252
0.000819471890687851
0.00145013978063115
0.00211564161639014
0.00278601517794564
0.00344725048088626
0.00408906533943931
0.00470151215440472
0.005275059534425
0.00580027395576765
0.0062677974935769
0.00667058770820202
0.00700748579795648
0.00728329391167123
1.12705623438902e-05
0.00025010764125205
0.000736841625483111
0.00133015185650325
0.00196750007446306
0.00261985334232674
0.00327234559379258
0.00391355176566977
0.00453258006735434
0.00511945664376324
0.00566510282857856
0.00616065731051167
0.00659743119911209
0.00696916501815232
0.00727553861515845
0.00752208385655371
6.41462568340365e-06
0.000203011430592614
0.000639492616437488
0.00118846758722158
0.00179303063424642
0.00242416737418798
0.00306556074780871
0.00370436254385527
0.00432853459147927
0.00492724025731515
0.00549101846770209
0.00601136375832766
0.00648000091350216
0.006888845175027
0.00723230563247388
0.00751081159486406
0.00773058329079013
2.60465992585591e-06
0.000148311846324494
0.00052285813985482
0.00101940643263849
0.00158685116817839
0.00219430823065543
0.00282293068718754
0.00345807407852863
0.00408640585177206
0.00469607232780771
0.00527685116816762
0.00581992157780243
0.0063174017993197
0.0067616119099926
0.0071450322254169
0.00746268394187768
0.0077156957437945
0.00791092390489269
5.25144757981861e-07
8.58207680134642e-05
0.00038212963870875
0.000816276363625571
0.00134213153015214
0.00192437161718784
0.00253951918560888
0.00317050153638971
0.00380257406326051
0.00442282267016333
0.00502016525479288
0.0055851315201426
0.00610960045076431
0.00658635078277955
0.00700829764454207
0.00736846357776743
0.00766245629217251
0.00789207359480285
0.00806473272022771
5.5181951359298e-05
0.000449439485441384
0.00107873308263263
5.89250954589784e-05
0.000469184463327507
0.00110372129219063
0.0018171137807935
5.96328418226267e-05
0.000483118868871163
0.00112914190332971
0.00184379755181321
0.00255928441378517
5.78769078913183e-05
0.000486210168651668
0.00114624347136322
0.00186657111551383
0.00258421092431115
0.00326335217836207
5.49372074497414e-05
0.000479740244852294
0.00114870920326369
0.00187849861660752
0.002600126097146
0.00328495530906324
0.0039124577303801
5.14605142055036e-05
0.000467581739250146
0.00113684531857774
0.00187415661928209
0.00260190173831023
0.00329262982734586
0.00393095343459625
0.00450276234335044
4.7517770780453e-05
0.000452084010668742
0.00111437801732329
0.00185299697519888
0.00258571024605086
0.00328257930222381
0.00393121068344464
0.00451884486556292
0.00503647047297629
4.3074122385663e-05
0.000433688467588082
0.00108403966216635
0.00181732377303031
0.00255082360412409
0.00325224653935297
0.00391005669115779
0.00451315767958188
0.00505040471078248
0.00551771376269109
3.81650086602583e-05
0.000412146792708447
0.00104666281205458
0.00176902805904091
0.00249823723867681
0.0032009885393725
0.00386552449960666
0.0044823595736219
0.00503971553788999
0.00552931709602901
0.005950695110397
3.28919654829271e-05
0.000387209278095989
0.00100206433429964
0.00170867986369874
0.00242869272970727
0.00312893521266278
0.00379706248487457
0.00442447318477075
0.00500036116911656
0.00551391394708247
0.00595960935139497
0.00633918381461602
2.74057523687444e-05
0.000358744844534004
0.000949704377630029
0.00163588492787903
0.00234203888072277
0.0030358532667271
0.00370438822309042
0.00433898956543848
0.00492998540236527
0.005466561289812
0.00593943366310745
0.00634506892642884
0.00668654515128807
2.18852639436101e-05
0.000326639082577361
0.000888832623420272
0.0015495961986099
0.00223729027105808
0.00292078715607917
0.00358664405786491
0.00422553600238041
0.00482806645759861
0.00538436120327623
0.00588433352355888
0.00631998343313698
0.00668915030925519
0.00699585341953009
1.64872290424182e-05
0.000290599370881197
0.000818307436477409
0.00144811722381401
0.00211266937044134
0.00278203814556046
0.00344222484137534
0.00408295668471875
0.00469429742134146
0.00526673029498394
0.00579084075770518