/*--------------------------------*- C++ -*----------------------------------*\
  =========                 |
  \\      /  F ield         | OpenFOAM: The Open Source CFD Toolbox
   \\    /   O peration     | Website:  https://openfoam.org
    \\  /    A nd           | Version:  12
     \\/     M anipulation  |
\*---------------------------------------------------------------------------*/
/*   Windows 32 and 64 bit porting by blueCAPE: http://www.bluecape.com.pt   *\
|  Based on Windows porting (2.0.x v4) by Symscape: http://www.symscape.com   |
\*---------------------------------------------------------------------------*/
FoamFile
{
    format      ascii;
    class       volScalarField;
    location    "300";
    object      omega;
}
// * * * * * * * * * * * * * * * * * * * * * * * * * * * * * * * * * * * * * //

dimensions      [0 0 -1 0 0 0 0];

internalField   nonuniform List<scalar> 
10252
(
2.4668408891015
2.46684027303008
2.38168022213812
0.831526982674109
2.46683936033949
2.38167845543925
0.831465956436463
2.28699709289014
0.814643682249291
0.502528809996197
2.46683871165478
2.38167671758827
0.83131651915773
2.28699463031016
0.814584707901942
0.502439141486342
2.21611021356181
0.792516337883603
0.497143433224032
0.379414194270651
2.46683985843802
2.38167564502551
0.831056621539203
2.28699282422284
0.814437743193355
0.502275347673514
2.21610795143266
0.792454408282275
0.497057891303225
0.379321122522903
2.18721884079202
0.773616539712546
0.488934424857651
0.377319777789146
0.319329032548999
2.46684143129436
2.38167741360068
0.830669630577441
2.28697938796826
0.814181847973634
0.502022376466409
2.21610705592176
0.792307995931139
0.496895595993338
0.379164005071381
2.18721751875193
0.773550885387473
0.488850112699882
0.377230879931482
0.319238322658234
2.18619237996008
0.761707283238594
0.480571617869597
0.373638043875268
0.318451974469449
0.285713223906431
2.46684141287147
2.38168068859615
0.8301424615176
2.28699317343202
0.813799524627679
0.501668333107304
2.21609444523363
0.792054411004842
0.496644193986669
0.378932934681823
2.18721770586038
0.773403708932019
0.488689034755716
0.377075009779503
0.319090234933448
2.18619061262425
0.761638248457844
0.480487127382373
0.373551279285442
0.318365207980375
0.285625707009687
2.1919287331176
0.754545007453234
0.473643542248852
0.36923655011604
0.316583382291929
0.285325215865983
0.265349566444413
2.46683854243988
2.38168165225274
0.82946122626605
2.28699714742054
0.813278066355727
0.501202589762458
2.21610706243788
0.791676875122957
0.496292169677947
0.378619431027844
2.1872176496233
0.773151669070001
0.488439334285676
0.376844785211344
0.31887767097669
2.18619239015978
0.761489403407132
0.480326592685444
0.373396734286299
0.318218198913714
0.285485567458428
2.19192768951888
0.754472493593158
0.47355828437585
0.369150659884141
0.316498829347065
0.285241445565222
0.265264847475406
2.19485332373385
0.748123829339706
0.467898962199442
0.364831557064268
0.314002648038013
0.284251253368
0.265142281623716
0.252406965701707
2.46684131570385
2.38167931582309
0.828611507360807
2.28701136569974
0.812604062780112
0.500614523225716
2.21611024822873
0.791160901475768
0.495829046058547
0.378215340163058
2.18721754435627
0.772776795462042
0.488089698517302
0.376532221812459
0.318594193959564
2.18619213757979
0.761237774050429
0.480078164938484
0.37316761965433
0.318006166048998
0.285287262982398
2.19192873100677
0.754320900369901
0.473397474348356
0.368997102597301
0.316353059339258
0.285102285670453
0.265131104464406
2.19485608752884
0.748047402879792
0.467812644524271
0.364745951331055
0.313919226003684
0.284169645209415
0.265061165218375
0.252324351276014
2.19512739214238
0.740231705201831
0.46228212303398
0.360568317337919
0.311044769653404
0.282575844928964
0.264415310595246
0.252259174346488
0.243961498827531
2.46683742988546
2.38167685329728
0.827579639394243
2.28699571310341
0.811762210478503
0.49989320958049
2.21612435800818
0.790494776441563
0.495244192920775
0.377712438646347
2.18721931409772
0.772264643408747
0.48762961743639
0.376129272367365
0.318233299236107
2.1861918787295
0.760862491092134
0.479730391970627
0.372856255114241
0.317723133863433
0.285025576531015
2.19192744455692
0.754067317409002
0.473149346363737
0.368769005151143
0.316141793280356
0.28490435003959
0.264943658924466
2.19485257561824
0.747892116992958
0.467650884221896
0.3645928828341
0.313774511329042
0.284031638014226
0.264928340586841
0.252195519369958
2.19513203334511
0.740151005077289
0.462194596432694
0.360482837154994
0.310962034712075
0.282495436575223
0.264336313808092
0.252180051963926
0.243880232386909
2.19480606002091
0.730506691721481
0.456049051696331
0.356222881308489
0.30790688913455
0.280481783900196
0.263205466986005
0.251686926382003
0.243836824745226
0.238412300952788
2.46683992464964
2.38167668279781
0.826345274475632
2.2869914730497
0.810738537563247
0.499027023141786
2.21610954755165
0.789663114264127
0.494526719866875
0.377102187966274
2.18722129791325
0.771603659667325
0.487048941288586
0.375627748639161
0.317788273611682
2.18619320583863
0.760350852162079
0.479272738239088
0.37245473991951
0.317362707692665
0.284695051041548
2.19192689004294
0.753689874740685
0.472802095955213
0.368458731590207
0.31585935887141
0.284642872291021
0.264698093760875
2.19485007911752
0.747635382019023
0.467402060466699
0.3643653702709
0.313564052939246
0.283834285299488
0.2647412087067
0.252016341942616
2.19512581342848
0.739991158387614
0.462031473511786
0.360329940623334
0.310818119510028
0.282358472701414
0.264204593259224
0.25205211092206
0.243754999811312
2.19480859459351
0.730420734226207
0.45596032932913
0.356137598755882
0.307824832760463
0.280402259813221
0.26312771809479
0.251609904989947
0.243758971671412
0.238331650873028
2.19480361149704
0.719150678076892
0.448956842247315
0.351578822968727
0.304632268738007
0.278155428282653
0.261647122160781
0.250735866316625
0.243348018055994
0.238304602863737
0.234817624730636
2.46684124347559
2.38167865380308
0.824893431049094
2.28699189995629
0.80951645533999
0.498004650053212
2.21610526444897
0.788651500691582
0.493665335019758
0.376375661567857
2.1872196959547
0.770778911813491
0.486336416093745
0.375019154184814
0.317252129893977
2.18619662158135
0.759690439780316
0.478695103304763
0.371954915237309
0.316918203395926
0.284290006406185
2.19192820558591
0.753175871415368
0.472345211159053
0.368058438396821
0.315499483506932
0.284312510512172
0.264389688273523
2.19484680065585
0.747254455679603
0.467054155694793
0.364055707397499
0.313282253329335
0.283573105622198
0.264495767552074
0.251782943269596
2.19512262323634
0.739730721423507
0.461781388128734
0.360102627897055
0.310608367384992
0.282161807549477
0.2640179667518
0.251873234233491
0.243582060576063
2.19480023645242
0.730255634241589
0.455795597783114
0.355984789043842
0.307681636667608
0.280266230430946
0.262997039161763
0.251483050225623
0.243634618973616
0.238208872855177
2.19480631432586
0.719056567935549
0.448866909056218
0.351493987944728
0.304551102744215
0.278076883241604
0.261570391076188
0.250660143366101
0.243272260068993
0.238227309562564
0.234736902055726
2.19513109153706
0.70626545801777
0.441014842093959
0.34656325005721
0.301222830986241
0.275725571974532
0.259912171596182
0.249535291732504
0.242565246841399
0.237876714098153
0.234727736886136
0.232585485857766
2.46684171218383
2.38168037894096
0.823203250034828
2.28699533854952
0.808078053245718
0.496812009127007
2.21610298525032
0.787444785319294
0.492648090872599
0.375523887203043
2.18721499182965
0.769777547105734
0.485480986874199
0.374294633569732
0.316617628004581
2.18619451125017
0.758867392885499
0.477986480283152
0.371348316676321
0.316382643183597
0.283804482922304
2.19193359283035
0.752512863245723
0.471768405580112
0.367559978195798
0.315055526153146
0.283907587773381
0.264013439754662
2.19485012400357
0.74673634014003
0.466596507816785
0.363656014695072
0.312922892620644
0.283242879557938
0.264187393325764
0.251491093927331
2.19511688912979
0.739345791956274
0.461432149306171
0.359793110175878
0.310327130960811
0.28190102389887
0.263772697566655
0.251639928380736
0.243357882570192
2.19479711326258
0.729991476186599
0.455544035343694
0.355757519536662
0.307472532663272
0.280070313073236
0.26281104688168
0.251304650364505
0.243461970127502
0.238040487823889
2.19480457312094
0.718882735307177
0.448700136384614
0.351341342314239
0.304408738659329
0.27794184637883
0.261440720500231
0.250534338438473
0.243148986562608
0.238105400520802
0.234615557765356
2.19512739183443
0.706156189517488
0.440923213636702
0.346479251076427
0.301142916830956
0.275648295388494
0.259836612236705
0.24946068575737
0.242490832597401
0.23780151224866
0.234650330221567
0.232504046722697
2.19485547554733
0.691818544591329
0.432309138313545
0.341231624119498
0.297725797077011
0.273288642439542
0.258152122555775
0.248249179112208
0.241628191391045
0.237222876806386
0.234353552765054
0.232514073755385
0.231320798542479
2.46684231617502
2.38167973639037
0.821253303718693
2.28699733662361
0.80640311028305
0.495435699094326
2.21610888707301
0.786024958626218
0.491461688099643
0.374537056532501
2.18721362039673
0.768583218033825
0.48447072618462
0.373445041686275
0.31587740811691
2.18619078044401
0.75786876498732
0.477135829076234
0.370626145157085
0.315748798778382
0.283232385340864
2.19193026889109
0.751686616578245
0.47106109529165
0.366954926845281
0.314520520043026
0.283422153098809
0.263564124367321
2.19485436726049
0.746068335042034
0.466018673912334
0.36315811722275
0.31247935632677
0.282837960630002
0.263811101928985
0.251136300368126
2.19512227291621
0.738823185281352
0.460972871827659
0.359393387517078
0.309968164263641
0.281570957081725
0.263464274333409
0.251348068166774
0.243078613621782
2.19479142547267
0.729602898677704
0.455193319996424
0.355447947473267
0.307191801627116
0.279810030682625
0.262566059030265
0.251071463022962
0.243237876792398
0.23782322014443
2.19480194572434
0.718614024641928
0.448446914059843
0.351114171569296
0.304200373083682
0.277746790415612
0.261255486280151
0.2503565455479
0.242976795919351
0.237937298731287
0.234450297084113
2.19512586538689
0.705961267431318
0.440752556722457
0.346326832960753
0.301001645912152
0.275514472558672
0.259708078513662
0.249335931006263
0.242368613446432
0.237680672357174
0.234529842783156
0.232383217021974
2.19485359794313
0.691653465706893
0.43221421630076
0.341148914445778
0.297647643015027
0.273213040396848
0.258078062358273
0.248175873948903
0.241554967125044
0.23714905100933
0.234278232149805
0.232435924307747
0.231238055155328
2.19192748146444
0.675536388957811
0.422981675938845
0.335747884610328
0.294274048425318
0.270966834685297
0.256504118043795
0.247032451561411
0.240699302916386
0.236496816058987
0.233808818751598
0.232189420128082
0.231267242851346
0.230746652117992
2.46683663347405
2.38167789692934
0.819022414972907
2.28699610797118
0.804470577798267
0.493862172306649
2.21611334824584
0.784371794382735
0.490092527206549
0.373405693410372
2.18721833954486
0.767178569417948
0.48329269414186
0.372460765641416
0.315024050606655
2.18619126561461
0.756677585794987
0.476131149060865
0.369779184115725
0.31500928215429
0.282567486769261
2.1919285154095
0.750683163238198
0.4702117682458
0.366234486933695
0.313887238594251
0.282850077618367
0.263036401975954
2.19485514281871
0.745235667542081
0.46530985556426
0.362553533976635
0.311944666439372
0.282352399495874
0.263361666194537
0.250713871742536
2.19512487646681
0.738149430474025
0.460392858902955
0.358895245269468
0.309524810144184
0.281165971929258
0.263087745507921
0.250993175901834
0.242740138446477
2.19479692716778
0.729076331988125
0.454732300714484
0.355047940996416
0.306833120502078
0.27948019751401
0.262257614736475
0.250779472957025
0.242958580112452
0.237553501092677
2.19479657165941
0.718222570226151
0.448094900488084
0.350804641505791
0.303920232654283
0.277487153945757
0.261010944805254
0.250123572525483
0.242752787460265
0.237720105913367
0.234238033893123
2.19512368720656
0.705682644080615
0.440496655802072
0.3460998585116
0.300794259520386
0.275320501541421
0.259523790989642
0.249158883636087
0.242197000215319
0.237513006095408
0.234364852887736
0.232219832497808
2.19485235605674
0.691395309218492
0.432034357977621
0.340996402168799
0.297507807030881
0.273080780968511
0.257950939102725
0.248052325190991
0.241433811594795
0.237029256772566
0.234158797001414
0.232315938878866
0.231116914270444
2.19192930554274
0.675333149781639
0.422877249539952
0.335666933169497
0.294198317188375
0.270893426930922
0.256431976856235
0.246960789200158
0.240627464830061
0.236424226533807
0.233734890891581
0.232113348839271
0.231187770652706
0.23066206944169
2.18618863953803
0.657086066308424
0.413290083383761
0.330417893580182
0.291119267243262
0.268958559989771
0.255135698360117
0.246040191347265
0.239933348358738
0.235863466382006
0.233260540133294
0.231740494847148
0.230987717235581
0.230709471780759
0.230661737123995
2.46683901396193
2.38167613594662
0.816491346895711
2.28699385330345
0.802259739817204
0.492078633211641
2.21610961522504
0.782464640967315
0.488527093028153
0.37212075412749
2.18722222360875
0.765543358976747
0.481933176355603
0.37133227189038
0.314050470622646
2.18619070592799
0.755276511919421
0.474959617766197
0.368797902321129
0.314156675982196
0.281803828962055
2.1919272509275
0.749485797699714
0.469208357941305
0.365389368178893
0.313148262023108
0.28218516248623
0.26242496521454
2.19485136543695
0.744223957365683
0.464458279686669
0.361833337666566
0.311311557331237
0.281780045655685
0.262833731077444
0.25021904880469
2.19512992775677
0.737309756008646
0.459681014095218
0.358289989774441
0.308990040212141
0.280680098215966
0.262637880755167
0.250570557258882
0.242338173178394
2.19479965098444
0.728397338498455
0.454149927596018
0.354549123972843
0.306389746220949
0.279075140391187
0.261880772136326
0.250424234378922
0.242619982624729
0.237227496778352
2.19480219117791
0.71769311000231
0.44763257296622
0.350404480740847
0.303561900339642
0.277157685147688
0.260702612711514
0.249831452674087
0.242473307533354
0.237450337977341
0.233975403392391
2.19511858915923
0.705287690515649
0.440143359034763
0.345790650484228
0.300514973284609
0.275061746545483
0.259279918792549
0.248926290030715
0.241973142149491
0.237295858996551
0.234152645904667
0.232010939552974
2.19485062140813
0.691091296102768
0.431772415017576
0.340769434021923
0.29730172880724
0.272888233731727
0.257767878578794
0.247876230543895
0.241262902538638
0.236862123748074
0.233994209753946
0.232152806444948
0.230954296404384
2.1919289671751
0.674957406247828
0.422676962316698
0.335513188533039
0.294060238211143
0.27076317756371
0.25630664472392
0.246838734377785
0.240507529890041
0.236305481342558
0.233616477076935
0.231994392232636
0.231067459300478
0.2305398740304
2.18619268396909
0.656851579050445
0.41317395603211
0.330338920134333
0.291046787573126
0.268887989735702
0.255065977294409
0.245970588216761
0.239863239752809
0.235792309890549
0.233187869342731
0.231665817857198
0.230910311678183
0.230628147199192
0.230574832510268
2.18721146321429
0.636799936264846
0.403824353510164
0.3258058203148
0.288699503018722
0.267590027573379
0.254293850220885
0.245467736825016
0.239494589740625
0.235478100604735
0.232877879822893
0.231345592417734
0.230623332330927
0.230470178166499
0.230639103284914
0.23091588394828
2.46684298344866
2.38167608998943
0.813642602874324
2.28699279438571
0.799751680351593
0.490074084446415
2.21610748291157
0.78028319034254
0.486752616043239
0.370674242073092
2.18722021169465
0.763656623894155
0.480378675921777
0.370050489167501
0.312950259740084
2.18619461533212
0.753645530597616
0.473607589061527
0.367672719344909
0.313183857734464
0.280935878615783
2.19192632071471
0.748076603337659
0.468037941570026
0.364409997922093
0.312296145074859
0.281421392601343
0.261724793897204
2.19484789814771
0.743015431191312
0.463451668507402
0.360988161108387
0.310572540145414
0.281114678811788
0.262221971927085
0.249647172964552
2.19512402345064
0.736288315085425
0.45882520349539
0.357568525519502
0.308356479613045
0.280107137156862
0.262109302366595
0.250075437355546
0.24186840661622
2.19480478748723
0.727551168141272
0.453434794978703
0.353942590603221
0.30585453247952
0.278588827963749
0.261430277722086
0.250001049809266
0.242217798049072
0.23684125127827
2.19480497202587
0.717010337754015
0.447048397300178
0.349905110330341
0.303118506202147
0.276752629734185
0.260325512329849
0.249475749479085
0.242134290597783
0.237124188761371
0.233658815722806
2.19512420768482
0.704756498618993
0.439680393769733
0.345390792215263
0.300157279685206
0.27473287184963
0.258971911312095
0.248634160340553
0.241693432202121
0.237025848067856
0.23388994471247
0.23175333767794
2.19484772795677
0.690688434357942
0.431416891645318
0.340460793311547
0.297023704418978
0.272630712526253
0.257524968594467
0.247644246208217
0.24103932830648
0.236645046995417
0.233781996833991
0.231943946641823
0.230747351113531
2.19192944492102
0.674594337464745
0.422402098805337
0.335285364071845
0.293855778830682
0.270572488382612
0.256125181763509
0.246663881471372
0.240337517733598
0.236138980532734
0.233452361269793
0.231831619940662
0.230905073931164
0.23037704188155
2.18619541849984
0.656418245133062
0.412941989694915
0.330181898145514
0.290910688560243
0.268760262779551
0.254942899560554
0.245850405286106
0.239744804334832
0.235674755750013
0.233070463985537
0.231547843659163
0.230790999509593
0.230506765775929
0.23045091892681
2.18721791345087
0.636516550091808
0.403706509236222
0.325729951853332
0.288631232903617
0.267523050213747
0.254227130705659
0.245400664704761
0.239426615519076
0.235408711995967
0.232806655302896
0.231272169849457
0.230547308815149
0.230390905083686
0.230555447091344
0.230826225573507
2.21608884473882
0.617239789433531
0.396116586058558
0.323026150036456
0.287789838628508
0.267401071653879
0.254362620317327
0.245596812623057
0.239596347997354
0.235510962136279
0.232817595678551
0.231178379433651
0.230361699630567
0.230179904323473
0.230435036896259
0.230905929499988
0.231395071382932
2.46684594536562
2.38167878440955
0.810476261085049
2.2869929855009
0.796930147346503
0.487841157710693
2.21610674105522
0.777808645147013
0.484758090918827
0.369059866329754
2.18721722908197
0.761498873576132
0.47861643402594
0.368607364606455
0.311718209916192
2.18619373826196
0.751763525574453
0.472061301535534
0.366394486320279
0.312084377592383
0.279958960627749
2.19193013947845
0.746436195927779
0.4666868812063
0.363286704103689
0.311323695902793
0.280553201412789
0.260931458315275
2.19485085592612
0.741592417220869
0.462276838899347
0.360008249030697
0.309720078302397
0.280350224413594
0.261521339013374
0.248993950008287
2.19511835339206
0.735068286593736
0.457812816318535
0.356721306958594
0.307616520047198
0.279440798016863
0.261496651062202
0.249503139294635
0.241326685503694
2.19479880365723
0.726520728845122
0.452574382038267
0.353219012024231
0.305219946993838
0.278014966595751
0.260900704452074
0.249505121075763
0.241747699891401
0.236390801519528
2.19481010852082
0.71615892479269
0.446330490148491
0.349297360715317
0.302582744784057
0.276265849423197
0.259874328895811
0.249051742686709
0.241731447671567
0.236737693349752
0.233284554693992
2.19512693164311
0.704071588373144
0.439095507497952
0.344891448899903
0.299714154820879
0.274328013045416
0.258594713137378
0.248278022817742
0.24135381384718
0.236699200333038
0.233573176088641
0.231443615467468
2.19485103410207
0.69015475766689
0.430953796659497
0.340061883179642
0.296667158779709
0.272302796356492
0.257217571580018
0.247352313944861
0.240759457781194
0.236374688240838
0.233518980700355
0.231686241851993
0.230492998195141
2.19192710750376
0.674172249736565
0.422041688225238
0.33497727971608
0.293579495855629
0.270316666939618
0.255883608420682
0.246432796948804
0.240114424850825
0.235922058358725
0.233240118809458
0.231622691785269
0.23069813381259
0.230170792636803
2.18619499455815
0.655995680067841
0.412645220665253
0.329951739338951
0.290708062625654
0.268571924593487
0.254763482014895
0.245677155201705
0.23957595542961
0.235509046022366
0.232906880472847
0.231385465328163
0.230628925273944
0.230344143629946
0.230287003184291
2.18722271040196
0.63604134831106
0.403447790306513
0.325568301426253
0.288497289062416
0.267398396156649
0.254106829847119
0.245282793527326
0.239310034560908
0.235292603492676
0.232690374650822
0.231155140737591
0.23042892761585
0.230270488374187
0.23043233075891
0.230700004872907
2.21610753599928
0.616782700213693
0.395992873880005
0.322955196942272
0.287726847562907
0.267338486250425
0.25429953578167
0.24553278895913
0.239530949925861
0.235443727297646
0.232748136177747
0.231106386235615
0.230286906868199
0.230101989024514
0.230353413598605
0.230819511838563
0.231302275840748
2.28697684240109
0.605662575542888
0.39430950097783
0.324473847713565
0.289843928092741
0.269317060539972
0.255958350251585
0.246854781240233
0.24054517204158
0.236187860669876
0.233254573161633
0.231397525498117
0.230380561832409
0.230033967224467
0.230209160056418
0.230732308111306
0.231396034184997
0.232011695638975
2.3816800151813
0.806992396988184
2.28699384470638
0.793793048663314
0.485377500110918
2.2161069794681
0.775026371763574
0.482535818411321
0.367274431045554
2.18721693483106
0.759051117342951
0.476635343311215
0.366996616410411
0.310351054616388
2.18618977435967
0.749610291344376
0.47030790711063
0.364955039353033
0.310852979053601
0.278869734241456
2.19192776611748
0.744543024111159
0.465141083082254
0.36201014939216
0.310224367226157
0.279575860664915
0.260041515581491
2.19485392838735
0.739935158602577
0.460919970327869
0.358883752991979
0.308746845048353
0.279481035920075
0.260727361985719
0.248255779475236
2.1951235701237
0.733630505977945
0.456630370746159
0.355738311617783
0.306762452598735
0.278674899516741
0.260794819430259
0.248849340198259
0.24070927595939
2.19479302511673
0.725290531234619
0.451555721456913
0.352368581334035
0.304478194194805
0.277347137954659
0.260286618978136
0.24893173485873
0.241205515293797
0.235872401143893
2.19480407240704
0.715121598406346
0.445466409387034
0.348571635972411
0.301946883900396
0.275690907210978
0.259343544006641
0.248554585346744
0.241260429920025
0.236286880242994
0.232848954927242
2.19513201141722
0.703216791653655
0.438376272557631
0.344283128265258
0.299178099132272
0.273840888030962
0.258142907052243
0.247853097125858
0.240949975629286
0.23631194751893
0.233198627535465
0.231078265444184
2.1948533910191
0.689467930000691
0.430369486125253
0.339563507133902
0.296224887221245
0.271898494661846
0.256840525192237
0.246995885203246
0.240419198883117
0.236047282640057
0.233201617747939
0.231376299388664
0.230187967376072
2.19192775495787
0.673630974498215
0.421578234259601
0.33458003995957
0.293224788548442
0.269990218292775
0.255577193173993
0.24614133207051
0.239834550096336
0.23565135093108
0.232976615039463
0.231364587152421
0.230443641543291
0.229918139160058
2.18619227646508
0.655540220384922
0.412276373496863
0.329644033145649
0.29043403304093
0.268318358990028
0.254523698987815
0.245447319060399
0.23935359459907
0.235292421468362
0.232694632601279
0.23117639084661
0.230421846556461
0.230137870285708
0.23008035351759
2.18722349127998
0.635605680664567
0.403128535561771
0.325334883361736
0.288296727595334
0.267212933394867
0.253929959548984
0.245111561789334
0.239142671954321
0.235127908711045
0.232527436050926
0.230993171375989
0.230267157676504
0.230108123178561
0.23026860164138
0.230534241407968
2.2161126409609
0.616243449411491
0.395722025799393
0.322790390265526
0.287595489953004
0.26721747651268
0.254182555611838
0.245417702812567
0.239416621854401
0.235329382792144
0.232633199975763
0.230990384751757
0.230169388099846
0.229982441618633
0.230231223605017
0.230694070914492
0.231173229062024
2.28700604269846
0.604035617320511
0.394130620961867
0.324405745839402
0.28978663350277
0.269259551680367
0.255899492879106
0.246794332131213
0.240482813428158
0.236123188320153
0.233187239007523
0.231327258057219
0.230307154666535
0.229957240611752
0.230128860143725
0.230647901518015
0.231306472166432
0.231915422447125
2.38167602985973
0.623449529482575
0.409825954939044
0.33578230273143
0.297820705780683
0.2750225759459
0.2601144573213
0.249914755167038
0.242800485313767
0.237833391796249
0.234423839132866
0.232181742822632
0.230840451197305
0.230213548371455
0.230163238803834
0.230561922281408
0.231248469254274
0.232021971715643
0.232697968901353
2.28699436742377
0.790342367053526
0.48269357218437
2.21610740013656
0.771934241342343
0.480084495327538
0.365318649446505
2.18721736515752
0.756298921203212
0.47442766539038
0.365214828498794
0.308848159957071
2.18619158744508
0.747166720625441
0.468335961647283
0.363347930251601
0.309486277714217
0.277666928848226
2.19192340078393
0.742375888228883
0.463387254249489
0.360571927156887
0.308992764031523
0.278485981656722
0.25905304828536
2.19485079996056
0.738021546216249
0.459366647003796
0.357605033666425
0.307646098751264
0.278502276306622
0.259836547364987
0.247430165316513
2.19512891583482
0.731954690833733
0.455263637762118
0.354609406678979
0.305786727996243
0.27780364743403
0.25999925538565
0.248110398810029
0.240013246044826
2.19479827774337
0.723839208471165
0.450364893654468
0.351380952208848
0.303621318819634
0.276578987677926
0.259582806599421
0.248276512294518
0.240587490348761
0.235282788315364
2.19479821269459
0.713882771116452
0.44444232482861
0.347717826213073
0.301202884717559
0.275021201123977
0.258727597856959
0.247979490444264
0.240717027846679
0.235767981118625
0.232348593112007
2.19512602186524
0.702174520513307
0.437509961420814
0.343555962308355
0.29854115014169
0.273264876030844
0.25761083803162
0.247354446961716
0.240477520663091
0.235860097368247
0.23276261699161
0.230653852270999
2.19485825705806
0.688610018737275
0.429650668925
0.338955786045387
0.295689157512589
0.271411351978123
0.25638827549805
0.246570078946758
0.240014180099075
0.235658838986587
0.232826194235834
0.231010611921138
0.229828913569709
2.19192937417372
0.672938787379203
0.420995504071925
0.334083848932917
0.292784229296014
0.269587020316298
0.255200648845714
0.245784830997883
0.239493723108774
0.235323056329834
0.232658312282471
0.231053941712505
0.230138344806784
0.229615916539156
2.1861921764514
0.654982238915018
0.41181234176051
0.329249354071949
0.290082021998876
0.267994023928146
0.254218727094708
0.24515664634761
0.239073925804348
0.235021445360401
0.232430558034378
0.230917640273577
0.230166861331367
0.229885038297405
0.229828048441334
2.18721906377378
0.635174256130884
0.402752417997951
0.325028231987657
0.288025636029936
0.266962253986153
0.253692478445483
0.244883370100997
0.238921333218224
0.234911769268785
0.232315257579892
0.230783906987044
0.230059803485916
0.229901636474936
0.230061897182135
0.230326236045428
2.21611501155134
0.615805851357353
0.395405125147912
0.322556205764179
0.287397667558252
0.267035467175659
0.254008751263984
0.245248930386012
0.239251100779633
0.235165969479709
0.232471074742614
0.230828882188924
0.230007885536532
0.229820281931629
0.230067694024359
0.230528470635567
0.231004953633595
2.28699910306706
0.603219789452338
0.393839174154158
0.324242023708975
0.289658639872023
0.269142698257001
0.25578632730847
0.246682489296485
0.240371146740952
0.236010952971442
0.233073919308623
0.231212461402599
0.230190541063827
0.229838457342691
0.230007469792596
0.230523345706789
0.231178187852035
0.231783096616029
2.38169099295276
0.620472355387484
0.40937297795466
0.335689966030564
0.297765290315202
0.27497004222837
0.260060169150714
0.249858321896677
0.242741612364741
0.23777169496191
0.234359001496556
0.232113530219814
0.230768698375165
0.230138140084206
0.230084069950296
0.230478796225464
0.231160893405466
0.231928924865807
0.232597913831645
3.68517227836365
0.866633042731749
0.483850858773034
0.371679644157577
0.318335375025427
0.287844883811559
0.268675164534839
0.255888380455086
0.24707752614643
0.240930835699435
0.236663445802011
0.233773146813312
0.231923231857016
0.230880762122975
0.230481280621591
0.230601993790904
0.231125538904849
0.231896523638447
0.232716114859254
0.233401241034824
2.21610762850206
0.768536093445091
0.477413023500796
0.479811662673312
0.363198186584885
2.18721762615399
0.753239267698365
0.47199196759851
0.363262670338079
0.307212804644494
2.18619236374481
0.744417366879587
0.466137201870981
0.361569472529795
0.307983581606344
0.276352091131959
2.19192766678206
0.739914729386123
0.461413331001329
0.358965210076403
0.307625296561655
0.277282184310514
0.257966264532928
2.19484577466888
0.735829852019538
0.457602861045868
0.356163263842929
0.306412176411032
0.277410412944869
0.258846894913864
0.246516251669039
2.19512361721198
0.730018274701415
0.453697888681075
0.353324562842632
0.304682299925166
0.276822004062986
0.2591063533527
0.247283766330113
0.239236842646043
2.19480371874289
0.722146077917798
0.448987179623143
0.350245607161451
0.302641464894635
0.275704491198236
0.258784566013839
0.247535730373261
0.23989064068467
0.234619540464484
2.19480341604061
0.712419623369455
0.443243930386277
0.346725231006786
0.300342488491953
0.274250138069704
0.258021104169873
0.247321973271255
0.240097434284666
0.235177704927226
0.231780586526764
2.19512014199443
0.700927928339385
0.436482065683829
0.342699446147652
0.297794985432744
0.272593143686611
0.256992766982817
0.246777160581862
0.239932166492818
0.235339844003398
0.232261702927364
0.230167219959791
2.19485258641085
0.687563573339754
0.428784069511333
0.338228475263319
0.295051768028183
0.270834531998011
0.255854991273068
0.246069824757583
0.239539915716166
0.235205317057672
0.232389005403912
0.230585729677245
0.229412588154206
2.19193195349557
0.672076011927844
0.420278703399604
0.333478314387104
0.292249807641058
0.269100415624601
0.254748257051398
0.245358277264744
0.239087471228182
0.234933122010012
0.232281472850594
0.230687245203356
0.229778898338683
0.229260905465423
2.18619294962443