/*--------------------------------*- C++ -*----------------------------------*\
  =========                 |
  \\      /  F ield         | OpenFOAM: The Open Source CFD Toolbox
   \\    /   O peration     | Website:  https://openfoam.org
    \\  /    A nd           | Version:  12
     \\/     M anipulation  |
\*---------------------------------------------------------------------------*/
/*   Windows 32 and 64 bit porting by blueCAPE: http://www.bluecape.com.pt   *\
|  Based on Windows porting (2.0.x v4) by Symscape: http://www.symscape.com   |
\*---------------------------------------------------------------------------*/
FoamFile
{
    format      ascii;
    class       volScalarField;
    location    "300";
    object      p;
}
// * * * * * * * * * * * * * * * * * * * * * * * * * * * * * * * * * * * * * //

dimensions      [0 2 -2 0 0 0 0];

internalField   nonuniform List<scalar> 
10252
(
83333.3332148673
83333.3332127372
83333.3332148445
83333.3332141905
83333.3332106069
83333.3332126897
83333.3332120072
83333.3332147885
83333.333214168
83333.3332130903
83333.3332084902
83333.3332105368
83333.3332098353
83333.3332126069
83333.3332119538
83333.3332108604
83333.3332146735
83333.333214093
83333.3332130328
83333.333211995
83333.33320633
83333.3332084186
83333.3332076674
83333.3332104352
83333.3332097603
83333.3332086284
83333.3332124687
83333.3332118497
83333.3332107858
83333.333209744
83333.3332144919
83333.3332139593
83333.3332129366
83333.3332119056
83333.3332110125
83333.333204099
83333.3332062587
83333.3332054484
83333.3332083147
83333.3332075923
83333.3332063823
83333.3332102783
83333.3332096397
83333.3332085404
83333.333207465
83333.3332122646
83333.3332116968
83333.3332106736
83333.3332096487
83333.3332087342
83333.3332142423
83333.3332137753
83333.3332128085
83333.3332118012
83333.3332109218
83333.3332102154
83333.3332017797
83333.333204026
83333.3332031561
83333.3332061542
83333.333205375
83333.3332040761
83333.3332081502
83333.3332074693
83333.3332062932
83333.3332051445
83333.3332100524
83333.3332094714
83333.3332084166
83333.3332073604
83333.3332064079
83333.3332119896
83333.3332114938
83333.3332105319
83333.3332095381
83333.3332086445
83333.3332079113
83333.3332139264
83333.3332135445
83333.3332126497
83333.3332116863
83333.3332108311
83333.3332101345
83333.3332096406
83333.3331993534
83333.3332017036
83333.3332007741
83333.3332039204
83333.3332030821
83333.3332016935
83333.3332059853
83333.3332052503
83333.3332039873
83333.3332027528
83333.3332079124
83333.3332072946
83333.3332061672
83333.3332050344
83333.3332040198
83333.333209752
83333.3332092505
83333.3332082635
83333.3332072403
83333.3332063103
83333.3332055458
83333.3332116437
83333.3332112378
83333.3332103567
83333.3332094148
83333.3332085513
83333.3332078325
83333.3332073165
83333.333213549
83333.3332132611
83333.333212455
83333.3332115513
83333.3332107378
83333.3332100665
83333.3332095752
83333.3332092846
83333.3331967982
83333.3331992739
83333.3331982844
83333.3332015969
83333.3332006979
83333.333199218
83333.3332037481
83333.3332029553
83333.3332016039
83333.3332002783
83333.3332057396
83333.3332050712
83333.3332038602
83333.3332026395
83333.3332015515
83333.3332075956
83333.3332070643
83333.3332060085
83333.3332049087
83333.3332039165
83333.3332031065
83333.3332093762
83333.3332089728
83333.333208074
83333.3332071072
83333.33320621
83333.33320546
83333.3332049236
83333.3332112305
83333.3332109249
83333.3332101406
83333.3332092698
83333.3332084531
83333.3332077636
83333.3332072536
83333.3332069479
83333.3332131186
83333.3332129258
83333.3332122175
83333.3332113866
83333.3332106299
83333.3332099979
83333.333209529
83333.3332092412
83333.3332091381
83333.3331940874
83333.3331967154
83333.3331956651
83333.3331991668
83333.3331982057
83333.3331966345
83333.3332014227
83333.333200569
83333.3331991266
83333.3331977064
83333.3332034967
83333.3332027737
83333.333201474
83333.3332001613
83333.3331989932
83333.3332054113
83333.3332048353
83333.3332036969
83333.33320251
83333.3332014456
83333.3332005797
83333.3332071987
83333.3332067737
83333.333205812
83333.3332047694
83333.3332038103
83333.3332030143
83333.3332024498
83333.3332089279
83333.3332086342
83333.33320784
83333.3332069537
83333.3332061067
83333.3332053859
83333.3332048543
83333.3332045405
83333.3332107581
83333.3332105555
83333.3332098779
83333.3332090915
83333.3332083397
83333.3332076941
83333.3332072075
83333.3332069104
83333.3332068039
83333.3332126445
83333.3332125445
83333.3332119379
83333.3332111859
83333.3332104971
83333.3332099153
83333.3332094806
83333.3332092102
83333.3332091155
83333.3332091904
83333.3331911896
83333.3331940019
83333.3331928904
83333.3331966094
83333.3331955853
83333.3331939225
83333.333198993
83333.3331980755
83333.3331965401
83333.3331950222
83333.3332011681
83333.3332003874
83333.3331989932
83333.3331975873
83333.3331963335
83333.3332031598
83333.3332025344
83333.3332013083
83333.3332000284
83333.333198886
83333.3331979573
83333.3332049985
83333.3332045363
83333.3332034969
83333.3332023679
83333.3332013358
83333.3332004847
83333.3331998828
83333.3332067244
83333.3332064171
83333.3332055683
83333.3332046121
83333.3332037054
83333.3332029364
83333.3332023754
83333.3332020481
83333.3332084134
83333.3332082336
83333.3332075563
83333.3332067648
83333.3332059889
83333.333205315
83333.3332048047
83333.3332044972
83333.3332043944
83333.3332102354
83333.3332101349
83333.3332095689
83333.3332088741
83333.3332081985
83333.3332076087
83333.3332071615
83333.3332068803
83333.3332067842
83333.3332068682
83333.333212139
83333.3332121289
83333.3332116225
83333.3332109501
83333.3332103348
83333.3332098125
83333.3332094201
83333.3332091763
83333.3332090943
83333.333209178
83333.3332094198
83333.3331880656
83333.3331911015
83333.3331899285
83333.3331938993
83333.3331928115
83333.3331910582
83333.3331964392
83333.3331954562
83333.333193826
83333.3331922081
83333.3331987384
83333.3331978955
83333.3331964036
83333.333194902
83333.3331935573
83333.333200826
83333.3332001479
83333.3331988289
83333.3331974526
83333.3331962267
83333.3331952287
83333.3332027347
83333.3332022299
83333.3332011073
83333.3331998873
83333.3331987736
83333.3331978617
83333.3331972153
83333.3332045035
83333.3332041671
83333.3332032484
83333.3332022088
83333.3332012306
83333.3332004051
83333.3331998063
83333.333199459
83333.3332061783
83333.3332059934
83333.3332052703
83333.3332044174
83333.3332035856
83333.3332028667
83333.3332023242
83333.3332020005
83333.3332018994
83333.3332078417
83333.3332077769
83333.3332072224
83333.3332065339
83333.3332058415
83333.3332052272
83333.3332047586
83333.3332044651
83333.3332043713
83333.3332044714
83333.3332096721
83333.3332096731
83333.3332092191
83333.3332086183
83333.3332080249
83333.3332075007
83333.3332070995
83333.3332068481
83333.3332067653
83333.3332068582
83333.3332071204
83333.3332116186
83333.3332116914
83333.3332112829
83333.3332106857
83333.3332101445
83333.3332096866
83333.3332093443
83333.3332091348
83333.3332090719
83333.3332091646
83333.3332094133
83333.3332098085
83333.3331846701
83333.3331879757
83333.3331867465
83333.3331910058
83333.3331898532
83333.3331880147
83333.3331937362
83333.3331926866
83333.3331909621
83333.3331892435
83333.3331961889
83333.3331952801
83333.333193689
83333.3331920881
83333.3331906466
83333.3331983954
83333.3331976596
83333.333196242
83333.3331947671
83333.3331934523
83333.3331923801
83333.3332003923
83333.3331998414
83333.3331986301
83333.3331973135
83333.3331961137
83333.3331951336
83333.3331944381
83333.3332022228
83333.3332018517
83333.3332008563
83333.3331997281
83333.333198671
83333.3331977828
83333.3331971387
83333.3331967667
83333.3332039316
83333.3332037259
83333.3332029415
83333.3332020116
83333.3332011108
83333.3332003365
83333.3331997556
83333.3331994116
83333.3331993092
83333.3332055692
83333.3332055084
83333.3332049185
83333.3332041778
83333.3332034353
83333.3332027781
83333.3332022767
83333.3332019676
83333.3332018741
83333.3332019912
83333.3332072231
83333.3332072714
83333.3332068437
83333.3332062612
83333.3332056595
83333.3332051161
83333.3332046962
83333.3332044333
83333.3332043507
83333.3332044587
83333.3332047498
83333.3332090849
83333.3332091824
83333.3332088396
83333.3332083297
83333.3332078203
83333.3332073674
83333.3332070209
83333.333206807
83333.3332067452
83333.3332068476
83333.3332071164
83333.3332075426
83333.3332111055
83333.3332112432
83333.3332109279
83333.3332104024
83333.3332099318
83333.3332095392
83333.3332092512
83333.3332090823
83333.3332090458
83333.3332091518
83333.3332094058
83333.3332098055
83333.3332103398
83333.3331809508
83333.3331845784
83333.333183306
83333.3331878901
83333.3331866746
83333.3331847597
83333.3331908548
83333.3331897357
83333.3331879215
83333.3331861034
83333.333193496
83333.3331925198
83333.3331908281
83333.3331891251
83333.3331875805
83333.3331958505
83333.3331950517
83333.3331935322
83333.3331919548
83333.3331905452
83333.333189394
83333.3331979582
83333.3331973563
83333.3331960494
83333.3331946317
83333.3331933406
83333.3331922867
83333.3331915382
83333.3331998674
83333.3331994577
83333.3331983806
83333.3331971574
83333.333196013
83333.3331950564
83333.3331943632
83333.3331939637
83333.3332016286
83333.3332013967
83333.333200545
83333.333199531
83333.3331985528
83333.3331977138
83333.3331970901
83333.3331967226
83333.3331966176
83333.3332032913
83333.3332032175
83333.3332025761
83333.333201767
83333.3332009606
83333.33320025
83333.3331997095
83333.3331993799
83333.3331992845
83333.3331994186
83333.333204909
83333.3332049689
83333.3332045186
83333.3332038931
83333.3332032486
83333.3332026667
83333.3332022168
83333.3332019368
83333.3332018532
83333.333201977
83333.3332022997
83333.3332065717
83333.33320673
83333.3332064291
83333.3332059518
83333.3332054436
83333.3332049781
83333.333204617
83333.3332043935
83333.3332043316
83333.3332044469
83333.3332047433
83333.3332052103
83333.3332085005
83333.3332086793
83333.3332084384
83333.3332080176
83333.33320759
83333.3332072102
83333.3332069234
83333.333206754
83333.3332067208
83333.3332068376
83333.333207112
83333.3332075423
83333.3332081173
83333.3332106272
83333.3332108004
83333.3332105617
83333.3332101101
83333.333209705
83333.3332093754
83333.3332091423
83333.3332090175
83333.3332090127
83333.3332091379
83333.3332094003
83333.3332098022
83333.333210339
83333.3332109977
83333.3331768504
83333.3331808565
83333.3331795597
83333.3331845058
83333.333183237
83333.3331812539
83333.333187757
83333.333186568
83333.3331846713
83333.3331827579
83333.3331906324
83333.3331895834
83333.3331877939
83333.3331859881
83333.3331843349
83333.3331931694
83333.3331923033
83333.3331906808
83333.3331889959
83333.3331874854
83333.3331862484
83333.333195416
83333.3331947577
83333.3331933494
83333.3331918263
83333.3331904363
83333.3331893043
83333.3331884994
83333.3331974253
83333.3331969728
83333.3331958075
83333.333194483
83333.333193244
83333.3331922128
83333.3331914669
83333.3331910392
83333.3331992545
83333.3331989934
83333.3331980684
83333.3331969643
83333.3331959007
83333.3331949909
83333.3331943183
83333.3331939246
83333.3331938171
83333.3332009605
83333.333200869
83333.3332001702
83333.3331992848
83333.3331984056
83333.3331976333
83333.3331970478
83333.333196694
83333.3331965952
83333.3331967479
83333.3332025948
83333.3332026491
83333.3332021574
83333.3332014738
83333.3332007723
83333.3332001414
83333.3331996542
83333.3331993526
83333.3331992658
83333.3331994053
83333.3331997619
83333.3332042129
83333.333204388
83333.333204078
83333.3332035683
83333.3332030252
83333.3332025271
83333.33320214
83333.3332019005
83333.3332018364
83333.3332019653
83333.333202292
83333.3332028043
83333.3332059131
83333.333206172
83333.3332059868
83333.3332056146
83333.3332051988
83333.3332048139
83333.3332045178
83333.333204342
83333.3332043097
83333.3332044385
83333.333204738
83333.3332052078
83333.3332058345
83333.333207948
83333.3332081773
83333.3332080286
83333.333207692
83333.3332073424
83333.3332070339
83333.3332068084
83333.3332066874
83333.3332066889
83333.3332068265
83333.3332071098
83333.3332075423
83333.3332081192
83333.3332088275
83333.3332102211
83333.3332103902
83333.333210207
83333.3332098183
83333.3332094733
83333.333209202
83333.333209022
83333.3332089418
83333.3332089715
83333.3332091204
83333.3332093958
83333.333209802
83333.3332103386
83333.3332109983
83333.3332117671
83333.3331723198
83333.3331767494
83333.3331754595
83333.3331808
83333.3331794954
83333.3331774551
83333.3331843974
83333.3331831449
83333.3331811718
83333.3331791718
83333.3331875625
83333.3331864355
83333.3331845536
83333.3331826472
83333.3331808847
83333.3331903271
83333.3331893875
83333.3331876612
83333.3331858655
83333.3331842475
83333.3331829173
83333.3331927465
83333.3331920251
83333.3331905127
83333.3331888785
83333.3331873816
83333.3331861661
83333.3331852969
83333.3331948819
83333.3331943812
83333.3331931206
83333.3331916896
83333.3331903488
83333.3331892357
83333.3331884332
83333.3331879765
83333.3331967985
83333.3331965042
83333.3331955001
83333.3331942993
83333.3331931423
83333.333192155
83333.3331914276
83333.3331910048
83333.333190896
83333.3331985617
83333.3331984502
83333.3331976889
83333.3331967209
83333.3331957607
83333.3331949193
83333.3331942829
83333.333193901
83333.3331937981
83333.3331939722
83333.3332002307
83333.3332002752
83333.3331997367
83333.3331989868
83333.3331982192
83333.3331975309
83333.333197
83333.3331966727
83333.3331965808
83333.333196737
83333.3331971314
83333.3332018593
83333.3332020349
83333.3332016935
83333.3332011366
83333.3332005447
83333.3332000033
83333.3331995825
83333.3331993224
83333.3331992537
83333.3331993963
83333.3331997553
83333.3332003168
83333.3332035026
83333.3332037863
83333.333203605
83333.3332032116
83333.3332027696
83333.3332023592
83333.333202042
83333.3332018531
83333.333201819
83333.3332019598
83333.3332022871
83333.3332028006
83333.3332034847
83333.333205281
83333.3332056127
83333.333205534
83333.3332052593
83333.3332049331
83333.333204628
83333.3332043993
83333.3332042762
83333.3332042809
83333.3332044309
83333.3332047378
83333.3332052071
83333.3332058343
83333.3332066039
83333.3332074612
83333.3332076983
83333.3332076259
83333.3332073643
83333.3332070867
83333.3332068458
83333.33320668
83333.3332066087
83333.333206648
83333.3332068115
83333.3332071089
83333.3332075457
83333.3332081222
83333.3332088308
83333.3332096567
83333.3332099239
83333.3332100307
83333.333209879
83333.3332095403
83333.3332092457
83333.3332090271
83333.333208896
83333.3332088586
83333.3332089231
83333.3332090978
83333.3332093901
83333.3332098043
83333.3332103419
83333.3332109996
83333.3332117683
83333.3332126329
83333.3331674045
83333.3331722115
83333.3331709558
83333.3331767105
83333.3331753961
83333.3331733251
83333.3331807243
83333.333179422
83333.333177383
83333.333175304
83333.3331842441
83333.3331830406
83333.333181068
83333.3331790673
83333.3331771917
83333.3331872917
83333.33318627
83333.3331844411
83333.3331825346
83333.3331807996
83333.3331793702
83333.3331899261
83333.3331891347
83333.3331875159
83333.3331857639
83333.3331841528
83333.333182846
83333.3331819086
83333.3331922203
83333.3331916649
83333.3331903027
83333.3331887599
83333.3331873077
83333.3331861053
83333.3331852424
83333.3331847532
83333.333194248
83333.3331939147
83333.3331928255
83333.3331915214
83333.3331902626
83333.33318919
83333.333188402
83333.3331879473
83333.3331878386
83333.3331960846
83333.3331959505
83333.3331951215
83333.333194064
83333.3331930149
83333.3331920965
83333.3331914029
83333.3331909887
83333.3331908816
83333.3331910802
83333.3331978008
83333.3331978345
83333.3331972451
83333.3331964225
83333.3331955806
83333.3331948272
83333.3331942462
83333.3331938887
83333.3331937902
83333.3331939648
83333.3331944017
83333.333199457
83333.3331996307
83333.333199252
83333.3331986408
83333.3331979911
83333.3331973981
83333.3331969369
83333.3331966516
83333.3331965762
83333.3331967329
83333.3331971273
83333.3331977436
83333.3332011054
83333.3332013955
83333.3332011952
83333.3332007636
83333.3332002818
83333.3331998349
83333.333199489
83333.333199282
83333.3331992436
83333.3331993963
83333.3331997533
83333.3332003143
83333.3332010613
83333.3332028146
83333.3332031825
83333.3332031181
83333.333202833
83333.3332024899
83333.3332021669
83333.3332019231
83333.333201791
83333.3332017958
83333.3332019576
83333.3332022902
83333.3332028004
83333.3332034834
83333.3332043211
83333.3332047086
83333.3332050712
83333.3332050864
83333.333204899
83333.3332046561
83333.3332044275
83333.3332042654
83333.3332041968
83333.3332042428
83333.3332044201
83333.3332047411
83333.3332052128
83333.3332058366
83333.333206605
83333.3332075005
83333.333207078
83333.3332072624
83333.3332072421
83333.3332070457
83333.3332068324
83333.3332066537
83333.3332065441
83333.3332065209
83333.333206599
83333.333206791
83333.3332071067
83333.3332075521
83333.3332081293
83333.3332088355
83333.3332096606
83333.3332105886
83333.3332097465
83333.3332097459
83333.333209589
83333.3332092843
83333.3332090311
83333.3332088581
83333.3332087708
83333.3332087725
83333.3332088701
83333.3332090709
83333.3332093819
83333.3332098072
83333.3332103486
83333.3332110049
83333.3332117705
83333.3332126343
83333.3332135807
83333.3331620836
83333.3331673327
83333.3331660869
83333.3331721966
83333.3331708906
83333.3331688178
83333.333176676
83333.3331753486
83333.333173264
83333.333171113
83333.3331806281
83333.3331793563
83333.3331772986
83333.333175208
83333.3331732138
83333.3331840247
83333.3331829162
83333.333180984
83333.333178968
83333.3331771101
83333.3331755775
83333.3331869274
83333.3331860555
83333.3331843285
83333.3331824539
83333.3331807204
83333.3331793137
83333.3331783018
83333.3331894189
83333.333188801
83333.3331873338
83333.3331856712
83333.3331840974
83333.3331827968
83333.3331818653
83333.3331813424
83333.3331915879
83333.33319121
83333.3331900282
83333.3331886143
83333.3331872432
83333.3331860763
83333.3331852211
83333.3331847311
83333.3331846237
83333.333193519
83333.3331933575
83333.3331924548
83333.3331913014
83333.3331901542
83333.3331891501
83333.333188392
83333.3331879415
83333.3331878299
83333.333188057
83333.3331952951
83333.3331953173
83333.3331946724
83333.3331937709
83333.3331928469
83333.3331920201
83333.3331913818
83333.3331909892
83333.3331908823
83333.3331910775
83333.3331915627
83333.3331969902
83333.3331971621
83333.3331967433
83333.3331960718
83333.3331953564
83333.3331947044
83333.3331941962
83333.3331938807
83333.333193796
83333.3331939675
83333.3331944012
83333.3331950794
83333.3331986616
83333.3331989564
83333.33319873
83333.3331982543
83333.3331977243
83333.333197233
83333.3331968518
83333.333196622
83333.3331965767
83333.3331967411
83333.3331971303
83333.3331977436
83333.3331985608
83333.3332003715
83333.3332007513
83333.3332006797
83333.3332003654
83333.3331999912
83333.3331996396
83333.333199373
83333.3331992268
83333.3331992291
83333.3331994022
83333.3331997623
83333.333200317
83333.3332010611
83333.3332019736
83333.333202186
83333.3332025977
83333.3332026353
83333.3332024465
83333.3332021958
83333.3332019574
83333.3332017867
83333.3332017141
83333.3332017632
83333.3332019536
83333.3332022994
83333.3332028095
83333.3332034863
83333.3332043212
83333.3332052939
83333.3332042345
83333.3332045713
83333.3332046551
83333.3332045454
83333.333204378
83333.3332042207
83333.333204122
83333.3332041071
83333.3332041957
83333.333204404
83333.3332047441
83333.3332052237
83333.3332058461
83333.3332066091
83333.3332075023
83333.3332085068
83333.3332068135
83333.3332068948
83333.3332068851
83333.3332067433
83333.3332065875
83333.3332064654
83333.3332064071
83333.3332064289
83333.3332065444
83333.3332067655
83333.3332071017
83333.3332075591
83333.3332081404
83333.3332088446
83333.3332096661
83333.3332105927
83333.3332116077
83333.3332096208
83333.3332095613
83333.333209356
83333.333209058
83333.3332088349
83333.3332087009
83333.3332086516
83333.3332086882
83333.3332088158
83333.3332090414
83333.333209371
83333.333209809
83333.333210357
83333.333211014
83333.3332117765
83333.3332126366
83333.333213582
83333.3332145967
83333.3331620934
83333.3331608723
83333.3331673743
83333.3331660533
83333.3331639563
83333.3331722111
83333.3331708713
83333.3331687681
83333.3331665571
83333.3331766627
83333.3331753344
83333.3331732049
83333.3331710282
83333.3331689121
83333.3331804806
83333.3331792896
83333.3331772516
83333.3331751266
83333.3331731429
83333.3331714983
83333.3331837154
83333.3331827538
83333.3331809163
83333.3331789147
83333.3331770509
83333.3331755316
83333.3331744429
83333.3331864551
83333.3331857632
83333.333184187
83333.3331823956
83333.3331806895
83333.3331792805
83333.3331782722
83333.3331777128
83333.3331888001
83333.3331883698
83333.3331870884
83333.3331855579
83333.333184062
83333.3331827898
83333.3331818592
83333.3331813298
83333.3331812251
83333.3331908517
83333.3331906585
83333.3331896747
83333.3331884182
83333.3331871617
83333.3331860615
83333.3331852307
83333.3331847388
83333.3331846224
83333.3331848824
83333.3331927053
83333.3331927135
83333.3331920075
83333.3331910206
83333.3331900058
83333.3331890961
83333.3331883924
83333.333187959
83333.3331878419
83333.3331880601
83333.3331886005
83333.3331944488
83333.3331946195
83333.3331941582
83333.3331934208
83333.3331926325
83333.3331919132
83333.3331913505
83333.3331909992
83333.3331909024
83333.3331910893
83333.3331915669
83333.333192315
83333.3331961536
83333.3331964538
83333.3331961995
83333.3331956755
83333.3331950901
83333.3331945474
83333.3331941242
83333.3331938666
83333.3331938113
83333.333193987
83333.3331944112
83333.3331950828
83333.333195979
83333.3331978833
83333.3331982732
83333.3331981883
83333.3331978391
83333.333197426
83333.3331970382
83333.3331967426
83333.3331965777
83333.3331965747
83333.3331967586
83333.3331971478
83333.3331977514
83333.333198563
83333.3331995589
83333.333199699
83333.3332001278
83333.3332001655
83333.3331999563
83333.333199683
83333.3331994241
83333.3331992374
83333.3331991557
83333.3331992054
83333.3331994082
83333.3331997802
83333.3332003321
83333.3332010668
83333.3332019746
83333.3332030322
83333.3332016586
83333.333202057
83333.3332021697
83333.3332020659
83333.3332018983
83333.3332017391
83333.3332016386
83333.3332016252
83333.3332017209
83333.3332019446
83333.3332023101
83333.3332028267
83333.3332034992
83333.3332043257
83333.3332052945
83333.3332063837
83333.3332038809
83333.3332041438
83333.3332042467
83333.3332042059
83333.3332041069
83333.3332040156
83333.3332039755
83333.3332040114
83333.3332041418
83333.3332043823
83333.3332047446
83333.3332052366
83333.3332058619
83333.3332066206
83333.3332075071
83333.3332085086
83333.3332096056
83333.3332066023
83333.3332066195
83333.3332065671
83333.3332064616
83333.3332063555
83333.3332062857
83333.3332062742
83333.333206337
83333.3332064873
83333.3332067365
83333.3332070939
83333.3332075652
83333.3332081534
83333.3332088582
83333.3332096758
83333.3332105981
83333.3332116116
83333.3332126991
83333.3332095518
83333.3332094429
83333.3332092012
83333.3332088787
83333.3332086628
83333.3332085581
83333.3332085415
83333.3332086088
83333.3332087634
83333.3332090115
83333.3332093588
83333.3332098095
83333.3332103654
83333.3332110254
83333.3332117863
83333.3332126422
83333.3332135838
83333.3332145977
83333.3332156677
83333.3331622516
83333.3331609216
83333.3331587138
83333.3331674407
83333.3331660759
83333.3331639333
83333.3331616191
83333.3331723015
83333.3331709112
83333.3331687389
83333.3331664857
83333.3331642408
83333.3331766122
83333.3331753451
83333.3331732041
83333.33317097
83333.3331688534
83333.3331670833
83333.3331802495
83333.3331791975
83333.3331772431
83333.3331751092
83333.3331731053
83333.3331714618
83333.3331702882
83333.333183297
83333.3331825199
83333.3331808305
83333.3331789014
83333.3331770512
83333.3331755212
83333.3331744264
83333.3331738279
83333.3331858645
83333.3331853709
83333.333183984
83333.3331823264
83333.3331806922
83333.3331793016
83333.3331782857
83333.3331777118
83333.3331776108
83333.3331880683
83333.3331878356
83333.3331867627
83333.3331853962
83333.3331840173
83333.3331828081
83333.3331818942
83333.3331813547
83333.3331812328
83333.333181531
83333.3331900205
83333.3331900109
83333.3331892385
83333.3331881587
83333.333187042
83333.3331860385
83333.3331852595
83333.3331847783
83333.3331846487
83333.3331848929
83333.3331854963
83333.3331918252
83333.3331919952
83333.3331914876
83333.3331906779
83333.3331898088
83333.3331890128
83333.3331883871
83333.3331879929
83333.3331878804
83333.3331880836
83333.3331886105
83333.3331894381
83333.3331935711
83333.3331938782
83333.3331935956
83333.3331930193
83333.3331923722
83333.3331917705
83333.3331912982
83333.3331910066
83333.3331909373
83333.3331911237
83333.333191586
83333.333192323
83333.3331933084
83333.333195329
83333.333195732
83333.3331956316
83333.3331952456
83333.333194788
83333.3331943579
83333.333194027
83333.3331938385
83333.3331938267
83333.3331940201
83333.3331944402
83333.3331950974
83333.3331959845
83333.3331970742
83333.3331971681
83333.3331976116
83333.3331976438
83333.3331974093
83333.3331971065
83333.33319682
83333.3331966117
83333.3331965167
83333.3331965642
83333.3331967783
83333.3331971777
83333.3331977749
83333.3331985735
83333.3331995622
83333.3332007143
83333.3331991341
83333.3331995538
83333.3331996682
83333.3331995512
83333.3331993687
83333.3331991969
83333.3331990876
83333.3331990709
83333.3331991714
83333.3331994096
83333.3331998015
83333.3332003582
83333.3332010855
83333.3332019818
83333.3332030336
83333.3332042159
83333.3332012603
83333.3332015955
83333.3332017288
83333.3332017
83333.3332016065
83333.3332015204
83333.3332014855
83333.3332015285
83333.3332016707
83333.3332019295
83333.3332023188
83333.3332028477
83333.3332035213
83333.3332043404
83333.3332052995
83333.3332063843
83333.3332075719
83333.3332035979
83333.3332038045
83333.3332038744
83333.3332038823
83333.333203846
83333.3332038167
83333.3332038313
83333.3332039143
83333.3332040843
83333.3332043564
83333.333204742
83333.3332052489
83333.3332058811
83333.3332066388
83333.333207519
83333.3332085133
83333.3332096073
83333.3332107809
83333.3332064711
83333.3332064284
83333.3332063066
83333.3332062066
83333.333206137
83333.3332061147
83333.3332061473
83333.3332062482
83333.3332064307
83333.3332067062
83333.333207084
83333.3332075698
83333.3332081667
83333.3332088744
83333.3332096899
83333.3332106073
83333.3332116163
83333.3332127024
83333.3332138484
83333.3332093417
83333.3332094135
83333.333209114
83333.3332087711
83333.3332085281
83333.3332084309
83333.3332084399
83333.3332085346
83333.3332087139
83333.3332089826
83333.3332093464
83333.3332098093
83333.3332103732
83333.3332110373
83333.3332117985
83333.3332126513
83333.3332135882
83333.3332145985
83333.3332156682
83333.3332167812
83333.3331624571
83333.333161038
83333.3331587432
83333.333152792
83333.3331562302
83333.3331675438
83333.3331661469
83333.3331639412
83333.3331615629
83333.3331591544
83333.3331723701
83333.3331710351
83333.3331687938
83333.333166456
83333.3331641957
83333.3331622817
83333.3331764867
83333.3331753472
83333.3331732708
83333.3331709983
83333.3331688417
83333.333167061
83333.3331657869
83333.3331799097
83333.3331790419
83333.3331772318
83333.3331751543
83333.3331731451
83333.3331714787
83333.3331702858
83333.3331696418
83333.3331827543
83333.3331821851
83333.3331806874
83333.3331788907
83333.3331771027
83333.3331755781
83333.3331744642
83333.3331738397
83333.3331737427
83333.3331851499
83333.3331848688
83333.3331836989
83333.3331822127
83333.3331806963
83333.3331793624
83333.3331783528
83333.333177758
83333.3331776294
83333.3331779713
83333.333187229
83333.3331871959
83333.3331863484
83333.3331851695
83333.3331839376
83333.3331828264
83333.3331819598
83333.3331814224
83333.333181277
83333.3331815504
83333.3331822259
83333.3331891111
83333.3331892778
83333.3331887215
83333.3331878324
83333.3331868722
83333.3331859886
83333.3331852889
83333.3331848435
83333.3331847107
83333.3331849309
83333.3331855135
83333.3331864318
83333.3331909056
83333.3331912232
83333.333190911
83333.3331902775
83333.3331895619
83333.3331888925
83333.3331883624
83333.3331880293
83333.3331879412
83333.3331881372
83333.3331886413
83333.3331894518
83333.3331905383
83333.3331926971
83333.3331931177
83333.3331930018
83333.333192578
83333.333192071
83333.3331915922
83333.3331912196
83333.3331910014
83333.3331909764
83333.3331911776
83333.3331916302
83333.3331923466
83333.3331933182
83333.3331945136
83333.3331945683
83333.3331950294
83333.3331950554
83333.3331947962
83333.3331944599
83333.333194141
83333.3331939057
83333.3331937929
83333.3331938348
83333.3331940587
83333.3331944862
83333.3331951325
83333.3331960016
83333.3331970805
83333.3331983387
83333.3331965682
83333.3331970028
83333.3331971142
83333.33319698
83333.3331967772
83333.3331965868
83333.3331964638
83333.3331964401
83333.3331965428
83333.3331967945
83333.3331972135
83333.3331978131
83333.3331986004
83333.3331995738
83333.3332007177
83333.3332020035
83333.3331987103
83333.3331990646
83333.3331991991
83333.3331991604
83333.3331990581
83333.3331989668
83333.3331989302
83333.3331989763
83333.333199128
83333.3331994047
83333.3331998217
83333.3332003901
83333.3332011164
83333.333202002
83333.333203041
83333.3332042171
83333.3332055041
83333.3332009629
83333.3332012315
83333.3332013299
83333.3332013503
83333.3332013242
83333.3332013064
83333.3332013325
83333.3332014286
83333.3332016151
83333.3332019093
83333.3332023241
83333.3332028689
83333.3332035486
83333.3332043647
83333.3332053143
83333.3332063889
83333.3332075721
83333.3332088406
83333.3332034729
83333.3332035295
83333.3332035482
83333.333203578
83333.3332035927
83333.3332036231
83333.3332036904
83333.3332038182
83333.3332040255
83333.3332043278
83333.3332047368
83333.3332052598
83333.3332059011
83333.3332066612
83333.3332075376
83333.3332085243
83333.333209611
83333.3332107819
83333.3332120168
83333.333206366
83333.3332063481