/*--------------------------------*- C++ -*----------------------------------*\
  =========                 |
  \\      /  F ield         | OpenFOAM: The Open Source CFD Toolbox
   \\    /   O peration     | Website:  https://openfoam.org
    \\  /    A nd           | Version:  12
     \\/     M anipulation  |
\*---------------------------------------------------------------------------*/
/*   Windows 32 and 64 bit porting by blueCAPE: http://www.bluecape.com.pt   *\
|  Based on Windows porting (2.0.x v4) by Symscape: http://www.symscape.com   |
\*---------------------------------------------------------------------------*/
FoamFile
{
    format      ascii;
    class       surfaceScalarField;
    location    "300";
    object      phi;
}
// * * * * * * * * * * * * * * * * * * * * * * * * * * * * * * * * * * * * * //

dimensions      [0 3 -1 0 0 0 0];

internalField   nonuniform List<scalar> 
29323
(
3.31589238168984e-06
3.49796552156427e-11
-8.42340915878335e-08
3.4082784053514e-06
-1.35376486573506e-10
-9.22507126539097e-08
3.83504719393876e-06
3.87277843682639e-09
-9.05875436746324e-08
1.7330028089755e-06
9.92083946507919e-09
-1.46573860002731e-07
3.50795471072607e-06
1.31387251971503e-09
-1.00988669564857e-07
3.93413928929555e-06
2.72267223753876e-09
-1.01953526878111e-07
1.78903553252807e-06
1.03841856662415e-08
-1.5866730704939e-07
4.23288823293253e-06
1.44912792291447e-08
-1.01316396524618e-07
1.99800181718327e-06
2.61536839035588e-08
-1.641578125258e-07
1.63536345694158e-06
8.04597373659869e-09
-2.05487664416293e-07
3.61739708671706e-06
1.09936139414395e-10
-1.09554640845388e-07
4.04527796557238e-06
1.78161959954137e-09
-1.1160832946549e-07
1.84895540294973e-06
1.05460850364686e-08
-1.71454984245911e-07
4.33982575232054e-06
1.16207708556298e-08
-1.15835695382222e-07
2.05893690396387e-06
2.60295015871029e-08
-1.78536705653665e-07
1.68916340315889e-06
7.23082981237734e-09
-2.19697981553054e-07
4.70688632049428e-06
2.73321743244022e-08
-1.1152708296122e-07
2.27284010373447e-06
4.91832771731489e-08
-1.87793269046618e-07
1.88741197050407e-06
2.05193939710146e-08
-2.34036715436087e-07
1.6628436711463e-06
6.62327177050119e-09
-2.62980262783888e-07
3.73883267198822e-06
-3.19468926170858e-09
-1.1824012264069e-07
4.16738480433055e-06
-2.61517092732391e-09
-1.19374906947449e-07
1.91467915086494e-06
8.89792071572221e-09
-1.84174727618228e-07
4.46102660373918e-06
7.17865964406063e-09
-1.26604961630539e-07
2.1255753292678e-06
2.49802657834383e-08
-1.92680138615823e-07
1.74662522687753e-06
6.31189362311071e-09
-2.35228699539807e-07
4.8242866170829e-06
2.2757799760491e-08
-1.28538519776594e-07
2.34011289103631e-06
4.80109826095428e-08
-2.05087344994848e-07
1.94757136252599e-06
1.87354406517967e-08
-2.50201179020731e-07
1.71703810309043e-06
5.38735086679035e-09
-2.79279553149489e-07
5.09956713437981e-06
4.02597442687783e-08
-1.1774148567958e-07
2.53666764507992e-06
7.58996181978606e-08
-2.08259417281137e-07
2.18126164647336e-06
3.84303694888059e-08
-2.71375416912038e-07
1.89713694214031e-06
1.57540695185468e-08
-3.00551153365587e-07
1.69672640697013e-06
4.5587322164278e-09
-3.18130507567014e-07
3.87409422289252e-06
-7.74533393501229e-09
-1.27515333599967e-07
4.30209517859923e-06
-9.97484257883021e-09
-1.27926764534742e-07
1.98773065859505e-06
6.20710536273743e-09
-1.97499467508633e-07
4.59374784094693e-06
-8.68927680887957e-10
-1.34470298459092e-07
2.19966042070281e-06
2.15554077027468e-08
-2.06118255285703e-07
1.80947143065091e-06
4.46193443660106e-09
-2.51483041876481e-07
4.9570310078216e-06
1.49264741474814e-08
-1.40497091427103e-07
2.41434026161595e-06
4.53484022949778e-08
-2.21199682674888e-07
2.01238051610666e-06
1.63218209636764e-08
-2.67499098184724e-07
1.77514942476336e-06
4.0686465155404e-09
-2.974087567785e-07
5.22453241931055e-06
3.43621507928675e-08
-1.36560625032297e-07
2.61031823667392e-06
7.38625340626552e-08
-2.28040696792728e-07
2.24959467604e-06
3.55474269693797e-08
-2.9023212074619e-07
1.95788904877702e-06
1.329243557796e-08
-3.18857700039955e-07
1.75090695065229e-06
3.20293870715702e-09
-3.36662662000914e-07
5.35753132285329e-06
5.26297986702133e-08
-1.19864737141923e-07
2.70820077964563e-06
1.02884859839379e-07
-2.19197958248549e-07
2.43001203252567e-06
5.95876171210158e-08
-3.02221020411296e-07
2.1892306959914e-06
2.79952983542589e-08
-3.4944084969302e-07
1.9077958464073e-06
1.06495805931702e-08
-3.63055985496305e-07
1.71468370080655e-06
2.53244823809154e-09
-3.70277983497931e-07
4.02511723117552e-06
-1.34232845602493e-08
-1.37594235599166e-07
4.4515116123203e-06
-1.97353776897876e-08
-1.37423511670908e-07
2.06901720993377e-06
2.81597722345463e-09
-2.11617088449748e-07
4.73966933202981e-06
-1.24044680753675e-08
-1.43499609998361e-07
2.28201009502057e-06
1.63197793577062e-08
-2.20389533575839e-07
1.87882161404536e-06
1.83154902193673e-09
-2.68680946880593e-07
5.10188526653077e-06
3.0115033121945e-09
-1.48730778430026e-07
2.49735723364237e-06
4.00915832677496e-08
-2.36025286455395e-07
2.08370506980328e-06
1.2438220561684e-08
-2.85419310408987e-07
1.83839290121758e-06
2.17113954316532e-09
-3.16897569954336e-07
5.36556472094193e-06
2.3630061121568e-08
-1.4973790675973e-07
2.69148780344942e-06
6.96827396311411e-08
-2.45998215876833e-07
2.32332553282199e-06
3.14808977346026e-08
-3.10088957975962e-07
2.02323463363969e-06
1.03320500119535e-08
-3.39108291475957e-07
1.80916189543253e-06
1.67960591483915e-09
-3.5734322931969e-07
5.4858261397628e-06
4.59602477824167e-08
-1.39892680936523e-07
2.78582976516885e-06
1.003386654345e-07
-2.40663114638236e-07
2.50523528733706e-06
5.56582867131431e-08
-3.23375414271348e-07
2.25860235616851e-06
2.42269085401021e-08
-3.70538204350264e-07
1.96802624588135e-06
7.89904755611708e-09
-3.83784249894586e-07
1.76796497877794e-06
1.11060818626193e-09
-3.91054595147911e-07
5.50476272094461e-06
6.45934450330652e-08
-1.19336252666426e-07
2.79019143503426e-06
1.28403969822177e-07
-2.21689524027037e-07
2.56612759935271e-06
8.10750504551951e-08
-3.17388259173666e-07
2.42602287813052e-06
4.19459442822051e-08
-3.88922708208938e-07
2.18344207695784e-06
1.79246540559364e-08
-4.20993408724571e-07
1.91301265036595e-06
5.46987013486055e-09
-4.20992555802034e-07
1.71922650663157e-06
5.25631764391009e-10
-4.18896965815004e-07
4.19401390360758e-06
-2.03712018299942e-08
-1.4852729214413e-07
4.61797430357429e-06
-3.19620805991798e-08
-1.47919851448441e-07
2.1594328949461e-06
-1.29620540290148e-09
-2.2671354634241e-07
4.90108816327836e-06
-2.73519312745557e-08
-1.53798028082693e-07
2.37345625217589e-06
9.52795792858089e-09
-2.35580567130213e-07
1.95557711705123e-06
-1.44886698545625e-09
-2.86923495376042e-07
5.2609208807768e-06
-1.29607449722758e-08
-1.58476521581224e-07
2.589551669199e-06
3.24409838731802e-08
-2.5181288663166e-07
2.16241682997374e-06
7.12568065012057e-09
-3.04394858803704e-07
1.90774016931569e-06
-3.2604356120843e-10
-3.37701873391846e-07
5.51885119558801e-06
8.16993486147936e-09
-1.58448806421793e-07
2.78239625303139e-06
6.26104727720893e-08
-2.62159957710182e-07
2.40466980743301e-06
2.55427989571552e-08
-3.30475085589286e-07
2.09448534013709e-06
6.33694774980544e-09
-3.60835532410776e-07
1.87234772763709e-06
-2.54309580726096e-10
-3.79829326815012e-07
5.63044948981671e-06
3.30298988171941e-08
-1.54033024699418e-07
2.87079966950945e-06
9.49660167322278e-08
-2.59991713658056e-07
2.58611116156608e-06
5.00291957506626e-08
-3.45423304088488e-07
2.33319315537896e-06
1.94711891887586e-08
-3.93818932276266e-07
2.03284100724184e-06
4.68244926233471e-09
-4.06925604663909e-07
1.8253050912793e-06
-4.72135103350673e-10
-4.14211015217515e-07
5.63302404341468e-06
5.78975090496121e-08
-1.40193350251994e-07
2.86917482388325e-06
1.25631733559217e-07
-2.44172476316593e-07
2.64476267509533e-06
7.62526867730917e-08
-3.39893510435503e-07
2.50232575347578e-06
3.68339951767357e-08
-4.1228534950779e-07
2.25184914343172e-06
1.37141642055279e-08
-4.44759986692667e-07
1.9719515604229e-06
2.56413367856274e-09
-4.4417643395435e-07
1.77092224430158e-06
-9.19144750447161e-10
-4.41831066057674e-07
5.59346680899874e-06
7.59612000143151e-08
-1.17018758881376e-07
2.81931544829612e-06
1.51705176228781e-07
-2.19469750866064e-07
2.61107531338074e-06
1.01101374649158e-07
-3.19778583607309e-07
2.54457551533401e-06
5.59904510234185e-08
-4.07671590942953e-07
2.40377138789325e-06
2.56208141741969e-08
-4.67234526463999e-07
2.17808854588233e-06
8.54245679788963e-09
-4.86471801948632e-07
1.91623424453665e-06
5.98380020535819e-10
-4.74401946308837e-07
1.71864128549106e-06
-1.40169611679771e-09
-4.63792006208628e-07
4.38322146526392e-06
-2.88324397783188e-08
-1.60371750596372e-07
4.80402515296198e-06
-4.70205392878189e-08
-1.59395070352767e-07
2.2599133075313e-06
-6.24666678581338e-09
-2.4275808844216e-07
5.08056343567399e-06
-4.61391894647995e-08
-1.65294378373092e-07
2.47500259515283e-06
1.1438773475295e-09
-2.51904213834274e-07
2.04051413130906e-06
-5.41492218152023e-09
-3.06235454142432e-07
5.43649662382468e-06
-3.32733306123809e-08
-1.69645499113112e-07
2.69172112939146e-06
2.24192960320864e-08
-2.68856382426831e-07
2.24943420683909e-06
4.67535458061512e-10
-3.24514520244533e-07
1.98404081946132e-06
-3.45125750654123e-09
-3.59772911390061e-07
5.68661438997399e-06
-1.19433243650936e-08
-1.6879301786691e-07
2.8831662713312e-06
5.26143906381053e-08
-2.79420687788468e-07
2.49442478987031e-06
1.76205610724153e-08
-3.5206189497944e-07
2.1726030258973e-06
1.16855138337e-09
-3.84006903924027e-07
1.94130469050982e-06
-2.69281528526841e-09
-4.03966052343109e-07
5.7870241905768e-06
1.46891568825747e-08
-1.63096356607279e-07
2.96577972803685e-06
8.62697401571465e-08
-2.77087609345565e-07
2.67528615695859e-06
4.20889626783675e-08
-3.67880637423596e-07
2.41454879255306e-06
1.32414086443152e-08
-4.18735307029563e-07
2.10318286146522e-06
6.39363896239553e-10
-4.32070935416581e-07
1.88736455231309e-06
-2.40800143925702e-09
-4.39480682728642e-07
5.77751267310799e-06
4.36789301069817e-08
-1.55132833044827e-07
2.9551657124427e-06
1.19335109039442e-07
-2.64390209124473e-07
2.72884061872771e-06
6.92420795033816e-08
-3.63283222737456e-07
2.58405885246675e-06
3.02444232209668e-08
-4.37929761678995e-07
2.32542526225235e-06
8.57770823874788e-09
-4.71289945185208e-07
2.03540090719894e-06
-7.84980876444423e-10
-4.70061771220123e-07
1.82656361952291e-06
-2.53223299678468e-09
-4.6732012769649e-07
5.71970859108656e-06
7.00950640988663e-08
-1.38437393209689e-07
2.89810047210113e-06
1.49141592806387e-07
-2.42489782406959e-07
2.69037488204776e-06
9.56005290375468e-08
-3.42820131865492e-07
2.62409055200701e-06
4.96272203390479e-08
-4.3219969675765e-07
2.47861572707351e-06
1.98626091167041e-08
-4.9327838318717e-07
2.24478110389683e-06
4.04194987468174e-09
-5.12930421372161e-07
1.97346755215112e-06
-2.39536296128746e-09
-4.99933536958934e-07
1.76841065095948e-06
-2.85758534476586e-09
-4.88742759889384e-07
5.66545032799272e-06
8.59534493509979e-08
-1.13276387377076e-07
2.82568120582576e-06
1.72337500341228e-07
-2.14624495289999e-07
2.61056542169211e-06
1.18993057859615e-07
-3.15624230853285e-07
2.57420335247063e-06
6.90726343493587e-08
-4.10063711321152e-07
2.51037265762892e-06
3.32595418516449e-08
-4.8901203129072e-07
2.39030181578293e-06
1.1482310143706e-08
-5.38501691621422e-07
2.18095340812726e-06
2.77765472772169e-10
-5.46671343051145e-07
1.91918156520342e-06
-3.72729238971057e-09
-5.23565440309655e-07
1.71878778244124e-06
-3.1887982893539e-09
-5.04996640025759e-07
4.59544892638434e-06
-3.90549063870801e-08
-1.73168805763458e-07
5.01244420915422e-06
-6.53965060260936e-08
-1.71845228525188e-07
2.37144208588091e-06
-1.21916753450603e-08
-2.59706608539624e-07
5.28089371695405e-06
-6.94110990998358e-08
-1.77940039856367e-07
2.58770954071126e-06
-9.07526880099879e-09
-2.69269866517206e-07
2.13445397670946e-06
-1.01609048708886e-08
-3.26537115124566e-07
5.63124522573057e-06
-5.86963116966838e-08
-1.8219898730993e-07
2.80491606697748e-06
9.80743197356328e-09
-2.87149484407262e-07
2.34558880484718e-06
-7.68420897654221e-09
-3.45788345817586e-07
2.06807610665806e-06
-7.23951077786703e-09
-3.83031112177755e-07
5.87129181251142e-06
-3.73134406219598e-08
-1.80646288273686e-07
2.99454953132411e-06
3.94825095986528e-08
-2.98089058633956e-07
2.59345499061021e-06
7.56357609764026e-09
-3.7498241880604e-07
2.25846347222436e-06
-5.25651255774267e-09
-4.08569087843596e-07
2.01682217676781e-06
-5.67775229475171e-09
-4.29612657429679e-07
5.95778215539942e-06
-8.92250700558189e-09
-1.73778166477617e-07
3.07080110778281e-06
7.41224415907716e-08
-2.95323676242019e-07
2.77350513794667e-06
3.15865513417032e-08
-3.91605723149109e-07
2.5036593501666e-06
5.2616155102603e-09
-4.4526474256421e-07
2.17992255731306e-06
-4.41093283704961e-09
-4.59028092195837e-07
1.95487015141981e-06
-4.79824902731296e-09
-4.6667316716091e-07
5.93332392529786e-06
2.34004192397262e-08
-1.64526618814257e-07
3.05104861360361e-06
1.09283040982375e-07
-2.81992113359428e-07
2.82132012932486e-06
5.94724428093393e-08
-3.86950048125623e-07
2.67302843524423e-06
2.17142447957437e-08
-4.65323207001494e-07
2.40522437330071e-06
2.16923019458235e-09
-5.00064338105284e-07
2.10408847979083e-06
-4.8564665061872e-09
-4.98309879843199e-07
1.88670028985572e-06
-4.47096702733829e-09
-4.95146355050266e-07
5.8619596208949e-06
5.56676475752129e-08
-1.54247154696756e-07
2.98309148952345e-06
1.42453974752981e-07
-2.63246529442715e-07
2.77454419200302e-06
8.74479923599058e-08
-3.66765536266814e-07
2.70885137127672e-06
4.13539066228202e-08
-4.59154051511229e-07
2.55885645408118e-06
1.27580941519889e-08
-5.2235126747177e-07
2.31651270202027e-06
-1.32954384787092e-09
-5.42476741570797e-07
2.03508463588583e-06
-5.83435338815993e-09
-5.28376815023599e-07
1.82195873004976e-06
-4.48741683260487e-09
-5.16380791262619e-07
5.78880798343001e-06
8.18442139737742e-08
-1.35113028893007e-07
2.9037775613803e-06
1.70492633681631e-07
-2.37889737627419e-07
2.6892586743559e-06
1.1314949252114e-07
-3.38731966561421e-07
2.65419317976802e-06
6.16346470496727e-08
-4.34817890000613e-07
2.58817530628863e-06
2.60326811905964e-08
-5.16172145004105e-07
2.46312437712748e-06
5.32242188867064e-09
-5.67381643432887e-07
2.24575070033636e-06
-4.42829665629877e-09
-5.75694787264817e-07
1.97445347903753e-06
-6.78570838290255e-09
-5.51277039938978e-07
1.76649842507308e-06
-4.67655251789879e-09
-5.31776899378953e-07
5.74320718466237e-06
9.30561508597404e-08
-1.07640730661987e-07
2.82466616794217e-06
1.89292237604598e-07
-2.07421440217202e-07
2.59348445396802e-06
1.34405227376459e-07
-3.08221063632067e-07
2.56380797778253e-06
8.07009912231651e-08
-4.04377453546856e-07
2.53357569748099e-06
4.04022143355578e-08
-4.91658006583414e-07
2.49380698472466e-06
1.43114001310591e-08
-5.63106585623195e-07
2.3943051544106e-06
-3.91469357194685e-10
-6.04172070607081e-07
2.18856433250605e-06
-6.71230241539025e-09
-6.02250435239146e-07
1.92303441031726e-06
-7.36776806657792e-09
-5.68867449494765e-07
1.72141640131938e-06
-4.65396472026501e-09
-5.42742927898486e-07
4.83376886601832e-06
-5.14343495888061e-08
-1.86882096080416e-07
5.24624906844717e-06
-8.76685296781455e-08
-1.85189040785527e-07
2.49505352714874e-06
-1.93270296671609e-08
-2.77453024104275e-07
5.50509943127409e-06
-9.79264397998076e-08
-1.91672284108955e-07
2.71271307375186e-06
-2.14637312443572e-08
-2.87574997633117e-07
2.23822245549995e-06
-1.58153065007676e-08
-3.47659096355795e-07
5.84808957022496e-06
-9.01374044095329e-08
-1.96109485340095e-07
2.9302510960908e-06
-5.71227034032989e-09
-3.06638631621828e-07
2.45179874252812e-06
-1.75230904492183e-08
-3.68117463777842e-07
2.16062749483569e-06
-1.17778888367283e-08
-4.07310056979099e-07
6.07568263671608e-06
-6.91873629355336e-08
-1.93895745476619e-07
3.11758733330028e-06
2.28060430901009e-08
-3.18231820345837e-07
2.70266752411685e-06
-4.90016565806461e-09
-3.99144242409528e-07
2.35292844713297e-06
-1.30735543524254e-08
-4.34418888109151e-07
2.09966757159775e-06
-9.27774175433009e-09
-4.56598645831113e-07
6.14516879417836e-06
-3.85632889890917e-08
-1.86132444594028e-07
3.18654915149907e-06
5.81318852075457e-08
-3.15046423095825e-07
2.88159199393695e-06
1.82092100873277e-08
-4.16822825412059e-07
2.60145436682265e-06
-4.69796207257628e-09
-4.73335904127879e-07
2.26389731876624e-06
-1.05904485516496e-08
-4.87630890922344e-07
2.02854793039837e-06
-7.69606353286126e-09
-4.95594286360596e-07
6.10253657824328e-06
-2.75700231191785e-09
-1.75371988677619e-07
3.15670786432955e-06
9.53393551164942e-08
-3.00653511459982e-07
2.92291004247818e-06
4.65953809851645e-08
-4.11922452374365e-07
2.77030791772907e-06
1.09131272211125e-08
-4.94536280125535e-07
2.49217940449047e-06
-5.7606711660807e-09
-5.30869829991807e-07
2.17878050007224e-06
-9.84369565722551e-09
-5.28674339552709e-07
1.95195945120834e-06
-6.82102502686257e-09
-5.25111291874967e-07
6.01471136531532e-06
3.45807440915178e-08
-1.63938691058247e-07
3.07737894052831e-06
1.31549608033604e-07
-2.81086323839086e-07
2.86674975892119e-06
7.6117617409055e-08
-3.90843287590099e-07
2.80081070464346e-06
3.06845207222197e-08
-4.87879784552618e-07
2.64575064386136e-06
3.94625887327116e-09
-5.53994401436595e-07
2.39411716104884e-06
-7.84147008942798e-09
-5.74683638666174e-07
2.10169214860216e-06
-9.95151101653979e-09
-5.59436926651181e-07
1.8797624786508e-06
-6.42167056800321e-09
-5.46528304655858e-07
5.92793153006145e-06
6.82801087061814e-08
-1.51741944391249e-07
2.98707435012024e-06
1.63989356670701e-07
-2.59077875686717e-07
2.77204396774697e-06
1.0423344303811e-07
-3.62816448622197e-07
2.73894603065599e-06
5.19050568720393e-08
-4.62069413032202e-07
2.67125036305839e-06
1.70444310860238e-08
-5.46515758619757e-07
2.54130690402194e-06
-2.12716914348962e-09
-5.99736177219048e-07
2.3154703437707e-06
-9.95332009792219e-09
-6.08077229244458e-07
2.033940629659e-06
-1.02776201490881e-08
-5.82073646968622e-07
1.81778905209621e-06
-6.29722325269525e-09
-5.61374079637054e-07
5.86321776407168e-06
9.19857224782831e-08
-1.30155009085948e-07
2.9020544854712e-06
1.88847520329073e-07
-2.30855141629318e-07
2.67122426356295e-06
1.28654342318952e-07
-3.31136329064677e-07
2.64312896340395e-06
7.24616649775374e-08
-4.28879956304061e-07
2.61177671683719e-06
3.18770750948506e-08
-5.18863818282725e-07
2.56950290043408e-06
6.534266385795e-09
-5.93079595524567e-07
2.46518425541444e-06
-6.84216508762158e-09
-6.35846694764428e-07
2.25131495035469e-06
-1.15275288861684e-08
-6.33702980683875e-07
1.97614331981107e-06
-1.04644640836486e-08
-5.98597983775872e-07
1.76696233120702e-06
-6.13284407758547e-09
-5.71189952014905e-07
5.83449954949476e-06
9.52758898243958e-08
-9.95840308012066e-08
2.8234982883705e-06
2.01265845613142e-07
-1.97381751589391e-07
2.56999160562914e-06
1.46751062132798e-07
-2.98000554155123e-07
2.54063442521799e-06
9.04992052792599e-08
-3.94872882388043e-07
2.52070449890678e-06
4.66641019105903e-08
-4.84920015698496e-07
2.51681927889353e-06
1.69380719198226e-08
-5.66266192707344e-07
2.50065582150962e-06
-1.18495590609249e-09
-6.31573398523386e-07
2.40660385339138e-06
-1.01776349355998e-08
-6.65033039446651e-07
2.19766370162324e-06
-1.23973388091407e-08
-6.53648176446867e-07
1.92805977170091e-06
-1.02490625222806e-08
-6.10598777711734e-07
1.72560409141653e-06
-5.74107473092889e-09
-5.77290187702813e-07
5.10131694097718e-06
-6.63059056721436e-08
-2.01240228894183e-07
5.50893028382813e-06
-1.14742186284721e-07
-1.99367637816265e-07
2.63170335162638e-06
-2.78340295773965e-08
-2.95697348022516e-07
5.75643615537074e-06
-1.32648523586784e-07
-2.06346241770901e-07
2.85118513016056e-06
-3.63684810689286e-08
-3.06614474615354e-07
2.35262104853384e-06
-2.25293346876629e-08
-3.69321863728733e-07
6.09006676212417e-06
-1.28755678702269e-07
-2.11150187800357e-07
3.06896593879095e-06
-2.46589690982902e-08
-3.27189604362786e-07
2.56900328592672e-06
-2.93146094041532e-08
-3.91278762743632e-07
2.26248312513701e-06
-1.71715155731598e-08
-4.32342761532613e-07
6.30279671549282e-06
-1.08492593832547e-07
-2.08756608094767e-07
3.25346737870006e-06
2.08149529921316e-09
-3.3978305406345e-07
2.82306011631427e-06
-2.00412369241517e-08
-4.24512264623221e-07
2.45686195716658e-06
-2.24733005514255e-08
-4.61355139059165e-07
2.19060106210659e-06
-1.35686794336113e-08
-4.84674850279641e-07
6.35183945842217e-06
-7.59041764452374e-08
-1.9994610845487e-07
3.31407164833535e-06
3.76979693468453e-08
-3.36309805105045e-07
3.00052391315928e-06
1.56596273616169e-09
-4.43629726098133e-07
2.70889536609869e-06
-1.6832516553638e-08
-5.02825977512747e-07
2.3559490385702e-06
-1.80662577955404e-08
-5.17681367795933e-07
2.10911548066479e-06
-1.11608178704509e-08
-5.26005300756587e-07
6.28743290844448e-06
-3.56301337124706e-08
-1.8783092557523e-07
3.27256888856135e-06
7.69606974427738e-08
-3.20821744516653e-07
3.03438532761907e-06
3.01484164055152e-08
-4.38460567405836e-07
2.87685389081663e-06
-2.51621899633903e-09
-5.25550111403663e-07
2.58720727981518e-06
-1.54546660704441e-08
-5.6349949526333e-07
2.26025400515742e-06
-1.58767503358204e-08
-5.6092326317546e-07
2.02299102710463e-06
-9.63636706339663e-09
-5.56989169909303e-07
6.17975624450144e-06
7.08764484363727e-09
-1.74883988240157e-07
3.180908357722e-06
1.16315020147539e-07
-2.99874499766803e-07
2.96767331232749e-06
6.11914168899921e-08
-4.16173418569408e-07
2.90105298437062e-06
1.7196817342422e-08
-5.18448217739334e-07
2.74029551205186e-06
-6.92628291982575e-09
-5.87915627327511e-07
2.47843067551789e-06
-1.57196300298911e-08
-6.09307155862877e-07
2.17395018706337e-06
-1.49022752993291e-08
-5.92850935428741e-07
1.94237034112357e-06
-8.7362266455759e-09
-5.78982839577997e-07
6.07661130463396e-06
4.75499076548172e-08
-1.61650195717442e-07
3.07887386868699e-06
1.52844485580242e-07
-2.77036963917312e-07
2.86223190850822e-06
9.17476298189628e-08
-3.86905049855964e-07
2.83047954267262e-06
3.93654755731714e-08
-4.91057866238249e-07
2.76089314843679e-06
5.8969264886969e-09
-5.79473370433917e-07
2.6257467025509e-06
-1.11540182970121e-08
-6.35121521954342e-07
2.39079610996924e-06
-1.65157455880962e-08
-6.43444822161116e-07
2.09816336549088e-06
-1.44044472922798e-08
-6.15676999867103e-07
1.87308745175005e-06
-8.21301614077573e-09
-5.93613663022374e-07
5.99889102056642e-06
8.04064223176016e-08
-1.47798734326579e-07
2.98347962738314e-06
1.83250608086993e-07
-2.52429818549633e-07
2.75213940443947e-06
1.1944943866241e-07
-3.55209870743519e-07
2.72655515922157e-06
6.16111594319614e-08
-4.55948735779727e-07
2.69485492867103e-06
2.12274778686034e-08
-5.49330785834284e-07
2.65045281345254e-06
-2.92408791858458e-09
-6.26668864268762e-07
2.54127603920872e-06
-1.45382859787121e-08
-6.71243075020014e-07
2.31881491633498e-06
-1.71452540527059e-08
-6.68709520740329e-07
2.03328137743362e-06
-1.39713982301363e-08
-6.31537235078592e-07
1.81589171621615e-06
-7.75191760816891e-09
-6.02551658153676e-07
5.9505427562549e-06
9.89194100488177e-08
-1.22973125382013e-07
2.90036309775024e-06
2.02870756989273e-07
-2.21046431875338e-07
2.64680400508316e-06
1.41610979678875e-07
-3.20624162397843e-07
2.61904547117583e-06
8.18245428091335e-08
-4.18910378740647e-07
2.59826751728538e-06
3.70966017987657e-08
-5.11661925447186e-07
2.59295704535028e-06
7.71245453275263e-09
-5.9617949550561e-07
2.57443467566838e-06
-9.35740759432093e-09
-6.6434304301304e-07
2.47538752727342e-06
-1.68230073725191e-08
-6.99335198940475e-07
2.25812872476079e-06
-1.72716633116908e-08
-6.87360698539956e-07
1.97884073912721e-06
-1.33440192266899e-08
-6.42167815907325e-07
1.76885829954527e-06
-7.20489071013101e-09
-6.0723919157373e-07
5.93622234724423e-06
9.05177859810821e-08
-8.89879925170907e-08
2.82620883254156e-06
2.06662643293667e-07
-1.83824991869075e-07
2.54288539697355e-06
1.55229812764085e-07
-2.84456056259788e-07
2.51255584352478e-06
9.80191658320367e-08
-3.82231462704516e-07
2.4969820594821e-06
5.16841052433258e-08
-4.73862055559876e-07
2.50484645819431e-06
1.9044959186175e-08
-5.588439336762e-07
2.52629545094888e-06
-2.05420411704972e-09
-6.3541731688251e-07
2.51722628333021e-06
-1.37857462028548e-08
-6.95227044250805e-07
2.42041289046499e-06
-1.80137598615492e-08
-7.21507867385283e-07
2.20685039397528e-06
-1.68101684312232e-08
-7.011559489058e-07
1.93342805779356e-06
-1.23770060821172e-08
-6.48958724733977e-07
1.72972466295691e-06
-6.4739345507676e-09
-6.08827506181384e-07
5.40130851919762e-06
-8.39512922662571e-08
-2.1603692257375e-07
5.80433978735152e-06
-1.47401817839786e-07
-2.14303207273814e-07
2.78229419807069e-06
-3.77728856404592e-08
-3.14055377938328e-07
6.03847324301622e-06
-1.74851851902382e-07
-2.21916093940404e-07
3.00428759681722e-06
-5.4211519175335e-08
-3.26089708453631e-07
2.47844657069829e-06
-3.04399159938266e-08
-3.91082823433212e-07
6.36062019152368e-06
-1.75937889435913e-07
-2.27256144596796e-07
3.22237046996873e-06
-4.76164928267986e-08
-3.48499451825287e-07
2.69813850681539e-06
-4.33645038764565e-08
-4.14914196901482e-07
2.37442570490814e-06
-2.3537602093763e-08
-4.57726842698698e-07
6.55578305945414e-06
-1.56774529860268e-07
-2.24956150453952e-07
3.40346625414568e-06
-2.3347714920851e-08
-3.62454106116377e-07
2.9556660604493e-06
-3.82772823169483e-08
-4.5082979984493e-07
2.57114388369706e-06
-3.36799478726275e-08
-4.89050928173796e-07
2.290390983113e-06
-1.86455409086518e-08
-5.13487119441619e-07
6.58074469204708e-06
-1.22066548269046e-07
-2.15333970706251e-07
3.45440012970243e-06
1.21316897145663e-08
-3.59133789011795e-07
3.13128298933215e-06
-1.88182655050885e-08
-4.71765065064699e-07
2.82690697516255e-06
-3.14470308869012e-08
-5.33550320382161e-07
2.4569088071133e-06
-2.69982687439421e-08
-5.48884861214704e-07
2.1973025744668e-06
-1.5268877638576e-08
-5.57592940892806e-07
6.4903203896909e-06
-7.69254490013236e-08
-2.0186373785533e-07
3.39951301054762e-06
5.3369853343963e-08
-3.42560698111425e-07
3.15665973616905e-06
9.57917333077809e-09
-4.66595840945564e-07
2.99359888750357e-06
-1.89914901691585e-08
-5.58215037990136e-07
2.69124219873186e-06
-2.71270616757142e-08
-5.97799688471846e-07
2.34928501096145e-06
-2.30870515481614e-08
-5.9478578657659e-07
2.10045997684912e-06
-1.29778557951029e-08
-5.90496231581093e-07
6.35917695753768e-06
-2.76313214324348e-08
-1.87419298009614e-07
3.29411818441527e-06
9.60779320086135e-08
-3.20156825689493e-07
3.07800177070749e-06
4.20726511861273e-08
-4.43074518048541e-07
3.01051836882947e-06
4.08282753651565e-10
-5.508501956639e-07
2.8434241865727e-06
-2.02084487784637e-08
-6.23924351266647e-07
2.57029825794413e-06
-2.51854763591037e-08
-6.46057878613434e-07
2.25255928266352e-06
-2.08142947034009e-08
-6.28354444380197e-07
2.01036856339084e-06
-1.14809832419339e-08
-6.1350643295002e-07
6.23633281659848e-06
2.0080118502401e-08
-1.72707153210682e-07
3.17911619749145e-06
1.37016235412061e-07
-2.9582882456657e-07
2.9604761249946e-06
7.52400584533227e-08
-4.1216676719005e-07
2.92985700203238e-06
2.35134203605381e-08
-5.21866990531706e-07
2.85811506021297e-06
-7.82697192350718e-09
-6.14769268629752e-07
2.71728023726316e-06
-2.2069904267777e-08
-6.7309812574495e-07
2.47243060755998e-06
-2.4370395349942e-08
-6.8147338334947e-07
2.16770695649696e-06
-1.93132077497832e-08
-6.51817262235149e-07
1.93289142672015e-06
-1.04981912462891e-08
-6.28288704146153e-07
6.14319096364516e-06
6.11537005133767e-08
-1.57906455093128e-07
3.07248485365772e-06
1.7259963190692e-07
-2.70410696082546e-07
2.83968465994842e-06
1.06326230420766e-07
-3.79161962511409e-07
2.81613617285632e-06
4.75900351404607e-08
-4.84710837891082e-07
2.78409987536082e-06
8.01113021314085e-09
-5.8241698244588e-07
2.7375889966041e-06
-1.4394154221237e-08
-6.63368715434825e-07
2.62330114779451e-06
-2.37230772554547e-08
-7.09939332972517e-07
2.39164454896463e-06
-2.3759151369266e-08
-7.06919850063396e-07
2.09490206237706e-06
-1.80799933706741e-08
-6.67430745014925e-07
1.86858905065263e-06
-9.65025614213194e-09
-6.36660690655386e-07
6.08260242802073e-06
9.05262737800301e-08
-1.42188174242808e-07
2.97994079749673e-06
1.98978633246883e-07
-2.43101732742703e-07
2.72574365128994e-06
1.32697857288487e-07
-3.44617717378884e-07
2.70078865432388e-06
7.02746011617907e-08
-4.45616883005623e-07
2.68016742681857e-06
2.51006143460322e-08
-5.41721912035323e-07
2.67402054493295e-06
-3.54251228336479e-09
-6.29776151558148e-07
2.65338487758418e-06
-1.91523256868573e-08
-7.01004723464804e-07
2.54921689319764e-06
-2.46645795948736e-08
-7.37553384827195e-07
2.32314038766624e-06
-2.2917876292654e-08
-7.24774562252004e-07
2.0334391356652e-06
-1.68352130673821e-08
-6.7705235767062e-07
1.81529265042874e-06
-8.80553384979909e-09
-6.40180514608705e-07
6.04810039725487e-06
9.99501586877742e-08
-1.12919728626368e-07
2.90291713071524e-06
2.10988977736406e-07
-2.07797071091722e-07
2.61894063584787e-06
1.51233503157052e-07
-3.06724040478118e-07
2.59010961144114e-06
8.93182421823827e-08
-4.05671386032612e-07
2.57370212183738e-06
4.13898523741529e-08
-4.99922763422933e-07
2.58043451231546e-06
8.61452163373083e-09
-5.88152341242194e-07
2.60061154071834e-06
-1.17841916110477e-08
-6.68068638011839e-07
2.58896073854057e-06
-2.22198895009031e-08
-7.30680707461227e-07
2.48682011808013e-06
-2.47545078533986e-08
-7.58259187370951e-07
2.26477631287663e-06
-2.16871822718894e-08
-7.36943338527952e-07
1.98168888975574e-06
-1.54406119577641e-08
-6.82192928897225e-07
1.77051597812384e-06
-7.91047628746618e-09
-6.40119905414027e-07
6.03318968898386e-06
7.55607688411267e-08
-7.44827350082502e-08
2.83555919658122e-06
2.03071542576032e-07
-1.65975151748839e-07
2.5132841650516e-06
1.58862518797153e-07
-2.66853894303452e-07
2.48090574995219e-06
1.02682136678998e-07
-3.65958205286218e-07
2.46917262264366e-06
5.50962153838199e-08
-4.59421205558989e-07
2.48248379859995e-06
2.03223048036068e-08
-5.46653408519938e-07
2.51622144420415e-06
-3.21157111872535e-09
-6.27585736841414e-07
2.54579408997807e-06
-1.74153190489094e-08
-6.99858832505641e-07
2.53466779462793e-06
-2.38115961032498e-08
-7.54435656824867e-07
2.43330007354931e-06
-2.40489230170741e-08
-7.73841934871527e-07
2.21502112643335e-06
-2.00422886599977e-08
-7.44952129894518e-07
1.93792872738368e-06
-1.38115735632728e-08