/*--------------------------------*- C++ -*----------------------------------*\
  =========                 |
  \\      /  F ield         | OpenFOAM: The Open Source CFD Toolbox
   \\    /   O peration     | Website:  https://openfoam.org
    \\  /    A nd           | Version:  12
     \\/     M anipulation  |
\*---------------------------------------------------------------------------*/
/*   Windows 32 and 64 bit porting by blueCAPE: http://www.bluecape.com.pt   *\
|  Based on Windows porting (2.0.x v4) by Symscape: http://www.symscape.com   |
\*---------------------------------------------------------------------------*/
FoamFile
{
    format      ascii;
    class       volVectorField;
    location    "300";
    object      U;
}
// * * * * * * * * * * * * * * * * * * * * * * * * * * * * * * * * * * * * * //

dimensions      [0 1 -1 0 0 0 0];

internalField   nonuniform List<vector> 
10252
(
(6.61967136119004e-06 0.000588234722547653 3.34219511526821e-05)
(8.28941525064639e-06 0.000611530432881493 3.66517282537027e-05)
(2.36231034071935e-05 0.000440210229997124 3.17393473799321e-05)
(4.20429704464146e-06 0.00077434671462098 6.31513251737685e-05)
(9.53070089586751e-06 0.000635679952352214 4.09449831457598e-05)
(2.74355665744679e-05 0.000454281757045728 3.77592660359291e-05)
(4.69451158629816e-06 0.000801237977343868 6.93167602556194e-05)
(4.24430038640261e-05 0.000408173481499397 3.14779678122203e-05)
(1.48782891080683e-05 0.000702809067019361 6.25306860558293e-05)
(2.87203124086886e-06 0.000852067798129653 9.87705813427405e-05)
(9.5258146700862e-06 0.000662465512374146 4.5377441216342e-05)
(3.00308424860512e-05 0.000473273171625521 4.33357089477611e-05)
(4.87601203014523e-06 0.000829483542034498 7.60253759006476e-05)
(4.67083492561177e-05 0.000418549899798298 3.89890291082142e-05)
(1.61323411286334e-05 0.000725231846783033 6.93912296678763e-05)
(2.90774106298897e-06 0.000880572521842812 0.000106410416990784)
(6.36795367172354e-05 0.000396574496513034 3.1895160884728e-05)
(2.72924911047686e-05 0.000682794792643989 6.26246327224572e-05)
(9.87965513302152e-06 0.000823496925574789 9.8675137973496e-05)
(1.94255858678971e-06 0.000891764900076104 0.000134992289824282)
(9.21184690024101e-06 0.000694830118883933 4.97177785787718e-05)
(3.02855191822589e-05 0.000495269610318814 4.68228570771243e-05)
(4.63420906967944e-06 0.00086031367936004 8.23798652439249e-05)
(4.93763889294228e-05 0.000435727156387644 4.52482492048689e-05)
(1.6535145336717e-05 0.000750245505420688 7.6459550464302e-05)
(2.76776037332236e-06 0.000910693767274573 0.000114738527906534)
(6.77662860193122e-05 0.000405488942092502 4.01046064215155e-05)
(2.85288787511888e-05 0.000702981506273283 7.01205152053493e-05)
(9.93609577569559e-06 0.000849800850976996 0.000106524370076165)
(1.8127990434519e-06 0.000920718568989504 0.000143974921798483)
(8.65178675020105e-05 0.000382679922083747 3.2314768329819e-05)
(4.10364251985238e-05 0.000670922531296208 6.27312323855921e-05)
(1.80476864639048e-05 0.000813443626534516 9.92046489332383e-05)
(6.66916868377359e-06 0.000875738503322246 0.000135139772260238)
(1.18661258671278e-06 0.000920074637451077 0.000169714054164294)
(8.86303284395462e-06 0.000732788304686264 5.43044413809835e-05)
(2.97337797865801e-05 0.00052281762732198 5.06665393147445e-05)
(4.21838920563436e-06 0.000895180763645031 8.89127942651166e-05)
(4.97840415554033e-05 0.000456063292119869 4.84889996241448e-05)
(1.59183951161435e-05 0.000778611063867147 8.26009543727842e-05)
(2.44376835867677e-06 0.000943513374930623 0.000123306201515644)
(7.03811023186488e-05 0.000421466215976094 4.67429908041145e-05)
(2.88224282519754e-05 0.000726471192192093 7.74972092665086e-05)
(9.49075491297668e-06 0.000878407155541354 0.00011488026597278)
(1.57329583705262e-06 0.000951638542588165 0.000153952527869483)
(9.06761816300183e-05 0.000390570450288031 4.09056484970897e-05)
(4.19980513760651e-05 0.000689899486403716 7.06591378681864e-05)
(1.78587892534156e-05 0.000838465486041426 0.000107327256378404)
(6.25786757689733e-06 0.000903415496757449 0.000144128403617295)
(9.77482575520145e-07 0.00094906875754745 0.000180042587918556)
(0.000110233144106269 0.000364501422545553 3.2117308132046e-05)
(5.55830997543516e-05 0.000657889846276784 6.24573758990448e-05)
(2.71407679223657e-05 0.000805441726589456 9.93903738308453e-05)
(1.20995396888371e-05 0.000869300636938819 0.000135836233281252)
(4.18209085275072e-06 0.000908734265837499 0.000169583670355628)
(5.92339348054972e-07 0.000942855620545982 0.000202331904317504)
(8.4493020632437e-06 0.000776495378116356 5.9308240496587e-05)
(2.89315868841921e-05 0.000555441443386616 5.50585931833537e-05)
(3.7047198738902e-06 0.000934452568513373 9.5884041688928e-05)
(4.91618190680163e-05 0.000482025016570955 5.21385494232072e-05)
(1.48244543601592e-05 0.000811126039316385 8.89712662096807e-05)
(2.0037686272275e-06 0.000979908551109186 0.000132312975027305)
(7.10735648931138e-05 0.000440634962980608 4.9860325499303e-05)
(2.79400985856346e-05 0.000753762701103232 8.35676566212822e-05)
(8.55079743872353e-06 0.000910138777321129 0.000123361424443575)
(1.22795621529103e-06 0.000985226811826714 0.000164603743143632)
(9.3375038816498e-05 0.00040543626950213 4.78662267647468e-05)
(4.2053314802298e-05 0.000712244450776847 7.8325627484129e-05)
(1.70493107197059e-05 0.000866176297369671 0.000115774903716284)
(5.52243486711218e-06 0.000933456577095591 0.000154053640546502)
(6.90304343378909e-07 0.000980220166891781 0.000191596229620007)
(0.000114918498045517 0.000371559982228045 4.09949395872471e-05)
(5.64050849021136e-05 0.000676042867309077 7.06977004667005e-05)
(2.65883055809391e-05 0.000829663831714012 0.000107697700232236)
(1.12894289909961e-05 0.000896178283819262 0.000144886394809578)
(3.55451601502093e-06 0.000936831024856707 0.000179815729537889)
(3.46528970292284e-07 0.000971626651060434 0.000214024081135581)
(0.000134036586284999 0.000342368152989057 3.13291750313849e-05)
(7.03954929076424e-05 0.00064315318252013 6.15599111965651e-05)
(3.67864110964212e-05 0.000796108975604899 9.88303718492799e-05)
(1.81631980154524e-05 0.000863310671345738 0.000135865156625602)
(7.59536398279692e-06 0.000903782655537574 0.000170085622449754)
(2.20552885731817e-06 0.000933675956172334 0.000201615171791376)
(1.13575676954373e-07 0.000961888237391113 0.000232568148081991)
(7.91711712973006e-06 0.000826404827568085 6.48113651865502e-05)
(2.78575281972785e-05 0.00059314255452598 5.99999121624052e-05)
(3.08159700613006e-06 0.000978468902385839 0.000103384848269077)
(4.79625292066173e-05 0.00051270902890422 5.64611698758602e-05)
(1.34059591004453e-05 0.000847867826695184 9.58555712578033e-05)
(1.45988747841752e-06 0.00102032286313888 0.000141878550571726)
(7.05666329562751e-05 0.000465718180855666 5.3497643030667e-05)
(2.63071900622583e-05 0.000785234061500291 8.98753299491461e-05)
(7.27013585186249e-06 0.000945478547465119 0.00013228159337207)
(7.87579183015182e-07 0.00102209613139933 0.0001759468514547)
(9.43580123586933e-05 0.00042336347270198 5.09734167003681e-05)
(4.0911908143481e-05 0.000738575162129006 8.44118610378764e-05)
(1.55494191478566e-05 0.000897270420154913 0.000124226000395405)
(4.47989410956011e-06 0.000966399016551536 0.000164625138256449)
(3.23735180803111e-07 0.00101398202102178 0.000204139983527818)
(0.000117938078475873 0.000385374321711398 4.82771494691552e-05)
(5.62536237334356e-05 0.000697323253329746 7.86559839167313e-05)
(2.53670169036159e-05 0.000856601165016035 0.000116236738151532)
(1.00292426805126e-05 0.000925645256001765 0.000154806964646104)
(2.67831761026885e-06 0.000967354028081897 0.000191269653909406)
(3.45058965062909e-08 0.00100261397671946 0.000227093932409281)
(0.000139664599261741 0.000348700162193309 4.0457745680997e-05)
(7.12923956936491e-05 0.000660684762110171 7.00551807610252e-05)
(3.59106472419587e-05 0.000819749466871423 0.000107257358239626)
(1.68870263771215e-05 0.000889644508766315 0.000144939870127368)
(6.47400110843107e-06 0.00093129221216538 0.000180267326463512)
(1.46964300184066e-06 0.000961738533201613 0.00021314343310743)
(-1.50749805336645e-07 0.000990212034237932 0.000245569925651359)
(0.0001571651745282 0.00031635037762403 2.98831169347789e-05)
(8.49905008941323e-05 0.000626508677658235 5.99899135475624e-05)
(4.65038145845082e-05 0.000785274835112674 9.7400696277115e-05)
(2.46240459994729e-05 0.000855699418080307 0.000134870780547163)
(1.13970806214974e-05 0.000898714219081506 0.000169785650815744)
(4.0169311948446e-06 0.000929348537956506 0.000201696930757141)
(6.00684976394465e-07 0.000953839790973211 0.000231271727265167)
(-2.87080850282855e-07 0.000977829741305232 0.000260401364764258)
(7.22908963138797e-06 0.000883199498567338 7.08272674557759e-05)
(2.63832977881062e-05 0.000636415698904118 6.55174153411226e-05)
(2.31889199048999e-06 0.00102766704321466 0.000111455524685566)
(4.61584892587868e-05 0.000548039792804152 6.14313634653925e-05)
(1.16331513264414e-05 0.000889091152172733 0.000103320155636596)
(8.00945817495493e-07 0.00106516632920823 0.000152053333811949)
(6.91671231548026e-05 0.000495465504665804 5.77961228522016e-05)
(2.40470699247846e-05 0.000820736895994639 9.67352669723842e-05)
(5.66769803263606e-06 0.000984737402588254 0.000141769788622828)
(2.45552805439895e-07 0.0010626960862453 0.000187994204564845)
(9.40593084664593e-05 0.000447275610219824 5.46498934256845e-05)
(3.87930521680718e-05 0.000769086948838855 9.0710465458692e-05)
(1.34676008326607e-05 0.000931955023879351 0.000133109140063637)
(3.15162188794049e-06 0.00100261252073483 0.00017588648741541)
(-1.27601007806652e-07 0.0010508181688653 0.000217595872514535)
(0.000119301041726734 0.000401890839631953 5.14326171155509e-05)
(5.48591832275604e-05 0.000722546430711073 8.48029358701957e-05)
(2.33108079772555e-05 0.00088700333921942 0.000124669236190413)
(8.27444599586624e-06 0.000958140041536719 0.000165329863109879)
(1.56320445119028e-06 0.00100063451416763 0.000203707669974752)
(-3.4423454971738e-07 0.00103614229560188 0.000241363812532923)
(0.00014332621321008 0.000361480776158242 4.80179893190983e-05)
(7.10583573122938e-05 0.000680963104028667 7.82983761433385e-05)
(3.42805454161266e-05 0.000845926578332344 0.000115892799687886)
(1.50625598094216e-05 0.000918565718820134 0.000154830375831983)
(4.96606817859399e-06 0.000961388207607759 0.000191685373267928)
(5.17571623211168e-07 0.000992221838616791 0.000226056031505843)
(-4.75601081570453e-07 0.00102073897251095 0.000260064738474321)
(0.000164101433936286 0.000321988833896586 3.92468037154014e-05)
(8.61585950460229e-05 0.000643566316716509 6.86951905576826e-05)
(4.54070005807531e-05 0.000808459347514906 0.000105912058831732)
(2.28907819772962e-05 0.000881604524710823 0.000143932312175955)
(9.72718664399127e-06 0.000925795474746226 0.000179871015931473)
(2.717553266785e-06 0.000956941714560805 0.000213129813525043)
(-1.94794709911118e-07 0.000981570018893451 0.000244055984916015)
(-5.62970329940115e-07 0.00100550771616306 0.000274632858066697)
(0.000178992123915335 0.000285711744741133 2.78982186601169e-05)
(9.88411066441326e-05 0.000607469985934342 5.76778331226451e-05)
(5.5882972326491e-05 0.000772572800793543 9.51233083329738e-05)
(3.11017358266783e-05 0.000846402371439959 0.000132829599558305)
(1.54423824029278e-05 0.000891955830414208 0.000168350844433644)
(6.03662649256069e-06 0.000924683720123292 0.0002009514834059)
(1.12197125849918e-06 0.000949761704172965 0.000230884191373593)
(-7.22177829301881e-07 0.000970519028458313 0.000258689878591868)
(-6.20115180074271e-07 0.000991028168556471 0.000285988943561025)
(6.35845043029688e-06 0.000947714928195631 7.73654928052799e-05)
(2.43935335948782e-05 0.000685934195307997 7.16368542553912e-05)
(1.37549218141637e-06 0.00108253339204156 0.000120105947649654)
(4.35910726107648e-05 0.000588534585169606 6.70521075722743e-05)
(9.4267675636476e-06 0.000935193038061636 0.000111391508780107)
(8.39356220492968e-09 0.00111487738649352 0.00016283578745803)
(6.68246459147733e-05 0.00052956956452161 6.27985158354951e-05)
(2.1114843421966e-05 0.000860468810874049 0.000104220120744173)
(3.7034559596805e-06 0.00102828408766094 0.000151876387934849)
(-4.14924722814392e-07 0.00110745085680109 0.000200729216637547)
(9.25913192111803e-05 0.000475727883634601 5.89489530689646e-05)
(3.57464946421971e-05 0.000803458073311117 9.75662012607199e-05)
(1.07914080059772e-05 0.000970427564042056 0.000142570196628462)
(1.51045430525305e-06 0.00104247345053467 0.000187847612607008)
(-6.75564001911606e-07 0.00109115011204413 0.000231901910555826)
(0.000119323781251919 0.000424394327261572 5.514711289607e-05)
(5.23082570610173e-05 0.000751892373581996 9.11151692687563e-05)
(2.04324164663151e-05 0.000920922790680589 0.000133503785224606)
(6.01136537174105e-06 0.00099385198979172 0.000176555036781381)
(1.94014162679033e-07 0.00103696720617862 0.000217037623010654)
(-8.00020067171205e-07 0.00107259022713511 0.000256724383350168)
(0.000145285682932253 0.000376476236859989 5.12364070665209e-05)
(6.95024632191271e-05 0.000704969517413751 8.45183652721042e-05)
(3.16757370175209e-05 0.00087549014646623 0.000124323312525742)
(1.25715240978833e-05 0.00095052234103063 0.000165268141497476)
(3.04690270779342e-06 0.000994312751267096 0.000204073937328611)
(-6.42246440877913e-07 0.00102535413146165 0.000240158210405881)
(-8.61921175381598e-07 0.00105373172894025 0.000275909543867352)
(0.000168801310369442 0.000333737307325389 4.72605630691602e-05)
(8.60162207619396e-05 0.000662911182313329 7.72078510345732e-05)
(4.34337558331851e-05 0.000833893743025135 0.000114629859419414)
(2.04988111568873e-05 0.000909961824241075 0.000153798469823779)
(7.56259536933663e-06 0.000955442160379715 0.000191102436459066)
(1.07383965972176e-06 0.000987063963648168 0.000225920649586845)
(-1.18960750570373e-06 0.00101167268905351 0.000258346757466314)
(-8.93819889753281e-07 0.00103533577003887 0.000290445379590973)
(0.000187607385428317 0.000290671172624698 3.74534803567694e-05)
(0.000100505552559201 0.000624156567783222 6.65589837145038e-05)
(5.46929294698974e-05 0.000795374073290301 0.000103647344431121)
(2.89836774263109e-05 0.000871945520449933 0.000141838985598527)
(1.3223992381304e-05 0.000918686640491303 0.000178323357393154)
(4.13457749625576e-06 0.000951895050806647 0.000212149622948079)
(-2.7573124607505e-07 0.000977083007342983 0.000243490775375076)
(-1.55512477263235e-06 0.000997685719775093 0.00027266625414493)
(-8.99674052287048e-07 0.00101787780704596 0.000301354578911492)
(0.000198803522269124 0.000249050814138435 2.48858608090867e-05)
(0.00011144791773389 0.000585257838951155 5.4444246693838e-05)
(6.45663308184706e-05 0.000757583352036574 9.19425782795e-05)
(3.72751903770673e-05 0.000835212139344021 0.000129747571724697)
(1.94799587241718e-05 0.000883474935770486 0.00016578482565041)
(8.16962184431808e-06 0.000918439841681455 0.000199123106723398)
(1.69897908751717e-06 0.000945321909823165 0.000229804314525076)
(-1.23622494921833e-06 0.000966602393975032 0.000257946942585642)
(-1.7975399283391e-06 0.000984317549193319 0.000284024274054498)
(-8.82528539261114e-07 0.00100175474579743 0.000309522408200737)
(5.27634659478121e-06 0.00102076715216957 8.44355310567923e-05)
(2.18038286508119e-05 0.000742413805061575 7.82712700428798e-05)
(2.15934181329096e-07 0.0011435589202481 0.000129314856790459)
(4.00955552263117e-05 0.000634832393315201 7.33394445680845e-05)
(6.67016703257489e-06 0.000986631742800029 0.000120059993736739)
(-9.52472860211622e-07 0.00116991512391388 0.000174174301120633)
(6.33505996746526e-05 0.000568479387461638 6.85457913321257e-05)
(1.74108178764732e-05 0.000904811407153772 0.000112338313131326)
(1.31524427352714e-06 0.00107652218738184 0.000162593078420934)
(-1.20924407297118e-06 0.00115678734864245 0.000214086297894167)
(8.98377505922768e-05 0.00050827440715907 6.38647941621122e-05)
(3.16870923064485e-05 0.000841811528498236 0.000105079893472202)
(7.44810535013842e-06 0.00101301379954607 0.000152658708938054)
(-4.92371901207408e-07 0.00108638529636536 0.000200479216183324)
(-1.33501930556153e-06 0.00113539421233949 0.000246983359696459)
(0.000118020984078766 0.000451301199769258 5.95546743009434e-05)
(4.8567763896117e-05 0.000784919472504306 9.79731786612349e-05)
(1.66651528764647e-05 0.000958458871519163 0.000142913391620123)
(3.18300152400148e-06 0.00103309700954162 0.000188489429389223)
(-1.46902870118953e-06 0.00107672645328431 0.000231195752423139)
(-1.34628663070507e-06 0.00111234329689369 0.000273070156497321)
(0.000145825636623839 0.00039740950070262 5.49759826071294e-05)
(6.66429792194437e-05 0.000732971887194723 9.08384327766827e-05)
(2.80274599026441e-05 0.000908443569506642 0.000133111825186312)
(9.35118964301833e-06 0.000985608477816202 0.000176336140170788)
(6.83817538058464e-07 0.00103022240733828 0.000217293286488947)
(-2.0360197762508e-06 0.00106138388308003 0.000255333890225581)
(-1.319350118385e-06 0.00108951132376258 0.000292981693405195)
(0.000171673515730037 0.000347102310864333 5.0554349991826e-05)
(8.44557474395175e-05 0.000685647750603462 8.3498493459027e-05)
(4.03603116901046e-05 0.000862510525195583 0.000123051844451509)
(1.72801230915158e-05 0.00094125657559747 0.000164160324590272)
(4.81264150170082e-06 0.000987908459411579 0.00020327708428808)
(-9.33481514721458e-07 0.00101987308912678 0.000239850551151953)
(-2.37786026329671e-06 0.00104432916689949 0.00027398007943036)
(-1.28265192143388e-06 0.00106754011464659 0.000307716327688542)
(0.000193721282930214 0.000301386420032729 4.58961397705564e-05)
(0.000100694079869379 0.000642614956598235 7.53535885802533e-05)
(5.24981656143826e-05 0.000820088320849034 0.000112421088396225)
(2.60910708839125e-05 0.000899729831003106 0.000151658688310857)
(1.03885593731398e-05 0.0009478840301635 0.000189465176248974)
(1.75792816142818e-06 0.000981655349127018 0.000224762570544724)
(-1.99899050053984e-06 0.00100687343735114 0.000257608115768169)
(-2.57227295513554e-06 0.00102714814448924 0.000288240506768292)
(-1.23320978524349e-06 0.00104679738197075 0.000318373186042231)
(0.000209541873435202 0.0002533045339853 3.49171486532086e-05)
(0.000113875465288861 0.000601677057170187 6.34907424371704e-05)
(6.34592356674e-05 0.000780048744395853 0.000100370506776059)
(3.48757460909432e-05 0.000860431451937556 0.00013865752846789)
(1.6775061593743e-05 0.000909891253142285 0.0001755974629863)
(5.65396627646492e-06 0.00094535636139363 0.000210162945417409)
(-3.52225816747291e-07 0.000972331790938095 0.000242199629927097)
(-2.69206130820638e-06 0.000993410698139684 0.000271708037848429)
(-2.6471414271512e-06 0.00101071396498818 0.000299110146382342)
(-1.16296970937055e-06 0.00102759846372143 0.000325924877136314)
(0.000215456054086237 0.000204482120893133 2.03624077179395e-05)
(0.000122308103296291 0.000558936420404109 4.99393278478189e-05)
(7.22461594289231e-05 0.00073984934229088 8.75616798704387e-05)
(4.29064385532197e-05 0.000821864795678652 0.000125513812294315)
(2.32841718070435e-05 0.000873161568088101 0.000162076489994187)
(1.02801251523768e-05 0.000910560792955873 0.000196130012657789)
(2.30042676036547e-06 0.000939442789422289 0.000227635796429378)
(-1.81731153375991e-06 0.000962339211256525 0.000256592918824078)
(-3.13156413075443e-06 0.000980578284320393 0.000283046960597471)
(-2.63669021646336e-06 0.000995570553302489 0.000307420634541182)
(-1.07912667925583e-06 0.00101022669596437 0.000331161486540837)
(3.98487665891919e-06 0.00110335391250375 9.18402458960948e-05)
(1.84506598906221e-05 0.000806561423137499 8.53568511646607e-05)
(-1.18050525741814e-06 0.00121123063672274 0.000138949885648574)
(3.54863508438562e-05 0.000687631065581143 8.02388586964698e-05)
(3.25582519691753e-06 0.0010439027243356 0.000129258306440223)
(-2.11597650215365e-06 0.00123071824628081 0.000185950755099025)
(5.85281144627862e-05 0.000612761380658955 7.49272563861871e-05)
(1.27723543835339e-05 0.00095412173953453 0.000121095380772967)
(-1.59401580892608e-06 0.00112988831271857 0.000173853227583634)
(-2.15992926623957e-06 0.00121114114633935 0.000227948016716092)
(8.56426276004809e-05 0.000545328874409884 6.96765256944987e-05)
(2.64806975245279e-05 0.000884443610312974 0.000113285350497227)
(3.34578799623284e-06 0.00106008262997836 0.000163368225961516)
(-2.91096943900592e-06 0.00113475648501064 0.000213724398204625)
(-2.1216202450965e-06 0.00118397024981261 0.000262714947451822)
(0.000115033922547302 0.000482073745455111 6.45421255131627e-05)
(4.35035158498358e-05 0.000821672161794924 0.000105486699708242)
(1.18951802969671e-05 0.000999901941428619 0.000152972978110388)
(-2.70680371569043e-07 0.00107626957343151 0.000201017497715885)
(-3.47602075537574e-06 0.00112031347207597 0.000246116720925386)
(-1.99670602762695e-06 0.00115579377038406 0.000290275779862198)
(0.000144914565514055 0.000422539984601641 5.94389746416802e-05)
(6.23706138931826e-05 0.000764451293852204 9.77003283637232e-05)
(2.32238316122039e-05 0.00094481914950677 0.000142455450869773)
(5.30055327317138e-06 0.00102409260254958 0.000188086234301526)
(-2.19528917856007e-06 0.00106945579282412 0.000231280100676565)
(-3.70621127168497e-06 0.00110065944347572 0.000271471924760744)
(-1.86132150830224e-06 0.00112842283692218 0.000311149482740106)
(0.000173001290333617 0.000366297869953619 5.42458776764784e-05)
(8.14669127444351e-05 0.000712182109387705 8.9820853750219e-05)
(3.60581346902344e-05 0.000894334464070735 0.000131781060161074)
(1.31175794241888e-05 0.000975530728657549 0.000175137273702714)
(1.39105336671708e-06 0.00102328810217455 0.000216373310209657)
(-3.35818299418383e-06 0.00105553166303116 0.000254858270741299)
(-3.78399181311453e-06 0.00107974989867719 0.00029081537934226)
(-1.73991063496308e-06 0.00110239939075815 0.000326321507019039)
(0.000197826880283223 0.000312950478178159 4.91959580886639e-05)
(9.93424304287385e-05 0.00066405829362959 8.16968600414514e-05)
(4.90873891423827e-05 0.000847704309119823 0.000120823876550973)
(2.22279725006914e-05 0.000930266536304599 0.000161925148692873)
(6.80473317289906e-06 0.000979801341088956 0.000201521719075713)
(-1.16217246828924e-06 0.00101411125996869 0.000238599424456231)
(-4.06374658785797e-06 0.00103925357528028 0.000273055779202539)
(-3.77167082243347e-06 0.00105905949674076 0.00030526371174921)
(-1.62156323501509e-06 0.0010779866848189 0.000336934373597236)
(0.000217387772364218 0.000262900336755946 4.38696730868425e-05)
(0.000114679976863873 0.000619275819825696 7.25788406381725e-05)
(6.12168392464574e-05 0.000804049642933559 0.000109173231586563)
(3.15907198999252e-05 0.000887637062098089 0.000148399792318316)
(1.33329872931714e-05 0.000938612344313314 0.000186589651956674)
(2.54338616491266e-06 0.000974726405779595 0.000222582502203706)
(-2.85259765086679e-06 0.00100181114091768 0.000256104234647912)
(-4.45778075231669e-06 0.001022597932499 0.000287072242436249)
(-3.67291532748733e-06 0.00103931053444515 0.000315867296625201)
(-1.49475174946387e-06 0.00105541567819486 0.000344041199775193)
(0.000228884448507347 0.000207919290731298 3.09563895268874e-05)
(0.000125791877997978 0.000575198235507656 5.91803208517215e-05)
(7.1423014252773e-05 0.000762045359205945 9.58556598101465e-05)
(4.03569373934272e-05 0.000846789561338212 0.000134267465535738)
(2.01863206653412e-05 0.000899283593025172 0.000171679780422675)
(7.2067015655905e-06 0.000937195641472627 0.000206938093690522)
(-4.04653338411239e-07 0.000966181369979912 0.000239789949262809)
(-3.95421818239714e-06 0.000988872954407946 0.000270114450244345)
(-4.61889227960775e-06 0.00100665679587387 0.000297892460200872)
(-3.49114629424188e-06 0.00102100788613085 0.000323529286288388)
(-1.35741618165917e-06 0.00103489618184722 0.000348506742727877)
(0.000227541378467426 0.000149751410075264 1.44475193796379e-05)
(0.000130838332526509 0.000527362050237248 4.36950701851796e-05)
(7.86236170888353e-05 0.000718876194392487 8.16290326427891e-05)
(4.77932892228566e-05 0.000806085317125355 0.000119880502671336)
(2.66932151076944e-05 0.000860856529942694 0.000157096589856307)
(1.22318231799148e-05 0.00090097877725869 0.000191937449242026)
(2.87288150289282e-06 0.000932085127221631 0.000224319558966203)
(-2.44236633461925e-06 0.000956796848601483 0.00025419236607931)
(-4.62894769948918e-06 0.000976517276608718 0.000281508664463822)
(-4.60996326162921e-06 0.000992043227027206 0.000306303773326917)
(-3.26070963369337e-06 0.0010045090757274 0.000328994874718192)
(-1.21504558555221e-06 0.00101661739903608 0.000351018004625585)
(2.3668662586605e-06 0.00119621781300112 9.9759681210814e-05)
(1.42201265169841e-05 0.00087927764120802 9.2965109290858e-05)
(-2.83778320988543e-06 0.00128589933161628 0.000148871045105456)
(2.95013218844558e-05 0.000747665754652973 8.7661954008207e-05)
(-9.17749359646297e-07 0.00110743294418884 0.000138879535213468)
(-3.50557245156871e-06 0.00129770509379013 0.000197961779971773)
(5.20752940026001e-05 0.000662945759821687 8.19214451003537e-05)
(7.02444695349524e-06 0.00100894306939092 0.000130382960311521)
(-5.12183270785743e-06 0.00118882402282886 0.000185527257177785)
(-3.29125302025117e-06 0.00127094312569973 0.000242123901632474)
(7.96998858755066e-05 0.00058737709130062 7.61506761326397e-05)
(1.99512639815756e-05 0.000931789236520362 0.000122091827986757)
(-1.65141367515823e-06 0.00111203646263638 0.000174624281268792)
(-5.81380430476417e-06 0.00118800338852107 0.00022745521711421)
(-3.0548060385352e-06 0.00123729791496203 0.000278912097866096)
(0.000110363554587588 0.000516940945516008 7.03346365508757e-05)
(3.69261293715225e-05 0.000862409007367084 0.000113709454049253)
(5.99864967957923e-06 0.00104558739045752 0.000163663372155753)
(-4.45460984206919e-06 0.00112374190503746 0.00021416656519372)
(-5.87718545121608e-06 0.00116813134718373 0.000261668106520822)
(-2.76681101462315e-06 0.00120334085249945 0.000308169886787903)
(0.000142134552814797 0.000451209026012835 6.4549740580899e-05)
(5.64896882293084e-05 0.000799358747796468 0.000105215911346215)
(1.71086672650092e-05 0.000984859966887431 0.000152433612983913)
(2.97715825174691e-07 0.00106630020246339 0.000200604584832837)
(-5.67978822045519e-06 0.00111240979481219 0.000246059686104577)
(-5.69732951478016e-06 0.00114355776690841 0.000288443209410887)
(-2.50200066655673e-06 0.00117082835741297 0.000330254931072602)
(0.000172775963383133 0.000389460640462769 5.86788908965239e-05)
(7.68793277756503e-05 0.000741945298032378 9.66741241240266e-05)
(3.03595514252418e-05 0.00092935391056492 0.000141043603468594)
(7.8702091385916e-06 0.00101301029166755 0.000186781428088006)
(-2.80775213313606e-06 0.00106187580523915 0.000230333257099485)
(-6.26855482081637e-06 0.00109435203704973 0.000270816042981123)
(-5.44910346543768e-06 0.00111824825886592 0.000308716352810909)
(-2.27774836074971e-06 0.00114022300386206 0.000346115433859814)
(0.000200262289300344 0.000330242448154806 5.28147740362585e-05)
(9.64523576721226e-05 0.000689044374160629 8.79953140572388e-05)
(4.42993983968987e-05 0.000878283548057048 0.000129483295018115)
(1.72293752703281e-05 0.000963585832868683 0.000172767659940184)
(2.34676229451863e-06 0.00101447867475172 0.000214423797735541)
(-4.69558754108886e-06 0.00104931031815427 0.000253441624103654)
(-6.51945851737003e-06 0.00107434649016636 0.000289682985661434)
(-5.17903568082939e-06 0.00109360411492078 0.000323591333856856)
(-2.0740645878592e-06 0.00111169482052885 0.000356914761133552)
(0.00022298693209687 0.000272492291616485 4.71184005299729e-05)
(0.00011379945966165 0.000639371553890451 7.89319879475211e-05)
(5.76420680905219e-05 0.000830627321124732 0.000117534265421916)
(2.72086611355943e-05 0.000917352833832362 0.000158550896508831)
(8.99220949869798e-06 0.00096988788244826 0.00019846964595984)
(-1.2682103454249e-06 0.00100668847838336 0.000236162918766584)
(-5.85690561239281e-06 0.00103385707690097 0.000271333164834517)
(-6.54807283637836e-06 0.00105426318774715 0.000303873348775961)
(-4.87154729276234e-06 0.00107024281981289 0.000334155866366156)
(-1.87860274812381e-06 0.0010853853718566 0.000363766635769293)
(0.000238995551896868 0.000216134448176791 4.0829342724268e-05)
(0.000127504420335804 0.000591925149099385 6.86315642195175e-05)
(6.93504507097632e-05 0.00078533685642744 0.0001046658760222)
(3.68261521866445e-05 0.000873411332598254 0.00014389384415172)
(1.62409021401619e-05 0.000927511734569838 0.000182481151387269)
(3.41672114264666e-06 0.000966150966748577 0.00021912484662405)
(-3.68505811288081e-06 0.000995315831191907 0.000253443022784721)
(-6.52171773958555e-06 0.00101778120372913 0.000285231500239043)
(-6.39985545695001e-06 0.00103500826535119 0.000314413588892218)
(-4.51239478356087e-06 0.00104853686126278 0.000341368572869092)
(-1.68414798807896e-06 0.00106143064108796 0.000367614884721011)
(0.000244085057946909 0.000152143495570987 2.51095476914873e-05)
(0.000135670986840895 0.000543573310727808 5.31737083850361e-05)
(7.83050293843276e-05 0.0007408845910017 8.9769577579718e-05)
(4.52485662517947e-05 0.000830757072292623 0.000128423481590157)
(2.33188978770668e-05 0.000886703489967224 0.000166433633417694)
(8.68855902757272e-06 0.000927343967203719 0.000202459703032216)
(-4.39583298920809e-07 0.000958568087187762 0.000236186367433735)
(-5.26479866451109e-06 0.000983086240564881 0.000267435669208972)
(-6.81129395165257e-06 0.00100234980385886 0.000296092521234181)
(-6.10632173934727e-06 0.00101719505239388 0.000322154761726685)
(-4.10984744963494e-06 0.00102881077823085 0.000346037110153267)
(-1.48839108487719e-06 0.0010399541844187 0.000369213472323208)
(0.000233097271200694 8.10523025053035e-05 6.26071728781245e-06)
(0.000136312511353117 0.000488975333574027 3.51874419549461e-05)
(8.33879939005231e-05 0.000694014363181852 7.36861188746385e-05)
(5.17421763685551e-05 0.000787561377671476 0.000112509498503898)
(2.95749687250336e-05 0.000846384130033342 0.000150608202798369)
(1.39206717178542e-05 0.000889590415846801 0.000186404788867119)
(3.354711529664e-06 0.000923190410655211 0.000219775926539194)