/*--------------------------------*- C++ -*----------------------------------*\
  =========                 |
  \\      /  F ield         | OpenFOAM: The Open Source CFD Toolbox
   \\    /   O peration     | Website:  https://openfoam.org
    \\  /    A nd           | Version:  12
     \\/     M anipulation  |
\*---------------------------------------------------------------------------*/
/*   Windows 32 and 64 bit porting by blueCAPE: http://www.bluecape.com.pt   *\
|  Based on Windows porting (2.0.x v4) by Symscape: http://www.symscape.com   |
\*---------------------------------------------------------------------------*/
FoamFile
{
    format      ascii;
    class       volScalarField;
    location    "800";
    object      k;
}
// * * * * * * * * * * * * * * * * * * * * * * * * * * * * * * * * * * * * * //

dimensions      [0 2 -2 0 0 0 0];

internalField   nonuniform List<scalar> 
10140
(
1.89078102766909e-06
1.95086928077724e-06
1.97352730331803e-06
2.31643106011668e-05
2.00938852801027e-06
2.03713833183312e-06
2.34267404860826e-05
2.08422228874473e-06
2.33483929075358e-05
4.52160431717959e-05
2.05432139446531e-06
2.0994612815111e-06
2.36490248357663e-05
2.15307340348122e-06
2.36169284901987e-05
4.54677904739166e-05
2.14270993151743e-06
2.36219920423497e-05
4.52361494361665e-05
6.12984699481358e-05
2.09001912492863e-06
2.14989323138001e-06
2.38157612228966e-05
2.22097071686017e-06
2.38447868545681e-05
4.56508117739044e-05
2.21569635055099e-06
2.38992447496062e-05
4.54917758502347e-05
6.15101188349074e-05
2.10839789181366e-06
2.36596733114092e-05
4.51368369670979e-05
6.12257789259314e-05
7.42277814264408e-05
2.1154180429353e-06
2.19077117208533e-06
2.39273895684128e-05
2.27727774723243e-06
2.40183539178364e-05
4.57564158915755e-05
2.28801595023995e-06
2.41353738289045e-05
4.56783074685961e-05
6.16321886172045e-05
2.18275331871174e-06
2.39447438039913e-05
4.539847416023e-05
6.14404233622653e-05
7.43964643971936e-05
2.00468183714907e-06
2.32665416459406e-05
4.47365260116078e-05
6.08813816766639e-05
7.40769297770611e-05
8.53291981921507e-05
2.12611885785105e-06
2.2201875681982e-06
2.39805692694839e-05
2.32355978887156e-06
2.41366045511043e-05
4.57789015162471e-05
2.34857789542293e-06
2.4317498587735e-05
4.57875455308402e-05
6.16571919303717e-05
2.25661251150244e-06
2.41885014028239e-05
4.55908662102153e-05
6.15648789625316e-05
7.4457810975764e-05
2.07809410337534e-06
2.35563614697259e-05
4.50043487647167e-05
6.11008027821677e-05
7.42484963099184e-05
8.54546421674921e-05
1.87059395916418e-06
2.24849230475454e-05
4.38970033324938e-05
6.01434199504078e-05
7.35534849893792e-05
8.50991672865974e-05
9.52124115838419e-05
2.12192271171686e-06
2.23306973312771e-06
2.39706930386922e-05
2.35715581653987e-06
2.41958359992132e-05
4.57127807070856e-05
2.39857291474991e-06
2.44437637083085e-05
4.58136072343319e-05
6.15778511977024e-05
2.31840680310898e-06
2.43781507800672e-05
4.57061011689806e-05
6.15922342777762e-05
7.44042701982764e-05
2.150973457703e-06
2.38050144842095e-05
4.52031150588274e-05
6.12299925485183e-05
7.43119613828251e-05
8.54566783715349e-05
1.94192244360504e-06
2.27760690280817e-05
4.41698483650486e-05
6.03682965753937e-05
7.37294608025257e-05
8.52277661521716e-05
9.5294523943409e-05
1.72475716083506e-06
2.14493327851877e-05
4.26215427051425e-05
5.89318244993501e-05
7.2553004193414e-05
8.44204790441053e-05
9.49176824358039e-05
0.000104206406390013
2.11021068079174e-06
2.22604023620267e-06
2.38945724172901e-05
2.37243691466499e-06
2.41910612682272e-05
4.55526655052287e-05
2.4348121961478e-06
2.45099947395248e-05
4.57509605900851e-05
6.13874037682379e-05
2.36928794296872e-06
2.45113768585703e-05
4.57381012633421e-05
6.15152762665969e-05
7.42278756501727e-05
2.21127991973971e-06
2.39995605934259e-05
4.53250071946123e-05
6.12623040835307e-05
7.42605220149518e-05
8.53272384052875e-05
2.01253887125221e-06
2.30266810869545e-05
4.43742990217099e-05
6.05035327062255e-05
7.37974126367525e-05
8.52320962062776e-05
9.52380566033248e-05
1.7931567479712e-06
2.17390253298912e-05
4.28978177289215e-05
5.91620024743803e-05
7.27344123282095e-05
8.45536793499221e-05
9.50033490088665e-05
0.000104245211699603
1.56866815171427e-06
2.02449428652278e-05
4.09865088910503e-05
5.72552715039672e-05
7.10308755332067e-05
8.32013964357979e-05
9.4112130916447e-05
0.000103868098537551
0.000112513401092607
2.09428406566446e-06
2.20746877550208e-06
2.37523871953003e-05
2.36484994031704e-06
2.41185383303693e-05
4.52936715803833e-05
2.4508098019547e-06
2.45109233782343e-05
4.55941826618008e-05
6.10794039580323e-05
2.40570225484783e-06
2.4583657794947e-05
4.56812068831221e-05
6.1327256487061e-05
7.39211062016676e-05
2.26054735329691e-06
2.41375035550982e-05
4.53638003446757e-05
6.11905292660809e-05
7.40863369782591e-05
8.50577353046806e-05
2.06994679498863e-06
2.32234697647229e-05
4.45025536741534e-05
6.05425386342132e-05
7.37508353439128e-05
8.51049987183442e-05
9.50341714760389e-05
1.86054331723698e-06
2.19892004189685e-05
4.3106933896102e-05
5.93037875668341e-05
7.28087466553802e-05
8.45628119659709e-05
9.49494985427508e-05
0.000104130559395476
1.63352605180423e-06
2.0530951529695e-05
4.12646945322568e-05
5.74902097590191e-05
7.12182841106148e-05
8.33405043021009e-05
9.42028533539586e-05
0.000103910844912874
0.000112509267206982
1.40130761231031e-06
1.88927582923032e-05
3.90512747943928e-05
5.51652664165257e-05
6.90122318308151e-05
8.14186416646492e-05
9.27159092717775e-05
0.000102967921721632
0.000112147218519941
0.000120261232839507
2.07166035209894e-06
2.18660304863721e-06
2.35443140348459e-05
2.34317412397532e-06
2.39787015070904e-05
4.49320131244451e-05
2.44196084318913e-06
2.44425242627469e-05
4.53384108959927e-05
6.06479009604306e-05
2.420117590237e-06
2.45895040920878e-05
4.5529968067462e-05
6.10217351639209e-05
7.34767643005109e-05
2.29496422083257e-06
2.42141281620664e-05
4.53137107063819e-05
6.10078888665744e-05
7.37819114877487e-05
8.46399966910008e-05
2.11599685871235e-06
2.33640020079672e-05
4.45482758986374e-05
6.04780589937748e-05
7.35819358350563e-05
8.48380395986982e-05
9.46734940846207e-05
1.91445622837897e-06
2.21862305870695e-05
4.32410428601621e-05
5.93505658786627e-05
7.27695304461509e-05
8.44410556360836e-05
9.47483306862448e-05
0.000103852589476033
1.69703314045653e-06
2.07786834977947e-05
4.14775039704478e-05
5.76386698049266e-05
7.13003632814725e-05
8.33568027380088e-05
9.41543538852842e-05
0.000103799117648025
0.000112336377303729
1.46214581382329e-06
1.91732021616904e-05
3.93299795886672e-05
5.54043289501488e-05
6.92058623646984e-05
8.15647763240233e-05
9.28132703988229e-05
0.000103016234285265
0.00011214737451233
0.000120215537256092
1.22362780522676e-06
1.73895505438929e-05
3.68400383428139e-05
5.27018961603652e-05
6.65434778303929e-05
7.91097762482516e-05
9.07184342398378e-05
0.00010143294616222
0.00011117712375013
0.000119875470027084
0.000127526704637734
2.04033135594163e-06
2.16221420915255e-06
2.32686685583257e-05
2.31971212596046e-06
2.37732154609168e-05
4.44649129191629e-05
2.41868557411893e-06
2.43054611750147e-05
4.497995568294e-05
6.00879005285916e-05
2.40913339103997e-06
2.45249749318992e-05
4.52795603306973e-05
6.0592779892698e-05
7.28882179731866e-05
2.30624982177938e-06
2.4223725561409e-05
4.51692880958725e-05
6.07079464996809e-05
7.33400561691166e-05
8.40661318685405e-05
2.1461992419118e-06
2.34433034486658e-05
4.45056289851473e-05
6.03032710300827e-05
7.32832033627786e-05
8.4423072024915e-05
9.41470459750842e-05
1.9564644093438e-06
2.23276501967205e-05
4.3293768114413e-05
5.92950339926878e-05
7.26089419460671e-05
8.41800341608932e-05
9.43906555391709e-05
0.000103400943612889
1.74686284513123e-06
2.09744363319385e-05
4.16170317974427e-05
5.76939981996659e-05
7.12705924409259e-05
8.32434841546071e-05
9.39592067348213e-05
0.000103524211160674
0.000111983704954998
1.52079982255038e-06
1.94168802810275e-05
3.95455612589267e-05
5.55594516303997e-05
6.92966540211132e-05
8.15902711840099e-05
9.27729120439075e-05
0.000102910417844894
0.000111977676609067
0.000119983905752052
1.27989119203285e-06
1.76626175511815e-05
3.71178552295861e-05
5.29443604988525e-05
6.6743342152627e-05
7.92637547545152e-05
9.08240229360034e-05
0.000101488703248092
0.000111183327551406
0.000119834385225869
0.000127443960054858
1.03853797690702e-06
1.57322806263448e-05
3.43580945891475e-05
4.98847684056793e-05
6.36562923161692e-05
7.63214980560604e-05
8.8165130539283e-05
9.9259788561266e-05
0.000109531864505097
0.00011885021737358
0.000127124932378641
0.000134349895930748
1.9994008493088e-06
2.13003408568864e-06
2.29236571836512e-05
2.29427398936424e-06
2.35009854654528e-05
4.38905613138372e-05
2.39444291558974e-06
2.41024756128024e-05
4.45162027557628e-05
5.93957968235199e-05
2.3860507526236e-06
2.43912951620571e-05
4.49264361258168e-05
6.00354245312761e-05
7.21499179885134e-05
2.29306124854423e-06
2.41628928929789e-05
4.49257954919752e-05
6.02848039948661e-05
7.27541448141172e-05
8.33288699864407e-05
2.15357329410301e-06
2.34558309461924e-05
4.43691927495533e-05
6.00117446232616e-05
7.2847442942969e-05
8.38522177122552e-05
9.34461027162586e-05
1.98106484595989e-06
2.2408273933927e-05
4.32592636342938e-05
5.91303394211514e-05
7.23194303410559e-05
8.37715770040989e-05
9.38675321918622e-05
0.0001027655771715
1.78419885723174e-06
2.1115556415856e-05
4.16768974870796e-05
5.7648869815077e-05
7.11211029184252e-05
8.29921350852883e-05
9.36082851668883e-05
0.00010307597223203
0.000111439755445522
1.56578815630746e-06
1.96100354186962e-05
3.96900986989361e-05
5.56239667865177e-05
6.92780480033987e-05
8.1488256995345e-05
9.25874122576158e-05
0.000102642175300824
0.000111628353371533
0.000119554775790275
1.33312387099022e-06
1.79007491041166e-05
3.73352421645451e-05
5.3106002400264e-05
6.68435541255072e-05
7.93000873073499e-05
9.07944172100675e-05
0.000101392014368187
0.000111020032282866
0.000119606189293174
0.000127151762314766
1.08945985590352e-06
1.59958626698333e-05
3.46334572923546e-05
5.01297120051607e-05
6.38621996425777e-05
7.64838607040759e-05
8.828028051644e-05
9.93250332509573e-05
0.000109546300447538
0.000118815610823359
0.000127047058541522
0.000134246744003911
8.50284256037727e-07
1.39230437876788e-05
3.16042408525243e-05
4.67219240720914e-05
6.03666270258221e-05
7.30824535613528e-05
8.51051191106436e-05
9.64997098576445e-05
0.000107212056634511
0.000117112943533591
0.000126052381255154
0.000133933521431628
1.94857457309963e-06
2.08828100436834e-06
2.25090482541137e-05
2.26141386525244e-06
2.31594390976431e-05
4.32085935244066e-05
2.36888580656932e-06
2.38328465173692e-05
4.39453799666447e-05
5.85697766837399e-05
2.36325428689733e-06
2.4191785987705e-05
4.44681819143679e-05
5.93460873204872e-05
7.12579933186657e-05
2.27162282810044e-06
2.40337781752117e-05
4.45798818230602e-05
5.97335532877959e-05
7.20186376492725e-05
8.24222128198167e-05
2.14016544143611e-06
2.33989926404016e-05
4.41344096010752e-05
5.95976321417454e-05
7.22680449178555e-05
8.3118215637517e-05
9.25626186935272e-05
1.98414059283853e-06
2.24232209716255e-05
4.31322215842782e-05
5.8850074126719e-05
7.18937913779246e-05
8.32077935056279e-05
9.31702458885525e-05
0.000101936603810021
1.80315550072257e-06
2.1196639666763e-05
4.16512909227553e-05
5.74964361127922e-05
7.08443092316931e-05
8.25945328912665e-05
9.30926197121249e-05
0.000102444399701805
0.000110693043581681
1.59718797303895e-06
1.97498594747858e-05
3.97572504309965e-05
5.55905646927144e-05
6.91421564275862e-05
8.12502647533365e-05
9.22475960751489e-05
0.000102201415089453
0.000111088131567316
0.000118915601801338
1.37267617688959e-06
1.80900622489504e-05
3.74842958851471e-05
5.31801745092282e-05
6.68375492008727e-05
7.921186182226e-05
9.06221205386054e-05
0.000101134573805648
0.000110677895843184
0.000119180655840149
0.000126642656544568
1.13690793066761e-06
1.62268310329348e-05
3.48515045146177e-05
5.0297486469565e-05
6.39722892907695e-05
7.65323330878265e-05
8.82636748083587e-05
9.92406533483211e-05
0.000109393047554601
0.000118594217361391
0.000126758538545942
0.000133885393120391
8.95088246184839e-07
1.41745622152865e-05
3.18752618082187e-05
4.69680844224526e-05
6.05780814839503e-05
7.32534626310136e-05
8.52308471016579e-05
9.65762736691163e-05
0.000107237229938294
0.000117087293922581
0.000125981270791086
0.000133835528382832
0.000140670573851249
6.63736774912949e-07
1.19681686923587e-05
2.85744262604218e-05
4.3215249295471e-05
5.6682740298918e-05
6.94067894112814e-05
8.15671066780899e-05
9.32057163767741e-05
0.000104274091513539
0.000114666580404781
0.000124234356904211
0.000132817819321657
1.88758973332519e-06
2.2025499467761e-05
2.03627532484084e-06
2.21861172050791e-06
2.274805308441e-05
4.24203374769072e-05
2.33600309575821e-06
2.3493905685046e-05
4.32669799981154e-05
5.76102112551145e-05
2.33870984770647e-06
2.39257818184381e-05
4.39030656245098e-05
5.85229549993934e-05
7.02108169060136e-05
2.25179648164679e-06
2.38396710051326e-05
4.41292792195142e-05
5.90506767360839e-05
7.1129669149727e-05
8.13421602580504e-05
2.12169907865877e-06
2.32758444240733e-05
4.37981351866277e-05
5.90561053540227e-05
7.15395030002907e-05
8.22150662794286e-05
9.14900403012507e-05
1.97228113461092e-06
2.23711545447323e-05
4.29083188627471e-05
5.84484591735494e-05
7.13254412823566e-05
8.24814336570227e-05
9.22907571279072e-05
0.000100904898654579
1.80234730716831e-06
2.12138642913621e-05
4.15351284721532e-05
5.7230343071113e-05
7.04330099634771e-05
8.20427665038245e-05
9.24034788481191e-05
0.00010161962324647
0.000109732023113961
1.6108568126258e-06
1.9830975436239e-05
3.97412821739572e-05
5.54524432918979e-05
6.88813911482609e-05
8.08680265597808e-05
9.17444309500392e-05
0.000101578102219774
0.000110345575905696
0.000118052895077631
1.39741213578939e-06
1.82274188456439e-05
3.75587488331826e-05
5.31596302946085e-05
6.67174664258492e-05
7.89905887206916e-05
9.02978921695069e-05
0.000100706229648596
0.000110145698604095
0.000118545474133285
0.000125903543512002
1.17047174676525e-06
1.64109559807994e-05
3.5004357262027e-05
5.03815063038127e-05
6.39800315349785e-05
7.64600024379957e-05
8.81077686204393e-05
9.8998254315658e-05
0.000109062735572116
0.00011817624898454
0.000126253259468156
0.000133289518027959
9.36242064227467e-07
1.43963812646519e-05
3.20924926039513e-05
4.71412331354361e-05
6.06981616017493e-05
7.33150491516603e-05
8.52290946298355e-05
9.65070525448616e-05
0.000107097789534065
0.000116876747927294
0.000125699844883404
0.000133478012440315
0.000140205259973858
7.01849750296961e-07
1.22047660945074e-05
2.88388231254291e-05
4.34609113083063e-05
5.68988268925905e-05
6.95863535971535e-05
8.17041032427267e-05
9.32950828728909e-05
0.000104312341422684
0.000114652850176469
0.000124172733833783
0.000132726918048239
0.000140243305007149
0.000146610186887712
4.83004982724788e-07
9.87593086758517e-06
2.52609611677223e-05
3.93615071133837e-05
5.26082678982476e-05
6.53026325042711e-05
7.75649325990939e-05
8.94084026263739e-05
0.000100775415149972
0.000111572145344675
0.000121675323363401
0.000130926192168648
1.81609234696077e-06
2.14739703153149e-05
1.97341372288671e-06
4.15289920328808e-05
2.22671662126899e-05
2.16491266698555e-06
2.29289982066987e-06
2.30843688198112e-05
4.24823156550606e-05
5.65198345349132e-05
2.30663128101217e-06
2.35903427591278e-05
4.3230524677177e-05
5.75663661227573e-05
6.90094734668903e-05
2.22898579973575e-06
2.35793759939712e-05
4.3572279370858e-05
5.82343904611158e-05
7.00856136616838e-05
8.00873873328398e-05
2.10471065020706e-06
2.30890399770443e-05
4.33581406577007e-05
5.83837185231641e-05
7.0657996777634e-05
8.11387704111346e-05
9.02242427228962e-05
1.95790660226304e-06
2.22553574397068e-05
4.25845732164836e-05
5.79207504920376e-05
7.06089255760668e-05
8.15865322718314e-05
9.12225226020356e-05
9.96631815822665e-05
1.79255321936957e-06
2.11674743928544e-05
4.13243606056036e-05
5.68448934950291e-05
6.9880659596517e-05
8.1329608464786e-05
9.15328421889282e-05
0.000100592532622479
0.000108546047138399
1.60882284556345e-06
1.9850805496965e-05
3.963742462005e-05
5.52033336244436e-05
6.84885765262971e-05
8.03336268230212e-05
9.10691650731135e-05
0.00010076235643511
0.000109389166504953
0.000116952670271587
1.40602952207235e-06
1.83082064414628e-05
3.75530455644063e-05
5.30376516382595e-05
6.64757523886084e-05
7.86279917231793e-05
8.9812649567094e-05
0.000100096877734048
0.000109411967308164
0.000117687212064927
0.00012491778101196
1.18920308090931e-06
1.65446719098923e-05
3.50858655117026e-05
5.03746331072946e-05
6.38776416449424e-05
7.62584117597279e-05
8.78033019281041e-05
9.8587609695864e-05
0.000108544066570983
0.000117549433227599
0.000125518364366489
0.000132443747802284
9.62814124890543e-07
1.4573619252984e-05
3.2248077273162e-05
4.72348759805006e-05
6.0720413341535e-05
7.32603434133384e-05
8.50923214884873e-05
9.62836024279605e-05
0.000106784255317881
0.000116471454045784
0.000125202338520349
0.000132886184514445
0.000139513383832518
7.36347262436576e-07
1.24150201888837e-05
2.90533231340726e-05
4.36381824815854e-05
5.70285430167653e-05
6.96616270083553e-05
8.17186702996231e-05
9.32434313159041e-05
0.000104190195704679
0.000114457529824727
0.000123902802647896
0.000132376529456289
0.000139784025839371
0.000146091921356923
5.14239927942525e-07
1.0094231004073e-05
2.55160822513049e-05
3.96044286604763e-05
5.28275336093459e-05
6.54901941832421e-05
7.77134993279283e-05
8.95116907955714e-05
0.000100828705569157
0.000111573195836151
0.000121626602114795
0.000130845173763583
0.000139092739361841
0.000146169522210537
0.000152130867433218
3.12684295620819e-07
7.65594698593823e-06
2.16483092841606e-05
3.5150508479015e-05
4.81413844246561e-05
6.07743311898115e-05
7.31066988831524e-05
8.51222072185026e-05
9.67491236208054e-05
0.000107891318364041
0.000118440377899278
0.000128264497884246
1.73183570043055e-06
2.08549275814076e-05
1.89944162387011e-06
4.05387859737632e-05
2.1717063230015e-05
2.09949058870073e-06
5.53038050945473e-05
4.15943312837688e-05
2.26042262722451e-05
2.23849149087386e-06
2.26423185851489e-06
2.31839591001417e-05
4.24517048501274e-05
5.6479033990523e-05
6.76580059745487e-05
2.19819110119878e-06
2.32499259917336e-05
4.2908268613557e-05
5.72850249486707e-05
6.88875437746111e-05
7.86598511578153e-05
2.08350730417717e-06
2.28366829958677e-05
4.28126734204804e-05
5.75787263535409e-05
6.96219463028333e-05
7.9888023820036e-05
8.87644037193709e-05
1.94350053473356e-06
2.20773943453102e-05
4.21586849428425e-05
5.72635488033418e-05
6.97404853199038e-05
8.05191468388211e-05
8.99614343981709e-05
9.8207227754927e-05
1.78256479657389e-06
2.10604845234284e-05
4.10160612613458e-05
5.63354075326069e-05
6.91818565768978e-05
8.04491484203698e-05
9.04742232611772e-05
9.93558691907681e-05
0.000107126845449108
1.60192210658345e-06
1.98110349134444e-05
3.9441927825673e-05
5.48376381948312e-05
6.79572144002417e-05
7.96398707077623e-05
9.02138151215123e-05
9.97451104801682e-05
0.000108208278459766
0.000115602065322947
1.4046791497762e-06
1.83313756440721e-05
3.74627783235758e-05
5.28080971317501e-05
6.61052880451208e-05
7.81161766901402e-05
8.91576408956376e-05
9.92966320479297e-05
0.000108465191390852
0.000116591923420568
0.000123667604635746
1.19410688428171e-06
1.66246994518323e-05
3.50907837587757e-05
5.02702827115578e-05
6.36576432846683e-05
7.59193213660701e-05
8.7341187128335e-05
9.7998569599834e-05
0.000107825498933093
0.000116700300073249
0.000124537281030034
0.000131325112846129
9.75924604823464e-07
1.47025943612781e-05
3.23360047745932e-05
4.72420295956957e-05
6.06371726732352e-05
7.30809748284981e-05
8.48113104614793e-05
9.5895681601572e-05
0.000106285246796472
0.000115859038175506
0.000124475902577843
0.00013204480433738
0.000138553123436886
7.56751963081546e-07
1.25831734113353e-05
2.92100908430403e-05
4.37406906999193e-05
5.70655512527463e-05
6.96258261170359e-05
8.16033252306169e-05
9.30423334964459e-05
0.000103898121314955
0.000114070619372869
0.000123418597455431
0.000131792407681741
0.000139096644279685
0.000145313331033206
5.4119634851631e-07
1.02902864521094e-05
2.57255601421954e-05
3.97840065838257e-05
5.29659474285722e-05
6.55792081588758e-05
7.77454106395468e-05
8.94795791370701e-05
0.000100726856354145
0.000111397266779716
0.00012137318628477
0.000130506683663144
0.000138641639577928
0.000145657664303235
0.00015155697515795
3.36957731276214e-07
7.8509534104292e-06
2.18913391757979e-05
3.53878959866859e-05
4.8361746897436e-05
6.09687575191063e-05
7.32666446338751e-05
8.52401190363856e-05
9.68190153157928e-05
0.000107909620512554
0.000118407958955605
0.00012819699281521
0.000137141629799676
0.000144980274549808
0.000151677794324958
0.000157237285368526
1.6432634255437e-07
5.34225882842863e-06
1.77143066914061e-05
3.05603119233058e-05
4.32708784319136e-05
5.58202133945805e-05
6.8196674655385e-05
8.03551966742448e-05
9.22104850127555e-05
0.000103659520938049
0.000114594872060902
0.000124901388257486
1.63386135139588e-06
2.01664366331597e-05
1.81229594817915e-06
3.94546758844662e-05
2.10980562396536e-05
2.02203894042479e-06
5.39693244863089e-05
4.06070405564178e-05
2.2053667115803e-05
2.17196493849982e-06
6.61634332966104e-05
5.52660025250002e-05
4.15693115071952e-05
2.2706366335277e-05
2.21050180334104e-06
2.15710253772203e-06
2.28497135154126e-05
4.21382768030966e-05
5.62052420383424e-05
6.75394763001378e-05
7.70650686261207e-05
2.05391154230003e-06
2.25159959720132e-05
4.21610729400698e-05
5.6641459172502e-05
6.84324504223225e-05
7.84647755461636e-05
8.71136344220369e-05
1.92369707420275e-06
2.18347870243154e-05
4.16287830064595e-05
5.64751250078252e-05
6.87185968908377e-05
7.92780446633043e-05
8.8506682780639e-05
9.65369748289798e-05
1.77053289179927e-06
2.08928505847568e-05
4.06077406622148e-05
5.56984969308958e-05
6.83328933758936e-05
7.93975222295767e-05
8.92236027108956e-05
9.7905444465254e-05
0.000105470198755703
1.59517731879754e-06
1.97139672119865e-05
3.91518034756356e-05
5.43507104917527e-05
6.72819456527333e-05
7.87809062012057e-05
8.91719792314902e-05
9.85192042974416e-05
0.000106794696235679
0.000113991527509272
1.40115508943468e-06
1.82991933528524e-05
3.7284462275416e-05
5.24654708756458e-05
6.55996292518214e-05
7.74479911941411e-05
8.83249346414528e-05
9.82964998300637e-05
0.000107294833706971
0.000115246799463108
0.000122136916603541
1.19351347227262e-06
1.66516130823995e-05
3.50150989761851e-05
5.00624710464364e-05
6.33130010820424e-05
7.54348873358695e-05
8.67127057232211e-05
9.72212726369077e-05
0.000106895552088237
0.000115614950469198
0.000123292310803185
0.000129909733608429
9.79860699441423e-07
1.47814373901679e-05
3.235145300536e-05
4.71562947504008e-05
6.04410811755574e-05
7.27687835395234e-05
8.43770226979896e-05
9.5333152352333e-05
0.000105589194594401
0.000115025976874009
0.000123503943403943
0.000130931012621908
0.000137288537692654
7.65098064442775e-07
1.2705760269392e-05
2.93033347305888e-05
4.37616491566171e-05
5.70023535392432e-05
6.94707133269849e-05
8.13489525289972e-05
9.26816094408802e-05
0.000103424733632777
0.000113479652962749
0.000122707125027152
0.000130959219049427
0.000138140950159308
0.000144232959588985
5.55963055583034e-07
1.04470525485938e-05
2.58814905190872e-05
3.98940142704453e-05
5.30173285259265e-05
6.55630200732906e-05
7.76532851519323e-05
8.93037196266196e-05
0.000100460367091709
0.000111034281419729
0.000120908804120397
0.000129936124155966
0.000137961807103042
0.000144883624891358
0.000150688709615642
3.56904601396071e-07
8.02886262771318e-06
2.2093332672372e-05
3.55674188800381e-05
4.85072644989705e-05
6.10709323262962e-05
7.33163697371759e-05
8.52290378919984e-05
9.67399707579873e-05
0.000107756735420734
0.000118175984709613
0.000127876181842646
0.000136703275624641
0.000144476229967996
0.000151110296480346
0.00015660062226987
1.80466372633232e-07
5.50735429486113e-06
1.79407454527614e-05
3.07886985183135e-05
4.34895134355488e-05
5.60197616795236e-05
6.83671853109119e-05
8.04879186563194e-05
9.22980993850022e-05
0.000103697103050082
0.000114581760845923
0.000124851171785207
0.000134397929071806
0.000142964870408535
0.000150451958480765
0.000156772453190219
0.000161921940160169
5.93279352029603e-08
3.07015921581379e-06
1.34472655236784e-05
2.55598701862231e-05
3.79731617958037e-05
5.04274674819074e-05
6.28320035025943e-05
7.51107726072973e-05
8.71672947962057e-05
9.88926266636387e-05
0.000110176041757068
0.00012090519800281
1.94028669347998e-05
1.71105284372803e-06
3.82822015388347e-05
2.04083980802188e-05
1.93020808535474e-06
5.25254481675267e-05
3.9525158967733e-05
2.14326288526687e-05
2.09273975812487e-06
6.45355490671376e-05
5.3934343612229e-05
4.05870745190319e-05
2.21575256611938e-05
2.1447834494439e-06
7.53120777880788e-05
6.60483706135509e-05
5.49999540711139e-05
4.12648204545431e-05
2.23784121351453e-05
2.10494466968445e-06
2.01415904186905e-06
2.21252528425776e-05
4.14042853946575e-05
5.55745159544353e-05
6.70935141216116e-05
7.68745079119485e-05
8.52792753694184e-05
1.89523787570469e-06
2.15246926032057e-05
4.09941565170925e-05
5.55557805326396e-05
6.75443837927905e-05
7.78652287755701e-05
8.68613819695231e-05
9.46571780613879e-05
1.7520299416245e-06
2.06614991665038e-05
4.00973806940929e-05
5.49323979830338e-05
6.73322680117464e-05
7.81735768780066e-05
8.77802713593987e-05
9.62412083990398e-05
0.000103577226948734
1.58479954273442e-06
1.95580031390145e-05
3.87643053201333e-05
5.37391306431909e-05
6.6459079284018e-05
7.77529291235375e-05
8.79397536267774e-05
9.7080589159049e-05
0.000105144239261226
0.000112117005447881
1.39652134861548e-06
1.82126724869353e-05
3.70149750184947e-05
5.20051398613611e-05
6.49534474785531e-05
7.66176279401052e-05
8.73082132532093e-05
9.70894623347472e-05
0.000105892846926627
0.000113642359609
0.000120314438214851
1.19252122163572e-06
1.66275176456055e-05
3.48554870276475e-05
4.974581615655e-05
6.28373335086926e-05
7.47980091465493e-05
8.59099853349871e-05
9.62468208682092e-05
0.000105743832182926
0.00011428074279277
0.000121767448580016
0.000128176740990866
9.80712764853526e-07
1.48118442427449e-05
3.22908434650799e-05
4.69718784113671e-05
6.01252127024505e-05
7.23160020798591e-05
8.37808032684005e-05
9.45862179268579e-05
0.000104684695343165
0.000113958469959696
0.000122268883229375
0.000129521049282768
0.000135686417150486
7.6806855660727e-07
1.27826866816116e-05
2.93287094259589e-05
4.36948963864437e-05
5.6831744773244e-05
6.91882473161778e-05
8.0946607695627e-05
9.21511953260519e-05
0.000102758512208225
0.00011267112050112
0.000121751782058461
0.000129854118571986
0.000136881230613906
0.000142805100258326
5.61805096900361e-07
1.0561596460989e-05
2.59784237256639e-05
3.99279050610611e-05
5.29743860695473e-05
6.54335664412061e-05
7.74281583718239e-05
8.897406007681e-05
0.000100017942836157
0.000110471784590606
0.000120220351496895
0.000129118015917684
0.000137013606806222
0.000143807701942538
0.000149475270780312
3.66550539047799e-07
8.17115538508825e-06
2.22461606299265e-05
3.56829612796547e-05
4.85719349598711e-05
6.10743708560858e-05
7.32486371664658e-05
8.50807448603231e-05
9.65025994399824e-05
0.000107422616547138
0.000117737951335536
0.000127326627939264
0.000136036970229973
0.000143708737066737
0.000150246356399374
0.000155631772954809
1.9378303832372e-07
5.66180027319413e-06
1.81315291422163e-05
3.09652321503594e-05
4.36398672471017e-05
5.61337978642452e-05
6.84345126329635e-05
8.04987731099192e-05
9.2243848338262e-05
0.000103570362838157
0.000114375623113538
0.000124553885262888
0.000133978854681021
0.000142472997961332
0.000149891051275002
0.000156141961761669
0.000161213456412677
6.70114101903132e-08
3.19539393512098e-06
1.36526190251808e-05
2.57752511558183e-05
3.81862438556837e-05
5.06290456749581e-05
6.30115205199677e-05
7.52578402659291e-05
8.72732188991011e-05
9.89510557914051e-05
0.000110184774971272
0.000120875733467704
0.000130933590275714
0.000140133300754112
0.000148375831874313
0.000155511510649763
0.000161445905000114
0.000166172385409
1.12628293852904e-08
1.20464396145789e-06
8.87450490722873e-06
2.01038647850457e-05
3.21987396193173e-05
4.45645607910411e-05
5.69951127242925e-05
6.9383469553776e-05
8.16214213980583e-05
9.3597802124915e-05
0.000105199988626291
0.000116314422113579
3.70301415905669e-05
1.96429313109318e-05
1.82369218332242e-06
5.09831705484455e-05
3.83540508282249e-05
2.07387893610173e-05
1.99824555441887e-06
6.27866951284484e-05
5.24929417079747e-05
3.95093647327594e-05
2.15370466158424e-05
2.066414451424e-06
7.34132758181388e-05
6.44239284551012e-05
5.36760531753833e-05
4.02914381354487e-05
2.18358999327362e-05
2.04127990371402e-06
8.3272851394577e-05
7.51262275297322e-05
6.56120263319381e-05
5.43826641011535e-05
4.05446612007244e-05
2.16640669546642e-05
1.96379233866154e-06
1.85685428397316e-06
2.11459145722642e-05
4.02556507394154e-05
5.45080235966711e-05
6.62218222385433e-05
7.62861979728941e-05
8.50328578579541e-05
9.25776801779159e-05
1.72480357806196e-06
2.03638485753045e-05
3.94841912138344e-05
5.40373341030989e-05
6.61810849222109e-05
7.677936513034e-05
8.61474296693065e-05
9.43679324729455e-05
0.000101455159643658
1.5675238512443e-06
1.9339516548295e-05
3.82772407834651e-05
5.3001050008741e-05
6.54870824778255e-05
7.6554822242751e-05
8.65165439994185e-05
9.5429359045998e-05
0.000103258068507865
0.000109981613323042
1.38735184722123e-06
1.80693771466446e-05
3.66512884297319e-05
5.14236155837145e-05
6.41630285987384e-05
7.56213002395434e-05
8.6103660840901e-05
9.56716473691253e-05
0.000104255259712679
0.000111774626199904
0.000118196708487906
1.18927510879898e-06
1.65518940409472e-05
3.46086574940108e-05
4.93156821661763e-05
6.22253288111186e-05
7.40029050503144e-05
8.49267721115779e-05
9.50683350752367e-05
0.000104362525774013
0.000112688465300362
0.000119951532999993
0.000126112605477703
9.80666452586892e-07
1.47954397679878e-05
3.21509219667757e-05
4.66835072321817e-05
5.96832643914423e-05
7.17155882911536e-05
8.30148447083311e-05
9.36460839681857e-05
0.000103561531298255
0.000112644137862442
0.000120755012441987
0.000127794199793744
0.000133719124436086
7.69886164582629e-07
1.28159478696881e-05
2.9283033251431e-05