/*--------------------------------*- C++ -*----------------------------------*\
  =========                 |
  \\      /  F ield         | OpenFOAM: The Open Source CFD Toolbox
   \\    /   O peration     | Website:  https://openfoam.org
    \\  /    A nd           | Version:  12
     \\/     M anipulation  |
\*---------------------------------------------------------------------------*/
/*   Windows 32 and 64 bit porting by blueCAPE: http://www.bluecape.com.pt   *\
|  Based on Windows porting (2.0.x v4) by Symscape: http://www.symscape.com   |
\*---------------------------------------------------------------------------*/
FoamFile
{
    format      ascii;
    class       volScalarField;
    location    "800";
    object      omega;
}
// * * * * * * * * * * * * * * * * * * * * * * * * * * * * * * * * * * * * * //

dimensions      [0 0 -1 0 0 0 0];

internalField   nonuniform List<scalar> 
10140
(
2.46684012185195
2.46684012027653
2.38167819932494
0.463424512595344
2.46684013438042
2.38167826054187
0.463179153822256
2.28699445272215
0.449793680502558
0.207081932475922
2.46684014660432
2.38167830681746
0.462828591402515
2.28699458698845
0.449546187892766
0.20690404992027
2.21610803716599
0.434058327280289
0.203763814912082
0.136321638236462
2.46684016062775
2.38167829536488
0.462404268207504
2.28699467467533
0.449194262394866
0.206638207806843
2.21610824383735
0.433799704688175
0.203583168000622
0.136181199665541
2.18721770423383
0.42194877737379
0.199262942180244
0.135280626151815
0.106741581521038
2.46684022608401
2.38167823682361
0.461884451898311
2.28699463699289
0.448761051890222
0.206294589190014
2.21610839766264
0.43343828093626
0.203313709527315
0.135971888615767
2.18721800819257
0.42168033380471
0.19907679066418
0.13513921540648
0.106633421159406
2.18619174524809
0.415567778658218
0.195177756986225
0.133607448992907
0.106372786244924
0.0914505775430805
2.46684040399754
2.381678197238
0.461278117761541
2.28699449577394
0.448229920556711
0.205870364767706
2.21610835816873
0.432993309421361
0.202965545589501
0.135700381897021
2.1872183459305
0.421311088868376
0.198802493160567
0.134928226653556
0.106469402799628
2.1861921725092
0.415294882470153
0.194988090223163
0.133463694021968
0.106264801907
0.0913695367488476
2.19192529557702
0.412879084250256
0.192223793410542
0.131782127384214
0.105648204631529
0.091316118308572
0.0825542255993038
2.46684060853353
2.38167823429883
0.460601886539104
2.28699436047023
0.447614422751093
0.205366137163286
2.21610814985818
0.432451081774607
0.20253691370841
0.135367716876206
2.18721838472963
0.420860050653551
0.198449483773918
0.134655031075749
0.106255109583053
2.18619289849398
0.414925157324934
0.194711738095087
0.133250556748341
0.106100293165324
0.0912418536074011
2.19192786218321
0.412608664810009
0.192034864158335
0.131637340958169
0.105539761453577
0.0912357751772622
0.0824975562288549
2.19484646753061
0.410934976226186
0.190068487877878
0.13011640949067
0.104712995639563
0.0909634864480294
0.0825006935348108
0.0770033370421038
2.46684039437156
2.38167833213517
0.459851587944745
2.2869943267126
0.446936941053325
0.204783955216145
2.21610794614919
0.431827206442141
0.20202921672948
0.134974594814628
2.187218095095
0.420314746576774
0.198016971520597
0.134320967271423
0.105992777517688
2.18619313583986
0.414478577653115
0.194357842602542
0.132975530314176
0.105885507573543
0.0910728646104585
2.19193113251976
0.412247755798664
0.191761396596192
0.131424120918176
0.105374753619637
0.0911081379822778
0.0824017298300889
2.19485124577986
0.410673182604576
0.189885406876284
0.129973823971407
0.104605082998627
0.090883821853307
0.0824449490112343
0.0769712351248251
2.19511969829569
0.408271560154544
0.188052258487798
0.128608466057819
0.103703580811107
0.0904340296988146
0.082301318033024
0.07697610965159
0.0733979136615005
2.46683762068715
2.38167814435724
0.45899152815158
2.28699443330622
0.446199387731593
0.204123341830494
2.21610788714548
0.431147849799158
0.201444965294677
0.134521832699201
2.18721779875631
0.419692305127352
0.19750711910614
0.133926862368127
0.105683969632621
2.18619267951884
0.413940636227103
0.193926239205258
0.132640278290028
0.105622831452931
0.0908654542844095
2.19192961654408
0.41181492235803
0.191412617753007
0.13114988183486
0.105159684139351
0.0909391195796672
0.0822724350739067
2.19485497839257
0.410329381396311
0.189620461657457
0.129764158720939
0.104441176924227
0.0907567273345091
0.0823494043947902
0.0769073788017389
2.19512467647932
0.40802263784674
0.18787975822252
0.128471828139825
0.10359861516794
0.0903559191476019
0.0822469743047495
0.0769450224929709
0.0733937556668391
2.19479800717415
0.404764724242334
0.185776901694636
0.12710746130425
0.102675234445277
0.0897937158889355
0.0819707831115076
0.0768435447017463
0.0733809685696093
0.0710176721103143
2.46683890081514
2.38167730318641
0.457997679967498
2.28699428172024
0.445361024573782
0.203379214231529
2.21610800963992
0.430417141455374
0.200784287848146
0.134009809050341
2.18721773004287
0.419021758456277
0.196923049862989
0.133473567345886
0.105329960552369
2.18619217794586
0.413331572853636
0.193419573920291
0.132245800992301
0.105313856877467
0.0906218960720621
2.19192874745157
0.411295692137736
0.190988400347458
0.130816466129164
0.104897092068496
0.0907317242664086
0.0821133392117096
2.19485549888589
0.409918568132525
0.189282916609304
0.129494803122339
0.104227765728308
0.0905883627407923
0.0822202704844182
0.0768184837599435
2.19512654388323
0.407702795572483
0.187628541867797
0.128269656586096
0.103438531299406
0.0902307415714176
0.0821526756357557
0.0768815356772229
0.0733666991625854
2.19480337290798
0.404530170109298
0.185618879358286
0.126980258788585
0.102576066299685
0.0897189826674934
0.0819186674693437
0.0768143661469306
0.0733778207138525
0.0710487085967404
2.19479312669761
0.400638179004548
0.183139927839995
0.12550033780556
0.101622826814484
0.0891012766745911
0.0815517035894401
0.0766206771990381
0.0732840658542302
0.0710078692741777
0.0694600479422004
2.46684121378116
2.38167791954801
0.456868521029945
2.28699339051997
0.444380837082715
0.202546805733807
2.21610792389026
0.429592304840404
0.200041801765009
0.133438005597693
2.18721784342113
0.418305894148156
0.196265149314967
0.132961495753301
0.104931596192795
2.18619213716208
0.412683043440093
0.192841429821355
0.131793021722106
0.104959848569619
0.0903439719661989
2.19192596129878
0.410713401290964
0.190491818091624
0.130424967235146
0.104588599204589
0.0904882418034048
0.0819274750452713
2.19485195183521
0.409428405639028
0.18887276793089
0.129167641526298
0.1039674408606
0.0903818407942028
0.082061306411816
0.0767094487684718
2.19513074634149
0.407320066536792
0.18730785682479
0.128009392075093
0.103229754657712
0.0900646396629574
0.0820248520223327
0.0767928384199142
0.0733253979064914
2.1948053915215
0.404237678421548
0.185385906525616
0.126789198072339
0.102422745135116
0.0895977514680388
0.0818268546274645
0.0767526483761544
0.0733511097478578
0.0710688185967897
2.19479899199238
0.400417982195538
0.182999305000736
0.125385686915489
0.101532184549332
0.089032084962733
0.0815031563514053
0.0765941809877342
0.0732832343361484
0.0710398316751563
0.0695389731101476
2.19511855608449
0.396006189366022
0.180160178669686
0.123754998523239
0.100537501876869
0.0883957795435407
0.0810984700951274
0.0763459356889661
0.0731298730669827
0.0709365828626935
0.0694572331883887
0.0684851755008344
2.46683863087691
2.38169226993365
0.455618299124393
2.28699370251188
0.443254431495132
0.20162518833383
2.21610716667906
0.42862479382767
0.199211241552709
0.132805509867925
2.18721785969832
0.417497053936234
0.19552753216638
0.132390083023671
0.104489074695522
2.18619225169542
0.411992588242412
0.192191900023149
0.13128231993599
0.104561630243578
0.0900327350279723
2.19192803365224
0.410100671434025
0.189926675187781
0.129976312684658
0.104235431102995
0.0902104285850197
0.0817170588883466
2.19484672207836
0.408887209395735
0.188393394139547
0.128783762517397
0.103661794656057
0.0901394417626945
0.0818755434276059
0.0765843254759905
2.19512458989159
0.406867653730213
0.186917986029719
0.127692910239449
0.102974839166285
0.0898607298724607
0.0818673389136447
0.0766838975023956
0.0732767576422819
2.19480305404842
0.403887922974241
0.185086856870397
0.126541810453647
0.102221647873199
0.0894360579233186
0.0817017290580395
0.076665763215776
0.0733099103847384
0.0710900185495817
2.19480760589549
0.400150545921362
0.18278798097787
0.125209001725213
0.101388362654271
0.0889169627616407
0.0814152592478523
0.0765353441280623
0.0732587284234955
0.0710601476509709
0.0696237208982965
2.19512461210797
0.395800017094231
0.180039148839057
0.123655772215837
0.100458001885891
0.0883342939033736
0.0810550467276301
0.0763229909642768
0.0731320531998519
0.0709712505923156
0.0695368994542389
0.068633126942625
2.19484813698115
0.390849258769098
0.176876099212106
0.121897650019439
0.0994377753907741
0.0877108789430871
0.0806619853715815
0.0760704755796582
0.0729592382405574
0.0708340748525594
0.0694082255175609
0.0684892408567908
2.46683596259598
2.38167786656821
0.454258533290295
2.287007540379
0.442002552501887
0.200616915482419
2.21610500687094
0.42750672202728
0.198291125020403
0.132111734122752
2.18721621066109
0.416543780762141
0.194702593358031
0.131758240481179
0.104001934542714
2.18619222472061
0.411203930113458
0.1914642066452
0.130712931928751
0.104119370426523
0.0896882513112736
2.19192833220119
0.409445615987333
0.189292269644333
0.129470728957751
0.103838326991444
0.0898993052077905
0.0814830692456235
2.19485126335814
0.408321331951144
0.187848445951347
0.128344002356235
0.103311956849367
0.0898628483530759
0.0816651721298563
0.076445767842116
2.19511905654044
0.406380019747407
0.186462624948154
0.127321224431116
0.102675278500628
0.0896212179669171
0.0816831255231278
0.0765587455096727
0.0732263033653066
2.19479872196384
0.403479895126776
0.184722679559134
0.126239954727782
0.101975244203494
0.0892369291011316
0.081547087381876
0.0765587089776678
0.0732611634615177
0.0711223883097259
2.19480538680966
0.399835954370372
0.182514514004498
0.124977872242336
0.101197692208371
0.0887618139151149
0.0812942381492359
0.0764514414348866
0.0732197456306853
0.0710811922738799
0.0697323601372755
2.19513112172946
0.395554317998885
0.179851780677582
0.123496463345033
0.100326288713255
0.0882273623886552
0.0809725032700691
0.076267851381577
0.0731106947433652
0.070994172634798
0.0696215523718133
0.0688087870914739
2.19485185442383
0.390654795530546
0.176776450596529
0.121816719238961
0.099372154509659
0.0876593368100052
0.0806253276187322
0.0760520117941968
0.0729647587343054
0.0708720084807667
0.0694910002466898
0.0686375307702963
0.0681934363988873
2.19192791436318
0.385029088369406
0.173332401262172
0.119999052558179
0.098381424999003
0.0870962498352833
0.0802936233513126
0.075847315005254
0.0728221334376388
0.0707450101274764
0.0693488364472335
0.0684608075381036
2.46684226923058
0.45280754595972
2.38166213273328
2.2869940498939
0.44063762065563
0.199526908221104
2.21611184979431
0.4262567658161
0.197284603693499
0.131356712747929
2.18721583701112
0.415437713805787
0.193788043489196
0.131065285080416
0.103469224974739
2.18619105028048
0.410267774399067
0.19064977172225
0.130083445703903
0.103632558531083
0.0893095199460801
2.19192993062515
0.40868282721074
0.188580413202853
0.128907140741637
0.10339732563119
0.0895549159632674
0.0812248916493439
2.19485400328955
0.407706346401376
0.187235808969905
0.127848307816597
0.102918514520788
0.0895529708403139
0.081431140666419
0.0762943051700187
2.19512419033057
0.405869856394429
0.185944482223698
0.126894982212093
0.102332049867526
0.0893476510501266
0.0814742955075286
0.0764199982327304
0.0731770809334164
2.19479328938157
0.403053143027652
0.184297339834915
0.125884534643623
0.101684882146388
0.0890024268633569
0.0813657961383699
0.0764354209481609
0.0732103472231189
0.0711735043359872
2.19480318386555
0.399481056048965
0.182180509239633
0.124694165989795
0.100962537182529
0.0885695185225607
0.0811437403567691
0.076347364493798
0.0731731788575411
0.0711130334302076
0.0698797726831305
2.19512681827939
0.395276000962918
0.179607088755732
0.123284729345849
0.100148628252828
0.088080735192744
0.0808568535312386
0.0761875550596034
0.0730748119553815
0.0710177406150972
0.0697295444849649
0.06904309931376
2.19485570431745
0.390426981576712
0.176614911489634
0.12167771166948
0.0992552555693404
0.087562735082654
0.0805495941832897
0.0760012250878212
0.0729466352987343
0.070898216157017
0.0695786004059953
0.0688125972708433
0.0684968695436712
2.19193055418302
0.384839703603587
0.173255798088992
0.119939532958929
0.0983327963682632
0.0870572114308502
0.0802655892292731
0.075834402277322
0.0728311861608416
0.0707858330846369
0.0694350445378674
0.0686124914580797
0.068203018333744
0.0681209324416342
2.18619294169925
0.378371052787577
0.169613523108514
0.118190890883861
0.0974792381161263
0.0866367428005806
0.0800615618999893
0.0757354089541502
0.0727715941629301
0.0707194541299346
0.0693269117287802
0.0684389835323097
2.4668438288431
0.451286143217118
2.3816914763307
0.198360903621295
0.439178667187991
2.28696637178866
2.21610824321158
0.42489439819813
0.196196355557944
0.130541363035679
2.18722221389308
0.414198816988552
0.1927870705256
0.130311321882652
0.102889783855162
2.18619348918741
0.409179677285973
0.189745830496407
0.129392967443683
0.103100212345988
0.0888946268669738
2.1919261487796
0.407769456744097
0.187782152189468
0.128283784804607
0.10291176213916
0.0891762406893787
0.0809402007063742
2.1948531043604
0.406975771128284
0.186545746482467
0.127295206950409
0.102481308610224
0.0892097281653966
0.0811728098689575
0.0761278139808823
2.19512936670949
0.40529717416723
0.185359517030196
0.126413731675021
0.101945537613677
0.0890407682960494
0.0812416560271601
0.0762681507052051
0.073128469096035
2.19479882191684
0.402603892592856
0.183811784880615
0.125475872889277
0.101351343349317
0.0887339142739009
0.0811597548529898
0.0762983476155335
0.073160450018918
0.0712465340401654
2.19479800618548
0.39911803386776
0.181789994419979
0.124358631513495
0.100684067443289
0.0883419479330025
0.0809664305967024
0.0762268416770497
0.0731243096655476
0.0711631593351187
0.0700761417639858
2.19512477951573
0.394980017118977
0.179307371061026
0.123022435519202
0.0999272648366625
0.0878971122045625
0.080711523985675
0.0760867505881375
0.0730310657329443
0.0710518325360198
0.0698756720253824
0.0693573852775899
2.19485330122245
0.390184973654882
0.176401801270287
0.121488462849841
0.09909327407926
0.0874266404855796
0.0804405472492585
0.0759248387510079
0.0729135172768153
0.0709247417597951
0.0696892178210295
0.0690454083523579
0.0689129181101106
2.19192988002277
0.384626659397393
0.173121940840497
0.119823952891721
0.0982337497600852
0.0869733826546925
0.0801983356104233
0.0757887183805963
0.0728160033773377
0.070814441093723
0.0695258284343851
0.0687906962743428
0.0685053800263795
0.0686179859983995
2.18619500588245
0.378173375092019
0.169561950462223
0.118156509614551
0.0974513661838866
0.0866133488806697
0.0800444572461365
0.0757294492733084
0.0727845478969418
0.0707624111187221
0.0694152043666137
0.0685939902640326
0.0681967149223493
0.0681348840648127
0.0683831233639641
2.18721907869173
0.371266496574051
0.165959208511974
0.116726730074918
0.096928861005824
0.0864754959824314
0.0800702683243416
0.0758139892910065
0.0728702644831624
0.0708104298699623
0.0693930358843545
0.0684734662116668
2.46684253706441
0.449718489949261
2.38168167136367
0.197128860149285
0.437654588901142
2.28700507263454
0.129667620040122
0.19503309921785
0.423439126125347
2.21609060902104
2.18721879214926
0.412848233475418
0.191705028601806
0.129497287153144
0.102262678818679
2.18619594672053
0.407960725082112
0.18875558524005
0.128641583083092
0.102521174481887
0.0884410238519521
2.19192946378825
0.406707862747048
0.186894977225902
0.127599542262572
0.10238053482878
0.088761328282643
0.0806251783438557
2.19484674775684
0.40609449995065
0.185769586638049
0.126682651412522
0.10199946811338
0.0888319712322968
0.0808878402096965
0.0759414316477477
2.19512418391961
0.404603257377724
0.184697160932829
0.125875575881294
0.101515351848025
0.0887002999694624
0.0809844167093366
0.0761010640209016
0.0730754436465672
2.19480428773884
0.402076742649451
0.183259641025223
0.125013045576577
0.100974779225397
0.0884319241694695
0.0809295567221798
0.0761477864677851
0.073110817469697
0.0713383941766428
2.19480374182143
0.398726599907747
0.181341673609935
0.123971156120018
0.100362840335936
0.0880802524518741
0.0807639718507668
0.0760920485478265
0.0730758537228261
0.0712346561389909
0.0703239832351809
2.1951198105926
0.394682627427923
0.178955531505351
0.122710115157725
0.0996631687379967
0.0876781471868066
0.0805389258185617
0.0759688641209111
0.0729843800206904
0.0711035701860396
0.0700699694298076
0.069764630189371
2.19485167696793
0.389948386425103
0.176140004808698
0.121250838774513
0.0988883206485005
0.0872535505416958
0.0803013489083673
0.075827169149937
0.0728716628625318
0.07096100780764
0.0698372102381633
0.0693571287472081
0.0694690758368894
2.19192784839133
0.384423541515283
0.172943240092331
0.119660520051068
0.0980904410821026
0.0868501282603944
0.0800973386165371
0.0757166172909349
0.0727847596670963
0.070842288692574
0.0696387448663784
0.0690257659565095
0.068918585929544
0.0692974444638968
2.18619346582451
0.377968136597825
0.169458666991831
0.118068101009657
0.0973738195553085
0.0865452873812935
0.0799878053833334
0.0756899775661921
0.072772173157134
0.0707918780099761
0.0695069195105842
0.0687747738598977
0.0685022216920359
0.0686293448367958
0.0691499031293083
2.18721905677796
0.37105293538463
0.165937002448297
0.116722620848916
0.0969265757572355
0.0864717633170722
0.0800670985611765
0.0758169316295747
0.072887934655745
0.0708549827173825
0.0694813814132246
0.0686290830677315
0.0682103888626838
0.0681456246580738
0.06839968879958
0.0689627964189696
2.2161092742595
0.36639992410404
0.163177764005985
0.116144995761301
0.0970949446121004
0.0868566438004275
0.080486650199086
0.0762010849884451
0.073204271681922
0.0710828446411272
0.0696004878519208
0.0686151877595081
2.46683911286069
0.448146768626189
2.3816796034234
0.195844593101487
0.436087139901601
2.28699776642828
0.128739801975816
0.193805284543803
0.421917867783986
2.21610696348779
0.101587786908888
0.128625319633635
0.190549154217331
0.411406044726153
2.18721371618764
2.18619328609255
0.406631787448596
0.187684602024736
0.127830312026087
0.101894525495364
0.0879461138876256
2.19193396671431
0.405519217677588
0.185922151439184
0.126854434230997
0.101802437271894
0.0883076334146713
0.0802750741327285
2.19485240952263
0.405071149234924
0.184905612005942
0.126009401941057
0.101471736931023
0.088417635424364
0.0805724116998228
0.0757280140587454
2.19511928563004
0.403763401614066
0.183949437461013
0.125278311214253
0.101040428301976
0.0883249213846807
0.0807001008469639
0.0759138808909967
0.0730086077750564
2.19479898289547
0.401423003278341
0.182630317182867
0.12449380121432
0.100554575082684
0.0880959901479973
0.0806742004852817
0.0759814105770859
0.0730564256482137
0.0714387554034276
2.1948092905844
0.398246383073233
0.180826756381333
0.12353026342131
0.0999987585254869
0.087784755512519
0.0805367216139269
0.0759429949781403
0.0730268740311175
0.0713244110416846
0.0706153726916357
2.19512548417959
0.394344416106945
0.178547717519066
0.122347109530416
0.0993566428289621
0.0874247653467666
0.0803404676355507
0.0758357449161511
0.072937049224531
0.0711756015974514
0.0703148422064912
0.0702650226018845
2.19484905933732
0.389713687270336
0.175830255613173
0.120964991398685
0.0986411404861177
0.0870448843140333
0.080134133002415
0.0757112874371643
0.0728255234127493
0.071013526233825
0.0700319696221324
0.0697605147733534
0.0701806814416133
2.1919284360264
0.384243244620896
0.172722771195515
0.119451098758588
0.0979048462950171
0.086689727207096
0.0799654698822316
0.075622034943443
0.0727432051489789
0.0708781238939519
0.0697873125314253
0.0693380315382209
0.0694700428752244
0.0701992303486761
2.18619093755697
0.377802697127469
0.169318590442583
0.117934552961993
0.0972527994175729
0.0864377241649506
0.0798967694505862
0.075622940230422
0.0727421016970122
0.070818573951623
0.0696186513471324
0.0690104692126677
0.0689164099424199
0.0693037075811228
0.0701982608953886
2.18721821276561
0.370852990574856
0.165869746039959
0.116666642008623
0.0968752099213146
0.0864233006486102
0.0800238538838062
0.0757853639278633
0.0728787584953925
0.0708840198047124
0.069570788932292
0.0688082200673164
0.068516950016909
0.0686419139839301
0.0691615122722051
0.0700955286796656
2.21610890975852
0.366137325347317
0.163196598359571
0.116179710435607
0.0971249508487766
0.0868778405534088
0.0805014036424153
0.0762156519205835
0.0732281258203631
0.071129041486272
0.0696871412153116
0.0687676535244427
0.0682901306741978
0.0681863688545499
0.068424733771331
0.0689797630474006
0.0698545185285789
2.28699538146645
0.37311695449089
0.164135545896787
0.117744766823309
0.0987011591500084
0.0882159088903448
0.0815867734355674
0.077080410675064
0.0739009276635089
0.0716274325197068
0.0700158893590447
0.0689178279558007
0.446669498924065
2.38167615227496
0.194530115616782
0.434514051316087
2.28699604307766
0.127765449478751
0.192526704977964
0.420352607373394
2.21611090142735
0.100866646349417
0.127699768380533
0.189329460036554
0.409897727379787
2.18721700268632
0.0874080496926307
0.10122019048386
0.126961526087328
0.186540372045297
0.405212953385884
2.18618954965512
2.19192944467223
0.404223405100575
0.184869175518806
0.12604950199565
0.101176564749693
0.0878125877898076
0.0798850465959036
2.19485809397211
0.403925544403628
0.183957131036415
0.12527540480859
0.10089682612851
0.0879641149973721
0.0802217891571991
0.0754791718767625
2.19512523435617
0.402789327301135
0.183115561948217
0.12462069757332
0.100519377834143
0.0879124345354954
0.0803847895952544
0.0756994981923609
0.072915220133138
2.19479380894899
0.400632310461677
0.181917140786352
0.123915893588588
0.100089522357371
0.0877246322945768
0.0803910400936818
0.0757942239174706
0.0729879347664441
0.071530472542948
2.19480393953053
0.39763924088012
0.180235073331555
0.123033471112334
0.0995910155205473
0.0874548231809393
0.0802834846197023
0.075777109280454
0.0729721198992859
0.0714221442728719
0.0709307151839903
2.19513090795769
0.393911482777029
0.178073614409877
0.121931364672484
0.0990073313324064
0.087137094344768
0.0801162902363287
0.0756871128800707
0.072887741548373
0.0712644177317282
0.0706023618088057
0.0708417680523304
2.19485431366289
0.389427243182604
0.175465859774348
0.12062962324569
0.0983517460149991
0.0868013345637924
0.0799400556092364
0.07557871616628
0.0727769242005807
0.0710842954207067
0.0702752203155615
0.0702556064482481
0.0710426361776714
2.19192840437474
0.384060864081154
0.172458418950308
0.119195276808752
0.0976774376198919
0.0864933495782587
0.079804574810379
0.0755076710046951
0.072695273771353
0.0709277108083546
0.0699799110338132
0.0697391916069131
0.0701749377262395
0.0713418786209167
2.18619035161078
0.377677485689992
0.169143911640791
0.117757678471702
0.0970901499653704
0.0862927098922493
0.0797739153581111
0.0755318684616263
0.0726995275103823
0.0708504566706498
0.069762798824192
0.0693199256241423
0.0694653112221096
0.0701975528573107
0.0715817801716602
2.18721384409991
0.370717381646339
0.165775551966008
0.116568880035409
0.0967812012762417
0.0863351079620645
0.0799453767435913
0.0757247989616651
0.0728497858992407
0.0709074482334566
0.069676705318267
0.0690383902450561
0.0689282011058514
0.069314071285655
0.0702012756741047
0.071644866655612
2.21610749982241
0.365909418425765
0.163176244194745
0.116164945896846
0.0971062894924113
0.0868540318666702
0.0804753187976158
0.0761944623276126
0.0732232708297486
0.071157100451283
0.0697714101495603
0.0689395864076759
0.0685905656038715
0.0686801271881047
0.0691853009549925
0.070104045824161
0.0714690832086818
2.28699558541227
0.372611919045919
0.164248716124071
0.117837494743394
0.0987739916018545
0.0882695253931516
0.081624780986688
0.0771103477928265
0.0739332745292688
0.0716761135996593
0.0700999021230245
0.0690638294599647
0.068485246813964
0.068300466857961
0.0684863272883761
0.0690153130531512
0.0698692433572704
0.0710544394464289
2.38167955402928
0.429722181419115
0.180513553273322
0.125232463786295
0.103351982328477
0.0913872360138927
0.0838519749421939
0.0787497363072341
0.0751556439508933
0.0725779481831528
0.0707333154400123
0.069449521166101
0.193225298300033
0.433017703524289
2.28699263701049
0.126756239783113
0.191218819396227
0.418785129096731
2.21611216634959
0.100103255368941
0.126728257675245
0.188059976379219
0.408347841464275
2.18722095953295
0.0868264829079769
0.100499766389022
0.126039952558711
0.185334345163664
0.403727224232974
2.18619082549136
0.0794511498097058
0.0872743478000645
0.100502921802852
0.125187211751784
0.183743319967639
0.402838922417292
2.19192394282371
2.19485348474157
0.402676764992696
0.182929406896741
0.124481653999313
0.100273817708567
0.0874688351880025
0.0798311588377184
0.0751866131164201
2.19513150130458
0.401699487112756
0.182198817374937
0.123902634261726
0.0999508481875101
0.0874601657478517
0.0800337051485373
0.0754495803108009
0.072781035483827
2.19479968561379
0.399717246564887
0.181120050345523
0.123278161954056
0.0995781703372314
0.0873155655248246
0.0800760587384325
0.0755790647784909
0.0728927043634753
0.0715916476834834
2.19479860741361
0.396905877923046
0.179561758236088
0.122478594479814
0.0991383145667355
0.0870888837254191
0.0800015028025083
0.0755892492235505
0.0729021451725354
0.0715108504729939
0.0712400222598933
2.19512558481951
0.393357749457689
0.177523933146168
0.12146021473059
0.0986142715166292
0.0868143746995006
0.0798650699315005
0.0755202114758437
0.0728309373205774
0.0713594989686475
0.0709130738593142
0.0714596891226916
2.19485531460617
0.389043970314244
0.175036009827469
0.120242140100993
0.0980195146002135
0.0865228458411298
0.0797190802308286
0.0754289462539597
0.0727241756431147
0.0711692796043637
0.0705585124305672
0.0708256774429924
0.0720228427739208
2.19193125464139
0.383823544199574
0.172140929871101
0.1188909862544
0.0974078946630723
0.0862614456207066
0.0796155683860048
0.0753747513656356
0.0726423592495996
0.070992371688704
0.0702172895390896
0.0702282643348335
0.0710278812814096
0.0727111459173491
2.18619245123398
0.377544092747317
0.1689290197385
0.117536274812752
0.0968860027366729
0.0861111433481124
0.0796207957880799
0.0754190960300165
0.0726478750298328
0.0708925250957572
0.0699465718421679
0.0697132317131367
0.0701625823655665
0.0713289437140985
0.0733201663755896
2.18721386158079
0.370631732213157
0.165654668148056
0.116430880767315
0.0966462412613976
0.0862090036999163
0.0798339185742101
0.0756383554678698
0.0728056433878616
0.070932403252955
0.0698103021370373
0.0693366147521404
0.0694677947476728
0.0701993015137337
0.0715718322542634
0.0736798047433268
2.21610229245698
0.365781626928421
0.163140162968467
0.116113041833261
0.0970460693762208
0.086790143450702
0.0804129314192073
0.0761425884865127
0.073196158941296
0.0711760859246898
0.0698675241526933
0.069156655375647
0.0689888929010758
0.0693424412804544
0.0702165928772334
0.0716395993542888
0.0736768266912437
2.28700593835545
0.372197838926371
0.164303960889747
0.117881204043974
0.0987984697725561
0.0882773635053451
0.0816208816980246
0.0771030109312093
0.0739347521833996
0.0717035858946888
0.0701772650894619
0.0692236818926187
0.0687707720727395
0.068780514006917
0.069237632402772
0.0701324917724616
0.0714703988540038
0.0732810380564703
2.38168145625283
0.428855526241494
0.180902491267277
0.125453570499218
0.103487581833579
0.0914843308234176
0.0839204040608344
0.0788001014627563
0.0751998345813609
0.0726308915357746
0.0708147381424439
0.0695868814157359
0.0688505786420483
0.0685361859767122
0.0686232866313525
0.0690899288626371
0.0699101346888618
0.0710638861663182
0.0725480090632695
3.68516517047986
0.779404746910235
0.269041408602268
0.151838636228904
0.11522196882219
0.0981458838519978
0.0881822058779029
0.081718899973983
0.0772809439702229
0.0741379774973457
0.0718911602531971
0.0703070275926928
0.125728748112761
0.189919226984623
0.417288602724744
2.21610428102563
0.0993043938565976
0.125722483323463
0.18676242979104
0.406799020174198
2.18722160490384
0.0862033279805237
0.0997372971875503
0.125073041955126
0.184079687129959
0.402200096428266
2.18619347792412
0.0789712844297059
0.0866925958655504
0.0997832196978473
0.124272371699705
0.182554977351633
0.401386518005476
2.19192630107263
0.0748435760227093
0.0793966084725276
0.0869299873224374
0.0996027582421581
0.123630562722574
0.181829291455334
0.401340238239695
2.19484951396594
2.19512709796093
0.400509930606322
0.181204104141588
0.123125040363438
0.0993339016415323
0.0869655401188233
0.0796420520804103
0.0751559050073178
0.072592576861053
2.19480800854518
0.39869401274345
0.180242186758296
0.122580499517395
0.0990191476042522
0.0868661025583343
0.0797244682197665
0.0753276252251948
0.0727566229261067
0.0715989620297907
2.19480421378859
0.396059111052916
0.178807376370853
0.121864591305443
0.0986392108477301
0.0866846488540644
0.0796867535923916
0.0753722410637016
0.0728043526952171
0.0715688482862608
0.0715069014026656
2.19512025608535
0.392688243989908
0.176895407303668
0.120931672569088
0.0981761313030192
0.0864550111668748
0.079584040430305
0.0753298708615431
0.0727571296860364
0.0714438449782684
0.0712172840955974
0.0720681605403611
2.19485207565669
0.388549799632826
0.174532668726139
0.119799776647614
0.0976433352734596
0.0862085730321813
0.0794698289869511
0.0752591574455309
0.0726616219693969
0.0712577211969219
0.0708622134610632
0.0714358570673208
0.073060821762711
2.19193118340958
0.38349588949964
0.171759440195105
0.118535160231804
0.0970953081730359
0.0859937806244482
0.0793982744473111
0.0752226185550923
0.072582544292573
0.0710676548008632
0.0704903456820139
0.0707879109710815