/*--------------------------------*- C++ -*----------------------------------*\
  =========                 |
  \\      /  F ield         | OpenFOAM: The Open Source CFD Toolbox
   \\    /   O peration     | Website:  https://openfoam.org
    \\  /    A nd           | Version:  12
     \\/     M anipulation  |
\*---------------------------------------------------------------------------*/
/*   Windows 32 and 64 bit porting by blueCAPE: http://www.bluecape.com.pt   *\
|  Based on Windows porting (2.0.x v4) by Symscape: http://www.symscape.com   |
\*---------------------------------------------------------------------------*/
FoamFile
{
    format      ascii;
    class       volScalarField;
    location    "800";
    object      p;
}
// * * * * * * * * * * * * * * * * * * * * * * * * * * * * * * * * * * * * * //

dimensions      [0 2 -2 0 0 0 0];

internalField   nonuniform List<scalar> 
10140
(
83333.3295365523
83333.3295335981
83333.3295365795
83333.3295364633
83333.3295304872
83333.3295336182
83333.3295335034
83333.3295366418
83333.3295364797
83333.3295362575
83333.3295271945
83333.3295305001
83333.329530385
83333.3295336782
83333.3295335141
83333.3295332751
83333.3295367488
83333.3295365304
83333.3295362754
83333.3295364236
83333.3295236899
83333.3295272084
83333.3295270696
83333.3295305593
83333.3295303913
83333.3295301191
83333.3295337873
83333.3295335626
83333.3295332891
83333.3295334525
83333.3295369088
83333.3295366301
83333.3295363203
83333.3295364538
83333.329537419
83333.3295199886
83333.3295237035
83333.3295235445
83333.3295272708
83333.329527077
83333.3295267675
83333.3295306715
83333.3295304398
83333.3295301313
83333.3295303046
83333.3295339538
83333.3295336641
83333.3295333318
83333.3295334792
83333.3295345245
83333.3295371242
83333.3295367863
83333.3295364162
83333.3295365115
83333.3295374463
83333.3295392617
83333.3295160947
83333.3295199984
83333.3295198196
83333.3295237685
83333.3295235529
83333.3295232106
83333.3295273892
83333.3295271276
83333.3295267789
83333.3295269553
83333.3295308454
83333.3295305448
83333.3295301746
83333.3295303304
83333.3295314557
83333.3295341802
83333.3295338264
83333.3295334295
83333.329533536
83333.329534548
83333.3295365216
83333.3295373927
83333.3295370015
83333.3295365693
83333.3295366144
83333.3295375215
83333.3295392807
83333.3295419022
83333.3295119692
83333.3295161
83333.3295158871
83333.3295200656
83333.3295198259
83333.3295194501
83333.3295238931
83333.3295236049
83333.3295232209
83333.3295234044
83333.3295275733
83333.3295272382
83333.3295268228
83333.3295269823
83333.3295281951
83333.3295310844
83333.3295307151
83333.3295302761
83333.3295303886
83333.3295314797
83333.32953362
83333.3295344645
83333.3295340528
83333.3295335886
83333.3295336413
83333.329534624
83333.329536537
83333.3295393967
83333.3295377101
83333.3295372725
83333.3295367832
83333.3295367655
83333.3295376313
83333.3295393566
83333.3295419073
83333.3295452614
83333.3295075234
83333.3295119811
83333.3295117099
83333.32951617
83333.3295158899
83333.3295154705
83333.3295201973
83333.3295198788
83333.3295194584
83333.329519645
83333.3295240878
83333.3295237207
83333.3295232648
83333.3295234326
83333.3295247419
83333.3295278268
83333.3295274187
83333.3295269289
83333.3295270418
83333.3295282209
83333.3295305434
83333.329531386
83333.3295309546
83333.3295304433
83333.3295304985
83333.3295315585
83333.3295336355
83333.32953675
83333.3295348018
83333.3295343396
83333.3295338135
83333.3295337982
83333.3295347364
83333.3295366131
83333.3295393976
83333.3295430683
83333.3295380707
83333.3295375941
83333.3295370569
83333.3295369735
83333.3295377772
83333.3295394593
83333.3295419668
83333.3295452566
83333.3295492677
83333.3295026873
83333.3295075534
83333.3295072188
83333.3295120594
83333.3295117121
83333.3295112375
83333.3295163118
83333.3295159439
83333.3295154758
83333.3295156567
83333.3295204043
83333.3295200006
83333.329519502
83333.3295196742
83333.3295210808
83333.3295243568
83333.3295239114
83333.3295233754
83333.3295234928
83333.3295247691
83333.3295272889
83333.329528147
83333.3295276729
83333.3295271053
83333.3295271569
83333.3295283028
83333.3295305602
83333.3295339522
83333.329531745
83333.3295312594
83333.3295306809
83333.329530663
83333.3295316755
83333.3295337138
83333.3295367495
83333.3295407611
83333.329535186
83333.3295346813
83333.3295341025
83333.3295340161
83333.3295348867
83333.3295367165
83333.3295394555
83333.329543058
83333.3295474619
83333.3295384685
83333.329537961
83333.329537386
83333.3295372427
83333.3295379749
83333.3295395905
83333.3295420448
83333.3295452899
83333.3295492585
83333.329553857
83333.3294974353
83333.3295027298
83333.3295023516
83333.3295076458
83333.3295072246
83333.3295066967
83333.3295122141
83333.3295117693
83333.3295112398
83333.3295114076
83333.3295165357
83333.3295160727
83333.3295155187
83333.3295156863
83333.3295171885
83333.3295206909
83333.3295202021
83333.3295196174
83333.3295197352
83333.3295211097
83333.329523836
83333.3295246974
83333.3295241807
83333.3295235611
83333.329523613
83333.3295248539
83333.3295273063
83333.3295309992
83333.3295285282
83333.3295279966
83333.3295273571
83333.3295273299
83333.3295284247
83333.3295306411
83333.3295339513
83333.3295383349
83333.3295321545
83333.3295316238
83333.3295309875
83333.3295308922
83333.3295318318
83333.3295338195
83333.3295368075
83333.3295407475
83333.3295455769
83333.3295356103
83333.329535072
83333.3295344513
83333.3295342993
83333.3295350916
83333.3295368491
83333.3295395301
83333.3295430872
83333.3295474468
83333.329552514
83333.3295388963
83333.3295383686
83333.3295377663
83333.3295375729
83333.3295382333
83333.3295397679
83333.329542147
83333.3295453313
83333.3295492608
83333.3295538444
83333.3295589703
83333.3294917536
83333.3294974809
83333.3294970755
83333.329502833
83333.3295023601
83333.3295017949
83333.3295078119
83333.3295072876
83333.3295066969
83333.3295068549
83333.3295124539
83333.3295119057
83333.3295112821
83333.3295114373
83333.3295130344
83333.3295168435
83333.3295162866
83333.3295156391
83333.3295157478
83333.3295172192
83333.3295201593
83333.3295210563
83333.3295204872
83333.3295198131
83333.329519861
83333.3295211979
83333.3295238544
83333.3295278673
83333.3295251031
83333.3295245238
83333.3295238273
83333.3295237945
83333.3295249805
83333.3295273903
83333.3295309969
83333.3295357846
83333.3295289639
83333.3295283836
83333.3295276822
83333.3295275713
83333.3295285874
83333.3295307493
83333.3295340096
83333.3295383185
83333.3295436139
83333.3295326075
83333.3295320413
83333.3295313584
83333.329531191
83333.3295320448
83333.3295339543
83333.3295368796
83333.3295407735
83333.3295455574
83333.3295511332
83333.3295360672
83333.3295355066
83333.3295348552
83333.3295346478
83333.3295353604
83333.3295370286
83333.329539628
83333.3295431194
83333.3295474409
83333.3295524965
83333.3295581691
83333.3295393456
83333.3295388104
83333.3295381934
83333.3295379621
83333.3295385558
83333.3295400031
83333.329542288
83333.32954539
83333.3295492603
83333.329553817
83333.3295589528
83333.3295645613
83333.3294856308
83333.3294918011
83333.3294913733
83333.3294975894
83333.3294970842
83333.3294964969
83333.3295030068
83333.3295024278
83333.329501793
83333.3295019549
83333.3295080584
83333.3295074309
83333.3295067399
83333.3295068852
83333.329508581
83333.3295127772
83333.3295121306
83333.3295114073
83333.3295114989
83333.3295130669
83333.329516228
83333.3295172321
83333.3295165877
83333.3295158451
83333.329515879
83333.3295173107
83333.3295201791
83333.3295245291
83333.3295214927
83333.329520851
83333.3295200939
83333.3295200512
83333.3295213294
83333.3295239421
83333.3295278642
83333.3295330857
83333.3295255671
83333.3295249338
83333.3295241714
83333.3295240481
83333.3295251495
83333.3295275004
83333.3295310556
83333.3295357649
83333.3295415689
83333.3295294475
83333.3295288275
83333.3295280759
83333.3295278863
83333.3295288085
83333.3295308862
83333.3295340788
83333.3295383411
83333.3295435906
83333.329549726
83333.3295330962
83333.3295325051
83333.3295317886
83333.3295315595
83333.3295323248
83333.329534136
83333.3295369729
83333.3295407975
83333.329545544
83333.3295511117
83333.3295573762
83333.3295365481
83333.329535979
83333.3295353097
83333.3295350594
83333.329535697
83333.3295372678
83333.3295397632
83333.3295431653
83333.3295474252
83333.3295524571
83333.3295581459
83333.3295643741
83333.3295398067
83333.3295392784
83333.3295386626
83333.3295384082
83333.3295389434
83333.3295403019
83333.3295424801
83333.3295454754
83333.3295492601
83333.3295537675
83333.3295588982
83333.329564541
83333.3294790576
83333.3294856808
83333.3294852323
83333.3294919148
83333.3294913818
83333.3294907824
83333.3294977701
83333.3294971548
83333.3294964924
83333.329496673
83333.3295032567
83333.3295025767
83333.3295018369
83333.3295019862
83333.3295037887
83333.3295083828
83333.3295076622
83333.3295068695
83333.3295069471
83333.3295086157
83333.329512005
83333.3295131738
83333.3295124436
83333.3295116225
83333.3295116352
83333.3295131621
83333.3295162494
83333.3295209518
83333.3295176929
83333.3295169695
83333.3295161401
83333.3295160781
83333.3295174473
83333.3295202707
83333.3295245256
83333.329530209
83333.3295219895
83333.3295212853
83333.3295204568
83333.329520317
83333.3295215049
83333.3295240542
83333.3295279233
83333.3295330634
83333.3295394169
83333.3295260858
83333.3295254038
83333.3295245878
83333.3295243792
83333.3295253785
83333.3295276389
83333.329531121
83333.3295357833
83333.3295415411
83333.3295482907
83333.3295299706
83333.3295293213
83333.3295285326
83333.329528275
83333.3295290996
83333.3295310695
83333.3295341667
83333.3295383556
83333.329543569
83333.3295497003
83333.3295566178
83333.3295336117
83333.329533009
83333.329532273
83333.3295319954
83333.3295326762
83333.3295343789
83333.3295371013
83333.329540828
83333.3295455112
83333.3295510595
83333.3295573498
83333.3295642524
83333.329537043
83333.3295364813
83333.3295358101
83333.3295355321
83333.3295361027
83333.3295375731
83333.3295399491
83333.3295432335
83333.3295474008
83333.3295523838
83333.3295580749
83333.3295643484
83333.329571069
83333.3295402673
83333.3295397638
83333.3295391684
83333.3295389093
83333.3295393969
83333.3295406681
83333.3295427306
83333.3295455992
83333.3295492684
83333.3295536942
83333.3295587943
83333.3295644598
83333.3294720272
83333.3294786426
83333.3294791111
83333.3294858019
83333.3294852416
83333.3294846368
83333.3294921049
83333.3294914565
83333.3294907762
83333.3294909844
83333.3294980285
83333.32949731
83333.3294965376
83333.3294967055
83333.329498621
83333.3295035806
83333.3295028133
83333.3295019711
83333.3295020492
83333.3295038263
83333.3295074496
83333.3295087747
83333.3295079798
83333.3295070919
83333.3295070884
83333.3295087152
83333.3295120288
83333.3295170956
83333.3295136359
83333.3295128346
83333.3295119291
83333.3295118427
83333.3295133037
83333.3295163456
83333.3295209485
83333.3295271181
83333.329518213
83333.3295174227
83333.3295165196
83333.3295163554
83333.3295176291
83333.329520385
83333.3295245851
83333.3295301844
83333.3295371272
83333.3295225407
83333.3295217814
83333.3295208952
83333.3295206635
83333.3295217414
83333.3295241939
83333.3295279852
83333.3295330769
83333.3295393851
83333.3295468036
83333.3295266488
83333.3295259279
83333.3295250706
83333.3295247875
83333.3295256799
83333.3295278227
83333.3295312022
83333.3295357867
83333.3295415103
83333.3295482603
83333.3295558996
83333.3295305244
83333.3295298579
83333.3295290472
83333.3295287352
83333.3295294654
83333.3295313148
83333.3295342863
83333.329538369
83333.3295435168
83333.3295496341
83333.3295565876
83333.3295642359
83333.3295341441
83333.3295335458
83333.3295328068
83333.3295324965
83333.3295331008
83333.3295346904
83333.3295372794
83333.3295408765
83333.3295454593
83333.3295509591
83333.3295572612
83333.3295642233
83333.3295717071
83333.3295375385
83333.3295370038
83333.3295363511
83333.3295360644
83333.3295365787
83333.3295379492
83333.3295401944
83333.3295433369
83333.3295473765
83333.3295522725
83333.3295579363
83333.3295642461
83333.3295710435
83333.3295781862
83333.3295407113
83333.3295402578
83333.3295397054
83333.3295394644
83333.3295399179
83333.3295411055
83333.329543046
83333.329545771
83333.3295492962
83333.329553603
83333.3295586337
83333.3295642943
83333.329464533
83333.3294715977
83333.3294720852
83333.3294780488
83333.3294786541
83333.3294792423
83333.3294860055
83333.3294853224
83333.3294846297
83333.3294848688
83333.3294923777
83333.3294916209
83333.3294908238
83333.3294910183
83333.3294930463
83333.3294983627
83333.329497556
83333.3294966781
83333.329496771
83333.3294986624
83333.3295025198
83333.3295039724
83333.3295031358
83333.3295022009
83333.3295021965
83333.329503931
83333.3295074765
83333.3295129146
83333.3295092277
83333.3295083732
83333.3295074069
83333.329507304
83333.3295088623
83333.3295121305
83333.3295170933
83333.3295237686
83333.3295141539
83333.3295132939
83333.3295123206
83333.3295121306
83333.3295134918
83333.329516462
83333.329521009
83333.3295270922
83333.3295346601
83333.3295187783
83333.3295179372
83333.3295169762
83333.3295167159
83333.3295178726
83333.3295205254
83333.329524644
83333.3295301929
83333.3295370919
83333.3295452327
83333.3295231357
83333.329522332
83333.3295214023
83333.3295210903
83333.3295220521
83333.3295243772
83333.329528058
83333.3295330685
83333.3295393445
83333.3295467689
83333.3295552002
83333.3295272418
83333.3295264976
83333.3295256143
83333.3295252708
83333.329526059
83333.3295280688
83333.3295313107
83333.329535781
83333.3295414362
83333.3295481785
83333.3295558653
83333.3295643449
83333.329531101
83333.3295304298
83333.3295296143
83333.3295292645
83333.3295299082
83333.3295316308
83333.329534454
83333.3295383938
83333.3295434333
83333.3295495028
83333.3295564788
83333.3295642027
83333.329572528
83333.3295346792
83333.3295341063
83333.3295333851
83333.3295330616
83333.3295336003
83333.3295350761
83333.3295375176
83333.329540956
83333.3295453976
83333.3295508043
83333.3295570839
83333.3295640975
83333.329571677
83333.3295796693
83333.3295380166
83333.3295375363
83333.3295369272
83333.3295366554
83333.3295371273
83333.329538401
83333.329540507
83333.3295434867
83333.3295473648
83333.3295521292
83333.3295577202
83333.3295640338
83333.3295709097
83333.3295781606
83333.3295856597
83333.3295411168
83333.3295407487
83333.3295402692
83333.329540073
83333.3295405084
83333.3295416183
83333.3295434329
83333.3295459999
83333.3295493558
83333.3295535062
83333.329558421
83333.3295640318
83333.3294565809
83333.329464092
83333.3294645971
83333.3294710109
83333.3294716128
83333.3294722297
83333.3294783108
83333.3294780426
83333.329478744
83333.3294794642
83333.329486299
83333.3294855
83333.3294846826
83333.3294849054
83333.3294870363
83333.3294927312
83333.3294918814
83333.3294909738
83333.329491088
83333.3294930928
83333.3294971742
83333.3294987673
83333.3294978903
83333.329496919
83333.3294969263
83333.3294987735
83333.3295025511
83333.3295083579
83333.3295044275
83333.3295035351
83333.3295025255
83333.3295024217
83333.3295040848
83333.3295075854
83333.3295129145
83333.3295201064
83333.3295097363
83333.3295088338
83333.3295078073
83333.3295076022
83333.3295090572
83333.3295122498
83333.3295171561
83333.3295237423
83333.3295319644
83333.3295147141
83333.3295138137
83333.3295127891
83333.3295125033
83333.3295137421
83333.3295166032
83333.3295210647
83333.329527096
83333.3295346223
83333.3295435344
83333.3295193799
83333.3295185033
83333.3295175025
83333.329517159
83333.3295181917
83333.3295207075
83333.3295247066
83333.3295301718
83333.3295370409
83333.3295451945
83333.3295544865
83333.3295237564
83333.3295229282
83333.3295219719
83333.3295215947
83333.3295224429
83333.3295246226
83333.3295281535
83333.3295330409
83333.3295392463
83333.3295466703
83333.3295551627
83333.3295645603
83333.3295278566
83333.3295271027
83333.3295262132
83333.3295258267
83333.3295265182
83333.329528387
83333.3295314647
83333.3295357778
83333.3295413167
83333.3295480124
83333.329555734
83333.329564307
83333.3295735767
83333.3295316795
83333.3295310283
83333.3295302287
83333.3295298617
83333.32953043
83333.3295320239
83333.3295346816
83333.3295384444
83333.329543328
83333.3295492977
83333.3295562565
83333.3295640499
83333.329572493
83333.3295814295
83333.3295352007
83333.3295346787
83333.3295340024
83333.3295336903
83333.3295341774
83333.3295355417
83333.3295378252
83333.3295410799
83333.3295453403
83333.3295506014
83333.3295568045
83333.3295638324
83333.3295715126
83333.3295796396
83333.3295880721
83333.3295384553
83333.3295380676
83333.3295375339
83333.3295373055
83333.3295377515
83333.3295389336
83333.3295408948
83333.3295436944
83333.3295473802
83333.3295519683
83333.3295574308
83333.3295636945
83333.3295706149
83333.3295779917
83333.3295856332
83333.3295934311
83333.3295414578
83333.3295412165
83333.3295408559
83333.3295407355
83333.3295411702
83333.3295422096
83333.3295438969
83333.3295462953
83333.3295494599
83333.3295534199
83333.3295581715
83333.329563676
83333.329448194
83333.3294561312
83333.3294566546
83333.3294635147
83333.3294641123
83333.3294647584
83333.3294712958
83333.3294710081
83333.3294717156
83333.3294724756
83333.3294805647
83333.3294783513
83333.3294781044
83333.3294789401
83333.3294797861
83333.329486681
83333.3294857822
83333.3294848464
83333.3294849819
83333.3294870894
83333.3294913715
83333.3294931602
83333.3294922363
83333.3294912313
83333.329491255
83333.3294932119
83333.3294972111
83333.3295033702
83333.3294992393
83333.3294983052
83333.3294972591
83333.3294971649
83333.3294989368
83333.3295026693
83333.3295083614
83333.3295160682
83333.3295049426
83333.3295040037
83333.3295029377
83333.3295027323
83333.3295042887
83333.329507709
83333.3295129817
83333.3295200813
83333.3295289758
83333.3295102935
83333.3295093555
83333.3295082854
83333.3295079869
83333.3295093149
83333.3295123925
83333.3295172092
83333.3295237427
83333.3295319258
83333.3295416498
83333.3295153098
83333.3295143846
83333.3295133279
83333.3295129601
83333.3295140688
83333.3295167837
83333.3295211166
83333.3295270616
83333.3295345605
83333.329543494
83333.3295537101
83333.3295200062
83333.3295191125
83333.3295180913
83333.3295176817
83333.3295185926
83333.3295209505
83333.3295247874
83333.3295301198
83333.3295369164
83333.3295450775
83333.3295544463
83333.329564848
83333.329524387
83333.3295235581
83333.3295225976
83333.3295221744
83333.3295229165
83333.3295249406
83333.3295282907
83333.3295330059
83333.3295390862
83333.3295464654
83333.3295550054
83333.3295645186
83333.3295748387
83333.3295284711
83333.3295277341
83333.3295268609
83333.3295264538
83333.3295270601
83333.3295287848
83333.3295316777
83333.329535794
83333.3295411609
83333.32954775
83333.3295554605
83333.3295641246
83333.3295735361
83333.3295835369
83333.3295322424
83333.3295316399
83333.3295308853
83333.3295305268
83333.3295310342
83333.329532501
83333.32953498
83333.3295385364
83333.329543217
83333.3295490255
83333.3295559038
83333.3295637227
83333.3295722932
83333.3295813932
83333.3295908752
83333.3295356798
83333.3295352525
83333.329534654
83333.3295343833
83333.329534836
83333.3295360936
83333.3295382116
83333.3295412619
83333.3295453047
83333.3295503673
83333.329556428
83333.3295634059
83333.329571147
83333.3295794327
83333.329588042
83333.3295968513
83333.3295388256
83333.3295385767
83333.3295381679
83333.3295380151
83333.3295384537
83333.3295395514
83333.3295413653
83333.3295439714
83333.3295474386
83333.3295518094
83333.3295570867
83333.3295632323
83333.329570135
83333.3295776035
83333.3295854239
83333.3295934026
83333.3296014248
83333.3295417184
83333.3295416265
83333.3295414528
83333.329541449
83333.3295419015
83333.3295428795
83333.3295444416
83333.3295466648
83333.3295496214
83333.3295533614
83333.3295579065
83333.3295632467
83333.3294477271
83333.3294482795
83333.3294555718
83333.3294561621
83333.3294568365
83333.3294638071
83333.3294635196
83333.3294642322
83333.3294650347
83333.3294736029
83333.3294713419
83333.3294710824
83333.3294719362
83333.3294728344
83333.3294850686
83333.3294806263
83333.3294784379
83333.3294782875
83333.3294792516
83333.3294802067
83333.329487146
83333.329486167
83333.3294851274
83333.3294851652
83333.3294872184
83333.329491416
83333.3294978914
83333.3294936619
83333.3294926774
83333.3294915947
83333.3294915125
83333.3294933883
83333.3294973412
83333.3295033789
83333.3295115811
83333.3294997762
83333.3294987935
83333.3294976912
83333.3294974935
83333.3294991534
83333.3295027998
83333.3295084357
83333.329516046
83333.3295256157
83333.3295055132
83333.3295045372
83333.3295034306
83333.3295031325
83333.3295045567
83333.3295078554
83333.3295130332
83333.3295200803
83333.3295289381
83333.3295395025
83333.329510894
83333.3295099326
83333.3295088356
83333.3295084577
83333.3295096503
83333.3295125723
83333.3295172508
83333.3295236951
83333.3295318533
83333.3295416086
83333.3295528041
83333.3295159347
83333.3295149998
83333.3295139302
83333.3295134987
83333.3295144788
83333.3295170238
83333.3295211816
83333.3295269833
83333.3295344082
83333.3295433574
83333.3295536678
83333.3295651545
83333.3295206396
83333.3295197555
83333.3295187365
83333.3295182817
83333.3295190784
83333.3295212665
83333.3295249052
83333.3295300493
83333.3295367114
83333.3295448304
83333.3295542605
83333.329564803
83333.3295762769
83333.329525016
83333.3295242107
83333.3295232727
83333.329522828
83333.329523476
83333.3295253402
83333.3295284852
83333.3295329822
83333.3295388733
83333.3295461386
83333.3295546752
83333.3295643031
83333.3295747936
83333.3295859802
83333.3295290584
83333.3295283771
83333.3295275522
83333.3295271523
83333.3295276888
83333.3295292701
83333.3295319624
83333.3295358473
83333.3295409876
83333.3295473982
83333.3295550238
83333.3295637264
83333.3295732964
83333.3295834934
83333.3295941621
83333.3295327591
83333.329532253
83333.3295315784
83333.3295312609
83333.3295317254
83333.3295330696
83333.3295353608
83333.3295386859
83333.3295431209
83333.3295487061
83333.3295554262
83333.3295631947
83333.3295718447
83333.3295811399
83333.3295908367
83333.3296007966
83333.3295360863
83333.3295358036
83333.3295353371
83333.3295351418
83333.3295355794
83333.3295367374
83333.3295386862
83333.3295415158
83333.32954531
83333.3295501256
83333.3295559768
83333.3295628234
83333.3295705504
83333.3295789533
83333.329587786
83333.3295968194
83333.3296059289
83333.3295391056
83333.3295390262
83333.3295388136
83333.3295387818
83333.3295392329
83333.3295402557
83333.3295419235
83333.3295443278
83333.3295475559
83333.3295516741
83333.3295567142
83333.3295626716
83333.3295694747
83333.3295769646
83333.3295849305
83333.3295931481
83333.3296013939
83333.3296095571
83333.3295418927
83333.329541932
83333.3295420138
83333.3295421891
83333.3295426889
83333.3295436198
83333.3295450644
83333.3295471125
83333.329549851
83333.3295533486
83333.32955765
83333.3295627725
83333.3294471661
83333.3294477769
83333.3294484841
83333.3294558639
83333.329455588
83333.3294563049
83333.3294571497
83333.3294661205
83333.329463865
83333.3294636121
83333.3294644847
83333.3294654405
83333.3294782172
83333.3294736761
83333.3294714426
83333.3294712915
83333.3294722861
83333.3294733051
83333.3294918559
83333.3294851236
83333.3294807675
83333.3294786433
83333.3294785999
83333.3294796765
83333.3294807199
83333.3294876907
83333.3294866456
83333.3294855234
83333.3294854486
83333.329487413
83333.3294915595
83333.3294979076
83333.3295065618
83333.3294942339
83333.3294931975
83333.3294920566
83333.3294918668
83333.3294936232
83333.3294974823
83333.3295034637
83333.3295115641
83333.3295217901
83333.3295003738
83333.3294993514
83333.3294982084
83333.3294979162
83333.3294994371
83333.3295029537
83333.3295084881
83333.3295160465
83333.329525581
83333.3295369967
83333.329506133
83333.3295051314
83333.3295039993
83333.329503622
83333.3295049044
83333.3295080374
83333.3295130669
83333.3295200204
83333.3295288568
83333.3295394627
83333.3295516793
83333.3295115299
83333.3295105593
83333.3295094529
83333.3295090132
83333.3295100706
83333.3295128106
83333.3295173003
83333.3295235899
83333.3295316726
83333.329541453
83333.329552761
83333.3295654028
83333.3295165761
83333.3295156526
83333.3295145911
83333.329514117
83333.3295149758
83333.329517337
83333.3295212784
83333.3295268747
83333.3295341547
83333.329543065
83333.3295534546
83333.3295651074
83333.3295778295
83333.3295212729
83333.3295204214
83333.3295194326
83333.3295189583
83333.3295196532
83333.3295216655
83333.3295250778
83333.3295299809
83333.329536435
83333.329544432
83333.3295538691
83333.329564552
83333.3295762278
83333.3295887169
83333.3295256162
83333.3295248744
83333.3295239919
83333.3295235561
83333.3295241263
83333.3295258305
83333.3295287517
83333.3295329904
83333.3295386288
83333.3295456966
83333.3295541443
83333.3295638255
83333.3295745103
83333.3295859305
83333.3295979213
83333.3295295933
83333.3295290177
83333.3295282807
83333.3295279236
83333.3295284095
83333.3295298517
83333.3295323324
83333.3295359568
83333.3295408207
83333.3295469804
83333.3295544302
83333.3295630817
83333.3295727525
83333.3295831875
83333.3295941134
83333.3296053813
83333.3295331959
83333.3295328431
83333.3295323045
83333.3295320652
83333.3295325078
83333.3295337365
83333.3295358349
83333.3295389095
83333.3295430626
83333.3295483676
83333.3295548506
83333.3295624727
83333.3295711126
83333.329580552
83333.3295905215
83333.3296007531
83333.3296111135
83333.3295363884
83333.3295362929
83333.3295360332
83333.3295359632
83333.3295364073
83333.3295374755
83333.3295392557
83333.3295418543
83333.3295453755
83333.3295499025
83333.3295554826
83333.3295621148
83333.3295697298
83333.3295781639
83333.3295871776
83333.3295965075
83333.3296058933
83333.3296152164
83333.3295392906
83333.329539358
83333.3295394232
83333.3295395783
83333.3295400751
83333.3295410384
83333.3295425682
83333.3295447699
83333.3295477464
83333.3295515846
83333.3295563427
83333.3295620475
83333.3295686664
83333.329576082
83333.3295841147
83333.3295925381
83333.3296010898
83333.3296095227
83333.3296177331
83333.3295419894
83333.3295421212
83333.3295424205
83333.3295428653
83333.3295434827
83333.3295444032
83333.329545751
83333.329547635
83333.3295501552
83333.329553397
83333.329557426
83333.3295622849
83333.3294473878
83333.3294471945
83333.3294479462
83333.32944884
83333.3294581346
83333.3294559332
83333.3294557043
83333.3294565968
83333.3294576123
83333.3294707671
83333.3294662157
83333.3294639875
83333.3294638561
83333.3294648841
83333.3294659754
83333.3294851897
83333.3294782859
83333.3294738326
83333.3294716775
83333.3294716453
83333.3294727631
83333.3294738809
83333.3295009156
83333.3294918841
83333.3294852813
83333.3294809868
83333.3294789616
83333.3294790395
83333.3294802057
83333.3294813222
83333.3294883122
83333.3294872109
83333.3294860265
83333.3294858384
83333.3294876738
83333.329491717
83333.3294980061
83333.3295065538
83333.3295173886
83333.329494872
83333.329493793
83333.3294926099
83333.3294923218
83333.3294939306
83333.3294976498
83333.3295035207
83333.3295115692
83333.3295217617
83333.3295340153
83333.3295010257
83333.3294999753
83333.3294988065
83333.3294984331
83333.3294998039
83333.3295031434
83333.3295085181
83333.3295159767
83333.3295254936
83333.3295369607
83333.3295502223
83333.3295067932
83333.3295057809
83333.3295046399
83333.3295042004
83333.3295053396
83333.3295082775
83333.3295131031
83333.3295198896
83333.329528648
83333.3295392895
83333.3295516376
83333.3295654895
83333.3295121901
83333.3295112293
83333.3295101333
83333.3295096523
83333.3295105807
83333.3295131223
83333.3295173763
83333.329523442
83333.3295313684
83333.3295411129
83333.3295525207
83333.3295653553
83333.3295794071
83333.3295172227
83333.3295163337
83333.3295153067
83333.3295148155
83333.3295155651
83333.3295177342
83333.3295214272
83333.3295267579
83333.3295338093
83333.3295425886
83333.329552995
83333.329564819
83333.329577778
83333.3295916737
83333.3295218856
83333.3295211012
83333.329520175
83333.3295197129
83333.3295203227
83333.3295221582
83333.3295253223
83333.3295299382
83333.3295361111
83333.3295438895
83333.3295532323
83333.3295639862
83333.3295758972
83333.3295886614
83333.3296020993
83333.3295261618
83333.3295255355
83333.3295247499
83333.3295243608
83333.3295248735
83333.3295264218
83333.3295291059
83333.3295330527
83333.3295383809
83333.3295451671
83333.3295534189
83333.3295630487
83333.3295738589
83333.329585567
83333.3295978624
83333.329610586
83333.3295300455
83333.3295296338
83333.3295290422
83333.3295287693
83333.3295292274
83333.3295305379
83333.3295328007
83333.3295361424
83333.3295406874
83333.32954653
83333.3295537115
83333.329562199
83333.3295718641
83333.329582474
83333.32959373
83333.3296053221
83333.3296171102
83333.3295335166
83333.3295333687
83333.3295330451
83333.329532937
83333.3295333813
83333.3295345052
83333.3295364109
83333.3295392228
83333.3295430654
83333.3295480416
83333.3295542152
83333.3295615933
83333.3295701069
83333.3295795863
83333.3295897741
83333.3296003661
83333.3296110605
83333.3296217321
83333.3295365783
83333.3295366571
83333.3295366929
83333.3295368172
83333.3295373051
83333.3295383006
83333.3295399202
83333.329542286
83333.329545519
83333.3295497251
83333.3295549812
83333.3295613229
83333.3295687251
83333.3295770744
83333.3295861715
83333.329595754
83333.3296055178
83333.3296151733
83333.3296246089
83333.3295393943
83333.3295395521
83333.3295398684
83333.3295403073
83333.3295409263
83333.3295418714
83333.3295432857
83333.3295452959
83333.3295480195
83333.3295515612
83333.3295560026
83333.3295613997
83333.3295677565
83333.3295749978
83333.3295829865
83333.3295915278
83333.3296003522
83333.3296091639
83333.3296176928
83333.3296258421
83333.329542212
83333.3295426283
83333.3295433026
83333.3295441597
83333.3295451623
83333.329546466
83333.329548216
83333.3295505325
83333.3295535178
83333.329557257
83333.3295618166
83333.3294495072
83333.3294474636
83333.3294473348
83333.3294482807
83333.3294493707
83333.3294627172
83333.32945825
83333.3294560815