/*--------------------------------*- C++ -*----------------------------------*\
  =========                 |
  \\      /  F ield         | OpenFOAM: The Open Source CFD Toolbox
   \\    /   O peration     | Website:  https://openfoam.org
    \\  /    A nd           | Version:  12
     \\/     M anipulation  |
\*---------------------------------------------------------------------------*/
/*   Windows 32 and 64 bit porting by blueCAPE: http://www.bluecape.com.pt   *\
|  Based on Windows porting (2.0.x v4) by Symscape: http://www.symscape.com   |
\*---------------------------------------------------------------------------*/
FoamFile
{
    format      ascii;
    class       surfaceScalarField;
    location    "800";
    object      phi;
}
// * * * * * * * * * * * * * * * * * * * * * * * * * * * * * * * * * * * * * //

dimensions      [0 3 -1 0 0 0 0];

internalField   nonuniform List<scalar> 
28973
(
2.64353199490788e-06
-5.45297960067332e-08
-1.70893481046432e-07
2.89266437893809e-06
-5.16102445727657e-08
-1.97512476579103e-07
3.37560205704727e-06
-1.20129110609163e-07
-2.03882747519805e-07
9.08875462627261e-07
-1.73762287867466e-08
-2.94234387727297e-07
3.16768987390367e-06
-4.91879633721107e-08
-2.25823479011273e-07
3.67922245177522e-06
-1.22028035908721e-07
-2.33201372072169e-07
1.05702960420065e-06
-1.50936063206346e-08
-3.30572507705947e-07
3.82868892294452e-06
-1.86361969369674e-07
-2.38964163184588e-07
1.29464836798076e-06
-3.38195441764016e-08
-3.55821479747317e-07
3.38540325297097e-07
-5.40056024283894e-09
-3.95993181186636e-07
3.46793417141687e-06
-5.26447621260295e-08
-2.47604156465984e-07
4.02160720766692e-06
-1.26735304971187e-07
-2.64823116815099e-07
1.21240336583494e-06
-1.40386493480561e-08
-3.67162152517397e-07
4.17386145471755e-06
-1.94589452605488e-07
-2.72625637401031e-07
1.47574194162679e-06
-3.18025213526959e-08
-3.97595730105805e-07
4.52177050803979e-07
-4.64818432731071e-09
-4.39561448712345e-07
4.30954670381708e-06
-2.55061308910937e-07
-2.75721738034062e-07
1.52563180464936e-06
-4.06443383551225e-08
-4.27683994861939e-07
4.97761860512617e-07
-4.90532847315019e-09
-4.82823037393842e-07
1.98550294809853e-07
5.52709814063258e-10
-4.90109959435124e-07
3.79306037156962e-06
-5.79134258757306e-08
-2.67204314329026e-07
4.39961366136074e-06
-1.38270774622602e-07
-2.92372033505416e-07
1.38048182517998e-06
-1.56982468208977e-08
-3.99972306448661e-07
4.56381106917553e-06
-2.07276716427178e-07
-3.09445085594131e-07
1.66772028595078e-06
-3.13175773533362e-08
-4.39508274956769e-07
5.73254609585665e-07
-4.45732480470753e-09
-4.83784993939962e-07
4.69961087061548e-06
-2.70448931194928e-07
-3.14205105849708e-07
1.73684434536856e-06
-3.8423966182415e-08
-4.77215214587067e-07
6.33251782286946e-07
-3.2319485627455e-09
-5.34500437808207e-07
2.99057590745287e-07
1.27705005470013e-09
-5.41345309305794e-07
4.67432174962616e-06
-3.24429889570988e-07
-3.04592213987241e-07
1.75124894482014e-06
-4.16730656537618e-08
-4.95927629715688e-07
6.11970509076866e-07
4.75116388145779e-09
-5.86708185859411e-07
2.90032671006136e-07
5.93258650313684e-09
-5.97071568389106e-07
1.35776755931598e-07
4.53132903295455e-09
-5.7943319886371e-07
4.13698323773054e-06
-6.13699937306226e-08
-2.8255538409946e-07
4.81221577068845e-06
-1.53104161993603e-07
-3.1740152203456e-07
1.56233567478742e-06
-1.74214695317917e-08
-4.31632825372048e-07
4.99631817822136e-06
-2.27698892377201e-07
-3.43083503433289e-07
1.87090013945176e-06
-3.3026104747158e-08
-4.7823522013907e-07
7.04891418754194e-07
-4.81124385801472e-09
-5.26799346719699e-07
5.14075907397491e-06
-2.918279748824e-07
-3.56573132905214e-07
1.9611113635669e-06
-3.80414946616114e-08
-5.26985426286116e-07
7.7877594049703e-07
-2.24541277920228e-09
-5.87238700925229e-07
4.07200796538752e-07
1.73982037136401e-09
-5.93668357876288e-07
5.09817748445026e-06
-3.47272297591345e-07
-3.47011047016979e-07
1.99031615740522e-06
-3.88714056233171e-08
-5.52811735698718e-07
7.72513436415198e-07
8.12564694733501e-09
-6.49112256507177e-07
4.07835948116453e-07
7.83449560753723e-09
-6.58859223147765e-07
2.27804859439125e-07
5.54213893165332e-09
-6.38915478233705e-07
4.88056845877303e-06
-3.91830354866432e-07
-3.22674261118862e-07
1.93241731825724e-06
-4.31920777432791e-08
-5.43309254787866e-07
7.20517362474179e-07
2.08914912813897e-08
-6.81896073097308e-07
3.62136475504672e-07
1.71459577054447e-08
-7.26264017504061e-07
1.97248635022807e-07
1.30819249952279e-08
-7.02669616028028e-07
9.48831408750164e-08
7.79313434648734e-09
-6.64503937956312e-07
4.48995391752745e-06
-6.50064407852312e-08
-2.87948874090111e-07
5.25730519975042e-06
-1.70059081320485e-07
-3.36416582231941e-07
1.75899272834145e-06
-1.79383601699456e-08
-4.61266404385504e-07
5.47017872237521e-06
-2.53121456486792e-07
-3.73831527592143e-07
2.08656366820255e-06
-3.46591308349965e-08
-5.15830243423426e-07
8.47522979275142e-07
-5.25562439816185e-09
-5.69012362355895e-07
5.63076108079441e-06
-3.21867802898966e-07
-3.95838789499701e-07
2.19756136666419e-06
-3.9129781169426e-08
-5.73433965688005e-07
9.36941515871861e-07
-1.94753698477193e-09
-6.39263732529792e-07
5.24336821190385e-07
2.00811143987709e-09
-6.45942832672799e-07
5.57778018270758e-06
-3.77757105156426e-07
-3.93682413622093e-07
2.24392900640029e-06
-3.81815778966889e-08
-6.10039893344002e-07
9.45389603179893e-07
1.07853010466502e-08
-7.12889413241194e-07
5.35148595309119e-07
9.39986107835008e-09
-7.22210095597607e-07
3.27588525531462e-07
6.4261624348964e-09
-6.99878677539453e-07
5.32315845601748e-06
-4.21972208338541e-07
-3.67889002116074e-07
2.19165937416442e-06
-4.01397476910596e-08
-6.04986021296805e-07
9.03233660704869e-07
2.65012175790571e-08
-7.53903191551946e-07
5.01406342048054e-07
2.08321811811609e-08
-8.01380752664744e-07
3.03026471076307e-07
1.5584181212169e-08
-7.74678494542114e-07
1.7945686604123e-07
9.2052034565572e-09
-7.32694496384973e-07
4.97359953852848e-06
-4.55432021514348e-07
-3.33358704791549e-07
2.07055680777264e-06
-4.85394639780999e-08
-5.70108737457488e-07
8.05135971908934e-07
3.7908552163083e-08
-7.44138919070038e-07
4.32499283681668e-07
3.17039883590654e-08
-8.42016563005679e-07
2.48071232927127e-07
2.42879361104537e-08
-8.50861624484199e-07
1.396066870282e-07
1.77687099529707e-08
-8.00287186538645e-07
6.28333750831004e-08
1.04710504176443e-08
-7.45234878927544e-07
4.85329738072153e-06
-7.94651200130951e-08
-2.83897177824456e-07
5.72746767709659e-06
-1.92748075055698e-07
-3.42415574417327e-07
1.97664046531052e-06
-1.79615320275228e-08
-4.87626099787269e-07
5.98097782860906e-06
-2.83942003317532e-07
-3.96914108972474e-07
2.31880048381589e-06
-3.5731397694299e-08
-5.50864760251983e-07
1.00164152448691e-06
-5.52923424144639e-09
-6.09855569628814e-07
6.16811926096181e-06
-3.58712670153634e-07
-4.31745977394427e-07
2.44754984262979e-06
-3.9869059243986e-08
-6.18618980885683e-07
1.108142242906e-06
-1.78335740664701e-09
-6.90494407557558e-07
6.50888878521893e-07
2.24915692847537e-09
-6.97814569968348e-07
6.1102835736567e-06
-4.17760347533023e-07
-4.36597390465258e-07
2.51072117158553e-06
-3.82125502295794e-08
-6.63537770978543e-07
1.13334548647859e-06
1.27624703429113e-08
-7.76103111478321e-07
6.73076798982578e-07
1.07081749378524e-08
-7.85891901911659e-07
4.35812973601125e-07
7.23566803580749e-09
-7.6140215329177e-07
5.82415395399233e-06
-4.61625580927187e-07
-4.1710558135073e-07
2.46581144982645e-06
-3.91632423619449e-08
-6.66830800278829e-07
1.09999818163303e-06
3.14841097037823e-08
-8.27505543244156e-07
6.52190877256228e-07
2.41957641460711e-08
-8.7846906453509e-07
4.17970645692073e-07
1.79664353153122e-08
-8.486930943257e-07
2.71767556421153e-07
1.05899469687445e-08
-8.02779324263761e-07
5.42465303471385e-06
-4.92393093844814e-07
-3.80644140739264e-07
2.34197573625943e-06
-4.56492616944486e-08
-6.33804886496128e-07
1.0027647556773e-06
4.57219030482315e-08
-8.21835684643399e-07
5.9059602363824e-07
3.75031983316909e-08
-9.28674821789171e-07
3.71871327110177e-07
2.86492045118146e-08
-9.38247604495088e-07
2.35753946359292e-07
2.0957324819245e-08
-8.82578174402424e-07
1.40306633024539e-07
1.23508473651929e-08
-8.22518480541504e-07
5.01630786589551e-06
-5.1403293856485e-07
-3.415310828747e-07
2.18546832321729e-06
-5.77799911619915e-08
-5.85703593583042e-07
8.72724277741511e-07
5.21442264633367e-08
-7.76957411410171e-07
4.8988047491197e-07
4.59883183387748e-08
-9.15510170038042e-07
3.0030370266271e-07
3.63156186392732e-08
-9.82002868472872e-07
1.78000693110049e-07
2.92976410858573e-08
-9.64226690377228e-07
9.59458885129027e-08
2.2025387326289e-08
-8.91312238717471e-07
3.50117064875145e-08
1.2927701508862e-08
-8.21807934511579e-07
5.23986749507072e-06
-1.04500671983075e-07
-2.82092320498919e-07
6.19943312619232e-06
-2.20259829330351e-07
-3.31159744717853e-07
2.22269655734018e-06
-1.93102689303884e-08
-5.106476445725e-07
6.51709593369941e-06
-3.24888232458577e-07
-4.03953666722817e-07
2.57662341785857e-06
-3.68252498091587e-08
-5.81379442014962e-07
1.16846818232026e-06
-5.70374920591264e-09
-6.48748420181329e-07
6.74622455512418e-06
-4.03802802779465e-07
-4.58206298861534e-07
2.716140556109e-06
-4.05592917272737e-08
-6.6067124911621e-07
1.29332829451721e-06
-1.5499196438577e-09
-7.40038427366008e-07
7.87153621810299e-07
2.48512826263099e-09
-7.48604110161034e-07
6.69370422903031e-06
-4.66601739515877e-07
-4.75538224291912e-07
2.79175278034299e-06
-3.7215622417816e-08
-7.15447746289642e-07
1.33678753348874e-06
1.45871183146655e-08
-8.38427140123228e-07
8.22182447202769e-07
1.19513884936117e-08
-8.4929905639045e-07
5.52760945124681e-07
8.03250510550907e-09
-8.22794923927038e-07
6.37906579781208e-06
-5.1173040841625e-07
-4.60926358998894e-07
2.75307475917034e-06
-3.77517406832892e-08
-7.24328401112145e-07
1.31386068806029e-06
3.58466112763306e-08
-9.00475308984083e-07
8.15601735221675e-07
2.72993399293672e-08
-9.56104535335199e-07
5.42707442969961e-07
2.02683971610036e-08
-9.23660748114956e-07
3.72251002942553e-07
1.19657320906028e-08
-8.73851568803525e-07
5.93493421810492e-06
-5.40715650844774e-07
-4.31173249885634e-07
2.6276087375839e-06
-4.46320266096808e-08
-6.97273513699196e-07
1.21554379249037e-06
5.29880096017746e-08
-9.01111070234491e-07
7.61806012307006e-07
4.30537576865007e-08
-1.01757233309287e-06
5.06527559789466e-07
3.29556513845689e-08
-1.0281135022478e-06
3.40825202643767e-07
2.41887437022768e-08
-9.67362492400291e-07
2.25434649199428e-07
1.4287398046698e-08
-9.02194253459261e-07
5.47157332200479e-06
-5.57569173593403e-07
-3.90120664930771e-07
2.46449854639336e-06
-5.5636727793397e-08
-6.49674539276315e-07
1.07955874179542e-06
6.18113996465725e-08
-8.56727013166024e-07
6.60475043326952e-07
5.37943341642551e-08
-1.00872334823993e-06
4.40060919844159e-07
4.26869762877555e-08
-1.0824675548613e-06
2.89815580743123e-07
3.45955123067329e-08
-1.06370073316432e-06
1.83710537769461e-07
2.60950664672465e-08
-9.84086812900596e-07
1.05752385208149e-07
1.53632382442503e-08
-9.08622505510184e-07
5.0494486489612e-06
-5.67156783346549e-07
-3.49673167992452e-07
2.29721803289827e-06
-7.07309021168826e-08
-5.97636877772262e-07
9.36811469515613e-07
6.27142412249242e-08
-7.95336884439356e-07
5.3968496682552e-07
5.76269981933539e-08
-9.5302602110523e-07
3.46448945534735e-07
4.73389792375997e-08
-1.06439751848332e-06
2.20049985340176e-07
4.0737106998304e-08
-1.10815334546476e-06
1.25349966748892e-07
3.48665182850724e-08
-1.069339260762e-06
5.82590562576693e-08
2.68752082225167e-08
-9.77165234325727e-07
8.43357040675103e-09
1.57639869810382e-08
-8.94849610752262e-07
5.64848549349595e-06
-1.21979598470912e-07
-2.86647535998849e-07
6.65530016315629e-06
-2.4265299900366e-07
-3.17715485539207e-07
2.49573123820149e-06
-2.27436445632308e-08
-5.32380725151792e-07
7.04920361979839e-06
-3.63477841780855e-07
-3.88875446972576e-07
2.87200916955919e-06
-3.90481745014214e-08
-6.06793297575622e-07
1.34919512415965e-06
-6.04127087046457e-09
-6.85336722277934e-07
7.34833268862571e-06
-4.62446264101466e-07
-4.64556558588561e-07
3.01410740746473e-06
-4.16672963176841e-08
-6.97084128850637e-07
1.49467582483439e-06
-1.32088332337054e-09
-7.8710937532655e-07
9.33359796410384e-07
2.67776872671805e-09
-7.97631336664464e-07
7.31934481447465e-06
-5.26237035266662e-07
-5.03197537588861e-07
3.09285737186791e-06
-3.63634152556635e-08
-7.63511701728534e-07
1.55687931257718e-06
1.63769234978034e-08
-8.98692798313489e-07
9.83072093708522e-07
1.31141831401755e-08
-9.11557329146255e-07
6.78580991576185e-07
8.7695040027184e-09
-8.83193176774853e-07
6.98576454571433e-06
-5.73131682323497e-07
-5.00157997588201e-07
3.05514886747389e-06
-3.48811676377436e-08
-7.7993923765741e-07
1.54523978111118e-06
4.0085653424026e-08
-9.72325788326285e-07
9.92295314667596e-07
3.03247456546682e-08
-1.0334950995826e-06
6.77657005255226e-07
2.25380294173259e-08
-9.98752975897213e-07
4.81126166417921e-07
1.33442267942713e-08
-9.45014358518371e-07
6.49793070965443e-06
-6.00672166890022e-07
-4.74038887405935e-07
2.92678765267695e-06
-4.19930406165891e-08
-7.55862842674995e-07
1.44678715293158e-06
5.97607269169482e-08
-9.79484947446228e-07
9.47301392974739e-07
4.8377576166847e-08
-1.10704876475023e-06
6.52685371064793e-07
3.72152113781025e-08
-1.11921075864383e-06
4.55284134587978e-07
2.74503310029243e-08
-1.05360352934629e-06
3.18606767628912e-07
1.62715818498102e-08
-9.83295003654629e-07
5.98585888967992e-06
-6.14019370649837e-07
-4.40971831481711e-07
2.75634154142012e-06
-5.47765361264455e-08
-7.12884261818912e-07
1.30224018103314e-06
7.08794127303702e-08
-9.37849854030222e-07
8.45164796007556e-07
6.14189600694323e-08
-1.10416791848878e-06
5.92059642543684e-07
4.91033613694806e-08
-1.18571762635451e-06
4.12062691472563e-07
4.0050669238212e-08
-1.16622174865966e-06
2.80229865045179e-07
3.03563787324986e-08
-1.07995057403331e-06
1.84099076707164e-07
1.79449974094249e-08
-9.98486000941642e-07
5.5083063221615e-06
-6.17089551200561e-07
-3.99359899473585e-07
2.58212682989841e-06
-6.96964008982817e-08
-6.60962173711743e-07
1.1504458576845e-06
7.37141703838626e-08
-8.75214289840746e-07
7.18140474852616e-07
6.70596859684764e-08
-1.04844472104695e-06
4.96966433338512e-07
5.55842173477867e-08
-1.17213508188859e-06
3.45989950144362e-07
4.8239249065169e-08
-1.22205226732304e-06
2.2729438026578e-07
4.15022673289936e-08
-1.18105157458049e-06
1.38275424187032e-07
3.21302966622587e-08
-1.08086970561534e-06
7.27117780592281e-08
1.88930770664575e-08
-9.91794006631626e-07
5.09209734904129e-06
-6.13810368999796e-07
-3.59644523088022e-07
2.41988115367318e-06
-8.80856662797232e-08
-6.09112751491803e-07
1.00688068140731e-06
6.94549204908774e-08
-8.09506113381191e-07
5.90926418866974e-07
6.57057335294316e-08
-9.73710313256243e-07
3.89824004012998e-07
5.5905125750732e-08
-1.10603848941831e-06
2.60480808751908e-07
5.0981918220833e-08
-1.19840634493389e-06
1.6006769079937e-07
4.78209712607838e-08
-1.22520247222791e-06
7.93106470852292e-08
4.25756264222649e-08
-1.16859066845127e-06
2.22151617934e-08
3.3287174560878e-08
-1.05918357027916e-06
-1.95738436086615e-08
1.9505343588256e-08
-9.65160124701108e-07
6.07042757577926e-06
-1.28619083941145e-07
-2.93331484232867e-07
7.10444659947131e-06
-2.55219282257934e-07
-3.1589450052976e-07
2.78919654379392e-06
-2.61495624348799e-08
-5.53964950278084e-07
7.55618738284533e-06
-3.80123137651213e-07
-3.69516480676023e-07
3.20432571482213e-06
-4.27748702675362e-08
-6.30011889944387e-07
1.54331618819535e-06
-6.76806650901797e-09
-7.19733410842325e-07
7.93678520086199e-06
-5.07379064933655e-07
-4.44530825671793e-07
3.35644840053144e-06
-4.32332510881916e-08
-7.27028934836432e-07
1.71446644921648e-06
-1.34777090138162e-09
-8.31279180746144e-07
1.0895330489045e-06
2.74613853364356e-09
-8.4425548080087e-07
7.96215850363301e-06
-5.99185072803623e-07
-5.06090896080583e-07
3.42735811647021e-06
-3.60527762787977e-08
-8.04680135407006e-07
1.79639874520555e-06
1.80401473460023e-08
-9.55955847980194e-07
1.15636142791464e-06
1.41272316609186e-08
-9.71848492237417e-07
8.13240122469149e-07
9.39099332286221e-09
-9.41680462960504e-07
7.6365500709965e-06
-6.5057990058954e-07
-5.26399961934086e-07
3.37885875333393e-06
-3.23057850020166e-08
-8.30978541616432e-07
1.79547861467841e-06
4.42865296895169e-08
-1.04166268546416e-06
1.18307619539454e-06
3.32208235044804e-08
-1.10958076050455e-06
8.2314712051699e-07
2.46845106667681e-08
-1.07296165576523e-06
5.98479805387047e-07
1.46519509356238e-08
-1.01519852366556e-06
7.10981671389539e-06
-6.73935515693158e-07
-5.11042855376277e-07
3.24162991702965e-06
-3.77138025362467e-08
-8.1218118296247e-07
1.69680593207413e-06
6.65034586852554e-08
-1.0563771919871e-06
1.14781003506279e-06
5.3643729193285e-08
-1.1961553725007e-06
8.10852395497421e-07
4.14454680951233e-08
-1.21056966748749e-06
5.79464433005391e-07
3.07217590403761e-08
-1.14031052247581e-06
4.20052330581676e-07
1.82841516554806e-08
-1.06474377617596e-06
6.55102817193897e-06
-6.8371251930629e-07
-4.82106100803961e-07
3.06210909535885e-06
-5.09995841961411e-08
-7.70824096976388e-07
1.54421169410164e-06
7.95878374861705e-08
-1.01766121262417e-06
1.04515050347727e-06
6.88819402344582e-08
-1.19997226183214e-06
7.56980909795377e-07
5.55221148716418e-08
-1.29027664502547e-06
5.45244479351213e-07
4.56103050646857e-08
-1.27055192990499e-06
3.85948512592872e-07
3.47550388230362e-08
-1.17780519674625e-06
2.7048965599776e-07
2.06411184582885e-08
-1.09032686425221e-06
6.02567446047566e-06
-6.81288806847202e-07
-4.50125342197825e-07
2.87800666190878e-06
-6.88205214073172e-08
-7.22807940912268e-07
1.38054928557508e-06
8.39874730701014e-08
-9.56093215139126e-07
9.11234642023436e-07
7.63254622932091e-08
-1.14585147037645e-06
6.60579104068149e-07
6.39618684499735e-08
-1.28263710406767e-06
4.83632917703009e-07
5.60376094350193e-08
-1.33934779667303e-06
3.39429738955813e-07
4.85121032477186e-08
-1.29651283065949e-06
2.26958259392538e-07
3.77551631919559e-08
-1.18844424130478e-06
1.44621533622367e-07
2.22778034293484e-08
-1.09267373343199e-06
5.55565032109752e-06
-6.69992252407315e-07
-4.10671300500618e-07
2.7104027284587e-06
-8.81861544485295e-08
-6.71409771951236e-07
1.22698017462786e-06
8.13082543098185e-08
-8.88649549819309e-07
7.75595051982415e-07
7.62545967129179e-08
-1.06908118773445e-06
5.47400005638414e-07
6.56688322521491e-08
-1.21610621297765e-06
3.96273967583387e-07
6.05517450798874e-08
-1.32024035893485e-06
2.75032783709111e-07
5.71717715693813e-08
-1.35268620541808e-06
1.72306950852814e-07
5.10995161590828e-08
-1.29301863316762e-06
9.46763893438826e-08
4.00794619641591e-08
-1.17451692186076e-06
3.81718945622204e-08
2.35515764593784e-08
-1.0730911104732e-06
5.15241048919422e-06
-6.52836164662648e-07
-3.7210565788454e-07
2.5608241568463e-06
-1.10190635198064e-07
-6.21240029263271e-07
1.08710597132556e-06
7.20121116620353e-08
-8.23238575931029e-07
6.49034614771708e-07
6.96637327439241e-08
-9.89703985681438e-07
4.36188213656925e-07
6.08948734542585e-08
-1.12868659088203e-06
3.00906441812303e-07
5.87390177826099e-08
-1.24386259998705e-06
1.9643304990403e-07
5.95677859207714e-08
-1.3228633968709e-06
1.0699357120173e-07
5.89265480265883e-08
-1.33604543056225e-06
3.44570698278456e-08
5.34268847340954e-08
-1.26365129718662e-06
-1.54564450901357e-08
4.19325041802496e-08
-1.13839840620694e-06
-5.1542735583878e-08
2.44223319366802e-08
-1.03335582921134e-06
6.50407143386109e-06
-1.33830278857122e-07
-2.99807068956114e-07
7.55973394524039e-06
-2.62493847928875e-07
-3.21386354544894e-07
3.09948009825257e-06
-2.87561608529687e-08
-5.748553262376e-07
8.05016005169089e-06
-3.84118788578072e-07
-3.65082588753245e-07
3.56295354836985e-06
-4.6700009050097e-08
-6.53968580733722e-07
1.74904758180485e-06
-7.70000079720001e-09
-7.51997121147096e-07
8.48935401568636e-06
-5.1179891291624e-07
-4.20920798712269e-07
3.74302730568299e-06
-4.48532492394401e-08
-7.54013517957881e-07
1.95245927556078e-06
-1.88132568810652e-09
-8.72886585525172e-07
1.25518277098894e-06
2.58605111286423e-09
-8.87968080403068e-07
8.5757930239594e-06
-6.4092409662011e-07
-4.80069002540692e-07
3.81284228933594e-06
-3.50975307878043e-08
-8.38164436070288e-07
2.05831741464535e-06
1.94337373787666e-08
-1.00972951260817e-06
1.34243308466029e-06
1.48519409986561e-08
-1.02945469235133e-06
9.56491437700531e-07
9.82181223128382e-09
-9.9732921495822e-07
8.29180027142042e-06
-7.30814873084664e-07
-5.23633010084288e-07
3.74003978019299e-06
-2.9456996823861e-08
-8.73856502673326e-07
2.0678911770325e-06
4.83540229216718e-08
-1.10741151244084e-06
1.38879640213401e-06
3.5864296911069e-08
-1.18341219633767e-06
9.79332795623373e-07
2.65928856850329e-08
-1.14523708142025e-06
7.24199987137542e-07
1.58134662773959e-08
-1.08321449639207e-06
7.75795438282379e-06
-7.67267657820455e-07
-5.31443150732963e-07
3.57979335164032e-06
-3.38263384574679e-08
-8.63058956748256e-07
1.96706331011999e-06
7.32936506419426e-08
-1.13024678392177e-06
1.36427506405265e-06
5.87789932955876e-08
-1.2836853338405e-06
9.81469884108875e-07
4.55099964290168e-08
-1.30102265424203e-06
7.13563709299796e-07
3.38731769944021e-08
-1.22628257259379e-06
5.29851683438569e-07
2.02335174380127e-08
-1.14523110227995e-06
7.16048341540857e-06
-7.68244932869173e-07
-5.15140475323511e-07
3.38485548097028e-06
-4.55974257903832e-08
-8.25914833813629e-07
1.80565280128117e-06
8.84121833220529e-08
-1.09552439698457e-06
1.26116496541699e-06
7.63439361927412e-08
-1.29509276205866e-06
9.35385010202143e-07
6.19359159807404e-08
-1.39504849942293e-06
6.89762476328525e-07
5.1206025383473e-08
-1.37557137178282e-06
5.01196036499339e-07
3.92230832936737e-08
-1.27649672191476e-06
3.65218653335923e-07
2.34052204175271e-08
-1.18287778585599e-06
6.59243614742552e-06
-7.61639560233121e-07
-4.88836625259319e-07
3.18818004970184e-06
-6.39853590492191e-08
-7.7929638925989e-07
1.63042947845485e-06
9.40497771628414e-08
-1.035166039172e-06
1.12016768870389e-06
8.54978014763225e-08
-1.24320852587147e-06
8.37967100195386e-07
7.24014710757877e-08
-1.39423892546139e-06
6.3351364665506e-07
6.40269987641245e-08
-1.45857382900432e-06
4.6224920789921e-07
5.57911414759185e-08
-1.41440717710432e-06
3.24813309268219e-07
4.3656500868232e-08
-1.29867591657246e-06
2.24712739309052e-07
2.58636025137491e-08
-1.19628145290872e-06
6.07648866098865e-06
-7.42126656524376e-07
-4.60037997781e-07
3.00933992721181e-06
-8.64961791629293e-08
-7.3137855394613e-07
1.46428455302394e-06
9.22469442816397e-08
-9.68368516806945e-07
9.75289887768288e-07
8.66028479942268e-08
-1.16606681361425e-06
7.18545999214365e-07
7.56159575126286e-08
-1.32865079088358e-06
5.44573727348299e-07
7.05417668026615e-08
-1.44544201756602e-06
4.01424248592412e-07
6.70963900900859e-08
-1.48432307121812e-06
2.75386663795204e-07
6.02640149537491e-08
-1.42210093628125e-06
1.75800992486506e-07
4.74645428025577e-08
-1.29475553146222e-06
1.03645510645212e-07
2.79920205795661e-08
-1.18613956859187e-06
5.62217803006472e-06
-7.15059562232188e-07
-4.24686057081478e-07
2.85561188546983e-06
-1.11367702130984e-07
-6.82280475733685e-07
1.31413171854723e-06
8.41702415362437e-08
-9.01298488056659e-07
8.40025246633104e-07
8.07603636452454e-08
-1.08414519237682e-06
5.9965904577105e-07
7.16689499225628e-08
-1.23855190701644e-06
4.43483532773191e-07
7.00166543316843e-08
-1.36814690177546e-06
3.20813613778305e-07
7.15013544044157e-08
-1.45895035508736e-06
2.12111617868808e-07
7.09767722912674e-08
-1.47767993643333e-06
1.18644784539836e-07
6.45151881336217e-08
-1.40164222489139e-06
4.91862211762378e-08
5.07771143278368e-08
-1.26638549013626e-06
-9.49510457267906e-10
2.97098326958831e-08
-1.15339398732786e-06
5.23237987964118e-06
-6.8248280768416e-07
-3.87861928192291e-07
2.72839300088391e-06
-1.38051825170759e-07
-6.35033841088981e-07
1.1795218780139e-06
6.98205188308993e-08
-8.37753288815091e-07
7.15894305891806e-07
6.88052433330734e-08
-1.0051777689123e-06
4.89012308860236e-07
6.13472656038731e-08
-1.14593186575752e-06
3.44936527709196e-07
6.25965835603984e-08
-1.26810261367724e-06
2.34878666139543e-07
6.85038054705202e-08
-1.37177023351007e-06
1.39194144072133e-07
7.40457793598342e-08
-1.44073014043344e-06
5.44724823912691e-08
7.48398136313346e-08
-1.44236052774174e-06
-1.29376222788202e-08
6.80840905986478e-08
-1.35559350364232e-06
-5.76563100464752e-08
5.32104932709587e-08
-1.21549284873114e-06
-8.99035674145672e-08
3.08428183470619e-08
6.94912949555639e-06
-1.4014219124134e-07
-3.04932460542581e-07
8.02416200865099e-06
-2.70667479630427e-07
-3.27587664008977e-07
3.42524622200759e-06
-3.15850260434016e-08
-5.93981549489325e-07
8.54806033875476e-06
-3.89189332925993e-07
-3.71204827610044e-07
3.94173678905741e-06
-5.06357894916136e-08
-6.78292676325758e-07
1.96474858149782e-06
-8.82931647959256e-09
-7.81726491703473e-07
9.0240007880465e-06
-5.03136329095603e-07
-4.15653453596562e-07
4.16022372383596e-06
-4.68598011634192e-08
-7.82126220881293e-07
2.20608662624972e-06
-2.94978555083963e-09
-9.1233836293598e-07
1.42935402041882e-06
2.12745755238532e-09
-9.28295767586596e-07
9.14673987324547e-06
-6.27482572559165e-07
-4.5524231541262e-07
4.24796701205842e-06
-3.24804490622997e-08
-8.68414828323048e-07
2.34253133114948e-06
2.03736307298066e-08
-1.06047905451213e-06
1.540903840348e-06
1.50999452892238e-08
-1.08386977916481e-06
1.10782555295072e-06
9.97012929381248e-09
-1.049271980617e-06
8.89445669076787e-06
-7.51850001486358e-07
-4.91711038122681e-07
4.15758537756355e-06
-2.43921611693175e-08
-9.08316556101263e-07
2.36596047005918e-06
5.22985648128004e-08
-1.16910468981126e-06
1.61002839335405e-06
3.80663886360386e-08
-1.25417616787261e-06
1.1461263842385e-06
2.81077832480354e-08
-1.21453384311246e-06
8.57958219291515e-07
1.67402049436838e-08
-1.1478283684325e-06
8.39300308031983e-06
-8.44214518954427e-07
-5.21636532073483e-07
3.95940029712559e-06
-2.79012833817671e-08
-9.04794603253549e-07
2.26135136161734e-06
8.01629172750059e-08
-1.19995018931155e-06
1.59771240586672e-06
6.3614461065951e-08
-1.36859740588357e-06
1.16479495763009e-06
4.92247550414635e-08
-1.38936729431312e-06
8.57582401804629e-07
3.67483980561929e-08
-1.31018936673296e-06
6.47872065384884e-07
2.20222041492728e-08
-1.22325713995768e-06
7.79030736350396e-06
-8.71013219753294e-07
-5.26083978381211e-07
3.73440771895379e-06
-4.03810919940074e-08
-8.74416485961987e-07
2.08825712000972e-06
9.74373816082808e-08
-1.16980935888483e-06
1.49420935139583e-06
8.37256419228524e-08
-1.3882368563541e-06
1.12777697371279e-06
6.8172160178014e-08
-1.49873838739874e-06
8.45880198803805e-07
5.66474896038713e-08
-1.47991297206276e-06
6.26142185395849e-07
4.35957474579906e-08
-1.37459003105056e-06
4.68411493116887e-07
2.61201126134681e-08
-1.27454384306778e-06
7.20274079541334e-06
-8.61933545436428e-07
-5.16642904889138e-07
3.51737501327466e-06
-5.77555948662263e-08
-8.32165125480108e-07
1.9002688301419e-06
1.04402859710857e-07
-1.11174219896158e-06
1.34565372166624e-06
9.47523908554412e-08
-1.33941708612391e-06
1.02968691600855e-06
8.08812108063707e-08
-1.50575739831729e-06
7.96064290484092e-07
7.21002841838525e-08
-1.57849235139128e-06
5.96140391462635e-07
6.32074075962543e-08
-1.53344578242029e-06
4.32229362608838e-07
4.97155307435103e-08
-1.41022291781136e-06
3.13399403175086e-07
2.95763382385292e-08
-1.3011405475721e-06
6.64305409944767e-06
-8.32946073830486e-07
-4.95246862097135e-07
3.32347236260987e-06
-8.1070170601378e-08
-7.85890940972379e-07
1.72178182029756e-06
1.03042415770299e-07
-1.04578067399586e-06
1.1911942633854e-06
9.69187911667099e-08
-1.26249182884176e-06
9.03919923428963e-07
8.56815274505519e-08
-1.4418626213852e-06
7.05907052193647e-07
8.0811132377931e-08
-1.57235670703517e-06
5.39766511685079e-07
7.74332822177745e-08
-1.61855878610721e-06
3.89111991747395e-07
6.99110827501239e-08
-1.5543874041549e-06
2.66217525328312e-07
5.53092460086733e-08
-1.41853818154433e-06
1.77560895941804e-07
3.27553584630222e-08
-1.30295233730853e-06
6.14820266979918e-06
-7.95801740555146e-07
-4.72294592819626e-07
3.15855547518494e-06
-1.08964659301956e-07
-7.40502106716789e-07
1.55923354150938e-06
9.52520536761423e-08
-9.79484991788504e-07
1.04643352524669e-06
9.15860060714815e-08
-1.17976134351375e-06
7.77040779331024e-07
8.26354072061945e-08
-1.35046566638895e-06
5.99034000886503e-07
8.18025312991737e-08
-1.49546136599263e-06
4.57427594901968e-07
8.41915404611691e-08
-1.59915028465971e-06
3.28545603675532e-07
8.39555931759494e-08
-1.62444815458851e-06
2.12901282038473e-07
7.65917022239386e-08
-1.5454841954426e-06
1.22550417057621e-07
6.05147515663923e-08
-1.40064256255942e-06
5.75161238146774e-08
3.55707681141596e-08
-1.28017602418051e-06
5.70997872345475e-06
-7.5065857318857e-07
-4.42029590794643e-07
3.02728679135066e-06
-1.40391080333405e-07
-6.94560071721053e-07
1.41439968413227e-06
8.16224140510184e-08
-9.14611098684311e-07
9.13879035181171e-07
7.9830504690974e-08
-1.09835557614656e-06
6.5864546665398e-07
7.25206071158732e-08
-1.25462934818662e-06
4.93382045656695e-07
7.50275554074391e-08
-1.39200762042302e-06
3.66031062830194e-07
8.26037064254649e-08
-1.51040200231077e-06
2.53382923657615e-07
8.94870393522725e-08
-1.59164986180825e-06
1.49811996979664e-07
9.05809633446834e-08
-1.59908418226784e-06
6.19686563030446e-08
8.25823714524282e-08
-1.50835337746998e-06
-1.7424469874924e-09
6.47859349558907e-08
-1.35737548696676e-06
-4.77645857879504e-08
3.77262466623199e-08
-1.2332594807406e-06
5.32777008595897e-06
-6.99341029389116e-07
-4.08155517746586e-07
2.93064175165402e-06
-1.73192966380027e-07
-6.51669208962404e-07
1.28618738843602e-06
6.18867052984004e-08
-8.53754085379942e-07
7.92314538417639e-07
6.23645420092632e-08
-1.0213411335726e-06
5.49516094133515e-07
5.64045633018019e-08
-1.16240728929262e-06
3.9497818291597e-07
6.13945817660162e-08
-1.28607723193448e-06
2.77477261565877e-07
7.30268478606653e-08
-1.39719174415667e-06
1.75595908476504e-07
8.58738098490318e-08
-1.49261521864553e-06
8.19347060741571e-08
9.49917972321025e-08
-1.55361234832512e-06
-1.47494715212873e-09
9.61984578630879e-08
-1.54512009328463e-06
-6.60298859714013e-08
8.70046370272264e-08
-1.44503464199905e-06
-1.07170474540607e-07
6.7534023982133e-08
7.4054963796989e-06