/*--------------------------------*- C++ -*----------------------------------*\
  =========                 |
  \\      /  F ield         | OpenFOAM: The Open Source CFD Toolbox
   \\    /   O peration     | Website:  https://openfoam.org
    \\  /    A nd           | Version:  12
     \\/     M anipulation  |
\*---------------------------------------------------------------------------*/
/*   Windows 32 and 64 bit porting by blueCAPE: http://www.bluecape.com.pt   *\
|  Based on Windows porting (2.0.x v4) by Symscape: http://www.symscape.com   |
\*---------------------------------------------------------------------------*/
FoamFile
{
    format      ascii;
    class       volVectorField;
    location    "800";
    object      U;
}
// * * * * * * * * * * * * * * * * * * * * * * * * * * * * * * * * * * * * * //

dimensions      [0 1 -1 0 0 0 0];

internalField   nonuniform List<vector> 
10140
(
(2.89157990428e-06 0.000446638544089559 4.13585970157036e-05)
(5.50985085759354e-06 0.000532084452800735 5.33765988872545e-05)
(9.92270022444806e-06 0.000508199783380547 4.45859733338009e-05)
(3.07585555717139e-06 0.000169045379544153 0.000129848601461346)
(7.99592830384884e-06 0.000623004718337974 6.63352884949839e-05)
(1.53830881847361e-05 0.000596243801988582 5.76950445386669e-05)
(4.21222054708296e-06 0.000243894253556903 0.000148807993233862)
(1.76862780583049e-05 0.000517509357470216 4.75635954512686e-05)
(1.09875456750723e-05 0.000199818209820437 0.000140422177424597)
(2.15616423647699e-06 6.76824776720463e-05 0.000193173428022728)
(8.41718886563699e-06 0.00072848818945614 7.3220600119098e-05)
(1.99828526192071e-05 0.000692264084277355 7.11660815269219e-05)
(5.13436418067964e-06 0.000320976703374714 0.000168190881118962)
(2.31221238873971e-05 0.000607559513543329 6.13852330727439e-05)
(1.39035146468563e-05 0.000276098425793089 0.000159924167408088)
(2.62114006883999e-06 0.000129909904372262 0.000216222580688671)
(2.63625851798034e-05 0.00053198356394552 5.09401549653602e-05)
(2.03994252490341e-05 0.000205191232998478 0.00014899125464162)
(7.68716701090248e-06 8.01011362703687e-05 0.000207744310199614)
(2.01180468562086e-06 3.71940662508492e-05 0.000252542408508987)
(8.76762595544567e-06 0.000848999411651265 7.975157543199e-05)
(2.11047665235192e-05 0.000805897581781477 7.84873538232141e-05)
(5.43306901237314e-06 0.000406906899580753 0.000183615754157287)
(2.73650621093103e-05 0.000705425276328398 7.564610957925e-05)
(1.62705544075891e-05 0.000357400982670439 0.00017966059476538)
(2.96756277516153e-06 0.000195275786919793 0.000239355951957924)
(3.16664734150247e-05 0.000624331056465362 6.55942045508142e-05)
(2.42786910179709e-05 0.000283009204396333 0.000169341192902865)
(9.09524777538715e-06 0.000143782488675584 0.000231906595792149)
(2.32907119557598e-06 9.19124544593027e-05 0.000280169846317493)
(3.63309065679807e-05 0.000547229189400097 5.35870596889708e-05)
(3.14321841644008e-05 0.000214318898190247 0.000157027304757961)
(1.50437279032569e-05 8.42280858044731e-05 0.000220106805995457)
(6.26267410663374e-06 4.50177854977336e-05 0.000270409739226159)
(2.13501263697987e-06 2.08322265430447e-05 0.000309799706393056)
(9.7555121504799e-06 0.000977070011593604 8.4748355662843e-05)
(2.22123792452843e-05 0.000936294685246619 8.57635710747274e-05)
(5.70241090802209e-06 0.00050209962400679 0.000198350072311829)
(2.90275758146722e-05 0.000822039115055712 8.37064325244831e-05)
(1.75402052545943e-05 0.000448487392633587 0.0001960602875297)
(3.19761848675019e-06 0.000266780253932853 0.00026127715898822)
(3.6016792048254e-05 0.000724640203471357 8.0661569515161e-05)
(2.75319188464855e-05 0.000366508905064616 0.000189930189213258)
(1.02385753733219e-05 0.000212125551186229 0.000256266925317931)
(2.58896518034445e-06 0.000150583199655395 0.000308214950724762)
(4.17725631163899e-05 0.000641526883247531 6.90735719917152e-05)
(3.62284532273382e-05 0.00029384583301301 0.000178283513340827)
(1.73458650672771e-05 0.000149412750286833 0.000245507335217537)
(7.24163465490677e-06 0.000101062873457593 0.000299801928733758)
(2.43618859905001e-06 7.0603436732053e-05 0.000342340104938442)
(4.76875880287298e-05 0.000562510869962069 5.48707117725427e-05)
(4.42512138973445e-05 0.000228287011918032 0.000163171999489815)
(2.3792162153886e-05 9.0826973438585e-05 0.000231246976975508)
(1.20002459286661e-05 4.90324384809612e-05 0.000285610676820094)
(6.14335779597776e-06 2.68625978816189e-05 0.000329879949886001)
(2.17939718006138e-06 8.43843374347015e-06 0.000363355519027278)
(1.10286226904106e-05 0.0011151743597223 8.71901862215312e-05)
(2.43298924448795e-05 0.00107451807827393 9.11902492647731e-05)
(6.17242320969177e-06 0.000604632557885244 0.000212085011593175)
(3.05829967722435e-05 0.00095684060383201 9.169885272278e-05)
(1.88674793052393e-05 0.000548237587670843 0.000211976447106364)
(3.42583450157065e-06 0.000344783824504904 0.00028266450620431)
(3.8248136611259e-05 0.000844258279619302 8.92751297987892e-05)
(2.99734299616564e-05 0.000460297502181162 0.000207328866209317)
(1.11619617530538e-05 0.000287256392318638 0.000279776473696169)
(2.80473691437885e-06 0.000214400252198803 0.000335879943294661)
(4.6315517148805e-05 0.000743673571733497 8.46597846991777e-05)
(4.05179777814556e-05 0.000379167158557593 0.000199835882806659)
(1.93620635150386e-05 0.000219854792206207 0.000271154110225186)
(8.09444679658433e-06 0.000161866930763821 0.000329767567132843)
(2.70366893506882e-06 0.000124662023075909 0.000375561351438275)
(5.34451405640483e-05 0.000658323707246585 7.10042440848053e-05)
(5.00866493330785e-05 0.000309634832218468 0.000185105658389252)
(2.70466757879543e-05 0.000157561432922115 0.000257757432231759)
(1.37228340106464e-05 0.00010640603457832 0.000316654550764406)
(7.06249466960288e-06 7.76715821993331e-05 0.000364643253376321)
(2.50065578170032e-06 5.43246873245101e-05 0.000401058019253338)
(5.99328210887772e-05 0.000578650730050365 5.52211086133524e-05)
(5.81128975541719e-05 0.000247333843490855 0.000167283797064715)
(3.38952196271113e-05 0.000101056227654845 0.00023984583652697)
(1.88726780627298e-05 5.53660964332917e-05 0.000298953427695914)
(1.11116644485044e-05 3.10594796554488e-05 0.000346888139778218)
(6.43471063179684e-06 1.33535680989246e-05 0.000384603284977794)
(2.27884079192181e-06 -2.56657487528701e-06 0.000413524366752089)
(1.09852823730329e-05 0.00126107537033243 8.76652274746514e-05)
(2.66540588244442e-05 0.00122498122797162 9.40065645680582e-05)
(6.75034824958682e-06 0.000715821950488194 0.000224256627017823)
(3.24341621958952e-05 0.00109969859187161 9.76091181183784e-05)
(2.06180146629325e-05 0.000655180849405849 0.000226719784980487)
(3.68101563048892e-06 0.000428967055612879 0.0003033403100335)
(4.01895010468906e-05 0.000983069036747471 9.78301321731341e-05)
(3.25638605108388e-05 0.00056290943199233 0.00022427844767941)
(1.21102537158216e-05 0.000369097675805697 0.000302816881794653)
(3.02328784264396e-06 0.000283468663950263 0.000363199918794026)
(4.91580398547799e-05 0.000865396362643823 9.32770162719138e-05)
(4.42481491716034e-05 0.000475045403477659 0.000218097530353334)
(2.11691737273125e-05 0.000297479870479452 0.000296070823212227)
(8.87360039636717e-06 0.000228143875270013 0.000359548424655094)
(2.95914677982799e-06 0.000183493079117652 0.000408900132006445)
(5.81637017385119e-05 0.000761855401128777 8.67397899481169e-05)
(5.5514726970291e-05 0.000396741894310187 0.000207327342905118)
(3.00807764329358e-05 0.000229790719310251 0.000284532472038454)
(1.53277794300925e-05 0.000168927892721546 0.000348331926438053)
(7.91873331896633e-06 0.000133223725853549 0.00040023575922093)
(2.81001365270995e-06 0.00010459807838483 0.000439692262725259)
(6.62825581544636e-05 0.000675861664780548 7.19364921654853e-05)
(6.50642678354408e-05 0.000330765530832167 0.000189551745220285)
(3.81807288412417e-05 0.000169440167533838 0.000267080583691891)
(2.14453543644544e-05 0.000114173358157153 0.000331319845051844)
(1.2749280057075e-05 8.29798328286637e-05 0.00038357990913955)
(7.44744076246953e-06 6.00544768983681e-05 0.00042481432862285)
(2.64959759114807e-06 3.98697975092291e-05 0.000456581587357776)
(7.23352182918795e-05 0.000597171215883399 5.55363661504592e-05)
(7.22653104157902e-05 0.000270808601236414 0.000170014387990372)
(4.45034026143019e-05 0.000115344589341616 0.000245967438350279)
(2.6608411134642e-05 6.49170710097733e-05 0.000309190136322181)
(1.7080220802099e-05 3.7615667275125e-05 0.000361616594420347)
(1.14099579120289e-05 1.75712504146962e-05 0.000402609623029978)
(7.09274493667442e-06 1.15988227492609e-06 0.000435468426328499)
(2.52779155078554e-06 -1.32373509734156e-05 0.000460691297979603)
(9.31037491927243e-06 0.00141725639840179 8.88514047514092e-05)
(2.66978610407419e-05 0.00138708746861012 9.36757579631999e-05)
(7.13776032769485e-06 0.000837905684581275 0.000234954058952426)
(3.38411437161712e-05 0.00125439660179776 0.000100745023421529)
(2.26015523350041e-05 0.000770901178101624 0.000239572656339147)
(3.94329714651604e-06 0.000519610985397493 0.000323083328937849)
(4.19548779347707e-05 0.0011300040640989 0.000104099268274)
(3.54471794059185e-05 0.000672759662421844 0.000239905370383625)
(1.31429405234857e-05 0.000457342373610427 0.000325069894486845)
(3.24059562193161e-06 0.000357844529241482 0.000389875080508959)
(5.15657240763614e-05 0.00100695813234577 0.000102082950757826)
(4.81995677852329e-05 0.000579892352455186 0.00023583475560388)
(2.30276890257487e-05 0.000382035223692015 0.000320532031873666)
(9.67051462105627e-06 0.000299856199592218 0.00038905399260937)
(3.22149658576307e-06 0.000247119968505011 0.000442044039545466)
(6.17157102708936e-05 0.000885059039519431 9.48388882067073e-05)
(6.06780336798767e-05 0.000494455860454703 0.000225989479371623)
(3.29348302160903e-05 0.000309448995376584 0.000310553490051418)
(1.68753057975655e-05 0.000237163186658405 0.000379896548542111)
(8.75814566480548e-06 0.000193752525507031 0.000436080301184106)
(3.11942948285258e-06 0.000159500099538735 0.000478720794017678)
(7.11844108677874e-05 0.000780707400486625 8.74881214000121e-05)
(7.1665047903179e-05 0.000419669051394873 0.00021201589189037)
(4.23178492457106e-05 0.000243421605720954 0.000294529428321935)
(2.39437715543138e-05 0.000178326530995719 0.000364331465291593)
(1.43607605474473e-05 0.000139895079106008 0.000421167544947351)
(8.44826271985256e-06 0.000111442143443357 0.000466103118265786)
(3.02596795661975e-06 8.67150705938567e-05 0.000500829549236843)
(7.94033634661004e-05 0.000695554453038447 7.23179088830136e-05)
(8.03500563569784e-05 0.000356604547982951 0.000192348455578271)
(4.9823234923764e-05 0.000185608776377982 0.000273492636573126)
(3.0090594939169e-05 0.000125312259043401 0.000342344887451619)
(1.95623033088488e-05 9.08434650645555e-05 0.000399766486349549)
(1.32333265618101e-05 6.52225533355776e-05 0.000444920009460436)
(8.30204121261641e-06 4.42272335250165e-05 0.000481227695324026)
(2.98522807814297e-06 2.58976538147206e-05 0.000509304962399768)
(8.43189507649966e-05 0.000618850269690969 5.5613951972035e-05)
(8.60363397357336e-05 0.000298444113995906 0.00017204053750771)
(5.48508555237914e-05 0.000133381529592694 0.000250474394284295)
(3.43303612693264e-05 7.79820950757499e-05 0.000316596623745016)
(2.35695544065896e-05 4.71900892442672e-05 0.000372963243696416)
(1.72633725591523e-05 2.42385962431077e-05 0.000418169614406595)
(1.26568659967343e-05 4.99796282458793e-06 0.000454132274594916)
(8.20536593464142e-06 -1.10031153392631e-05 0.000483303818435332)
(2.99147620898173e-06 -2.44704911429075e-05 0.00050546841567681)
(8.14506035228489e-06 0.0015888275324973 9.14147413600438e-05)
(2.42985875302675e-05 0.00155455847115124 9.25416785296564e-05)
(7.2400488912789e-06 0.000971820284776758 0.000245152376595913)
(3.44350310127674e-05 0.00142015665670189 0.000100379024527363)
(2.4197404601191e-05 0.000898599178145949 0.000250164275483188)
(4.17264843976505e-06 0.000617023523145858 0.000341725263687991)
(4.25862510887217e-05 0.00128888770413221 0.000107208655423659)
(3.8476234723944e-05 0.000791332449965223 0.000253495427132249)
(1.42189014301069e-05 0.000552481213162792 0.000346260382972721)
(3.44391862620055e-06 0.000437584030355803 0.000415574879104775)
(5.34711738178501e-05 0.00115641679520121 0.000108392794441945)
(5.24218113129125e-05 0.000691912351759575 0.000252087629794002)
(2.49651488742494e-05 0.000473157851199311 0.000344135914681958)
(1.047105849968e-05 0.00037711523742257 0.000417919016321694)
(3.47616620747133e-06 0.000315646946428288 0.000474543127377514)
(6.46639593214418e-05 0.001028308655613 0.000103469288580874)
(6.61950144772152e-05 0.000601266435677433 0.000244030196930044)
(3.58510608508768e-05 0.000396190586694588 0.000336061454062902)
(1.84546123942734e-05 0.000310987633867247 0.000411206629988874)
(9.61453350466211e-06 0.000259231350766564 0.000471829178038563)
(3.43648246534502e-06 0.000219046954340393 0.000517657300897595)
(7.5463154577664e-05 0.000905209481544243 9.49252835537474e-05)
(7.83436028274096e-05 0.000519280055206066 0.000230594469583344)
(4.63368084156734e-05 0.000325018693999574 0.000321099800353224)
(2.63976493600975e-05 0.000248366041806541 0.000397205256564107)
(1.59773305750645e-05 0.000201947129408567 0.000459058493844746)
(9.46154488129799e-06 0.000167606175234454 0.000507916818510084)
(3.41209720921814e-06 0.000138148368672893 0.000545702603972412)
(8.46897173752358e-05 0.000802001354814591 8.70584041042815e-05)
(8.80919489409765e-05 0.00044748139514917 0.000214710963593778)
(5.50345073015357e-05 0.000261525266331578 0.00030112568658658)
(3.35513430215085e-05 0.000191175149424499 0.000376089069186949)
(2.20677046114494e-05 0.000149217904491026 0.00043881965346449)
(1.50989577170145e-05 0.000117743350716959 0.000488379582247416)
(9.54720207014861e-06 9.19290503055853e-05 0.000528337728299751)
(3.46568699172374e-06 6.94591635889555e-05 0.000559438319595693)
(9.20890379213294e-05 0.000718564879908306 7.23207703371316e-05)
(9.51865797855582e-05 0.000386866514190733 0.000194235198028655)
(6.11309062867971e-05 0.000205791728563927 0.000277964091224418)
(3.86800858297204e-05 0.000140204534290086 0.000350020939665146)
(2.69396569424936e-05 0.000101951275485495 0.00041193133208296)
(2.00279633473446e-05 7.31045237118286e-05 0.000462013498670929)
(1.48615304015127e-05 4.88866349724899e-05 0.000502111632804762)
(9.72092441859609e-06 2.85694879277647e-05 0.000534797088847602)
(3.57749176642944e-06 1.13119291115616e-05 0.000559934676103995)
(9.55301918486734e-05 0.00064403934057207 5.52910638108443e-05)
(9.88780253607654e-05 0.000330503365955975 0.000173654037865231)
(6.43888245001218e-05 0.000154907679779949 0.000254142652277454)
(4.13181547271246e-05 9.42957122614297e-05 0.000322207739544496)
(2.96948115216487e-05 5.99269071420233e-05 0.000381305948790265)
(2.34123347895624e-05 3.38427877949985e-05 0.000430268255690474)
(1.90617879213018e-05 1.14281702516554e-05 0.000470316973861939)
(1.48672896918056e-05 -7.99732254233932e-06 0.000502576156813855)
(9.91854857632299e-06 -2.40454086766182e-05 0.000528841509864113)
(3.71036808409192e-06 -3.72467740568169e-05 0.000548484987929121)
(8.28829633621479e-06 0.0017692384589175 9.42362733700965e-05)
(2.32825612961966e-05 0.00173016587691929 9.33385635707153e-05)
(7.35411373165975e-06 0.00111612448726325 0.000255363720834707)
(3.53142093156653e-05 0.00159080089157461 9.81240693310051e-05)
(2.51638565898927e-05 0.00104013038866926 0.000259672043054949)
(4.34889755274614e-06 0.000721203285191139 0.000359276375191951)
(4.39488090702262e-05 0.00145743609484995 0.000106389601520064)
(4.12685959919655e-05 0.000922126954050503 0.000264497665897835)
(1.52285765921791e-05 0.000655136078846285 0.000366164705719203)
(3.61817082259899e-06 0.000522614224180836 0.000439968197404648)
(5.3985431031809e-05 0.00131835477122734 0.000110992124318648)
(5.67718132666929e-05 0.000812630515957952 0.000266078335392907)
(2.69303856819409e-05 0.000571391801245403 0.00036659349501926)
(1.12454996162272e-05 0.000460095963187669 0.000445775446619716)
(3.71000246438165e-06 0.00038905542870546 0.000505917164665234)
(6.67150262458369e-05 0.00117927646606191 0.000109414507876333)
(7.20405893625055e-05 0.000715302147299968 0.000260399186096946)
(3.88570948110608e-05 0.000489586791240228 0.0003606165123383)
(2.00350910482179e-05 0.000390518642575457 0.000441865228686407)
(1.0449959360999e-05 0.000329810650613928 0.000507002019695582)
(3.74440900368796e-06 0.000283339497639861 0.000555916535431389)
(7.90324297964063e-05 0.00104961021807433 0.000103037653298468)
(8.55249364256706e-05 0.000628319790038024 0.00024843588283865)
(5.04558916409138e-05 0.000413835183139526 0.00034704663515308)
(2.88905539002555e-05 0.000324108199649494 0.000429778081899589)
(1.7619886975397e-05 0.000269068473994953 0.000496892765239156)
(1.04924335603407e-05 0.000228547798070146 0.000549769548360004)
(3.80847430594321e-06 0.00019422290356372 0.000590594735146404)
(8.95172438702395e-05 0.000928081169078335 9.4084913495788e-05)
(9.62351919237859e-05 0.000549179185226652 0.000232873864740715)
(6.02119196408104e-05 0.00034522711170766 0.000327702986333326)
(3.69991907406311e-05 0.000263056462280163 0.00040958879628078)
(2.46002741907234e-05 0.000212859272189285 0.000478144416934126)
(1.70089198754883e-05 0.000175163316895204 0.000532411769736378)
(1.08335390696019e-05 0.000144336014494752 0.000576217136370504)
(3.9671199574747e-06 0.000117640251358287 0.000610468620830554)
(9.78880085351872e-05 0.000826840296291589 8.60260689757296e-05)
(0.00010401470989559 0.000479942798144709 0.000216188647984025)
(6.72986856946761e-05 0.000283925409670487 0.000305418880049015)
(4.30452017569397e-05 0.000207986520758505 0.000383922985344097)
(3.03872843336682e-05 0.00016197261476434 0.000451736031442563)
(2.29005008725739e-05 0.000126967285791711 0.000507012103448686)
(1.71763786872888e-05 9.75610440667667e-05 0.000551518163590477)
(1.13256447453504e-05 7.27514956752536e-05 0.000587990767458167)
(4.20815800002678e-06 5.15591968650677e-05 0.000616363573297693)
(0.000103917238434149 0.000745327486594442 7.20926119502408e-05)
(0.000108965989336187 0.000421866343761257 0.000195594977671563)
(7.14914205484286e-05 0.000229730397015314 0.000281382322109882)
(4.64086261410684e-05 0.000158608070999005 0.000355532647866263)
(3.38864588757219e-05 0.000116489736561402 0.000420505187114271)
(2.7151200745534e-05 8.4213935275189e-05 0.000474931480028072)
(2.24097046184468e-05 5.64591070173971e-05 0.000519884301574511)
(1.76481091793582e-05 3.2265065062606e-05 0.000556396676237061)
(1.18697355669039e-05 1.19401741321769e-05 0.000586383156546905)
(4.47508556368215e-06 -5.07919833843719e-06 0.00060923771474999)
(0.000105544527062937 0.00067292735627465 5.44364969307452e-05)
(0.000110412466327156 0.000367491814303882 0.000174952227560494)
(7.27387233743599e-05 0.000179835350064502 0.000257375883202607)
(4.70903974331907e-05 0.000113590849890739 0.000326879599321658)
(3.47673157294552e-05 7.55480176708666e-05 0.000387726414406594)
(2.89662054188642e-05 4.64025197343233e-05 0.000439274157437522)
(2.56195377022024e-05 2.08316359253282e-05 0.000482998777256024)
(2.24374726184709e-05 -2.2022240994035e-06 0.000519361530628046)
(1.81662706541835e-05 -2.2261818606977e-05 0.000548767557825813)
(1.23554674002941e-05 -3.89043633789783e-05 0.000572684190298355)
(4.70081687628242e-06 -5.26003122327139e-05 0.000590240869606277)
(8.83983260897674e-06 0.00195589918669843 9.67107221076302e-05)
(2.4842409663297e-05 0.00191400370276794 9.54846781728942e-05)
(7.61603051101964e-06 0.00126873014897378 0.000265171032637064)
(3.78197141063612e-05 0.00176944710437736 9.77504733052569e-05)
(2.6156040402841e-05 0.00119375942698697 0.00026952712014049)
(4.49584076558583e-06 0.000831577030073262 0.000375730318802025)
(4.90135074112581e-05 0.00162948260705379 0.000103405153737902)
(4.36855849730352e-05 0.00106758182108479 0.000273980713976002)
(1.60910067090791e-05 0.000765544187278715 0.000384858620868396)
(3.74986157937041e-06 0.000612711365091228 0.000462787184771938)
(5.74794479253489e-05 0.00148738039422931 0.000109312782310225)
(6.11878195459896e-05 0.00094578812152115 0.000277216983084151)
(2.88137957234609e-05 0.000677486420675469 0.000387659328898133)
(1.19472689873407e-05 0.000548855068951452 0.000472274277845472)
(3.91050826727246e-06 0.000467187520663976 0.000535673378583444)
(6.78636123638788e-05 0.00134381450805549 0.000111131996661209)
(7.81308374793117e-05 0.000838159385693865 0.000274165384116308)
(4.19003857951024e-05 0.000590208568107059 0.000383914895031761)
(2.15678633659291e-05 0.000475984888953755 0.000471493690494668)
(1.12269349757005e-05 0.000405543502472958 0.000541099178206699)
(4.02864010604814e-06 0.000352335510894347 0.000592860271456247)
(8.11952158083081e-05 0.00120209169204421 0.000108094497087385)
(9.3130320057649e-05 0.00074463906930793 0.000264363706032253)
(5.47143659248098e-05 0.00050936298584882 0.000371900912533889)
(3.13904235934343e-05 0.000405650801630144 0.000461632856820666)
(1.92328530907157e-05 0.000341420528361669 0.000534177291068319)
(1.14966595953859e-05 0.000294403295641318 0.000591068275402617)
(4.1958854513696e-06 0.000255049373226675 0.000634778203818612)
(9.3620547627105e-05 0.00107367143860293 0.000101475522448211)
(0.000105065053858916 0.000660752243350939 0.000250112922657091)
(6.55570920961404e-05 0.000436286039096121 0.000353495970594242)
(4.05086318311962e-05 0.000340733441921686 0.000442668636805159)
(2.71696034499014e-05 0.000281659503345512 0.000517370610172445)
(1.89507578737556e-05 0.000237458096003515 0.000576534413377677)
(1.21515096536935e-05 0.000201495749136193 0.000624278113260053)
(4.48395695356899e-06 0.000170559120576989 0.000661673289829214)
(0.000102948882239384 0.00095481733448716 9.25437671310953e-05)
(0.000113485963737732 0.00058399236674351 0.000233764511859466)
(7.35122282795169e-05 0.000370007954384585 0.000331615335400478)
(4.74393243582013e-05 0.000281900061251038 0.000417411995082978)
(3.38911157546403e-05 0.000227369829978546 0.000491700010688999)
(2.58570667711112e-05 0.000185839037322195 0.000552547141064105)
(1.95830903620871e-05 0.000151044778132223 0.000601742732674168)
(1.30094947488614e-05 0.000121645771538115 0.000642245066785616)
(4.87530302612543e-06 9.65169778503462e-05 0.0006740564099255)
(0.00011014975141523 0.000855573669740673 8.45693407158184e-05)
(0.00011884137594993 0.000517334794443331 0.000216985118164889)
(7.84500150232919e-05 0.000310372185581596 0.000308412668652268)
(5.15271266094302e-05 0.000228567738651554 0.000389182769211854)
(3.81979230009381e-05 0.000178414368140719 0.000460412043986988)
(3.10642481722831e-05 0.000139694203012323 0.000520668656320798)
(2.59593626555343e-05 0.000106392853347012 0.000570881713798712)
(2.06224612214018e-05 7.72688221155367e-05 0.000611998630184723)
(1.39769798660163e-05 5.25451110437643e-05 0.000646090511639264)
(5.31247745114233e-06 3.16213458886607e-05 0.000672561027966522)
(0.000114426608524934 0.000776044892615266 7.10067536625145e-05)
(0.0001213488070714 0.000461707964362872 0.000196589639259522)
(8.04886191948577e-05 0.000257334300079358 0.000284242704951995)
(5.27378380086416e-05 0.000180257627889026 0.000359875350130543)
(3.96208999610416e-05 0.000134181862777471 0.000426744200765001)
(3.35937906496818e-05 9.85831989600591e-05 0.000484116411358496)
(3.01354957359295e-05 6.73572702466421e-05 0.000533371446720473)
(2.6669084513427e-05 3.91237955757757e-05 0.00057482034610045)
(2.17524019888887e-05 1.42523339782772e-05 0.000608751079294185)
(1.48970708473115e-05 -6.82710680729815e-06 0.000636727708721933)
(5.71179197487459e-06 -2.45988759591691e-05 0.000657878528485201)
(0.000113711169489534 0.000705106144364676 5.31653477045529e-05)
(0.000120382343687698 0.000409976304256307 0.000175949938422346)
(7.96182071648449e-05 0.000208155909520474 0.000260302578025416)
(5.13155398404404e-05 0.000135728134326414 0.000331064832769242)
(3.83178782258436e-05 9.38090168523314e-05 0.000393112427852261)
(3.32215246452298e-05 6.16134329364399e-05 0.000446244616851131)
(3.14159784129454e-05 3.3125549438743e-05 0.000492493137571078)
(3.01015624272751e-05 6.72450196432829e-06 0.000532547103675219)
(2.75021906945635e-05 -1.74469450189119e-05 0.000566137926068187)
(2.27120733180676e-05 -3.86547814334987e-05 0.000593297167233501)
(1.55959441055852e-05 -5.65407530820292e-05 0.000615255240134444)
(5.96927055718072e-06 -7.16701660821914e-05 0.000630967757853429)
(9.42291203451177e-06 0.00214784670791647 9.86077169111084e-05)
(2.72216612051074e-05 0.00210258033165971 9.75406569917387e-05)
(7.90754272085886e-06 0.00142827623664681 0.000274041791084591)
(4.1864698542386e-05 0.00195638796507779 9.94922108987869e-05)
(2.74830558375542e-05 0.00135649493503239 0.00027948546398569)
(4.61796747350522e-06 0.00094725865492965 0.000390853726821329)
(5.6396810475827e-05 0.00180987259625208 0.000102451181912549)
(4.61476833301835e-05 0.0012258831040467 0.000283887522837977)
(1.68577635762117e-05 0.000883111677614229 0.000402494926561372)
(3.83195224695043e-06 0.000707450810448975 0.000483790575320908)
(6.77922272501546e-05 0.00165810779891806 0.000106136165418025)
(6.57536166385669e-05 0.00109402804955897 0.000286678109874968)
(3.05334639772153e-05 0.000791822739116665 0.000407418520102747)
(1.25280208479348e-05 0.000643270469517181 0.000497169520841596)
(4.06242206158832e-06 0.000549767292888728 0.000563351408945382)
(7.55227527171974e-05 0.00151163347270912 0.000108442820847948)
(8.46714327353234e-05 0.000973893437548667 0.000284879139386631)
(4.49159559699011e-05 0.00069886874364651 0.000405707754582111)
(2.29878704128045e-05 0.00056750242186928 0.000499736425364458)
(1.19033213613561e-05 0.000486340712329953 0.000573614209056566)
(4.27319353368143e-06 0.000425858776406207 0.00062782815120149)
(8.44028872499738e-05 0.00136584512727709 0.000108696305168292)
(0.000101256339162173 0.000870116870259852 0.000277309944391748)
(5.90656130613927e-05 0.000612201226344449 0.000395339838994679)
(3.38363243339166e-05 0.000493248755627472 0.000492389288546497)
(2.07568617203987e-05 0.000419092117885355 0.000570406464860785)
(1.24290181111054e-05 0.00036517832838876 0.000631164620622438)
(4.55606414337661e-06 0.000320587074888322 0.00067743904533529)
(9.62448797782745e-05 0.00122836910658033 0.000105240984528252)
(0.000114441794231294 0.000779810109799377 0.000265092488697497)
(7.11179882292809e-05 0.000534140318259463 0.000378016531917161)
(4.40509956686644e-05 0.000424273077712852 0.000474899809481891)
(2.97132826000557e-05 0.000355771541420924 0.000555999046733867)
(2.08570612580481e-05 0.000304775045686971 0.000620154517823163)
(1.34474687550053e-05 0.000263548204596653 0.00067180077831527)
(4.99276178474635e-06 0.000228360408923336 0.000712162642515262)
(0.000107002562798253 0.00110219385464054 9.90815364955451e-05)
(0.000123803242440141 0.000698473245152151 0.000250137651927004)
(7.99848526685121e-05 0.000463599064336558 0.000356832751004304)
(5.19329692141638e-05 0.000361706984252478 0.000450305027684366)
(3.7451946782982e-05 0.000298003752735338 0.000531440617419811)
(2.88697326298099e-05 0.000249663350772207 0.000598134144845387)
(2.20475303112427e-05 0.0002093634021789 0.000652211129606028)
(1.47478756314042e-05 0.000175365441594272 0.000696867046018084)
(5.56759138925585e-06 0.00014639522482704 0.000732163820340941)
(0.000115181857903929 0.000985448684371101 9.03483374269669e-05)
(0.000129454909209944 0.000623987047849053 0.000233807850028694)
(8.55083926378838e-05 0.000399161447433188 0.000333985936532432)
(5.67132264745183e-05 0.000304776602630213 0.000422216700255949)
(4.2599474914582e-05 0.000245817615355194 0.000500301577850821)
(3.51038021951261e-05 0.000200284652264791 0.000566818213750494)
(2.9662509540153e-05 0.000161235813977961 0.000622653882966519)
(2.37546005006905e-05 0.000127074368140706 0.000668712736898991)
(1.62150957398799e-05 9.79281287198334e-05 0.00070724428648889)
(6.21108688080962e-06 7.31671839748998e-05 0.000737657077757965)
(0.000120890306565153 0.00088834393481712 8.24909834415366e-05)
(0.000132174426875953 0.000559734824702731 0.000217338685697689)
(8.8043141391336e-05 0.000340778699267622 0.000310705802526286)
(5.84088133102418e-05 0.000252666934371362 0.000393018160762819)
(4.46175302088681e-05 0.000198281769779459 0.000466300277035419)
(3.84499135334356e-05 0.000155985685887101 0.000529882933385215)
(3.49426915467313e-05 0.000118901207819363 0.000585075054337394)
(3.12215171847746e-05 8.53057095883696e-05 0.000632050692730273)
(2.56478017695573e-05 5.55035111146207e-05 0.000670985011641259)
(1.76846937948015e-05 2.99203466776698e-05 0.000703570568809859)
(6.82884091293128e-06 8.04577475402139e-06 0.000728910423528216)
(0.000123018056358696 0.000810610636902291 6.88416108018127e-05)
(0.000132004095511642 0.000507161415055984 0.000197228810455047)
(8.78030160313297e-05 0.000288645217386223 0.000286750961265259)
(5.73028747180874e-05 0.000205018625673773 0.00036360540054357)
(4.36164795626444e-05 0.000154776777777847 0.000431697885283707)
(3.85491581087136e-05 0.000115888498962062 0.000490815218066656)
(3.69937645575778e-05 8.14906567340135e-05 0.000542978932676655)
(3.5809553779536e-05 4.95392369838784e-05 0.000588789200031815)
(3.2956437794933e-05 2.00430757112676e-05 0.000627800664203395)
(2.73822263504513e-05 -6.25151793353095e-06 0.0006599072016411)
(1.89329288198378e-05 -2.90182680391067e-05 0.000686428681813125)
(7.30001792670947e-06 -4.8641439019061e-05 0.000706269312995131)
(0.000119180647660406 0.000740353159375858 5.16566048306857e-05)
(0.00012838054309119 0.000458575926652235 0.000176535433123481)
(8.47838087015002e-05 0.000239915115869127 0.000262890504218273)
(5.37235265306298e-05 0.000160661183815842 0.000334945351505193)
(4.00154185476919e-05 0.000114604352544862 0.000397964904750544)
(3.57044064701279e-05 7.92476435443127e-05 0.000452083181399509)
(3.57057726359859e-05 4.79633196214418e-05 0.000499821175575071)
(3.68702159442103e-05 1.86158501368096e-05 0.000542399598302237)