/*--------------------------------*- C++ -*----------------------------------*\
  =========                 |
  \\      /  F ield         | OpenFOAM: The Open Source CFD Toolbox
   \\    /   O peration     | Website:  https://openfoam.org
    \\  /    A nd           | Version:  12
     \\/     M anipulation  |
\*---------------------------------------------------------------------------*/
/*   Windows 32 and 64 bit porting by blueCAPE: http://www.bluecape.com.pt   *\
|  Based on Windows porting (2.0.x v4) by Symscape: http://www.symscape.com   |
\*---------------------------------------------------------------------------*/
FoamFile
{
    format      ascii;
    class       volScalarField;
    location    "800";
    object      nut;
}
// * * * * * * * * * * * * * * * * * * * * * * * * * * * * * * * * * * * * * //

dimensions      [0 2 -1 0 0 0 0];

internalField   nonuniform List<scalar> 
10068
(
5.57187841285861e-07
5.53504417850778e-07
4.21803268060795e-05
6.02993974376205e-07
5.47241218881857e-07
4.20360845750101e-05
5.98514465343693e-07
0.000196001888637665
4.38597305958237e-05
6.64820684071995e-07
5.39170525701464e-07
4.18174107624589e-05
5.91282615377522e-07
0.000195667691391541
4.36984747097274e-05
6.59462893605255e-07
0.000412346167308781
0.000199382464342115
4.60785767581392e-05
7.06114259091951e-07
5.30448786492078e-07
4.15347158044529e-05
5.82119036192613e-07
0.000195126247968217
4.34601447748544e-05
6.510715841811e-07
0.000411954005338289
0.0001990218074647
4.58953832274151e-05
7.00035198975695e-07
0.000644908410238761
0.000415116997599313
0.000203578640733015
4.75398165241898e-05
7.03901316195255e-07
5.21081648820532e-07
4.12000059807853e-05
5.72219361889954e-07
0.000194387482270128
4.31560022494554e-05
6.40542249131849e-07
0.000411200059659741
0.000198450909573939
4.56318848508498e-05
6.90645407864675e-07
0.000644644399557573
0.000414701642552876
0.000203176195645882
4.73370790458366e-05
6.97470051993088e-07
0.000872046487049218
0.000645901003850299
0.000418086514884749
0.000206094142461659
4.7466964657804e-05
6.6888710502803e-07
5.11086878574635e-07
4.08161742455961e-05
5.61677434177931e-07
0.000193467912115191
4.27986207128881e-05
6.29115498589084e-07
0.000410093273029224
0.000197681429149717
4.52997563675372e-05
6.78968299350253e-07
0.000643840801483208
0.000413921309481941
0.000202560241365624
4.70511091891249e-05
6.87636577756476e-07
0.00087210492364963
0.00064561885116299
0.00041762469912266
0.00020564924955143
4.72509533130935e-05
6.62482340519722e-07
0.00108449313699207
0.000871030791493746
0.000645852156804473
0.000418860337693051
0.00020535344684912
4.61168422169895e-05
6.21716798369513e-07
5.00447815035215e-07
4.03850337682667e-05
5.50553865971586e-07
0.000192375972137718
4.23921079187843e-05
6.17031597861019e-07
0.000408649691679413
0.000196729705352249
4.49123885733644e-05
6.66315975176193e-07
0.000642507376124344
0.000412786446853492
0.000201742895727829
4.66942330979935e-05
6.75495196270774e-07
0.000871420354870082
0.000644793506510619
0.000416795473458043
0.000204987590066213
4.69500279756381e-05
6.52701335818391e-07
0.0010850591658715
0.000871073639556882
0.000645524366649462
0.000418344826032486
0.000204873439602047
4.58930570090684e-05
6.15473610973078e-07
0.00127899192523199
0.00108188114292434
0.000867528398568904
0.000642886150790122
0.000415749395348391
0.000201597240520217
4.41203967619192e-05
5.71734222231725e-07
4.89133336383643e-07
3.99055259698802e-05
5.38773577552622e-07
0.000191112616413283
4.1938051927079e-05
6.04458167167563e-07
0.000406879696095047
0.00019560444866345
4.44752560995317e-05
6.53030296351708e-07
0.000640661067759294
0.000411313790699608
0.000200741376009576
4.62808365864454e-05
6.62382425735146e-07
0.000870006916840036
0.000643437142615161
0.000415609970257299
0.000204121981802727
4.65773609722367e-05
6.40680133559409e-07
0.00108465169419691
0.000870369672066723
0.000644652257788704
0.000417459757861799
0.000204174432039526
4.5583964925082e-05
6.05954928634429e-07
0.00128024854391887
0.00108243142914132
0.000867525379849543
0.000642499163528827
0.000415182995118887
0.000201089094843366
4.38912659722803e-05
5.65694256165977e-07
0.00145515127704232
0.00127533347657
0.00107537851336083
0.000860136338060381
0.000635648186994492
0.000408687727256684
0.000195854163951137
4.18244105380559e-05
5.19291207664389e-07
4.77102982366142e-07
3.93766417323094e-05
5.26325886286637e-07
0.000189676270569737
4.14355014784914e-05
5.91243889168168e-07
0.000404786208283707
0.000194308148882541
4.399057355321e-05
6.39308612823178e-07
0.000638315730832955
0.000409514572298442
0.000199565801759266
4.58174940341159e-05
6.48673900172116e-07
0.000867887554472812
0.000641568091739219
0.000414086065566892
0.000203071049285714
4.61482589348443e-05
6.27738875427835e-07
0.00108329549673401
0.000868937061383347
0.000643249169409499
0.000416217242419722
0.000203270391216538
4.52035416666342e-05
5.94298801955556e-07
0.00128026919812192
0.00108200441385188
0.000866776273391214
0.000641568084240413
0.000414246051833072
0.000200361371021669
4.3577241642657e-05
5.56478611074734e-07
0.00145729658261903
0.00127657241114807
0.00107588042527711
0.000860067922208583
0.000635198017817587
0.000408074304993997
0.00019532063788678
4.15904248048883e-05
5.1348427317393e-07
0.00161368379952601
0.00145080099847359
0.00126654349842733
0.00106383425390439
0.000847875645570001
0.000623891155353428
0.000398433021836128
0.000188789507279709
3.92730175192322e-05
4.63496338946353e-07
4.64345767351573e-07
3.87955584645539e-05
5.13147572781237e-07
0.000188060572683513
4.08828676350018e-05
5.77416911535321e-07
0.000402366411006551
0.000192838603451645
4.34574245219625e-05
6.25000300329399e-07
0.000635476846507947
0.000407392437033266
0.000198219863272423
4.53071349561477e-05
6.34610944353413e-07
0.000865081066644646
0.000639200670164436
0.000412236374378432
0.00020184658999323
4.56700739935844e-05
6.14266453152826e-07
0.00108102365164168
0.000866799778982135
0.00064133480947184
0.000414636775354817
0.000202181575351918
4.47678761063533e-05
5.81793223607235e-07
0.00127909752320632
0.00108063018296738
0.000865301195954329
0.000640107600194252
0.000412952112245442
0.000199429327255638
4.3193027682091e-05
5.45233715158599e-07
0.00145790063766315
0.00127657165629648
0.00107540776178983
0.000859257162103004
0.00063420604111869
0.000407091621880479
0.000194568614684079
4.12723662393286e-05
5.04645309052621e-07
0.00161695343236427
0.00145292539131167
0.00126773002979799
0.00106426183120193
0.000847730132699794
0.00062337598680129
0.000397773398547987
0.000188230266808448
3.90341866113375e-05
4.57954069670207e-07
0.00175555691154863
0.00160879161735472
0.00144024943219216
0.00125145225754266
0.0010464797751663
0.000830446933758826
0.000607942553653743
0.000385535000080064
0.000180553453330696
3.6418659195753e-05
4.04515288565377e-07
4.50814334334184e-07
3.81602501848007e-05
4.99222395116344e-07
0.000186259734375403
4.02772242911841e-05
5.62654030384782e-07
0.000399611781617612
0.000191190325987437
4.28741470492312e-05
6.10065438788071e-07
0.000632140868533532
0.000404944355510051
0.000196701485739991
4.4748825049389e-05
6.20040958433373e-07
0.000861596700441392
0.000636340627198473
0.000410065619050609
0.000200453429145381
4.51463401747721e-05
6.00538870065382e-07
0.00107786453806484
0.000863977387790248
0.000638924661754113
0.000412732717886039
0.000200921287337799
4.42848865645353e-05
5.68822214517491e-07
0.00127678428816213
0.0010783431742818
0.000863125293726442
0.000638139052537829
0.000411322528696824
0.000198314779037055
4.27553901824467e-05
5.33228505252225e-07
0.00145703929991019
0.0012753815466152
0.00107399327987099
0.00085772593223944
0.000632688583159623
0.000405754708866838
0.000193614501847183
4.08856348378039e-05
4.93926770864609e-07
0.00161831632989181
0.00145350515437615
0.00126768144393958
0.00106372269895384
0.000846849662609979
0.000622324615793586
0.000396748480375022
0.000187455044759078
3.8712669621465e-05
4.49502843827101e-07
0.00176025069639812
0.00161203549470913
0.00144231647936348
0.00125255256789056
0.0010468118870238
0.000830215273067936
0.000607359396535965
0.000384827832349942
0.000179967359829104
3.61754323619049e-05
3.99208688844314e-07
0.00188168053390724
0.00175016989816475
0.0015967539082578
0.00142212301563356
0.00122932082320209
0.00102301519079721
0.000807840252696572
0.000588016171659266
0.000370107295401922
0.000171055161794824
3.32249966389217e-05
3.42969534221541e-07
4.36478122845146e-07
3.74683470278353e-05
4.84469643691879e-07
0.000184265364237108
3.9616431921822e-05
5.47080159791739e-07
0.000396511062737361
0.000189355860595413
4.22353308341946e-05
5.94181569271747e-07
0.000628297906939631
0.000402162051281881
0.000195005195916281
4.41401237511236e-05
6.04710109574859e-07
0.000857433023713397
0.000632984959018735
0.00040757110433317
0.000198889779795449
4.45761079709899e-05
5.86182375878514e-07
0.00107383339792252
0.000860479364219151
0.000636025315967586
0.000410511086833412
0.000199495405273876
4.37585335231996e-05
5.55530402257479e-07
0.00127337139592074
0.00107517199603916
0.00086026915567919
0.000635679530248708
0.000409373417465591
0.000197032311715001
4.22726303601471e-05
5.20854025856554e-07
0.00145478941087815
0.00127305379128474
0.00107167250799506
0.000855500787665479
0.000630668825740105
0.000404086720009567
0.000192481546073499
4.04476859299e-05
4.82536052954516e-07
0.00161789858922032
0.00145262352434842
0.00126645144850561
0.0010622517006944
0.000845257875817694
0.000620754913732794
0.000395374610235166
0.000186481259875345
3.83246469682484e-05
4.3937753567125e-07
0.00176258610236419
0.00161336983193312
0.00144284521843676
0.00125243010375791
0.00104619123063182
0.000829261027610068
0.000606249499197322
0.000383761986627827
0.000179169062809767
3.58509292342097e-05
3.91077686362092e-07
0.00188819399360472
0.00175483075439546
0.00159993456193391
0.00142408874838915
0.00123030118859826
0.0010232330785484
0.00080751395367051
0.000587361620843991
0.000369351331535806
0.000170441841498372
3.29780866147873e-05
3.38102424635847e-07
0.00199282624926198
0.00187582000090953
0.00173677378081576
0.00157592762146615
0.00139559631658579
0.00119986479192145
0.000993249186155219
0.000779926531706486
0.000564006345348973
0.000351971473781112
0.000160134174829955
2.96757031022253e-05
2.80821393706518e-07
4.21305812459533e-07
3.67175245254404e-05
4.68865929858015e-07
0.000182068296548856
3.88980107657369e-05
5.30666611549082e-07
0.00039304986632328
0.000187326989063727
4.15398101532193e-05
5.7746753700717e-07
0.000623932524205976
0.00039903375650446
0.000193121985367675
4.34759671373372e-05
5.88616170185066e-07
0.000852578908281062
0.000629123635936165
0.00040474461360054
0.000197149744041942
4.39553620093523e-05
5.71231514827421e-07
0.00106893225403782
0.000856304373468284
0.000632634320618925
0.000407969763926611
0.000197902414761973
4.31862970892843e-05
5.41859531167914e-07
0.00126888450125915
0.00107113236169881
0.000856742991240603
0.000632736850440941
0.00040711211952596
0.000195588637075486
4.17477121536457e-05
5.08297156296958e-07
0.00145121451740455
0.00126963086606561
0.00106847478830723
0.000852603646426752
0.000628165544311903
0.000402105341705383
0.000191185372816708
3.99670582722355e-05
4.70807344267119e-07
0.00161581839484753
0.00145035880077646
0.0012640926579355
0.00105988550079481
0.000842982836018156
0.000618691863977183
0.000393676511072178
0.000185333454781531
3.78879236084704e-05
4.28572294489339e-07
0.0017627665852409
0.00161292921299548
0.0014419227364777
0.00125114084072052
0.00104465433434577
0.000827609261359201
0.000604632379857216
0.000382354974118238
0.000178177062870417
3.54625138686637e-05
3.81589271186038e-07
0.00189177591691351
0.00175713159123324
0.00160121387404728
0.0014245335186652
0.00123008068182204
0.0010225197164639
0.000806483236298869
0.000586194060727951
0.000368246120229141
0.000169621104668461
3.26507673259363e-05
3.30725724138436e-07
0.00200168599123734
0.00188229000558277
0.00174136410728761
0.00157898786101828
0.00139740975680151
0.00120069270013341
0.000993336330173098
0.000779498874448084
0.000563278747025226
0.000351168356456496
0.000159495406741618
2.94289965438333e-05
2.76469427027241e-07
0.00208961328820382
0.00198652153963745
0.00186114248375551
0.00171347136397468
0.001545353175333
0.00136040053635411
0.00116283891717349
0.000956809153902715
0.000746316342072221
0.000535516727988088
0.000330761168780947
0.000147588955699406
2.57785988674688e-05
2.19875010171614e-07
4.05302225973509e-07
3.59055007502229e-05
4.52410282990291e-07
0.000179659098013461
3.81195585445012e-05
5.13363915093157e-07
0.000389211721866376
0.000185094537917741
4.07861417471038e-05
5.59904005335367e-07
0.000619024567580276
0.000395545022915525
0.000191043653834137
4.27551934260796e-05
5.71808603516303e-07
0.000847015436772705
0.000624741053662622
0.000401573827035155
0.000195224377658653
4.32818115399005e-05
5.55757623294395e-07
0.00106315086892779
0.000851441537665386
0.000628741799643402
0.000405100623842559
0.000196136078647803
4.25665702963674e-05
5.2771884497951e-07
0.00126333187868371
0.00106622641765954
0.000852545960370746
0.000629309323877799
0.000404537231996387
0.000193982178462386
4.11808107472569e-05
4.95278576527367e-07
0.0014463556611005
0.00126513859557357
0.0010644165391524
0.000849045796536863
0.000625187884772486
0.0003998191016192
0.000189733018308408
3.94475715900108e-05
4.58821981239461e-07
0.00161217029455634
0.00144677462642726
0.00126064819763116
0.00105665442003368
0.000840047855800138
0.000616155676147256
0.000391673180121683
0.000184028153920795
3.7410714307224e-05
4.17495555595187e-07
0.00176097121790945
0.00161083272525836
0.00143962826290324
0.00124873818229485
0.00104223889326368
0.000825289337238267
0.00060253423878937
0.000380632799873993
0.000177016970263984
3.50276580148269e-05
3.7166623032964e-07
0.00189274447448955
0.00175728512991013
0.00160073065262879
0.00142354656808329
0.00122871653729034
0.00102091252288961
0.00080477406572755
0.000584534459138962
0.000366809939428387
0.000168612790168287
3.22642207643261e-05
3.21984399484157e-07
0.00200687382717585
0.00188582889050394
0.00174360505711697
0.00158017014181906
0.00139773394868398
0.00120035298910827
0.000992522055875371
0.000778391021769107
0.000562057488038242
0.000350027793570132
0.000158654706569244
2.91052878603576e-05
2.69862178321341e-07
0.00210151331108858
0.00199532258133951
0.0018675320980572
0.00171791664274996
0.00154821855425601
0.00136200979798108
0.00116348585847628
0.000956753158438564
0.000745784951411519
0.000534721688329331
0.000329917477434944
0.000146931136734718
2.55365443225771e-05
2.16158251066976e-07
0.0021725228702468
0.00208290967900475
0.00197064051180209
0.00183554890313672
0.00167917101179563
0.00150477279200674
0.00131630669728002
0.00111774188703211
0.000913059860928004
0.000706343186283919
0.000501880402355825
0.000305915642534106
0.000133146382451896
2.15366551087616e-05
1.60738662661867e-07
3.88519135964957e-07
3.50300106726091e-05
4.35128053288027e-07
0.000177027192071772
3.72788940533515e-05
4.95256483002025e-07
0.000384977470380296
0.000182648659129035
3.99712308391185e-05
5.41445981980629e-07
0.000613549627919057
0.000391679072603783
0.000188761553491317
4.19759803893392e-05
5.54144780789851e-07
0.000840717659061911
0.000619816956796732
0.00039804410878669
0.000193105412515735
4.25539850439247e-05
5.39517223438946e-07
0.00105646840087017
0.000845872088355892
0.0006243320249293
0.000401891338849867
0.000194188780817249
4.18982788086392e-05
5.12927479007894e-07
0.00125670603626322
0.00106044401649481
0.000847667532803352
0.000625387442966674
0.000401640999005258
0.000192207956348489
4.05701033168474e-05
4.81804775269985e-07
0.00144023119736431
0.00125958533739046
0.00105950039973463
0.000844827177902095
0.00062173507425255
0.000397227383612565
0.000188124360991225
3.88879237398903e-05
4.46543978658341e-07
0.00160701846033292
0.00144191215119158
0.00125614445687201
0.00105257577634912
0.000836465371256466
0.000613156715296849
0.000389374149745712
0.000182573261288574
3.6896839743163e-05
4.06408971148764e-07
0.00175734133243725
0.00160717528350433
0.00143602589549976
0.00124526589892249
0.00103897612154941
0.000822325688213759
0.000599976406412638
0.000378615563644848
0.000175705973358741
3.45560522954549e-05
3.6149910316208e-07
0.00189136845233243
0.00175547125740346
0.00159860468502158
0.00142120749915093
0.00122626250443915
0.00101844974460605
0.000802416711350869
0.00058240959774589
0.000365069830461173
0.00016744333631403
3.18361375353154e-05
3.12906033412411e-07
0.00200887266439048
0.00188676473995726
0.00174371352076401
0.00157961480928749
0.00139665839043701
0.00119890269294444
0.000990843743735592
0.000776629514424594
0.000560362725516042
0.000348568796162088
0.000157633819248998
2.87242698710095e-05
2.6206210671853e-07
0.00210877802967963
0.00200045557406629
0.00187100499071762
0.00172004387630499
0.00154925021816723
0.0013621780999926
0.00116301021366964
0.000955833970237578
0.000744604149257382
0.000533455221062441
0.000328750584643137
0.000146078518852737
2.52197257089547e-05
2.10312278005108e-07
0.00218834537595036
0.00209472906886447
0.00197934658218392
0.00184176059289827
0.0016833651819114
0.00150736470947726
0.00131766595985287
0.00111818623836757
0.000912855151060175
0.000705713896302044
0.000501030640757828
0.000305046601234744
0.000132481706151594
2.13053747313574e-05
1.57565269912799e-07
0.0022419252455983
0.0021654801697759
0.00206592196205955
0.00194294595990819
0.00179784700652666
0.00163362519006658
0.00145400215951855
0.00126276798406374
0.00106377396833413
0.000861100096952566
0.000659036943470502
0.000462102636180489
0.00027658234706852
0.000116351586213165
1.69054669300588e-05
1.0371380914042e-07
3.70914059277446e-07
3.4088478145022e-05
4.16983063049626e-07
0.000174161385359369
3.63733091953403e-05
4.76292319840619e-07
0.000380327204894606
0.000179978862423453
3.90930549603312e-05
5.2219362014697e-07
0.000607479334473018
0.000387416969437122
0.000186265338283903
4.11349170260149e-05
5.35695335070175e-07
0.000833653234510757
0.00061432681912219
0.000394138609573015
0.000190783949708503
4.17683098703825e-05
5.22590908547068e-07
0.0010488547147293
0.000839570561102897
0.00061938461361879
0.000398327210612166
0.000192052398077554
4.11774662021692e-05
4.97615239278929e-07
0.00124898561989664
0.00105376438226603
0.000842089080046736
0.000620955636172326
0.000398411679589785
0.000190259539779369
3.99124745605976e-05
4.67983030874758e-07
0.00143283907984107
0.00125296365161938
0.00105371658769171
0.000839937787393106
0.000617798231011582
0.000394323314859348
0.000186355274015426
3.82875175374641e-05
4.34047250738052e-07
0.001600396565937
0.00143578973607049
0.00125059025940402
0.00104765293746505
0.000832236219994909
0.000609695188824501
0.000386779901782316
0.000180968984558211
3.63473198292437e-05
3.95108027655003e-07
0.00175197429134785
0.00160202078760684
0.0014311572464755
0.00124075105453572
0.00103488417671074
0.000818731719169318
0.0005969702837058
0.000376313752737614
0.00017425257520129
3.40528572941004e-05
3.51317956038343e-07
0.00188785678682247
0.00175183112294614
0.00159493129989487
0.00141758066375795
0.00122276263231554
0.00101516306518944
0.000799436197775219
0.000579841630210171
0.000363046734898998
0.000166130764773341
3.13745179708149e-05
3.03739416800837e-07
0.00200808025115756
0.00188536669938787
0.00174186980949416
0.00157744134305799
0.00139426202063897
0.00119639501775073
0.000988339475347769
0.000774244677290163
0.000558221879165406
0.000346819208212345
0.000156460585121699
2.8305204157131e-05
2.54079800905029e-07
0.00211211959280665
0.00200241366000302
0.00187189259934085
0.00172006994650687
0.00154858684511419
0.00136099281145643
0.00116146734374235
0.000954088073515501
0.00074279995883892
0.000531737679339048
0.000327280004587986
0.000145052883773229
2.48490380221319e-05
2.03542126993516e-07
0.00219829135295391
0.00210192294229675
0.00198440533481745
0.00184509820064653
0.00168530224066104
0.00150819079854305
0.00131764901914682
0.00111756440550315
0.000911833707858337
0.000704471777588039
0.000499735849533796
0.000303871246557434
0.000131628944392458
2.10006879606092e-05
1.52635902048574e-07
0.00226275721569258
0.00218119228544421
0.00207762336605743
0.00195142843505546
0.00180373240815637
0.00163745353434744
0.00145625075777457
0.0012638419157181
0.00106400379107232
0.000860750806116427
0.000658325873760688
0.000461223008198467
0.000275716857525046
0.000115702899231062
1.66939367957789e-05
1.01352699542421e-07
0.00229813288840004
0.00223461405526739
0.00214750459334308
0.00203634078296
0.00190219007575761
0.00174780583708432
0.00157670156616892
0.00139249616853114
0.00119889871021177
0.000999877535102475
0.000799738716007037
0.000603056041081618
0.000414739615344111
0.000241415256545748
9.63859264169249e-05
1.18247578135655e-05
5.26747379974428e-08
3.52427681495835e-07
3.30783510743059e-05
3.97943366954362e-07
0.000171049398206586
3.5399731384147e-05
4.56385508760747e-07
0.000375237961616832
0.00017707337398494
3.81483082994291e-05
5.02058714994764e-07
0.00060078178271546
0.000382738144748841
0.000183544311626312
4.02302540239062e-05
5.16469718858228e-07
0.000825784426570457
0.000608242267881889
0.000389838242874251
0.000188249286112702
4.09227382233449e-05
5.05033671574488e-07
0.00104027119521578
0.000832504929979171
0.00061387498366777
0.000394391262439288
0.00018971704052847
4.040207995238e-05
4.81840871489667e-07
0.00124013706830216
0.00104615741934485
0.000835785066562234
0.000615993586813235
0.000394834761600295
0.000188127906930654
3.92067014210149e-05
4.53778794783945e-07
0.00142415954024849
0.0012452522741246
0.00104704459294649
0.000834359348594103
0.00061336230087665
0.000391095906707851
0.000184418665451709
3.76453954064529e-05
4.21263266109638e-07
0.00159231175549481
0.00142840536155521
0.00124397854213695
0.00104187670243872
0.000827351110043003
0.000605763063766045
0.000383884460858496
0.000179211832323516
3.57618170983172e-05
3.83581606461477e-07
0.00174492648209493
0.00159540284195337
0.00142504111056382
0.00123520310614815
0.00102996719443496
0.000814509148319852
0.000593517052428359
0.00037372869743564
0.000172658148664793
3.35176291288033e-05
3.41023849855436e-07
0.0018823550986784
0.00174646176439598
0.00158977474837099
0.00141270808934507
0.00121824439741854
0.00101107118050349
0.000795846607012814
0.000576842751689972
0.000360751950954523
0.000164684906598881
3.08844774124729e-05
2.94681556677766e-07
0.00200480253865862
0.00188184304978024
0.00173821524183468
0.00157374485575222
0.0013906086470917
0.00119287356576135
0.00098504079217688
0.000771261634685765
0.000555657558148293
0.000344800666630195
0.000155153240725568
2.78571331571179e-05
2.46052566498818e-07
0.00211211668441181
0.00200159421154406
0.00187046382691427
0.001718173730704
0.00154634568034197
0.00135853066401502
0.00115890881391065
0.000951552571992825
0.000740402028151499
0.000529596541645742
0.000325534331015291
0.000143883752724575
2.44447030402553e-05
1.96696402697181e-07
0.00220337543202257
0.00210521279155635
0.00198631107437582
0.00184589003131355
0.00168519398010414
0.00150738437806481
0.00131633888770882
0.00111592881596826
0.000910030288705016
0.000702641648952083
0.000498016187725514
0.000302408598851093
0.000130611144829925
2.06467387905767e-05
1.47088550301805e-07
0.0022761301440042
0.00219104475663396
0.00208473094523816
0.00195632315760009
0.00180682774605847
0.00163911878345977
0.00145682410596476
0.00126361959760775
0.00106323450083173
0.000859639176780118
0.000657043720427639
0.000459929966720597
0.000274563802847263
0.000114871689559763
1.6412567117373e-05
9.76805786510695e-08
0.00232524674576474
0.0022552947138545
0.00216306222791264
0.00204775313518905
0.00191024436136479
0.00175320220150196
0.0015800618749306
0.00139434707589662
0.00119966552812423
0.000999893280369766
0.000799261266220409
0.000602292367640586
0.000413874829667749
0.000240605980554615
9.57964839571006e-05
1.16502271027081e-05
5.12928304753913e-08
0.00234149683537007
0.00229063169061967
0.00221579036535843
0.00211628014127731
0.00199291219954192
0.00184817012868234
0.00168534345003396
0.00150787845551877
0.00131933969375249
0.00112356560795367
0.000924748769121455
0.000727457405944508
0.000536615725552551
0.000357747256254573
0.000198363161075997
7.20173831809091e-05
6.53304668367407e-06
1.74464191982241e-08
3.33193630684323e-07
3.19967086010484e-05
3.78010190493558e-07
0.000167678034573985
3.43551724211327e-05
4.35465713780202e-07
0.000369685315611855
0.000173919418202251
3.71331434362176e-05
4.80961208221617e-07
0.000593421984532464
0.000377619594191735
0.000180586072003545
3.9258257896078e-05
4.96385617272965e-07
0.000817067494360652
0.000601531399985575
0.000385122069707464
0.000185490585707482
4.0014748411058e-05
4.86725121260901e-07
0.00103067028217238
0.000824637348039863
0.000607774727166436
0.000390064243343266
0.00018717248694904
3.95703175510475e-05
4.65443995955352e-07
0.00123011530168876
0.0010375843650378
0.000828723606174574
0.000610476767628986
0.000390893159264691
0.000185803761025297
3.84510438929749e-05
4.39121490834499e-07
0.00141415724014053
0.00123641771290115
0.00103945448935443
0.00082806657720025
0.000608407300188081
0.000387530836592682
0.000182306865882337
3.69594150554866e-05
4.08141465251595e-07
0.00158274857389216
0.00141973932559493
0.00123628838107486
0.00103522704878707
0.000821792407611132
0.000601346015479282
0.000380677328792654
0.000177296249236218
3.51383455175172e-05
3.71874239257606e-07
0.00173621934439598
0.00158732856590863
0.00141767586763409
0.0012286155612033
0.00102421667620885
0.000809649534606346
0.000589609616160835
0.000370855301390955
0.000170920280125622
3.29495370511021e-05
3.30664173400786e-07
0.00187495266499266
0.00173941931677034
0.00158316905412704
0.00140660906664909
0.00121271776808014
0.00100617884303281
0.000791650427432147
0.00057341504911869
0.000358187785198029
0.000163107440469476
3.03664536264573e-05
2.85593363709391e-07
0.00199925382201877
0.00187633877673473
0.00173284718887491
0.00156858970846398
0.00138574012631497
0.00118836567701549
0.000980966500552122
0.000767694855768144
0.000552682649556915
0.0003425253769276
0.000153722045247243
2.73849619655922e-05
2.38109268131746e-07
0.00210921110370011
0.00199830165732005
0.00186692675870142
0.00171449560464137
0.00154262012559634
0.00135485369120761
0.00115537689166689
0.000948258239454641
0.000737435218515188
0.000527054766067667
0.000323535664127036
0.000142590672533471
2.40156348988831e-05
1.8983781560467e-07
0.0022044199908751
0.00210517580323736
0.00198545954187589
0.00184440155954474
0.00168321454124292
0.00150505792871106
0.00131380842569066
0.00111332831966035
0.000907480245097812
0.000700252088296202
0.000495898972946436
0.000300687868742205
0.00012945982589928
2.02643932861089e-05
1.41569948593591e-07
0.00228344760243619
0.00219606195736661
0.00208796271869906
0.00195811565192277
0.00180745046014973
0.00163882215093728
0.00145584690285786
0.00126217790747367
0.00106151456056255
0.000857797436112609
0.000655215278434166
0.000458241769914365
0.000273141457248775
0.000113883961568168
1.60879197632353e-05
9.36054557885093e-08
0.0023429320921784
0.00226854424084863
0.00217280912164993
0.00205465691048091
0.00191482759689631
0.00175593805878375
0.00158138393724252
0.00139463339005777
0.0011992296423051
0.000998986876042439
0.00079808347539412
0.000601010528163338
0.000412632035682176
0.00023952829245459
9.50278628180049e-05
1.14121864483459e-05
4.91330294323507e-08
0.0023762975768162
0.00231753992244609
0.00223625881478085
0.00213145399789623
0.00200375692035291
0.00185557053221292
0.0016901060791435
0.00151069109268534
0.0013207576109823
0.00112401979948819
0.000924565489195015
0.00072688344033648
0.000535856510673038
0.00035697035167394
0.000197701384984471
7.15594715653171e-05
6.41626122651244e-06
1.69198164877965e-08
0.00237252688335747
0.00233388919353569
0.00227111971215995
0.00218319658063202
0.00207059563659001
0.00193547503507146
0.00178084860945085
0.00160996699324787
0.00142624405078106
0.00123338531999744
0.00103544618145078
0.000836851363137486
0.000642423675887303
0.000457513357191811
0.000288589683692719
0.000145140083199216
4.25959534850518e-05
2.15165027578422e-06
2.92628941618771e-09
3.13571471755587e-07
3.084365918049e-05
3.57243991733616e-07
0.000164035982942092
3.3237580200653e-05
4.13566013624365e-07
0.00036364325688725
0.000170503735506051
3.60440537426956e-05
4.58824663836174e-07
0.000585360370664413
0.000372036320931772
0.000177376908315502
3.82147082751724e-05
4.75345242146568e-07
0.000807453022902424
0.0005941586632319
0.000379966632076901
0.000182494912412995
3.9040290523334e-05
4.67602046414829e-07
0.00101999670195771
0.000815924164673312
0.000601051791206176
0.000385324944682768
0.000184407378705348
3.86784001378314e-05
4.48355441403256e-07
0.00121886482303245
0.00102799803321222
0.00082086692270602
0.000604376791024626
0.000386567714348999
0.000183277049701513
3.76419209459741e-05
4.23924673442882e-07
0.00140278235273152
0.00122641512085124
0.00103090767761071
0.000821027842474439
0.00060290895280733
0.000383611408262748
0.000180011105871998
3.62266737861148e-05
3.94660941737582e-07
0.00157167191408805
0.00140975633411263
0.00122748658136729
0.00102767446066733
0.000815535323933777
0.000596424606109783
0.000377144951923085
0.000175214648544282
3.44743730701544e-05
3.59966311841081e-07
0.00172584523413297
0.00157778250308388
0.00140904218723334
0.00122096802971939
0.00101761328210618
0.000804136046350599
0.000585234420081658
0.000367684078965574
0.000169033445893778
3.23473438428384e-05
3.20189144138083e-07
0.00186569209871779
0.00173072508261399
0.00157512175817414
0.00139928249584228
0.00120617682721971
0.00100047831953964
0.000786840239498599
0.000569552304886044
0.000355350156102042
0.000161396028654244
2.98199198070526e-05
2.76391511239062e-07
0.00199157049229474
0.0018689426756704
0.0017258222092613
0.00156201025130166
0.00137967587767256