/*--------------------------------*- C++ -*----------------------------------*\
  =========                 |
  \\      /  F ield         | OpenFOAM: The Open Source CFD Toolbox
   \\    /   O peration     | Website:  https://openfoam.org
    \\  /    A nd           | Version:  12
     \\/     M anipulation  |
\*---------------------------------------------------------------------------*/
/*   Windows 32 and 64 bit porting by blueCAPE: http://www.bluecape.com.pt   *\
|  Based on Windows porting (2.0.x v4) by Symscape: http://www.symscape.com   |
\*---------------------------------------------------------------------------*/
FoamFile
{
    format      ascii;
    class       volScalarField;
    location    "800";
    object      p;
}
// * * * * * * * * * * * * * * * * * * * * * * * * * * * * * * * * * * * * * //

dimensions      [0 2 -2 0 0 0 0];

internalField   nonuniform List<scalar> 
10068
(
83333.3296428954
83333.3296415897
83333.3296428487
83333.3296428734
83333.3296402911
83333.3296415521
83333.3296415675
83333.3296427549
83333.3296428113
83333.3296428289
83333.3296390028
83333.3296402579
83333.3296402686
83333.3296414752
83333.3296415144
83333.3296415246
83333.3296426845
83333.3296426926
83333.3296427525
83333.3296427578
83333.3296377292
83333.3296389699
83333.3296389819
83333.32964018
83333.3296402207
83333.3296402268
83333.3296414129
83333.3296414146
83333.3296414576
83333.3296414563
83333.3296427223
83333.3296426013
83333.329642605
83333.329642672
83333.3296426554
83333.3296364788
83333.3296376984
83333.3296377096
83333.3296388923
83333.3296389354
83333.329638942
83333.3296401066
83333.3296401215
83333.3296401659
83333.3296401606
83333.329641422
83333.3296413321
83333.3296413311
83333.3296413803
83333.329641358
83333.3296428759
83333.3296426288
83333.3296424868
83333.3296425014
83333.3296425622
83333.3296425177
83333.3296352537
83333.32963645
83333.3296364599
83333.329637624
83333.3296376662
83333.3296376712
83333.3296388078
83333.3296388375
83333.3296388831
83333.3296388784
83333.3296400803
83333.3296400287
83333.3296400417
83333.3296400915
83333.3296400657
83333.3296415097
83333.3296413309
83333.3296412236
83333.3296412322
83333.3296412751
83333.329641226
83333.329643151
83333.3296427788
83333.3296424988
83333.329642355
83333.3296423729
83333.3296424183
83333.3296423431
83333.3296340556
83333.3296352263
83333.3296352356
83333.3296363788
83333.3296364198
83333.3296364227
83333.3296375323
83333.3296375727
83333.3296376164
83333.3296376099
83333.3296387501
83333.3296387335
83333.3296387613
83333.3296388116
83333.329638787
83333.3296401069
83333.3296399926
83333.3296399245
83333.3296399466
83333.3296399904
83333.3296399387
83333.3296416841
83333.3296414149
83333.329641208
83333.3296410982
83333.3296411093
83333.3296411371
83333.3296410588
83333.3296435481
83333.3296430509
83333.3296426389
83333.3296423444
83333.3296421999
83333.3296422128
83333.329642238
83333.3296421329
83333.3296328859
83333.3296340292
83333.3296340382
83333.3296351574
83333.3296351979
83333.3296351997
83333.3296362809
83333.3296363307
83333.3296363728
83333.3296363636
83333.329637448
83333.3296374618
83333.3296375004
83333.3296375479
83333.3296375219
83333.3296387218
83333.3296386659
83333.3296386336
83333.3296386699
83333.3296387144
83333.3296386649
83333.3296401923
83333.3296400158
83333.3296398742
83333.3296398038
83333.3296398282
83333.3296398576
83333.3296397783
83333.3296419473
83333.3296415873
83333.3296412827
83333.3296410612
83333.3296409504
83333.3296409557
83333.3296409642
83333.3296408576
83333.3296440687
83333.3296434472
83333.3296429019
83333.3296424647
83333.3296421626
83333.3296420124
83333.3296420175
83333.3296420219
83333.3296418898
83333.3296317456
83333.3296328598
83333.3296328691
83333.3296339612
83333.3296340021
83333.3296340036
83333.3296350533
83333.3296351121
83333.3296351531
83333.3296351426
83333.3296361727
83333.3296362142
83333.3296362627
83333.3296363071
83333.3296362787
83333.3296373715
83333.3296373676
83333.3296373669
83333.3296374131
83333.3296374543
83333.3296374043
83333.3296387277
83333.3296386347
83333.3296385522
83333.3296385175
83333.3296385558
83333.3296385866
83333.3296385107
83333.3296403389
83333.3296401002
83333.3296398887
83333.3296397329
83333.3296396614
83333.3296396804
83333.3296396915
83333.3296395852
83333.3296423006
83333.3296418503
83333.3296414472
83333.3296411182
83333.3296408889
83333.3296407711
83333.329640768
83333.3296407569
83333.3296406247
83333.3296447128
83333.3296439679
83333.3296432883
83333.3296427084
83333.3296422541
83333.329641943
83333.3296417886
83333.3296417867
83333.3296417724
83333.3296416175
83333.3296306354
83333.3296317194
83333.3296317293
83333.3296327916
83333.329632834
83333.3296328358
83333.3296338505
83333.3296339182
83333.3296339593
83333.3296339484
83333.3296349236
83333.3296349901
83333.3296350478
83333.32963509
83333.3296350606
83333.3296360533
83333.3296360962
83333.3296361245
83333.3296361794
83333.329636217
83333.3296361654
83333.3296373071
83333.3296372885
83333.3296372595
83333.3296372561
83333.3296373035
83333.3296373313
83333.3296372558
83333.3296387707
83333.3296386406
83333.329638513
83333.3296384162
83333.32963838
83333.3296384135
83333.3296384268
83333.329638325
83333.3296405481
83333.3296402477
83333.3296399666
83333.3296397312
83333.3296395674
83333.3296394888
83333.3296394998
83333.3296394922
83333.3296393617
83333.3296427432
83333.3296422044
83333.329641702
83333.3296412652
83333.3296409201
83333.3296406803
83333.3296405565
83333.3296405458
83333.3296405172
83333.3296403634
83333.3296454803
83333.3296446131
83333.329643799
83333.3296430728
83333.3296424643
83333.3296419974
83333.3296416821
83333.3296415278
83333.3296415221
83333.3296414922
83333.3296413198
83333.329629556
83333.329630609
83333.3296306195
83333.32963165
83333.3296316949
83333.3296316971
83333.3296326737
83333.3296327507
83333.3296327932
83333.3296327824
83333.3296337011
83333.3296337905
83333.3296338569
83333.3296338986
83333.3296338692
83333.3296347662
83333.3296348509
83333.3296349052
83333.3296349682
83333.3296350031
83333.3296349513
83333.3296359272
83333.3296359746
83333.329635994
83333.3296360194
83333.3296360744
83333.3296360986
83333.3296360223
83333.3296372588
83333.3296372248
83333.3296371731
83333.3296371298
83333.3296371243
83333.3296371664
83333.3296371774
83333.3296370771
83333.3296388523
83333.3296386853
83333.3296385136
83333.3296383623
83333.3296382571
83333.329638214
83333.3296382397
83333.3296382351
83333.32963811
83333.329640819
83333.3296404584
83333.3296401077
83333.3296397938
83333.3296395423
83333.3296393674
83333.3296392824
83333.3296392859
83333.3296392616
83333.3296391106
83333.3296432735
83333.3296426483
83333.3296420473
83333.3296415013
83333.3296410377
83333.3296406779
83333.3296404316
83333.3296403057
83333.3296402913
83333.329640248
83333.3296400772
83333.3296463709
83333.3296453836
83333.3296444345
83333.3296435584
83333.3296427908
83333.3296421631
83333.3296416911
83333.3296413798
83333.3296412317
83333.3296412269
83333.3296411858
83333.3296410001
83333.3296285077
83333.3296295288
83333.3296295404
83333.3296305373
83333.3296305856
83333.3296305883
83333.3296315241
83333.3296316112
83333.329631656
83333.3296316453
83333.3296325056
83333.3296326167
83333.329632692
83333.3296327349
83333.3296327056
83333.3296335095
83333.329633632
83333.3296337099
83333.3296337809
83333.329633815
83333.3296337634
83333.3296345858
83333.3296346915
83333.3296347542
83333.3296348055
83333.3296348673
83333.3296348891
83333.3296348132
83333.3296357989
83333.3296358497
83333.329635866
83333.3296358714
83333.3296358935
83333.3296359425
83333.3296359505
83333.3296358502
83333.3296372286
83333.3296371788
83333.3296371051
83333.3296370301
83333.329636978
83333.3296369648
83333.329636999
83333.329636993
83333.3296368701
83333.3296389723
83333.3296387692
83333.3296385534
83333.3296383496
83333.3296381821
83333.3296380654
83333.3296380154
83333.3296380342
83333.329638013
83333.3296378681
83333.3296411491
83333.3296407309
83333.3296403117
83333.3296399192
83333.3296395793
83333.3296393118
83333.3296391293
83333.3296390413
83333.329639041
83333.3296390026
83333.3296388347
83333.3296438894
83333.3296431814
83333.3296424831
83333.3296418254
83333.32964124
83333.329640756
83333.3296403883
83333.3296401428
83333.329640021
83333.3296400068
83333.3296399532
83333.3296397695
83333.3296473815
83333.3296462781
83333.3296451946
83333.3296441653
83333.3296432323
83333.3296424356
83333.329641801
83333.3296413363
83333.3296410389
83333.3296409046
83333.3296409051
83333.3296408572
83333.3296406638
83333.3296274908
83333.3296284795
83333.3296284924
83333.3296294543
83333.3296295065
83333.3296295099
83333.329630403
83333.3296305007
83333.3296305482
83333.3296305381
83333.3296313384
83333.32963147
83333.3296315557
83333.3296315998
83333.3296315709
83333.3296322833
83333.3296324404
83333.32963254
83333.3296326194
83333.3296326542
83333.3296326031
83333.3296332823
83333.3296334393
83333.3296335404
83333.3296336152
83333.3296336841
83333.3296337052
83333.32963363
83333.329634388
83333.3296345129
83333.3296345891
83333.3296346385
83333.3296346853
83333.3296347405
83333.3296347465
83333.3296346472
83333.3296356714
83333.3296357243
83333.3296357375
83333.329635731
83333.3296357271
83333.3296357407
83333.3296357815
83333.3296357728
83333.3296356506
83333.329637217
83333.3296371514
83333.3296370555
83333.3296369508
83333.3296368593
83333.3296367949
83333.3296367742
83333.3296368017
83333.3296367792
83333.3296366368
83333.3296391277
83333.3296388912
83333.3296386326
83333.3296383765
83333.329638147
83333.3296379627
83333.3296378375
83333.3296377839
83333.3296377982
83333.3296377635
83333.3296376019
83333.3296415354
83333.329641064
83333.3296405782
83333.3296401059
83333.3296396755
83333.3296393137
83333.3296390366
83333.3296388529
83333.3296387676
83333.3296387675
83333.3296387183
83333.329638538
83333.3296445853
83333.3296438005
83333.3296430076
83333.3296422372
83333.3296415264
83333.3296409115
83333.3296404171
83333.3296400524
83333.3296398167
83333.329639706
83333.3296396965
83333.3296396358
83333.3296394448
83333.3296485059
83333.329647293
83333.3296460774
83333.3296448924
83333.3296437876
83333.3296428133
83333.3296420062
83333.3296413816
83333.3296409378
83333.3296406646
83333.3296405517
83333.3296405635
83333.3296405101
83333.3296403162
83333.3296265052
83333.3296274609
83333.3296274759
83333.3296284013
83333.3296284581
83333.3296284626
83333.3296293112
83333.3296294196
83333.3296294704
83333.329629461
83333.3296302011
83333.3296303516
83333.3296304483
83333.3296304938
83333.3296304659
83333.3296310889
83333.3296312772
83333.3296313973
83333.3296314862
83333.3296315217
83333.3296314718
83333.3296320121
83333.3296322182
83333.3296323535
83333.3296324502
83333.3296325271
83333.329632548
83333.3296324743
83333.3296330241
83333.3296332138
83333.3296333425
83333.3296334314
83333.3296335006
83333.3296335629
83333.3296335674
83333.3296334698
83333.3296341764
83333.3296343183
83333.3296344077
83333.3296344623
83333.3296345016
83333.3296345392
83333.3296345864
83333.3296345751
83333.3296344546
83333.3296355462
83333.3296356
83333.3296356096
83333.3296355928
83333.3296355698
83333.3296355526
83333.329635558
83333.3296355916
83333.3296355669
83333.3296354256
83333.3296372213
83333.3296371421
83333.3296370249
83333.3296368904
83333.3296367603
83333.3296366511
83333.3296365772
83333.3296365521
83333.3296365745
83333.3296365388
83333.3296363799
83333.3296393152
83333.3296390498
83333.3296387505
83333.3296384418
83333.329638149
83333.3296378965
83333.3296377012
83333.3296375733
83333.3296375209
83333.3296375346
83333.3296374891
83333.329637315
83333.3296419714
83333.3296414534
83333.3296409049
83333.3296403529
83333.3296398299
83333.3296393693
83333.3296389948
83333.3296387176
83333.3296385408
83333.3296384646
83333.3296384692
83333.3296384113
83333.3296382238
83333.3296453533
83333.3296445002
83333.3296436172
83333.3296427342
83333.3296418946
83333.329641143
83333.329640514
83333.3296400239
83333.3296396743
83333.3296394579
83333.3296393653
83333.3296393656
83333.3296392996
83333.3296391081
83333.3296497346
83333.3296484222
83333.329647079
83333.3296457372
83333.3296444552
83333.3296432945
83333.329642304
83333.3296415085
83333.3296409117
83333.3296405024
83333.3296402633
83333.3296401788
83333.3296402036
83333.3296401488
83333.3296399639
83333.3296255507
83333.329626473
83333.3296264908
83333.3296273783
83333.3296274401
83333.3296274469
83333.3296282491
83333.3296283684
83333.329628423
83333.329628415
83333.3296290942
83333.3296292624
83333.3296293704
83333.3296294177
83333.329629391
83333.3296299281
83333.3296301434
83333.3296302828
83333.3296303817
83333.3296304183
83333.3296303699
83333.3296307789
83333.3296310287
83333.3296311947
83333.329631312
83333.3296313978
83333.329631419
83333.3296313471
83333.3296317021
83333.3296319522
83333.3296321266
83333.3296322508
83333.3296323412
83333.3296324112
83333.329632415
83333.3296323194
83333.3296327402
83333.3296329592
83333.3296331149
83333.3296332235
83333.3296333014
83333.3296333612
83333.3296334148
83333.3296334021
83333.3296332838
83333.3296339534
83333.3296341102
83333.3296342116
83333.3296342724
83333.3296343102
83333.3296343354
83333.3296343645
83333.3296344033
83333.3296343766
83333.3296342375
83333.3296354207
83333.329635477
83333.3296354833
83333.3296354559
83333.3296354144
83333.3296353727
83333.329635345
83333.329635345
83333.3296353729
83333.329635335
83333.3296351776
83333.329637238
83333.3296371495
83333.3296370128
83333.3296368484
83333.3296366785
83333.3296365246
83333.329636403
83333.3296363247
83333.3296362995
83333.3296363208
83333.329636274
83333.3296361024
83333.329639528
83333.3296392406
83333.3296389046
83333.3296385438
83333.3296381867
83333.3296378633
83333.3296375963
83333.3296373982
83333.3296372747
83333.3296372295
83333.3296372472
83333.3296371926
83333.3296370109
83333.3296424483
83333.3296418929
83333.3296412872
83333.3296406571
83333.3296400403
83333.329639477
83333.3296389995
83333.3296386251
83333.3296383584
83333.3296381971
83333.3296381364
83333.3296381484
83333.3296380856
83333.3296378971
83333.3296461819
83333.3296452721
83333.3296443059
83333.3296433123
83333.3296423417
83333.3296414483
83333.3296406769
83333.3296400528
83333.3296395828
83333.3296392604
83333.3296390724
83333.3296390043
83333.3296390159
83333.3296389486
83333.329638766
83333.3296510536
83333.3296496559
83333.3296481928
83333.3296466954
83333.3296452319
83333.3296438767
83333.3296426919
83333.3296417135
83333.3296409526
83333.3296404011
83333.329640039
83333.3296398424
83333.3296397903
83333.3296398295
83333.3296397819
83333.3296396216
83333.3296246265
83333.3296255155
83333.3296255366
83333.3296263852
83333.3296264527
83333.3296264626
83333.3296272167
83333.3296273467
83333.329627406
83333.3296274005
83333.329628018
83333.3296282026
83333.329628322
83333.3296283716
83333.3296283469
83333.329628801
83333.3296290398
83333.3296291972
83333.3296293068
83333.3296293445
83333.3296292978
83333.3296295896
83333.3296298717
83333.329630065
83333.3296302017
83333.3296302968
83333.3296303189
83333.3296302491
83333.329630424
83333.3296307273
83333.329630942
83333.3296310978
83333.3296312082
83333.3296312862
83333.3296312904
83333.3296311972
83333.3296313628
83333.3296316458
83333.329631859
83333.3296320149
83333.3296321274
83333.3296322083
83333.3296322685
83333.3296322553
83333.3296321397
83333.329632434
83333.3296326787
83333.3296328597
83333.3296329885
83333.32963308
83333.3296331435
83333.3296331942
83333.3296332389
83333.3296332104
83333.3296330741
83333.3296337173
83333.3296338896
83333.3296340026
83333.3296340688
83333.3296341053
83333.3296341239
83333.3296341377
83333.3296341603
83333.3296341934
83333.3296341527
83333.3296339979
83333.3296352919
83333.3296353546
83333.3296353586
83333.3296353204
83333.3296352591
83333.3296351931
83333.3296351376
83333.329635104
83333.3296351025
83333.3296351292
83333.3296350794
83333.3296349094
83333.3296372608
83333.3296371694
83333.3296370171
83333.3296368236
83333.3296366132
83333.3296364124
83333.3296362422
83333.3296361155
83333.3296360393
83333.3296360195
83333.3296360432
83333.3296359878
83333.3296358081
83333.3296397575
83333.3296394572
83333.3296390904
83333.32963868
83333.3296382583
83333.3296378613
83333.3296375188
83333.3296372484
83333.329637057
83333.3296369456
83333.3296369136
83333.3296369371
83333.3296368773
83333.3296366941
83333.3296429541
83333.3296423735
83333.3296417185
83333.329641014
83333.3296403032
83333.3296396343
83333.3296390484
83333.3296385705
83333.32963821
83333.3296379648
83333.3296378271
83333.329637787
83333.3296378092
83333.3296377453
83333.3296375643
83333.3296470554
83333.3296461047
83333.3296450654
83333.3296439655
83333.3296428633
83333.3296418239
83333.3296409032
83333.3296401362
83333.3296395369
83333.3296391025
83333.3296388188
83333.3296386668
83333.3296386265
83333.3296386513
83333.3296385923
83333.3296384336
83333.329652442
83333.32965098
83333.3296494089
83333.3296477598
83333.3296461126
83333.3296445559
83333.3296431667
83333.3296419935
83333.3296410561
83333.3296403518
83333.3296398616
83333.3296395572
83333.3296394092
83333.3296393922
83333.3296394492
83333.3296394259
83333.3296393108
83333.3296237323
83333.3296245881
83333.3296246127
83333.3296254221
83333.3296254957
83333.3296255093
83333.329626214
83333.3296263548
83333.3296264194
83333.3296264175
83333.3296269725
83333.3296271722
83333.329627302
83333.329627356
83333.3296273343
83333.3296277065
83333.3296279667
83333.329628141
83333.3296282608
83333.3296283004
83333.3296282565
83333.3296284398
83333.3296287475
83333.3296289653
83333.3296291202
83333.329629225
83333.3296292479
83333.3296291807
83333.3296291975
83333.3296295395
83333.3296297896
83333.3296299735
83333.3296301028
83333.3296301897
83333.3296301942
83333.3296301039
83333.3296300399
83333.3296303769
83333.3296306398
83333.3296308373
83333.3296309807
83333.3296310813
83333.3296311495
83333.3296311357
83333.3296310234
83333.3296309887
83333.3296313033
83333.329631553
83333.3296317409
83333.3296318794
83333.3296319775
83333.3296320485
83333.3296320999
83333.3296320699
83333.3296319369
83333.3296321041
83333.3296323747
83333.3296325793
83333.3296327272
83333.3296328319
83333.3296329038
83333.3296329552
83333.3296329986
83333.3296330371
83333.329632994
83333.3296328425
83333.3296334652
83333.3296336562
83333.3296337811
83333.3296338522
83333.329633886
83333.3296338977
83333.3296339013
83333.3296339079
83333.3296339278
83333.3296339581
83333.3296339057
83333.3296337388
83333.329635154
83333.3296352288
83333.329635234
83333.3296351857
83333.3296351039
83333.3296350115
83333.3296349277
83333.329634865
83333.3296348313
83333.3296348336
83333.3296348609
83333.3296348027
83333.3296346248
83333.3296372812
83333.3296371957
83333.3296370334
83333.3296368135
83333.329636563
83333.3296363133
83333.3296360916
83333.329635915
83333.3296357914
83333.3296357243
83333.3296357151
83333.329635744
83333.3296356826
83333.3296355013
83333.3296399917
83333.3296396904
83333.3296393011
83333.3296388455
83333.3296383605
83333.3296378883
83333.3296374666
83333.3296371194
83333.3296368577
83333.3296366827
83333.3296365906
83333.3296365761
83333.3296366087
83333.3296365475
83333.3296363713
83333.329643473
83333.3296428831
83333.3296421898
83333.3296414167
83333.3296406137
83333.3296398374
83333.3296391387
83333.3296385512
83333.3296380904
83333.3296377575
83333.3296375439
83333.3296374363
83333.3296374206
83333.3296374555
83333.3296373997
83333.3296372409
83333.3296479532
83333.3296469825
83333.3296458838
83333.3296446849
83333.3296434529
83333.3296422646
83333.3296411887
83333.3296402711
83333.3296395334
83333.3296389783
83333.3296385938
83333.3296383583
83333.3296382473
83333.3296382375
83333.3296382798
83333.3296382452
83333.329638133
83333.3296538711
83333.3296523736
83333.329650713
83333.32964892
83333.3296470895
83333.3296453262
83333.3296437237
83333.3296423444
83333.3296412185
83333.3296403496
83333.329639722
83333.3296393067
83333.3296390682
83333.3296389732
83333.3296389955
83333.3296390805
83333.329639108
83333.329639059
83333.3296228728
83333.3296236901
83333.3296237187
83333.3296244882
83333.3296245687
83333.3296245859
83333.3296252405
83333.3296253929
83333.3296254635
83333.3296254654
83333.3296259576
83333.3296261714
83333.3296263114
83333.3296263708
83333.3296263532
83333.329626645
83333.3296269242
83333.3296271137
83333.3296272431
83333.3296272867
83333.3296272465
83333.3296273236
83333.3296276564
83333.3296278959
83333.3296280676
83333.3296281816
83333.3296282066
83333.329628143
83333.3296280188
83333.3296283887
83333.3296286696
83333.3296288787
83333.3296290257
83333.3296291213
83333.3296291268
83333.32962904
83333.3296287663
83333.3296291523
83333.3296294573
83333.3296296912
83333.3296298624
83333.3296299816
83333.3296300577
83333.3296300442
83333.3296299355
83333.3296296105
83333.3296299826
83333.3296302906
83333.3296305296
83333.3296307093
83333.3296308383
83333.3296309287
83333.3296309866
83333.3296309563
83333.329630827
83333.3296305783
83333.3296309288
83333.3296312113
83333.3296314301
83333.3296315939
83333.3296317131
83333.3296317983
83333.3296318614
83333.3296319048
83333.3296318607
83333.3296317129
83333.3296317484
83333.3296320477
83333.3296322753
83333.3296324409
83333.3296325572
83333.3296326371
83333.3296326933
83333.3296327361
83333.3296327759
83333.3296328095
83333.3296327554
83333.3296325919
83333.3296331922
83333.3296334071
83333.3296335465
83333.3296336229
83333.3296336529
83333.3296336557
83333.3296336484
83333.3296336429
83333.3296336474
83333.3296336694
83333.3296336993
83333.3296336383
83333.3296334634
83333.3296349994
83333.3296350941
83333.3296351058
83333.3296350497
83333.329634948
83333.3296348276
83333.3296347129
83333.3296346199
83333.3296345574
83333.3296345299
83333.3296345406
83333.329634572
83333.3296345076
83333.3296343279
83333.3296372886
83333.3296372198
83333.3296370556
83333.3296368138
83333.329636525
83333.3296362258
83333.3296359498
83333.3296357197
83333.3296355472
83333.3296354355
83333.3296353838
83333.3296353897
83333.3296354263
83333.3296353633
83333.329635189
83333.3296402158
83333.3296399287
83333.3296395278
83333.3296390338
83333.3296384883
83333.3296379409
83333.3296374372
83333.3296370088
83333.3296366722
83333.3296364312
83333.3296362816
83333.3296362146
83333.3296362215
83333.3296362656
83333.3296362124
83333.3296360575
83333.3296439854
83333.329643406
83333.3296426887
83333.3296418562
83333.3296409648
83333.3296400811
83333.3296392665
83333.3296385641
83333.3296379964
83333.3296375697
83333.3296372772
83333.3296371036
83333.3296370309
83333.3296370425
83333.3296370946
83333.3296370628
83333.3296369496
83333.3296488475
83333.3296478844
83333.3296467457
83333.3296454585
83333.3296441013
83333.3296427636
83333.3296415281
83333.3296404529
83333.3296395686
83333.3296388843
83333.3296383913
83333.3296380688
83333.3296378887
83333.3296378227
83333.3296378474
83333.3296379172
83333.3296379348
83333.3296378902
83333.329655302
83333.3296538075
83333.3296520838
83333.3296501615
83333.3296481516
83333.3296461792
83333.3296443563
83333.329642761
83333.329641435
83333.32964039
83333.3296396146
83333.329639081
83333.3296387516
83333.3296385859
83333.329638551
83333.3296386244
83333.3296387615
83333.329638865
83333.3296388841
83333.3296220511
83333.3296228261
83333.3296228599
83333.3296235818
83333.3296236712
83333.3296236925
83333.3296242945
83333.3296244601
83333.3296245373
83333.3296245431
83333.3296249721
83333.3296252
83333.329625351
83333.3296254163
83333.3296254027
83333.329625616
83333.329625912
83333.3296261158
83333.3296262546
83333.3296263035
83333.3296262677
83333.3296262433
83333.3296265981
83333.3296268568
83333.3296270437
83333.3296271664
83333.3296271955
83333.3296271362
83333.3296268767
83333.3296272752
83333.3296275825
83333.3296278139
83333.3296279771
83333.3296280807
83333.329628089
83333.3296280064
83333.3296275433
83333.3296279701
83333.3296283114
83333.3296285773
83333.3296287732
83333.3296289097
83333.329628993
83333.3296289815
83333.3296288766
83333.3296282871
83333.3296287148
83333.3296290715
83333.3296293545
83333.3296295704
83333.3296297271
83333.3296298355
83333.3296298996
83333.3296298705
83333.3296297452
83333.3296291313
83333.3296295492
83333.3296298972
83333.3296301765
83333.3296303916
83333.3296305522
83333.3296306679
83333.3296307493
83333.3296307977
83333.329630754
83333.3296306101
83333.329630134
83333.3296305233
83333.3296308374
83333.3296310843
83333.3296312717
83333.3296314111
83333.3296315138
83333.3296315895
83333.3296316475
83333.329631685
83333.3296316301
83333.3296314703
83333.3296313627
83333.3296316948
83333.3296319475
83333.3296321308
83333.3296322572
83333.3296323428
83333.3296324029
83333.3296324483
83333.3296324874
83333.3296325273
83333.3296325598
83333.329632497
83333.3296323254
83333.3296328918
83333.3296331371
83333.3296332957
83333.3296333794
83333.3296334061
83333.3296333984
83333.3296333776
83333.3296333589
83333.3296333508
83333.329633359
83333.3296333873
83333.3296334202
83333.3296333532
83333.3296331761
83333.3296348185
83333.3296349429
83333.3296349683
83333.3296349088
83333.3296347892
83333.3296346406
83333.3296344926
83333.3296343664
83333.3296342735
83333.3296342189
83333.3296342034
83333.3296342268
83333.3296342648
83333.3296341992
83333.3296340265
83333.3296372692
83333.3296372309
83333.3296370751
83333.3296368183
83333.3296364948
83333.3296361468
83333.3296358149
83333.329635528
83333.3296353027
83333.329635145
83333.3296350533
83333.3296350224
83333.3296350469
83333.329635094
83333.329635039
83333.3296348861
83333.3296404117
83333.329640157
83333.3296397587
83333.3296392357
83333.329638635
83333.3296380139
83333.329637427
83333.329636914
83333.3296364977
83333.3296361864
83333.3296359776
83333.3296358609
83333.3296358236
83333.3296358546
83333.3296359151
83333.3296358854
83333.3296357753
83333.3296444657
83333.3296439223
83333.3296431999
83333.32964232
83333.3296413471
83333.3296403581
83333.3296394262
83333.3296386049
83333.3296379249
83333.3296373981
83333.3296370213
83333.32963678
83333.3296366531
83333.3296366196
83333.3296366627
83333.3296367418
83333.3296367613
83333.3296367153
83333.3296497032
83333.329648783
83333.32964763
83333.3296462709
83333.3296447962
83333.3296433113
83333.329641914
83333.3296406757
83333.3296396378
83333.3296388164
83333.3296382074
83333.329637792
83333.3296375414
83333.3296374227
83333.3296374081
83333.3296374785
83333.3296376013
83333.3296376983
83333.3296377227
83333.3296566837
83333.3296552427
83333.3296534922
83333.3296514628
83333.329649284
83333.3296471033
83333.3296450556
83333.329643236
83333.3296416998
83333.3296404679
83333.3296395346
83333.3296388744
83333.3296384492
83333.3296382152
83333.3296381314
83333.3296381713
83333.3296383215
83333.3296385393
83333.3296387133
83333.3296387812
83333.3296220021
83333.3296220385
83333.32962271
83333.3296228084
83333.3296228344
83333.3296233745
83333.329623555
83333.3296236406
83333.3296236506
83333.3296240133
83333.3296242562
83333.3296244197
83333.3296244913
83333.329624482
83333.3296246178
83333.3296249292
83333.3296251472
83333.3296252962
83333.3296253508
83333.3296253194
83333.3296251983
83333.3296255722
83333.329625848
83333.329626049
83333.3296261806
83333.3296262149
83333.3296261603
83333.329625775
83333.3296261983
83333.3296265281
83333.3296267791
83333.3296269571
83333.3296270687
83333.3296270814
83333.3296270035
83333.3296263706
83333.3296268304
83333.3296272024
83333.3296274957
83333.3296277136
83333.3296278657
83333.3296279562
83333.3296279482
83333.3296278479
83333.3296270183
83333.3296274973
83333.3296278946
83333.3296282157
83333.3296284631
83333.3296286444
83333.3296287693
83333.3296288399
83333.3296288132
83333.3296286921
83333.3296277545
83333.3296282318
83333.3296286355
83333.3296289657
83333.329629225
83333.3296294218
83333.3296295648
83333.3296296631
83333.329629717
83333.3296296747
83333.329629535
83333.3296286136
83333.3296290783
83333.3296294646
83333.3296297803
83333.3296300288
83333.3296302199
83333.3296303636
83333.3296304687
83333.3296305437
83333.3296305857
83333.3296305309
83333.329630375
83333.3296296544
83333.329630084
83333.3296304316
83333.3296307055
83333.3296309146
83333.329631072
83333.329631191
83333.3296312817
83333.3296313519
83333.3296314084
83333.329631444
83333.3296313803
83333.3296312123
83333.3296309416
83333.3296313119
83333.3296315937
83333.329631796
83333.3296319326
83333.3296320224
83333.3296320838
83333.3296321305
83333.3296321711
83333.3296322114
83333.3296322558
83333.3296322902
83333.3296322216
83333.3296320477
83333.3296325556
83333.3296328397
83333.3296330239
83333.3296331188
83333.329633144
83333.3296331256
83333.3296330894
83333.3296330545
83333.3296330325
83333.3296330289
83333.329633046
83333.3296330849
83333.3296331236
83333.3296330557
83333.3296328855
83333.3296345993
83333.3296347654
83333.3296348139
83333.3296347575
83333.3296346237
83333.3296344481
83333.3296342659
83333.3296341037
83333.3296339773
83333.3296338941
83333.3296338546
83333.3296338562
83333.3296338957
83333.3296339435
83333.3296338858
83333.3296337348
83333.3296372067
83333.3296372154
83333.329637081
83333.3296368185
83333.3296364659
83333.3296360718
83333.3296356839
83333.3296353381
83333.3296350566
83333.3296348492
83333.3296347163
83333.3296346514
83333.3296346457
83333.3296346916
83333.3296347541
83333.3296347229
83333.3296346142
83333.3296405567
83333.3296403571
83333.3296399788
83333.3296394394
83333.3296387914
83333.3296381004
83333.3296374308
83333.3296368312
83333.3296363316
83333.3296359456
83333.3296356738
83333.3296355068
83333.3296354291
83333.3296354257
83333.3296354855
83333.3296355719
83333.329635593
83333.3296355491
83333.3296448829
83333.3296444066
83333.3296437032
83333.3296427926
83333.3296417483
83333.3296406589
83333.3296396104
83333.3296386678
83333.3296378713
83333.3296372393
83333.3296367729
83333.3296364599
83333.3296362789