/*--------------------------------*- C++ -*----------------------------------*\
  =========                 |
  \\      /  F ield         | OpenFOAM: The Open Source CFD Toolbox
   \\    /   O peration     | Website:  https://openfoam.org
    \\  /    A nd           | Version:  12
     \\/     M anipulation  |
\*---------------------------------------------------------------------------*/
/*   Windows 32 and 64 bit porting by blueCAPE: http://www.bluecape.com.pt   *\
|  Based on Windows porting (2.0.x v4) by Symscape: http://www.symscape.com   |
\*---------------------------------------------------------------------------*/
FoamFile
{
    format      ascii;
    class       surfaceScalarField;
    location    "800";
    object      phi;
}
// * * * * * * * * * * * * * * * * * * * * * * * * * * * * * * * * * * * * * //

dimensions      [0 3 -1 0 0 0 0];

internalField   nonuniform List<scalar> 
28770
(
3.43463812185513e-09
-6.59223391652858e-08
4.24354662198633e-09
5.85542989593669e-08
-6.19299240518548e-08
6.80630719569285e-09
-8.23561619785015e-07
-1.08366966220347e-07
-1.52071259207584e-08
1.72384778815762e-07
-8.2485415816445e-08
1.34736413916999e-08
1.05795333651573e-07
-5.51780710100716e-08
7.94206496999498e-09
-7.7345621878401e-07
-9.83760267718837e-08
-1.36586421959054e-08
2.39652848620952e-07
-7.65633128425007e-08
1.61034786787635e-08
-8.90989714749661e-07
-1.38966855792173e-07
-1.27965320018605e-08
-8.40295030091336e-07
-1.38970177064276e-07
-2.60878015268556e-08
1.26420588623343e-07
-1.01565057704419e-07
2.61000578573855e-08
1.45407219737747e-07
-4.76250159763885e-08
8.02787091962027e-09
-7.29337438838689e-07
-8.70120788208373e-08
-1.2287903853422e-08
2.97925828207472e-07
-6.80854579550841e-08
1.7762375661683e-08
-8.54382666514795e-07
-1.22659922728893e-07
-1.2322803030253e-08
-7.80126284329417e-07
-1.25841565809626e-07
-2.45488902519858e-08
2.08405869278279e-07
-9.41958442970897e-08
2.8323760982874e-08
-7.98087289625095e-07
-1.66629158094594e-07
-5.08008555471787e-09
-1.01872367796108e-06
-1.81101620696004e-07
-2.36033269137078e-08
-1.02736907548625e-06
-1.78983998484695e-07
-3.1711296378971e-08
1.01585095636841e-07
-1.20443480863092e-07
4.3139526156686e-08
1.78239972659905e-07
-4.13921852929293e-08
8.56172619314274e-09
-6.89822581485378e-07
-7.57026356930558e-08
-1.14514029686614e-08
3.4631159977495e-07
-5.91024734589591e-08
1.87544958585371e-08
-8.22537582352461e-07
-1.07074373387479e-07
-1.17840553338158e-08
-7.26612918529533e-07
-1.11219136519522e-07
-2.26736957569252e-08
2.80040152610024e-07
-8.41885360530014e-08
3.03346681932574e-08
-7.70739933300744e-07
-1.44566517894763e-07
-5.44245536039088e-09
-9.73096793085883e-07
-1.60285483292891e-07
-2.35074922484314e-08
-9.52643000770968e-07
-1.62507424813461e-07
-3.09688855586277e-08
1.97159733398218e-07
-1.11842400538218e-07
4.46046333014796e-08
-7.1333264709926e-07
-1.93205308615217e-07
1.21864131210555e-09
-9.15546544601384e-07
-2.17730204999152e-07
-8.55373536559437e-09
-1.24489092720461e-06
-2.3815197165712e-07
-3.11761720739645e-08
-1.18650556343681e-06
-2.17756141326157e-07
-3.13857962003197e-08
8.31673435865632e-08
-1.35868409439752e-07
6.4074988575351e-08
2.05054068955372e-07
-3.61191980690368e-08
9.2991204325308e-09
-6.54740223640272e-07
-6.59010862748137e-08
-1.05720957548396e-08
3.85923735611875e-07
-5.12902735712745e-08
2.02385694000638e-08
-7.9426560454593e-07
-9.27466383880187e-08
-1.12268953504472e-08
-6.79198543321481e-07
-9.69957354707982e-08
-2.0986120403979e-08
3.40361507860699e-07
-7.35969416727354e-08
3.20602347129241e-08
-7.47458046074398e-07
-1.24753530985637e-07
-5.60254193833913e-09
-9.32874428277642e-07
-1.4038603564578e-07
-2.28355940935036e-08
-8.85744957100658e-07
-1.44397161630592e-07
-2.93632527737263e-08
2.81147113821498e-07
-1.00228736699857e-07
4.65745086570609e-08
-6.92345625518529e-07
-1.65746343695146e-07
1.93174030052336e-10
-8.81576408647707e-07
-1.89849570963599e-07
-9.84834643865336e-09
-1.18682954369005e-06
-2.12026105883913e-07
-3.20463499014872e-08
-1.0989776341721e-06
-1.98373068409085e-07
-3.19482280280026e-08
1.89568944727626e-07
-1.2644308627355e-07
6.46507508622186e-08
-6.32083941034306e-07
-2.18675087422705e-07
6.2194339194618e-09
-8.05689958625407e-07
-2.5125682432113e-07
4.0527847182688e-09
-1.11092573109887e-06
-2.87231493166175e-07
-1.03730124164909e-08
-1.44360035820928e-06
-2.92913228526847e-07
-3.53271375546883e-08
-1.29937193308535e-06
-2.47643019580374e-07
-2.76551296385882e-08
6.03224366102933e-08
-1.46342887108119e-07
8.71713458129804e-08
2.26749284188371e-07
-3.17288224971432e-08
1.0034322903153e-08
-6.23703751293645e-07
-5.76323319502646e-08
-9.53656630711396e-09
4.18062367579625e-07
-4.4649922341961e-08
2.18267614977189e-08
-7.69219340613147e-07
-8.03481686581813e-08
-1.05988434715631e-08
-6.37431335607321e-07
-8.44894067973906e-08
-1.91377940328598e-08
3.90401398705358e-07
-6.40586156905925e-08
3.42329739666863e-08
-7.27380594825153e-07
-1.07219234735319e-07
-5.60579435403313e-09
-8.97174134096415e-07
-1.22028034780808e-07
-2.19001259289595e-08
-8.26193846017816e-07
-1.26732575260493e-07
-2.74105100967868e-08
3.52438815204284e-07
-8.79597974107118e-08
4.87109201937721e-08
-6.74906568528881e-07
-1.41636514170206e-07
-5.56855673386006e-10
-8.52366148982298e-07
-1.64719776767324e-07
-1.04807873178137e-08
-1.13519496555049e-06
-1.86987093843264e-07
-3.18785150166742e-08
-1.02035600987813e-06
-1.77092954628244e-07
-3.11122367201825e-08
2.83423060302187e-07
-1.13635037735659e-07
6.63601240538036e-08
-6.16522095625096e-07
-1.85950532583029e-07
4.64291346359454e-09
-7.80031735165427e-07
-2.16898606325611e-07
1.58430050960823e-09
-1.0674759926768e-06
-2.52336317072031e-07
-1.29884977433501e-08
-1.37430990051589e-06
-2.62197496105536e-07
-3.75154915735017e-08
-1.20167895838282e-06
-2.26593998993563e-07
-2.94961034106888e-08
1.74569524198524e-07
-1.36713735259582e-07
8.71044108164074e-08
-5.51638706850546e-07
-2.42993689462914e-07
1.0636662899257e-08
-7.07137588469846e-07
-2.82295970651858e-07
1.40324901077877e-08
-9.63048413291915e-07
-3.29892837607146e-07
7.86670572352662e-09
-1.28587228176618e-06
-3.53544064195764e-07
-1.09113214267935e-08
-1.58409444693181e-06
-3.33650805633156e-07
-3.83925906683674e-08
-1.37194437913157e-06
-2.67698759928133e-07
-2.2977363721253e-08
2.67970118936868e-08
-1.53380195223565e-07
1.10922629753575e-07
2.44092613279979e-07
-2.81563771371616e-08
1.08042167995644e-08
-5.96149467401192e-07
-5.09309436500348e-08
-8.35404853532304e-09
4.43922084835442e-07
-3.91803264373773e-08
2.33636993371423e-08
-7.46970773773274e-07
-6.99923363030397e-08
-9.88594423334177e-09
-6.00737995359464e-07
-7.38252389168338e-08
-1.70686524877783e-08
4.31570017970542e-07
-5.59519652521292e-08
3.65900863387133e-08
-7.09979483908177e-07
-9.22514367151208e-08
-5.49954040603356e-09
-8.65547238108548e-07
-1.059502579138e-07
-2.07631414297625e-08
-7.73421629209009e-07
-1.10969982220739e-07
-2.4985248771069e-08
4.12074301610969e-07
-7.67538544022408e-08
5.13603049972393e-08
-6.60334258180366e-07
-1.20709633057626e-07
-1.08239543351883e-09
-8.2704252096695e-07
-1.42261545185737e-07
-1.06947971577857e-08
-1.08909353260873e-06
-1.63696859939698e-07
-3.1043273935521e-08
-9.50133649867451e-07
-1.56202290095159e-07
-2.93785270172721e-08
3.63494192627747e-07
-1.00084172600436e-07
6.87167248785305e-08
-6.04038811249527e-07
-1.57496209758357e-07
3.37621535066212e-09
-7.58542479887921e-07
-1.86593543241827e-07
-1.70967660171124e-10
-1.02971578515291e-06
-2.20705928190285e-07
-1.45169331280297e-08
-1.31242503536687e-06
-2.32609090617516e-07
-3.82516880203982e-08
-1.11370922519144e-06
-2.03251414935957e-07
-2.94582236236103e-08
2.75585587487653e-07
-1.23294245130924e-07
8.86457041385731e-08
-5.41171606759679e-07
-2.04940434267957e-07
8.52277547577055e-09
-6.88165734352792e-07
-2.41760416933882e-07
1.05335878329791e-08
-9.30336128980266e-07
-2.87145655773508e-07
3.68342231743468e-09
-1.23343253683856e-06
-3.12638166404612e-07
-1.49870664625133e-08
-1.50601528427082e-06
-3.00375128630644e-07
-4.18060313331837e-08
-1.26629105161623e-06
-2.46180812089078e-07
-2.56851639901138e-08
1.47135441374642e-07
-1.43862061212105e-07
1.1065679259094e-07
-4.73229385507961e-07
-2.66300118478469e-07
1.49374289101873e-08
-6.15917700053949e-07
-3.11360799834207e-07
2.30211800261743e-08
-8.36905916640198e-07
-3.68196189493142e-07
2.27998898395227e-08
-1.10659516434333e-06
-4.04513519198894e-07
1.18394944489974e-08
-1.40930093843372e-06
-4.02187448491425e-07
-1.18006025931927e-08
-1.67575410784492e-06
-3.60390374958121e-07
-4.22941577623974e-08
-1.4244914175846e-06
-2.82159119238765e-07
-1.82571303357249e-08
-1.71392355226298e-08
-1.58859549545027e-07
1.34401854859944e-07
2.57770778551993e-07
-2.53385975095311e-08
1.16534095966842e-08
-5.71541080215965e-07
-4.56988046810171e-08
-7.07407006381401e-09
4.64420229553323e-07
-3.46309965191472e-08
2.49436969954681e-08
-7.27121100756737e-07
-6.16958049530195e-08
-9.08449477921411e-09
-5.68444745598214e-07
-6.50727253194452e-08
-1.47605037817315e-08
4.65334457433187e-07
-4.93706625353613e-08
3.89749881293454e-08
-6.94770757618806e-07
-7.98998345290593e-08
-5.30051728619364e-09
-8.37475097112303e-07
-9.23410445491079e-08
-1.94412537649905e-08
-7.26862770908107e-07
-9.74045848240677e-08
-2.21739781245645e-08
4.61576058998713e-07
-6.72349016071162e-08
5.43040914682613e-08
-6.48075514759761e-07
-1.03054544584074e-07
-1.45597117641686e-09
-8.04993548757335e-07
-1.22848338419605e-07
-1.06522904968847e-08
-1.04803160811654e-06
-1.43064109221563e-07
-2.97355973400752e-08
-8.87671940299001e-07
-1.37375495166328e-07
-2.68409295270231e-08
4.30821530606838e-07
-8.7634655532346e-08
7.16635923409244e-08
-5.94052173210955e-07
-1.33070889992203e-07
2.37458891564465e-09
-7.40449508989777e-07
-1.59998877603473e-07
-1.43670861549045e-09
-9.96678743270094e-07
-1.92154556263742e-07
-1.52778742339675e-08
-1.25692004724856e-06
-2.04846914802969e-07
-3.78995288394859e-08
-1.03498689188475e-06
-1.80138414567464e-07
-2.80514269483119e-08
3.62102227755619e-07
-1.09018712325222e-07
9.11936434763739e-08
-5.33355425190978e-07
-1.72062522520251e-07
6.75013620224187e-09
-6.72815949744035e-07
-2.06340707584755e-07
7.7738565658093e-09
-9.02601229740368e-07
-2.49224751401231e-07
6.13047149528756e-10
-1.18758560386422e-06
-2.75344509095367e-07
-1.76286866392447e-08
-1.43606234108835e-06
-2.68028731881592e-07
-4.34256389122331e-08
-1.17099456771053e-06
-2.21915234687421e-07
-2.61351978302118e-08
2.53727811218669e-07
-1.3020819159124e-07
1.12245598915941e-07
-4.67713614038662e-07
-2.22700806450939e-07
1.22444541538083e-08
-6.02949801201289e-07
-2.64659165350818e-07
1.84541895580532e-08
-8.125437663799e-07
-3.18102002427151e-07
1.71269226248287e-08
-1.06682393631403e-06
-3.54641281512819e-07
5.91628309406376e-09
-1.3495489789778e-06
-3.57953560739691e-07
-1.71632714381195e-08
-1.59083264503488e-06
-3.26376195914472e-07
-4.65289303589384e-08
-1.3119289899867e-06
-2.60837371717251e-07
-2.1273252284539e-08
1.08767404814263e-07
-1.49599971511713e-07
1.34367549944641e-07
-3.97263058737385e-07
-2.88878900846576e-07
1.95076973170468e-08
-5.28493388302479e-07
-3.39042856100463e-07
3.21382946130765e-08
-7.26814839397249e-07
-4.03626920897902e-07
3.68142140196788e-08
-9.57552825436032e-07
-4.49430691107099e-07
3.15248614853465e-08
-1.2097478182256e-06
-4.59104858172615e-07
1.4795926268983e-08
-1.49118638770133e-06
-4.33961812688815e-07
-1.42958877012164e-08
-1.74420490059292e-06
-3.80036632734828e-07
-4.75831501908916e-08
-1.47287814189729e-06
-2.95052159894201e-07
-1.33899750535593e-08
-6.79205435523696e-08
-1.63944226745098e-07
1.57151101585585e-07
2.68355431697754e-07
-2.32199053396922e-08
1.26547129538856e-08
-5.49372270903837e-07
-4.18262212690636e-08
-5.68208050306026e-09
4.80419623666537e-07
-3.09604772257977e-08
2.65951498125064e-08
-7.09266009076074e-07
-5.53504826176498e-08
-8.20463759350111e-09
-5.39832443277459e-07
-5.80824153926756e-08
-1.2225738034308e-08
4.92726652021676e-07
-4.39359463209134e-08
4.14805513705098e-08
-6.81355571486731e-07
-7.01084584957198e-08
-5.00300262597022e-09
-8.12471486261273e-07
-8.12457354552633e-08
-1.79143158976453e-08
-6.85789494736713e-07
-8.62002496990446e-08
-1.89896110049921e-08
5.02612041253921e-07
-5.94995200184483e-08
5.74216526251863e-08
-6.37637627164163e-07
-8.86361319042288e-08
-1.70278299418091e-09
-7.85667329149885e-07
-1.06586448811929e-07
-1.03801249739314e-08
-1.01143377811331e-06
-1.25399746418395e-07
-2.80447836632946e-08
-8.32387625030502e-07
-1.21049292882479e-07
-2.36316469330655e-08
4.87088272772576e-07
-7.69945441593093e-08
7.50387015893317e-08
-5.86029554327761e-07
-1.12651798029336e-07
1.5756257262895e-09
-7.25113738035522e-07
-1.37274650300814e-07
-2.36523711392303e-09
-9.6768369578362e-07
-1.67189269721172e-07
-1.55219842040434e-08
-1.20727704550034e-06
-1.80016772145667e-07
-3.67393287094487e-08
-9.64801056131873e-07
-1.5915688929252e-07
-2.55044639838227e-08
4.35175545540814e-07
-9.58266144658029e-08
9.44385209766822e-08
-5.27649234626326e-07
-1.44063846724028e-07
5.28672061565716e-09
-6.60404174352736e-07
-1.75605366930071e-07
5.56869752140186e-09
-8.78961529082837e-07
-2.15604614968726e-07
-1.62780193107242e-09
-1.14718764679841e-06
-2.41368124008506e-07
-1.91528650944426e-08
-1.37314148634931e-06
-2.37386889348686e-07
-4.35813544655947e-08
-1.08558198627827e-06
-1.97644148418739e-07
-2.48293155892628e-08
3.45399820731404e-07
-1.15571101564295e-07
1.1508246092796e-07
-4.64457797415492e-07
-1.85255755675508e-07
9.93755819468822e-09
-5.93113744566944e-07
-2.24102043580944e-07
1.46753067490522e-08
-7.92511757127369e-07
-2.74085346397191e-07
1.26020292106206e-08
-1.03282784710512e-06
-3.10159547121524e-07
1.43246038794966e-09
-1.29706727645288e-06
-3.17321969375625e-07
-2.08174573040797e-08
-1.51456566458071e-06
-2.92905972948089e-07
-4.87008667774292e-08
-1.21024318494865e-06
-2.36289403680361e-07
-2.17462582964472e-08
2.20534913103561e-07
-1.35853702838768e-07
1.36305127420978e-07
-3.96732449429214e-07
-2.39371076017004e-07
1.61394441972373e-08
-5.21311774249057e-07
-2.85943062492523e-07
2.63464969289386e-08
-7.0968872849371e-07
-3.46258965227234e-07
2.9484981430832e-08
-9.27465014883508e-07
-3.91262631725801e-07
2.36592496206519e-08
-1.16383949653592e-06
-4.05285751875113e-07
7.34130109893238e-09
-1.42545375615382e-06
-3.88725976779173e-07
-2.05461451350978e-08
-1.65323522676654e-06
-3.46223507432476e-07
-5.21191874740293e-08
-1.35346274197946e-06
-2.74181590204778e-07
-1.61114568818476e-08
6.36241067618101e-08
-1.55046231117947e-07
1.57879744886861e-07
-3.22583799066341e-07
-3.11039672874185e-07
2.4651787250574e-08
-4.42834166615659e-07
-3.65894336244795e-07
4.21053254949969e-08
-6.23959594708718e-07
-4.37275293027092e-07
5.15368278340818e-08
-8.3163367092624e-07
-4.9073275072949e-07
5.09136554983186e-08
-1.04681323128699e-06
-5.0893418320348e-07
3.90492081286899e-08
-1.2808920937506e-06
-4.94878166345068e-07
1.57751755390471e-08
-1.55567868689342e-06
-4.57570795147028e-07
-1.8916660052224e-08
-1.80814115987128e-06
-3.98214266662116e-07
-5.4154654261402e-08
-1.52411821377383e-06
-3.08480672251152e-07
-7.87381560650783e-09
-1.22657164428216e-07
-1.69684013714301e-07
1.79459126217308e-07
2.76385650964807e-07
-2.17897064736356e-08
1.37579631323707e-08
-5.29142096759e-07
-3.91998601307687e-08
-4.25512006439816e-09
4.926164893591e-07
-2.81422039966111e-08
2.8587566106871e-08
-6.93015060619778e-07
-5.08054363352547e-08
-7.27189014114673e-09
-5.14315414934848e-07
-5.27291669652737e-08
-9.41921467859413e-09
5.14985132028015e-07
-3.98450122018819e-08
4.41704947676111e-08
-6.69360172488724e-07
-6.27288327878948e-08
-4.61778546186672e-09
-7.9004251212629e-07
-7.25289970814832e-08
-1.61876238882402e-08
-6.49333068997826e-07
-7.72167185140597e-08
-1.54125629059833e-08
5.36454776382381e-07
-5.31480455630654e-08
6.07850132056521e-08
-6.28607918080239e-07
-7.73166383046767e-08
-1.821205278998e-09
-7.68601626130525e-07
-9.34353632859446e-08
-9.87654222518265e-09
-9.78744478554235e-07
-1.10814107091571e-07
-2.59879157576779e-08
-7.83572296421853e-07
-1.07479284750033e-07
-1.98344503961059e-08
5.341203534751e-07
-6.83725423449575e-08
7.87289400746397e-08
-5.79496936446252e-07
-9.61174387440156e-08
9.48882765773731e-10
-7.11983271672975e-07
-1.18425599894077e-07
-2.99382525520953e-09
-9.4211613988855e-07
-1.46014627098895e-07
-1.53358706842505e-08
-1.1628937806627e-06
-1.58560496211565e-07
-3.49159954146392e-08
-9.02575068995343e-07
-1.40835296598578e-07
-2.20117429089187e-08
4.96583076971826e-07
-8.45434507047536e-08
9.81859769485039e-08
-5.23548432055536e-07
-1.208341829619e-07
4.08157868366913e-09
-6.50313340848853e-07
-1.49586157912513e-07
3.79397253498484e-09
-8.58701569762959e-07
-1.86546565758487e-07
-3.26794770549344e-09
-1.11151174678605e-06
-2.11364293264174e-07
-1.98506076921604e-08
-1.31670746599556e-06
-2.09740042491237e-07
-4.2588703962574e-08
-1.00933662948377e-06
-1.75458851322926e-07
-2.21304692455464e-08
4.23148290555172e-07
-1.01990150318077e-07
1.1867245316253e-07
-4.62925517199911e-07
-1.53591624531915e-07
7.99547823312613e-09
-5.85772034652468e-07
-1.89199014551862e-07
1.15387851381192e-08
-7.7602547839757e-07
-2.35507465635469e-07
8.98497680281822e-09
-1.00356771561063e-06
-2.7036116182704e-07
-1.89780375049962e-09
-1.25060383064613e-06
-2.79960610469027e-07
-2.30436891129461e-08
-1.44581967996099e-06
-2.60874523755393e-07
-4.90992685764719e-08
-1.11897472220075e-06
-2.11463407564619e-07
-2.01996498544404e-08
3.16988543307971e-07
-1.20992405475836e-07
1.39597961113403e-07
-3.98086934071851e-07
-1.97127667953009e-07
1.32262615254292e-08
-5.1681471741829e-07
-2.40098095384276e-07
2.14365665463081e-08
-6.96331528125195e-07
-2.96162484675977e-07
2.33943117038529e-08
-9.02427077471747e-07
-3.39890580126585e-07
1.72946652073097e-08
-1.12433396825227e-06
-3.56976090323481e-07
1.58291625483905e-09
-1.36750577726175e-06
-3.46791974091785e-07
-2.4882242745185e-08
-1.57136344685915e-06
-3.12473491541156e-07
-5.4385033018302e-08
-1.24539913267384e-06
-2.49566055356901e-07
-1.61140122975439e-08
1.80645207600756e-07
-1.41355765218942e-07
1.60643277401722e-07
-3.27301525314819e-07
-2.55117224447263e-07
2.04637664560996e-08
-4.41519285420574e-07
-3.05959340479523e-07
3.48409577955173e-08
-6.13727861059929e-07
-3.72370998839921e-07
4.22267025101296e-08
-8.09769657980895e-07
-4.24384783609672e-07
4.07427292968121e-08
-1.01134439322893e-06
-4.46290656324738e-07
2.91955066694357e-08
-1.22960433637512e-06
-4.39847835453769e-07
7.17721622655939e-09
-1.48439309699015e-06
-4.12501664869264e-07
-2.55523450791853e-08
-1.71107546313361e-06
-3.64917172476163e-07
-5.84459801169064e-08
-1.39740446974802e-06
-2.88091117738805e-07
-9.77145349125284e-09
1.4897621271213e-08
-1.60982129759714e-07
1.81314525993965e-07
-2.47335005764324e-07
-3.33014137922942e-07
3.06052361560267e-08
-3.57261338848199e-07
-3.92330198499511e-07
5.34246822626789e-08
-5.23257294864396e-07
-4.69900971412066e-07
6.79110104409758e-08
-7.155258210726e-07
-5.29887496837462e-07
7.18333385309277e-08
-9.11523632425244e-07
-5.54550672047492e-07
6.3788288659044e-08
-1.11106960075644e-06
-5.48021181376481e-07
4.42715233439018e-08
-1.33992022453235e-06
-5.21562029986701e-07
1.40911401566393e-08
-1.61891552529091e-06
-4.79638047132387e-07
-2.59015308592782e-08
-1.87584128764268e-06
-4.17546190674351e-07
-6.17796319872396e-08
-1.58109430249772e-06
-3.23541209495996e-07
-1.34235469789347e-09
-1.80130110693995e-07
-1.76518583809376e-07
2.01989633905357e-07
2.82367555541977e-07
-2.08576654275583e-08
1.48782176064828e-08
-5.10281330644096e-07
-3.76802606343643e-08
-2.97081221829432e-09
5.01680057123912e-07
-2.6087044187189e-08
3.07803853311199e-08
-6.77942696839354e-07
-4.78998558638962e-08
-6.37118299887959e-09
-4.91153239198226e-07
-4.88160010652526e-08
-6.74448761810183e-09
5.32644486400191e-07
-3.6016573175602e-08
4.69654491719772e-08
-6.58429031893238e-07
-5.75616484228295e-08
-4.17449366891463e-09
-7.69741139298471e-07
-6.60045740483954e-08
-1.43029636044598e-08
-6.16814684063212e-07
-7.04489667292267e-08
-1.13265720405255e-08
5.644569841406e-07
-4.82905624101009e-08
6.44617194810443e-08
-6.20620991683165e-07
-6.88833417715057e-08
-1.83349309953937e-09
-7.53358718235469e-07
-8.32251377262917e-08
-9.16433612979909e-09
-9.49376913735275e-07
-9.91576148689456e-08
-2.36137105208283e-08
-7.40217336853167e-07
-9.64871015445419e-08
-1.54213574676519e-08
5.73427884608554e-07
-6.14459161343241e-08
8.29212942296336e-08
-5.74047443513322e-07
-8.32509121263788e-08
4.84073786037252e-10
-7.00592571264876e-07
-1.03314320927359e-07
-3.33336446015753e-09
-9.19442557918353e-07
-1.28625898481323e-07
-1.47404450182065e-08
-1.12318727466922e-06
-1.40659783451797e-07
-3.25125517443535e-08
-8.47594252994562e-07
-1.25517622837517e-07
-1.76763333247707e-08
5.4843710602883e-07
-7.56001840324659e-08
1.02482436169211e-07
-5.20602964005302e-07
-1.02164536970698e-07
3.10149620403254e-09
-6.42009790291332e-07
-1.28186054568991e-07
2.40602065790457e-09
-8.41195935248497e-07
-1.62128910231625e-07
-4.38623338639671e-09
-1.07990437378351e-06
-1.85645477446505e-07
-1.98580537924408e-08
-1.26615567271945e-06
-1.85647594175929e-07
-4.06559724204275e-08
-9.4165728217437e-07
-1.55978632803077e-07
-1.82583649982314e-08
4.88914345902634e-07
-9.04301426538727e-08
1.22844381400747e-07
-4.62627760103849e-07
-1.27507558477917e-07
6.37568328992019e-09
-5.80333270933188e-07
-1.59884750241465e-07
8.94142746674138e-09
-7.62385662787266e-07
-2.02480364321873e-07
6.0880393823085e-09
-9.78262302175994e-07
-2.35613862714696e-07
-4.32190137204787e-09
-1.20939586782566e-06
-2.46660388630801e-07
-2.41389771721257e-08
-1.38406011389755e-06
-2.31730684537576e-07
-4.80791118354129e-08
-1.03739857110909e-06
-1.88622003040194e-07
-1.70776149092386e-08
3.99136458913182e-07
-1.07186586728836e-07
1.43719058945723e-07
-4.0076551913148e-07
-1.6166371746139e-07
1.07506899157045e-08
-5.14372499246697e-07
-2.0093520046308e-07
1.72893608714512e-08
-6.86009794892763e-07
-2.5263169559387e-07
1.83407855088135e-08
-8.81519579164994e-07
-2.9446381557306e-07
1.21797628301026e-08
-1.09008782845269e-06
-3.13370089498596e-07
-2.73232415599316e-09
-1.31602937022995e-06
-3.07861650236559e-07
-2.7533523210182e-08
-1.4974424512626e-06
-2.79823761871113e-07
-5.46585010495492e-08
-1.148263031569e-06
-2.24367220455289e-07
-1.39585653461616e-08
2.82018238599182e-07
-1.26376138630436e-07
1.64641546168216e-07
-3.33508012458596e-07
-2.07751931442209e-07
1.68307373546512e-08
-4.42454798050326e-07
-2.54545729674242e-07
2.86093203797331e-08
-6.06757387757145e-07
-3.16020259308664e-07
3.43239421343864e-08
-7.9234187595706e-07
-3.66152869784944e-07
3.22277715704159e-08
-9.81523102308817e-07
-3.90639193091297e-07
2.11349435067327e-08
-1.18521825918437e-06
-3.90068184665806e-07
4.73674178355804e-10
-1.42134283685692e-06
-3.70281644500319e-07
-3.01237316747248e-08
-1.62354389260473e-06
-3.31155460885943e-07
-6.03307099708128e-08
-1.28253860224062e-06
-2.63442296875527e-07
-8.89533621494803e-09
1.37482280776467e-07
-1.47082534424635e-07
1.85132115180803e-07
-2.57826754272116e-07
-2.70031307902829e-07
2.540589353206e-08
-3.62167075519724e-07
-3.24948274298728e-07
4.43581870143336e-08
-5.20028942146937e-07
-3.96940362099308e-07
5.61818796954188e-08
-7.01448783051963e-07
-4.55071405641239e-07
5.88362856808872e-08
-8.84805422715697e-07
-4.83238081393819e-07
5.09721039984961e-08
-1.0705496238541e-06
-4.84006645395798e-07
3.28335335431572e-08
-1.28340005811576e-06
-4.6670265684186e-07
4.85880217335913e-09
-1.54188407486228e-06
-4.35126557071659e-07
-3.23754870996332e-08
-1.77228297776801e-06
-3.84808742304545e-07
-6.52964320520215e-08
-1.44638347776768e-06
-3.03529726952838e-07
-1.93590303757514e-09
-3.61188212036669e-08
-1.67522380501994e-07
2.04828297654796e-07
-1.69694562692717e-07
-3.54870948668578e-07
3.75498449705046e-08
-2.70022744951911e-07
-4.18580582359701e-07
6.64933756269814e-08
-4.21959274365901e-07
-5.01991001145342e-07
8.65809927136282e-08
-6.01738396903417e-07
-5.67744458718762e-07
9.53007465077524e-08
-7.87376961191877e-07
-5.97543492043016e-07
9.09121837950697e-08
-9.71266023130166e-07
-5.96347670261095e-07
7.39429831876744e-08
-1.16644973641995e-06
-5.77046698014161e-07
4.62518487956145e-08
-1.39960188595282e-06
-5.46460729193073e-07
9.23898603538168e-09
-1.68731524441753e-06
-5.0312487799629e-07
-3.54274862254506e-08
-1.95064863597872e-06
-4.3922036817177e-07
-7.02154280392537e-08
-1.64589680302594e-06
-3.4114109903445e-07
6.81590016225118e-09
-2.40939338644807e-07
-1.82469961444801e-07
2.23958805819339e-07
2.8681682639587e-07
-2.03131401746359e-08
1.5877803995708e-08
-4.92363939228429e-07
-3.71278787876728e-08
-1.64062444283408e-09
5.08210327951794e-07
-2.44891006929229e-08
3.28342738668633e-08
-6.6364506170429e-07
-4.64871893892048e-08
-5.4895314028713e-09
-4.69694286418885e-07
-4.61884413561085e-08
-4.33398796205636e-09
5.46387142384473e-07
-3.28078594487828e-08
4.98184346328594e-08
-6.4820939688419e-07
-5.44210612746863e-08
-3.69862963003676e-09
-7.50980856222547e-07
-6.14401391437625e-08
-1.25060159400557e-08
-5.8709072886054e-07
-6.48495993619162e-08
-7.62690755231443e-09
5.87068022347396e-07
-4.36531217102182e-08
6.80208011852015e-08
-6.13355519121532e-07
-6.30962440352727e-08
-1.73057763086694e-09
-7.39523455176834e-07
-7.57282568778922e-08
-8.28527241691217e-09
-9.229019948392e-07
-9.02121733579558e-08
-2.10152241109036e-08
-7.01299197751045e-07
-8.79304329999745e-08
-1.06213955751346e-08
6.05966651313325e-07
-5.52520032927491e-08
8.71938981201283e-08
-5.69348900572854e-07
-7.37836465603092e-08
2.01084701831945e-10
-6.90528379843494e-07
-9.17127890731375e-08
-3.4117612600111e-09
-8.99147685644819e-07
-1.14833591696239e-07
-1.37853485380981e-08
-1.08751704502335e-06
-1.26147756434502e-07
-2.96181511582882e-08
-7.98697427788135e-07
-1.13108863704602e-07
-1.26627104366091e-08
5.91787029712082e-07
-6.74560979167818e-08
1.07009686892424e-07
-5.18434504869716e-07
-8.774906281794e-08
2.32918598873717e-09
-6.35048250538851e-07
-1.11172299296609e-07
1.37968035255886e-09
-8.25905949662222e-07
-1.42230259617456e-07
-5.01851938312433e-09
-1.05179123266555e-06
-1.64263051666174e-07
-1.92493052268663e-08
-1.22089945101595e-06
-1.65355481853308e-07
-3.79267366851987e-08
-8.81837148385725e-07
-1.39735674701812e-07
-1.33500329791751e-08
5.44527303798513e-07
-8.05643691323003e-08
1.27445217385546e-07
-4.63139595204423e-07
-1.06691947302916e-07
5.03927739564456e-09
-5.7628821552089e-07
-1.35959016213837e-07
6.83011934580373e-09
-7.50979649062473e-07
-1.74958989551908e-07
3.83064594221128e-09
-9.56236946346774e-07
-2.06089469645723e-07
-5.96726066434937e-09
-1.17276680041905e-06
-2.1784439998392e-07
-2.4288746955753e-08
-1.32867657665969e-06
-2.06123744435887e-07
-4.58966670439013e-08
-9.6498532860656e-07
-1.68511482272197e-07
-1.26032335425085e-08
4.68928986922115e-07
-9.53310854889923e-08
1.48382527032686e-07
-4.04289314090607e-07
-1.32659097883094e-07
8.67517683777678e-09
-5.13408715376605e-07
-1.68287261900565e-07
1.38136083448291e-08
-6.78046373400879e-07
-2.15668068526982e-07
1.41647009862069e-08
-8.63971759460951e-07
-2.55180921780673e-07
8.106892472786e-09
-1.06027643117653e-06
-2.74941896655173e-07
-5.85251902626733e-09
-1.27024455076212e-06
-2.72851820372791e-07
-2.88043530547155e-08
-1.43095196850181e-06
-2.49864427886234e-07
-5.33325526373004e-08
-1.06137305980132e-06
-2.01014916705267e-07
-1.01509557417271e-08
3.68782538755613e-07
-1.12414594917285e-07
1.69366648879573e-07
-3.40605862927009e-07
-1.68298441931131e-07
1.37328966570966e-08
-4.44988548020062e-07
-2.1095386040666e-07
2.33030456233278e-08
-6.02321802497352e-07
-2.67427848560089e-07
2.76496698829566e-08
-7.78498123232878e-07
-3.15111653151512e-07
2.51435536099077e-08
-9.56340342673511e-07
-3.41007045072194e-07
1.4634649791631e-08
-1.14653614501139e-06
-3.44729757370029e-07
-4.54645585347783e-09
-1.36518454511894e-06
-3.30694001686224e-07
-3.28224409786174e-08
-1.54438608361386e-06
-2.98111423832497e-07
-6.00728475210879e-08
-1.17914314078128e-06
-2.37920433563926e-07
-5.81808313792988e-09
2.44083491294018e-07
-1.31840528800575e-07
1.89898747164365e-07
-2.69344882459899e-07
-2.17134197457371e-07
2.09004178653981e-08
-3.68858893736737e-07
-2.67568487352614e-07
3.65454196101384e-08
-5.1956616537709e-07
-3.33996653710385e-07
4.61226681535812e-08
-6.91259725960652e-07
-3.89779605327168e-07
4.77615378074111e-08
-8.63107922965879e-07
-4.20285399135226e-07
4.01765239940858e-08
-1.036175878995e-06
-4.26731001637968e-07
2.34237280282039e-08
-1.23423794866923e-06
-4.16635464958132e-07
-2.3348746056138e-09
-1.47353747729787e-06
-3.92938829618443e-07
-3.6689076674736e-08
-1.67868527021074e-06
-3.51033673733811e-07
-6.63380248786037e-08
-1.32394889984996e-06
-2.78647386911409e-07
2.33635647207261e-10
9.21623930492342e-08
-1.52564046808352e-07
2.0938173993677e-07
-1.86768570467976e-07
-2.84061586466272e-07
3.11043028789071e-08
-2.8179130281807e-07
-3.42987709574259e-07
5.5214256570965e-08
-4.26180931916323e-07
-4.20249223823036e-07
7.18892994256233e-08
-5.95581261825894e-07
-4.83884975784683e-07
7.88387217800472e-08
-7.68908969201281e-07
-5.17292448571008e-07
7.4421905789551e-08
-9.39673034453604e-07
-5.23557841424222e-07
5.89299092665792e-08
-1.12083667328814e-06
-5.13261646455013e-07
3.37807566888558e-08
-1.33757287793885e-06
-4.92247972333323e-07
-4.95574016098639e-11
-1.60410967483765e-06
-4.5922605402284e-07
-4.11672268475263e-08
-1.84009985628513e-06
-4.06943902465954e-07
-7.24244097394601e-08
-1.50221630758946e-06
-3.21217943756592e-07
8.09375493994714e-09
-9.06348878696255e-08
-1.73507073944716e-07
2.28041376435847e-07
-8.80868468541903e-08
-3.76431875267985e-07
4.56371726212655e-08
-1.79418711719746e-07
-4.44647055991437e-07
8.16552372542036e-08
-3.18042989939844e-07
-5.3377001342498e-07
1.08085105481685e-07
-4.86742496511254e-07
-6.04787278271202e-07
1.22072632573214e-07
-6.65457967889183e-07
-6.38779830723807e-07
1.21482468596069e-07
-8.43187203228012e-07