/*--------------------------------*- C++ -*----------------------------------*\
  =========                 |
  \\      /  F ield         | OpenFOAM: The Open Source CFD Toolbox
   \\    /   O peration     | Website:  https://openfoam.org
    \\  /    A nd           | Version:  12
     \\/     M anipulation  |
\*---------------------------------------------------------------------------*/
/*   Windows 32 and 64 bit porting by blueCAPE: http://www.bluecape.com.pt   *\
|  Based on Windows porting (2.0.x v4) by Symscape: http://www.symscape.com   |
\*---------------------------------------------------------------------------*/
FoamFile
{
    format      ascii;
    class       volVectorField;
    location    "800";
    object      U;
}
// * * * * * * * * * * * * * * * * * * * * * * * * * * * * * * * * * * * * * //

dimensions      [0 1 -1 0 0 0 0];

internalField   nonuniform List<vector> 
10068
(
(-5.08767660851021e-06 0.000795475265590763 -2.49984812859277e-05)
(-4.33550891011414e-06 0.000740416350304837 -2.50370587920736e-05)
(-5.223742022841e-06 0.000821134147513885 -5.90323754642441e-05)
(-1.38886159756118e-05 0.000830654757352349 -2.9257824682497e-05)
(-3.85200426462879e-06 0.000689630451693189 -2.358543247319e-05)
(-4.82218947904572e-06 0.000779675502660248 -5.54581058512128e-05)
(-1.26137877556086e-05 0.000770499568075865 -2.87970669409768e-05)
(-2.87722750215422e-06 0.000639061675061129 -7.91526147480767e-05)
(-1.45448735889633e-05 0.00088084291943999 -7.04781115316949e-05)
(-2.25383677654478e-05 0.000883344504616554 -3.14028208781273e-05)
(-3.88423361152046e-06 0.000641816304276741 -2.0776450912388e-05)
(-4.51240554289424e-06 0.00074186721412809 -5.06530652188092e-05)
(-1.1725631879014e-05 0.000714516868704888 -2.75561081931152e-05)
(-2.80488294537355e-06 0.000612832551974622 -7.14927777477252e-05)
(-1.38987173248518e-05 0.000834861492409821 -6.59894639915811e-05)
(-2.14024459908228e-05 0.000819431260185233 -3.08262221733128e-05)
(-1.09399899569614e-06 0.000522900518031622 -9.69165526601784e-05)
(-8.27526536722602e-06 0.000693665309750432 -9.50442333233503e-05)
(-2.30537029585231e-05 0.000937759045848507 -7.9795444111411e-05)
(-3.07324836045785e-05 0.000918450775720371 -3.30452832582851e-05)
(-3.7316103925662e-06 0.000598227012471896 -1.85178013882403e-05)
(-4.38798243118439e-06 0.000706700467603326 -4.49704943838846e-05)
(-1.14446813266547e-05 0.000662001510683553 -2.46325225536312e-05)
(-2.71212388196436e-06 0.000589226101056883 -6.3725368733584e-05)
(-1.32811324755585e-05 0.000791594455686074 -6.02105406852643e-05)
(-2.03592492706084e-05 0.000760068647305783 -2.97681543214251e-05)
(-1.18906076853283e-06 0.000504357461003786 -8.55514720926469e-05)
(-8.30338057035833e-06 0.00066386424851123 -8.6207884231021e-05)
(-2.2628826525616e-05 0.000888227623536861 -7.47444640758509e-05)
(-2.97482934701974e-05 0.000851991539124072 -3.24350177877289e-05)
(1.10947005236272e-07 0.000450111414710782 -0.000114108102218143)
(-3.14414969402918e-06 0.000560532260630358 -0.00011565251352646)
(-1.32896575408671e-05 0.000742951321822874 -0.000109253044073084)
(-3.11897062459249e-05 0.000976576178402506 -8.75727117722165e-05)
(-3.79455999134283e-05 0.000940912078853494 -3.46779124396852e-05)
(-3.45972489092561e-06 0.000559771314559966 -1.67087493596334e-05)
(-4.19516090471316e-06 0.000674987977143104 -3.99627409465297e-05)
(-1.07683254242705e-05 0.000614371282932531 -2.17570611983693e-05)
(-2.64398353159012e-06 0.000567968529354078 -5.62339974991639e-05)
(-1.28526832211152e-05 0.000751430081497623 -5.37160202072491e-05)
(-1.94920997195358e-05 0.00070431853629383 -2.67759520375258e-05)
(-1.23014343806462e-06 0.000487819873265693 -7.50922933016338e-05)
(-8.1558418692346e-06 0.000636187856452387 -7.72462431797006e-05)
(-2.19965654379834e-05 0.000841370185877055 -6.83793672166973e-05)
(-2.85316660715668e-05 0.000790288458483854 -3.13379595134599e-05)
(-9.3936873960532e-08 0.000436073061807489 -9.92387209335122e-05)
(-3.56254204265983e-06 0.000539503984367598 -0.000102799260039766)
(-1.36225573184697e-05 0.000710086373457945 -9.9537686063757e-05)
(-3.10813488863464e-05 0.000924577983407628 -8.21658197072828e-05)
(-3.71334159289093e-05 0.000872506858550559 -3.40054372438723e-05)
(1.00559745108133e-06 0.000394385940025688 -0.000130316235334345)
(4.81937653551443e-07 0.000475615275664307 -0.000135000295086376)
(-4.98426416981625e-06 0.000597311282727886 -0.000133117770873142)
(-1.84115119928778e-05 0.000780716183516496 -0.000121191174478164)
(-3.86036458926199e-05 0.00100686013547323 -9.38021806073237e-05)
(-4.38918324366446e-05 0.000957165262041023 -3.58846342743878e-05)
(-3.17742064065668e-06 0.000525185767256927 -1.52334554805056e-05)
(-3.95761893898991e-06 0.000646675768675986 -3.57092357409712e-05)
(-9.89390095437898e-06 0.000572519474714712 -1.95120755960156e-05)
(-2.54443716237071e-06 0.00054910301325031 -4.96473304446208e-05)
(-1.22472198389287e-05 0.000715378725898891 -4.78845402066459e-05)
(-1.82207907036453e-05 0.000653613513436361 -2.34754390384209e-05)
(-1.24895174344357e-06 0.000473442451670524 -6.56307337159166e-05)
(-7.955122430784e-06 0.000611155325241913 -6.85647981514914e-05)
(-2.12704648256696e-05 0.000797762740842512 -6.12621764613359e-05)
(-2.72295571690046e-05 0.000732306054142032 -2.81873326682031e-05)
(-2.35334967622643e-07 0.000423752958302318 -8.60546553890193e-05)
(-3.75538184364548e-06 0.0005202311394299 -9.09086003607386e-05)
(-1.35993354872467e-05 0.000679341073714675 -8.96484187914422e-05)
(-3.04995867498992e-05 0.000875235913504767 -7.53690710969337e-05)
(-3.58165306489536e-05 0.000808972214663215 -3.28177293523918e-05)
(7.13781412636732e-07 0.000383788216212579 -0.000112161892465464)
(-2.25236474983506e-07 0.000459793870679896 -0.000118370148475172)
(-5.85837311647105e-06 0.000573929220793334 -0.000119076775257035)
(-1.90905842722556e-05 0.000745419274530344 -0.000110852811361565)
(-3.8812008586246e-05 0.000952654433777291 -8.82612027627564e-05)
(-4.32127205476795e-05 0.000887006075224707 -3.52824040492414e-05)
(1.81199128147746e-06 0.000345033719450311 -0.000145629474932318)
(3.33533536208665e-06 0.000412772969965056 -0.000152789382981691)
(1.09785977411798e-06 0.000502614590920977 -0.000154744224370611)
(-7.07069948855162e-06 0.000628762851636277 -0.000148059813113751)
(-2.33821460494128e-05 0.000811594890857649 -0.000130717301186201)
(-4.5529873507119e-05 0.00103439950398419 -9.87769179854221e-05)
(-4.85332198402545e-05 0.000972877873443053 -3.67763716322607e-05)
(-2.88746062583896e-06 0.000493846700409578 -1.40308930114755e-05)
(-3.68569711997865e-06 0.000621115873189402 -3.22606493511038e-05)
(-8.98913536646924e-06 0.000534986974941566 -1.78527353294671e-05)
(-2.41849809648606e-06 0.000532307302189755 -4.40916826225949e-05)
(-1.15417277493103e-05 0.000683287762508336 -4.28825474094838e-05)
(-1.67481888488082e-05 0.000609043984854381 -2.09733159335934e-05)
(-1.23976022832254e-06 0.000461026907639808 -5.74695010339745e-05)
(-7.65599395821994e-06 0.00058894198403642 -6.08273745588008e-05)
(-2.02840439981972e-05 0.000758550726038083 -5.47652866942888e-05)
(-2.55172658858463e-05 0.000679443253439447 -2.46285990684376e-05)
(-3.37634363155239e-07 0.000413371625752655 -7.44968572356681e-05)
(-3.82417475435657e-06 0.000503340577316923 -8.00245830041783e-05)
(-1.33509321124574e-05 0.00065136624966754 -7.9989889270679e-05)
(-2.95934303484428e-05 0.000829233273864984 -6.7738655097339e-05)
(-3.41714908485281e-05 0.000749257190049946 -2.95415401582524e-05)
(4.86376666953862e-07 0.000374726868101292 -9.62982895785287e-05)
(-7.00748542603612e-07 0.000445556636028856 -0.000103547786710761)
(-6.33885478705473e-06 0.000552322411080469 -0.000106000208729061)
(-1.92536353217773e-05 0.000712316223981391 -0.000100274345366153)
(-3.83288619053194e-05 0.000901089295798599 -8.11948194962169e-05)
(-4.18419243374468e-05 0.000821811465119352 -3.40791127746879e-05)
(1.42552251796102e-06 0.000337526462072304 -0.000124251438108786)
(2.36180836311446e-06 0.000400795002577257 -0.000132684353926666)
(-2.29876442035292e-07 0.000484968064603374 -0.000136679430004242)
(-8.40961679172052e-06 0.00060328134818099 -0.00013315084271047)
(-2.44069143763909e-05 0.000774124213373545 -0.000120083430161522)
(-4.59656433562724e-05 0.00097788228721091 -9.32859686823574e-05)
(-4.78813114116117e-05 0.000900913696348132 -3.62927964232961e-05)
(2.6386933886315e-06 0.000298112549427282 -0.000160172855107098)
(5.96956105701818e-06 0.000359120080211243 -0.000169383721615295)
(6.06924414324642e-06 0.000433533772940777 -0.000174110984120288)
(1.55364349687596e-06 0.000527927184629133 -0.000171839485256112)
(-9.3355585798396e-06 0.000656248496996581 -0.000160032488232256)
(-2.83910196279768e-05 0.000839596407035652 -0.000138433464944388)
(-5.20755524899135e-05 0.00106255222819357 -0.000103212862194878)
(-5.19028091376454e-05 0.000990660241701542 -3.7600102249847e-05)
(-2.57107483425418e-06 0.00046531048190837 -1.30781772385154e-05)
(-3.38839489071993e-06 0.000597917404686742 -2.95555861046813e-05)
(-8.08445111142235e-06 0.000501006266047725 -1.6449497218684e-05)
(-2.26883125449247e-06 0.000517227053594793 -3.96103355440361e-05)
(-1.07309173926468e-05 0.000654353866296862 -3.87806123292855e-05)
(-1.520264407585e-05 0.000569054069236308 -1.92544988858855e-05)
(-1.20900761598322e-06 0.000450156941697085 -5.06825494498972e-05)
(-7.28450082073782e-06 0.000569154172977295 -5.42132681880089e-05)
(-1.91337234222186e-05 0.000723590480467668 -4.91612132873512e-05)
(-2.35038714262002e-05 0.000632970150030149 -2.19540071901325e-05)
(-4.07633047784872e-07 0.000404671684175427 -6.46767167692283e-05)
(-3.80084263564298e-06 0.000488693158193186 -7.05089208345001e-05)
(-1.29155786303128e-05 0.000626455912746705 -7.12771113343863e-05)
(-2.83209432969229e-05 0.000787801883000251 -6.06879829889568e-05)
(-3.20755972292378e-05 0.000694763909550177 -2.58038505544101e-05)
(3.05283858517846e-07 0.000367363266140956 -8.26009192806237e-05)
(-1.02650315506893e-06 0.000433438733451692 -9.03950430064809e-05)
(-6.55672062354087e-06 0.000533215458893539 -9.39026305103881e-05)
(-1.90308091764185e-05 0.000682057901450742 -8.98482694779997e-05)
(-3.73129511404887e-05 0.000852975933520783 -7.31879826816093e-05)
(-3.99135309634548e-05 0.000760531058872194 -3.07485087307633e-05)
(1.10747844043321e-06 0.000331406394545325 -0.000105708348376017)
(1.61612839027744e-06 0.000390283615414477 -0.000115022246523307)
(-1.16082026099725e-06 0.00046893167485098 -0.000120477716550318)
(-9.23184157945413e-06 0.000579657422484069 -0.00011918132736903)
(-2.47791405414771e-05 0.000738909906022147 -0.000109091681286529)
(-4.55335621224126e-05 0.000924033309647693 -8.61075886823994e-05)
(-4.63849566775528e-05 0.000833978738947127 -3.51105134500564e-05)
(2.14124024808653e-06 0.000293605500446973 -0.000135505824263545)
(4.69356760234771e-06 0.000350492322653245 -0.000145905729001824)
(4.28030351075475e-06 0.000420054266062861 -0.000152405846008936)
(-4.11151139064215e-07 0.000508480628737853 -0.000152726503939166)
(-1.11199756805497e-05 0.00062876918987098 -0.00014468099111553)
(-2.9674131647911e-05 0.000799944626047304 -0.000127778872480966)
(-5.2583408974057e-05 0.00100352885350972 -9.78740960168131e-05)
(-5.11100237184016e-05 0.00091672625862047 -3.72595320209724e-05)
(3.5571149872369e-06 0.000251938570872318 -0.000174144706341482)
(8.6808772570762e-06 0.00030913190736015 -0.000185103950669173)
(1.07593607253728e-05 0.000375896169914062 -0.000191913865194098)
(8.82594201067337e-06 0.000454443331163116 -0.000192722150460651)
(1.69088354872102e-06 0.000551771331311428 -0.000185648910936641)
(-1.1962780785644e-05 0.000681916426474942 -0.000169741379885348)
(-3.36087016589364e-05 0.000867557363835775 -0.000145435058507276)
(-5.8240859764768e-05 0.00109337729964067 -0.000107730863079199)
(-5.39217844917481e-05 0.00101076322276196 -3.85508838760778e-05)
(-2.20245587272541e-06 0.000439186699585396 -1.23257970961056e-05)
(-3.07143663306675e-06 0.000576731356730006 -2.75298151010134e-05)
(-7.13815421065624e-06 0.000470078817614781 -1.53131556377519e-05)
(-2.09765608454424e-06 0.000503602646400625 -3.61529574735708e-05)
(-9.83719307584549e-06 0.000628115101716361 -3.54987057633281e-05)
(-1.35967179507007e-05 0.000532812076643866 -1.77645701667299e-05)
(-1.15626860262711e-06 0.000440532948774762 -4.52641744743584e-05)
(-6.83543313116572e-06 0.000551364050553454 -4.87879813140817e-05)
(-1.78211841465047e-05 0.000692016620119558 -4.45519289303604e-05)
(-2.13435636778436e-05 0.000591234344489334 -2.01796174100181e-05)
(-4.52353959688479e-07 0.000397244406441117 -5.66073818070121e-05)
(-3.70863948691903e-06 0.000475815357920612 -6.247281645128e-05)
(-1.23441283859426e-05 0.000604201061743857 -6.3745027565582e-05)
(-2.67642111832454e-05 0.00075082222078741 -5.45785646125904e-05)
(-2.96295716256426e-05 0.00064679864763512 -2.29954790001951e-05)
(1.63211898649716e-07 0.000361438625710956 -7.10889481952114e-05)
(-1.24977643568022e-06 0.000423209358737958 -7.90681113255467e-05)
(-6.59704136492545e-06 0.000516545206316696 -8.32003512642717e-05)
(-1.85086978497588e-05 0.000655041401006643 -8.03500990404713e-05)
(-3.58183344090463e-05 0.00080960228409823 -6.57400764673829e-05)
(-3.74560170228789e-05 0.000704577389268072 -2.69299225532661e-05)
(8.44150722292806e-07 0.000326748338110908 -8.98444431427448e-05)
(1.03484335129896e-06 0.00038162501328207 -9.9595979322872e-05)
(-1.81113842334841e-06 0.000455129986542627 -0.000105947091672588)
(-9.65593568063817e-06 0.000558618670086572 -0.000106132462922467)
(-2.46161916977177e-05 0.000706636460727866 -9.81415107356138e-05)
(-4.43972940871301e-05 0.000873765399946115 -7.78747466867224e-05)
(-4.41445409353805e-05 0.000771042434025923 -3.1769477252119e-05)
(1.72016319389286e-06 0.000290349422613999 -0.000114236179372405)
(3.65434177467766e-06 0.000343216190712304 -0.000125430158713355)
(2.89009300040488e-06 0.000408079226657128 -0.000133228285349254)
(-1.8589805021227e-06 0.000490726953219393 -0.00013548836576922)
(-1.22815432323405e-05 0.000603228246541117 -0.000130180988572601)
(-3.01947152742679e-05 0.000762624337492248 -0.000116608165737461)
(-5.20866024431231e-05 0.00094720667718406 -9.06665471675611e-05)
(-4.94035219807567e-05 0.000847845630160858 -3.61102106144981e-05)
(2.92337786149452e-06 0.000250491546265427 -0.000146021199173458)
(7.04549078537904e-06 0.000303710575725536 -0.000158191450100692)
(8.437743896213e-06 0.000365975754548094 -0.000166716044929647)
(6.17882682481713e-06 0.000439367151503842 -0.000169849220526028)
(-8.84158093533594e-07 0.000530484804243102 -0.000165986831539234)
(-1.40904944356752e-05 0.000652397397520923 -0.000154304140602007)
(-3.50028144494642e-05 0.000825598116457301 -0.000134915721700632)
(-5.86248275009597e-05 0.00103159703995549 -0.00010257744350058)
(-5.28312209820564e-05 0.000934703320215311 -3.84694980212066e-05)
(4.60466043180244e-06 0.000205487584660683 -0.000187765709424553)
(1.16600398772159e-05 0.000260309495003224 -0.000200227858444989)
(1.56532890085547e-05 0.000323024159902997 -0.000208689498271723)
(1.58157226431649e-05 0.000393759077664995 -0.000211680190205833)
(1.12358207494171e-05 0.000475487928008856 -0.000207875638792828)
(1.23408931656428e-06 0.000575151301299418 -0.000196919804968666)
(-1.51933781281438e-05 0.000707846498586878 -0.000178500164870667)
(-3.91473016631093e-05 0.000897498577251695 -0.000152627655851444)
(-6.39408439488985e-05 0.00112826345357503 -0.00011273889599977)
(-5.42498236548749e-05 0.00103295046363485 -4.00998473097552e-05)
(-1.77925189006999e-06 0.00041514903650557 -1.17470614926303e-05)
(-2.73550276693799e-06 0.000557233380531167 -2.61031529597585e-05)
(-6.06353902822896e-06 0.000441785974954442 -1.44386870896802e-05)
(-1.91029407355408e-06 0.000491182762729122 -3.36420454376129e-05)
(-8.85127935590467e-06 0.000604174533985714 -3.2983961072669e-05)
(-1.19259028544609e-05 0.000499746580735503 -1.65071569388014e-05)
(-1.08326051649999e-06 0.000431918452681445 -4.11462398070585e-05)
(-6.31265712720328e-06 0.000535275339110551 -4.44908751134595e-05)
(-1.63248225123681e-05 0.00066336316155999 -4.0907959843319e-05)
(-1.90442106522401e-05 0.000553392408174566 -1.86489840521689e-05)
(-4.72160834813614e-07 0.000390802735483471 -5.02350170346442e-05)
(-3.54533678518489e-06 0.000464364888678636 -5.5928898753473e-05)
(-1.16348427254246e-05 0.000584137305688938 -5.74940141977014e-05)
(-2.49768817675711e-05 0.000717404193060916 -4.95328515010333e-05)
(-2.6903538259351e-05 0.000603724269396521 -2.11473186117684e-05)
(5.2957130655396e-08 0.000356574404630416 -6.1718954375945e-05)
(-1.39188903034211e-06 0.000414409591461675 -6.9609626027004e-05)
(-6.49833810856927e-06 0.000501813854451567 -7.40491512620158e-05)
(-1.77532574985196e-05 0.000630851320529156 -7.20688472905253e-05)
(-3.39276888312484e-05 0.000770872249791353 -5.92578389264206e-05)
(-3.45721775422203e-05 0.000655283734935601 -2.40542143451404e-05)
(6.29086874085455e-07 0.000323298965105623 -7.66229302626911e-05)
(5.77445488219982e-07 0.000374571428463184 -8.64592470731644e-05)
(-2.26568286586008e-06 0.000443377628100267 -9.32877646994633e-05)
(-9.79491750908615e-06 0.000540175629507091 -9.44735052645654e-05)
(-2.40340384468382e-05 0.000677775406362701 -8.8080852171364e-05)
(-4.26708799350697e-05 0.000828434242018534 -7.01712713914182e-05)
(-4.13265540246352e-05 0.000713563558461046 -2.79323813526184e-05)
(1.36524832663823e-06 0.000288325912583823 -9.61719650379871e-05)
(2.80265737472243e-06 0.000337539548445867 -0.000107719482414561)
(1.80311159122183e-06 0.000398069469011688 -0.00011630560137692)
(-2.89709748733158e-06 0.00047530590753876 -0.00011988113817423)
(-1.2922509579328e-05 0.000580379151946297 -0.000116505032122865)
(-3.00548221117593e-05 0.000728366001459569 -0.000105350157052947)
(-5.07465564198113e-05 0.000894626730481886 -8.22943358759666e-05)
(-4.68437501874531e-05 0.000783050258131627 -3.280251878834e-05)
(2.37988151236406e-06 0.000250158048579753 -0.00012192028997962)
(5.67135406369235e-06 0.000299526533548731 -0.000134857248298899)
(6.53624340490521e-06 0.000357456776259833 -0.000144616671149533)
(4.06855403083237e-06 0.000425878599200704 -0.000149534623909866)
(-2.8357678662792e-06 0.00051098141081668 -0.000148133375769534)
(-1.5510675363093e-05 0.00062490789237399 -0.000139570725486371)
(-3.55439771689055e-05 0.000786060225230894 -0.000123692265071232)
(-5.79059861028101e-05 0.000972566305901222 -9.53615674947632e-05)
(-5.07851770621813e-05 0.000863710841679295 -3.74712889564005e-05)
(3.80439892381117e-06 0.000207298268324613 -0.000155923430220135)
(9.58933023201422e-06 0.000258145882876651 -0.00016969942627168)
(1.26866521792929e-05 0.000316473769384303 -0.000179946938459187)
(1.23700117893255e-05 0.00038237415143288 -0.000185231209041423)
(7.7629006414603e-06 0.000458674411847871 -0.000184386726334294)
(-1.83179880533639e-06 0.000551915109898755 -0.000177123096296595)
(-1.75056940244767e-05 0.000676157483439086 -0.000163183676158671)
(-4.0471228573498e-05 0.00085304729731602 -0.000142304139803031)
(-6.40043330969433e-05 0.00106346543540294 -0.000107768775578741)
(-5.27402541343982e-05 0.00095456751187575 -4.0121545410465e-05)
(5.80624484725085e-06 0.000157898504850634 -0.000201231959536275)
(1.50305089592145e-05 0.000211275995536298 -0.000214998709923759)
(2.10445151060932e-05 0.000271747070215016 -0.000224809861255091)
(2.31753349405662e-05 0.000338572858809373 -0.000229419496565371)
(2.05780758343272e-05 0.000412735547125086 -0.000227868317482674)
(1.28745227951735e-05 0.000497108407077087 -0.000220310618064137)
(-1.39717605536822e-07 0.000599379827064623 -0.000207057806825852)
(-1.92267696643956e-05 0.000735673674870085 -0.000187410811188891)
(-4.50667021110105e-05 0.000930905555019643 -0.000160619953594118)
(-6.89715600108833e-05 0.00116843336601289 -0.000118589526300542)
(-5.21755512576437e-05 0.0010571925208018 -4.20025454773747e-05)
(-1.3281731586272e-06 0.000392859630467627 -1.13300835777854e-05)
(-2.39637115952594e-06 0.000539087759459419 -2.52191113865527e-05)
(-4.88210544671707e-06 0.000415734564156805 -1.37817190660542e-05)
(-1.7199257323995e-06 0.000479713234690835 -3.19963729651034e-05)
(-7.78600897114311e-06 0.000582171975325873 -3.10592547035627e-05)
(-1.02035269963476e-05 0.000469406008234913 -1.53361858428172e-05)
(-9.96759137051093e-07 0.000424094058384324 -3.82298585332392e-05)
(-5.73644735263839e-06 0.000520617562724228 -4.12345858012589e-05)
(-1.45633046818348e-05 0.000637190692749378 -3.83491568602513e-05)
(-1.66053723299742e-05 0.000518791633616447 -1.73429384852078e-05)
(-4.70402435367956e-07 0.000385115036631528 -4.54553712192238e-05)
(-3.31696297820372e-06 0.000454087680609028 -5.08048999877744e-05)
(-1.07988031207629e-05 0.000565970159471249 -5.24637708992632e-05)
(-2.29469394880676e-05 0.000687049052041235 -4.55357866189851e-05)
(-2.39335189030428e-05 0.000564626998321363 -1.9564499051049e-05)
(-2.64362286852854e-08 0.000352496684512126 -5.4386530325654e-05)
(-1.45465753711943e-06 0.000406723445934236 -6.19769667568905e-05)
(-6.26653684576958e-06 0.000488662459200396 -6.64882486263288e-05)
(-1.67910360774111e-05 0.000609009643781352 -6.51351364895986e-05)
(-3.16910789891393e-05 0.000735861421141824 -5.39150383810111e-05)
(-3.13364309352811e-05 0.000610987371504339 -2.21459807545922e-05)
(4.55237697316831e-07 0.000320706848247385 -6.59467980012642e-05)
(2.23909252652954e-07 0.000368700781730629 -7.55927308844838e-05)
(-2.56227783067662e-06 0.000433190253160653 -8.25790824310364e-05)
(-9.70446818721604e-06 0.000523815015175878 -8.44069270773234e-05)
(-2.31163016304163e-05 0.000651895596134999 -7.92442452462373e-05)
(-4.04396240335086e-05 0.000787930987178167 -6.34727233381318e-05)
(-3.8058449973937e-05 0.000662882118191614 -2.50173180886114e-05)
(1.07087627540036e-06 0.000287281583606444 -8.12245056964131e-05)
(2.10487889720555e-06 0.000333211945258561 -9.27685821397267e-05)
(9.47128759542498e-07 0.000389806101311802 -0.000101728931798848)
(-3.62574441276973e-06 0.000462082376701332 -0.000106144183065021)
(-1.3160061259032e-05 0.00056028685051439 -0.000104172556145746)
(-2.93839404156361e-05 0.000697692169080324 -9.49158817202525e-05)
(-4.87261410488139e-05 0.000847183409069376 -7.44282435157564e-05)
(-4.36756794560541e-05 0.000723929488253343 -2.90364363224963e-05)
(1.91817963392791e-06 0.000250820916698453 -0.000101594487155162)
(4.51888848019974e-06 0.000296697762182643 -0.000114828153243089)
(4.97702582379308e-06 0.000350647170494461 -0.00012531172484368)
(2.40024911340709e-06 0.000414463959459351 -0.000131445597172898)
(-4.25928518023428e-06 0.000493932027896888 -0.00013182256080107)
(-1.63084760427524e-05 0.000600243301885541 -0.000125531742816803)
(-3.53321614509645e-05 0.000749727516795567 -0.000112243995688101)
(-5.62494050545484e-05 0.000917437113319484 -8.68631842689735e-05)
(-4.78877542019976e-05 0.00079689193381946 -3.4177675885965e-05)
(3.11475669650209e-06 0.000210064934299108 -0.000128824497602502)
(7.82089637419574e-06 0.000257096330893661 -0.000143391039914143)
(1.01898768605094e-05 0.000311220698380971 -0.000154886418585945)
(9.50717042132477e-06 0.000372484925107337 -0.000161917009368855)
(4.94850708722017e-06 0.00044354829958889 -0.000163398984205443)
(-4.18907964675731e-06 0.000530566247719593 -0.000158997898382581)
(-1.90472789567984e-05 0.000646606805682147 -0.000148386323332142)
(-4.08777388730591e-05 0.000811116061222763 -0.000131072536840187)
(-6.2905192342654e-05 0.0010014348116132 -0.000100529045865187)
(-5.02291544721954e-05 0.000881308809095618 -3.9070309627441e-05)
(4.80197322502229e-06 0.000163316377968837 -0.000165318695644976)
(1.24273651734156e-05 0.000212579728411891 -0.000180572452962634)
(1.72925648204309e-05 0.000268610476279977 -0.000192336843521296)
(1.87606255585115e-05 0.000330661840993751 -0.00019935962697317)
(1.60299658488543e-05 0.000399678052939563 -0.000200762900472893)
(8.70871868521659e-06 0.000478391105433557 -0.000196668688054446)
(-3.51781218346341e-06 0.000574040691435202 -0.000187376186874972)
(-2.15340541385758e-05 0.000701641452585147 -0.000172299841478901)
(-4.61242807559249e-05 0.000883744647895435 -0.000150496356842422)
(-6.85074810523793e-05 0.00110033544426143 -0.000113736061501779)
(-5.02616949343228e-05 0.000976306522783983 -4.18053598493994e-05)
(7.1929680521239e-06 0.000108342636438757 -0.000214649821804726)
(1.88932063763141e-05 0.000161036837138089 -0.000229594836329072)
(2.71415238595842e-05 0.000220371491078194 -0.000240538686807281)
(3.13144500696375e-05 0.000285292759411019 -0.00024638838124698)
(3.05087620661526e-05 0.000355898441424003 -0.000246429875661039)
(2.44279108016354e-05 0.000433011828700374 -0.000241165777201958)
(1.33330972927072e-05 0.000520081636837927 -0.000231464308714825)
(-2.6890776195192e-06 0.000625602826921248 -0.000217276897391396)
(-2.42261729475889e-05 0.000766584205162605 -0.000197200497329511)
(-5.13675194669858e-05 0.00096891996530381 -0.000169856568612717)
(-7.2974216903642e-05 0.00121528865921011 -0.000125886012326819)
(-4.71646293901162e-05 0.00108382061943281 -4.43264718067732e-05)
(-9.13467551497764e-07 0.000371959881428402 -1.10267680182465e-05)
(-2.04576408519718e-06 0.000521996949627881 -2.47978676648044e-05)
(-3.57720461362712e-06 0.000391615431633383 -1.32431198698102e-05)
(-1.52451843131984e-06 0.000468942194562453 -3.11346933812147e-05)
(-6.8266188852758e-06 0.000561695321396639 -2.96967028697778e-05)
(-8.33571107484654e-06 0.000441379704958522 -1.46483872138565e-05)
(-9.0033738678039e-07 0.000416846563434779 -3.64152226786011e-05)
(-5.14828059771028e-06 0.000507106496113609 -3.89185853697175e-05)
(-1.29813306736054e-05 0.000613225516142149 -3.58094851944861e-05)
(-1.41290673569732e-05 0.000486988919299371 -1.61269594549877e-05)
(-4.52610117746573e-07 0.00037997893944421 -4.21402429316215e-05)
(-3.04005878002354e-06 0.000444750559382875 -4.69933329511754e-05)
(-9.8618544563199e-06 0.000549424820611615 -4.85681774524072e-05)
(-2.06572986605182e-05 0.000659317510459843 -4.25690409347201e-05)
(-2.08290956968985e-05 0.000528878021796663 -1.80828196289413e-05)
(-7.99280839878235e-08 0.000348979524788394 -4.89479199893742e-05)
(-1.4456028725952e-06 0.000399905270077972 -5.60680281941471e-05)
(-5.91601706009227e-06 0.000476830662384319 -6.04481630287564e-05)
(-1.56511320597764e-05 0.00058921713998922 -5.94879389327018e-05)
(-2.90903389983635e-05 0.000704047058913183 -4.97686974885952e-05)
(-2.78413893330497e-05 0.000570777114717251 -2.03629259712534e-05)
(3.19548867299476e-07 0.000318712898255097 -5.76602462381681e-05)
(-3.20404637576774e-08 0.000363714921396625 -6.69008578431293e-05)
(-2.71151543416203e-06 0.000424235174383003 -7.37982312618243e-05)
(-9.40791748405745e-06 0.000509166871880435 -7.59962051030994e-05)
(-2.19143397799459e-05 0.000628511701190992 -7.17872576275202e-05)
(-3.7730658910481e-05 0.000751289443497047 -5.80937891716866e-05)
(-3.44059766933751e-05 0.00061734636454458 -2.30434442593101e-05)
(8.28815856239257e-07 0.000286885523999806 -6.92405046563921e-05)
(1.54009691885775e-06 0.000329844654322338 -8.05022455091981e-05)
(2.86662769421207e-07 0.000382841270530405 -8.95121791876322e-05)
(-4.09828713901823e-06 0.000450552389908675 -9.43966548697205e-05)
(-1.3071242727071e-05 0.000542417213608704 -9.34278521951837e-05)
(-2.82873891970603e-05 0.000670170630798909 -8.56824708031681e-05)
(-4.61210302796019e-05 0.000804749593598138 -6.76429405666368e-05)
(-4.00381125423164e-05 0.000671757924942556 -2.62108401388291e-05)
(1.53215788973889e-06 0.00025222251919766 -8.4893968284766e-05)
(3.55924570089801e-06 0.00029496983549002 -9.80485031799582e-05)
(3.69917837032305e-06 0.000345315301919082 -0.000108832151803741)
(1.09052991030935e-06 0.000404935363334496 -0.000115705732569089)
(-5.25474948817365e-06 0.000479231970864143 -0.000117330683106403)
(-1.66001781792149e-05 0.000578500825880568 -0.000112757415661389)
(-3.45083041088145e-05 0.000717161434134876 -0.000101539910427994)
(-5.3869575906926e-05 0.000867678784173024 -7.88366277372845e-05)
(-4.43282455556441e-05 0.000735949618093002 -3.03794427830078e-05)
(2.52698366182182e-06 0.000213567824370194 -0.000106140316115575)
(6.3207602756363e-06 0.000257153194289662 -0.000120974824105015)
(8.09582395595965e-06 0.000307429682001299 -0.000133169334189674)
(7.14705388237497e-06 0.000364419784809667 -0.000141371379239233)
(2.70624885281347e-06 0.000430628146220027 -0.000144547892364394)
(-5.91728317048211e-06 0.000511816280385406 -0.000142283901848048)
(-1.98870861078253e-05 0.000620033934323479 -0.000134132971791337)
(-4.0455225819708e-05 0.00077254838773248 -0.00011947077300417)
(-6.08161771205444e-05 0.000943488534109849 -9.19137435151024e-05)
(-4.69342549302102e-05 0.000812325064433962 -3.56426640389538e-05)
(3.93659138200451e-06 0.000169488517484134 -0.000134995352916035)
(1.01895972214502e-05 0.000214848670337693 -0.000151109001677711)
(1.40895725680599e-05 0.000266655061248084 -0.000164195053544804)
(1.50144348211733e-05 0.000324151330228909 -0.000173015783269554)
(1.22186958116247e-05 0.000388226511284789 -0.0001767328271099)
(5.30394046506967e-06 0.00046147717700322 -0.000175388190402673)
(-6.12356303590926e-06 0.000550708749509463 -0.000169182862672872)
(-2.30241302413052e-05 0.000669865990290753 -0.000157500724663643)
(-4.62266403536402e-05 0.000839181326598336 -0.000139245895210045)
(-6.68752356888687e-05 0.00103496724482573 -0.000106387520636325)
(-4.74248280585202e-05 0.000900641523780582 -4.05175716459883e-05)
(5.93993019354248e-06 0.000117890546118102 -0.000174232147046345)
(1.5638024168349e-05 0.000166177492310544 -0.000190900469742739)
(2.24291395452366e-05 0.00022086226564878 -0.000204045874117345)
(2.57133723515511e-05 0.000280889469823306 -0.000212534969462166)
(2.46519994903782e-05 0.00034635563301766 -0.00021569664677167)
(1.89259152427016e-05 0.000418063166578867 -0.000213918966442967)
(8.67357779848765e-06 0.00049928029597588 -0.000207957986401665)
(-6.16722459960715e-06 0.000597981955236395 -0.000197821561380475)