/*--------------------------------*- C++ -*----------------------------------*\
  =========                 |
  \\      /  F ield         | OpenFOAM: The Open Source CFD Toolbox
   \\    /   O peration     | Website:  https://openfoam.org
    \\  /    A nd           | Version:  12
     \\/     M anipulation  |
\*---------------------------------------------------------------------------*/
/*   Windows 32 and 64 bit porting by blueCAPE: http://www.bluecape.com.pt   *\
|  Based on Windows porting (2.0.x v4) by Symscape: http://www.symscape.com   |
\*---------------------------------------------------------------------------*/
FoamFile
{
    format      ascii;
    class       volScalarField;
    location    "100";
    object      k;
}
// * * * * * * * * * * * * * * * * * * * * * * * * * * * * * * * * * * * * * //

dimensions      [0 2 -2 0 0 0 0];

internalField   nonuniform List<scalar> 
10244
(
0.000472756439667318
0.000472493907933129
0.0013455842341193
0.000474461446876856
0.00047228720339902
0.00134486853899733
0.0004742089775611
0.00197226576573341
0.00134686242939549
0.000476823881492425
0.000472118137723276
0.00134425402476668
0.000474005141852162
0.00197121664801616
0.00134618285513248
0.000476573833044987
0.00247599011134509
0.00197206729735245
0.00134564674910664
0.000474566166632487
0.000471971624980844
0.00134373958600872
0.000473835951652969
0.00197025994097195
0.00134557788941406
0.000476370014525878
0.00247466070694551
0.00197107344445487
0.00134498525674297
0.000474317297630987
0.00290722920073143
0.00247451277154545
0.00196395459572247
0.0013358668233811
0.000466247432362587
0.000471841420840363
0.00134329039609937
0.00047368997661707
0.00196944103743042
0.00134506537749376
0.00047620035868981
0.00247342384858237
0.00197013285294036
0.00134439047005551
0.000474112502740759
0.00290566045376099
0.00247325577435313
0.00196299776863254
0.00133521021176912
0.000465998742216741
0.00328544335835621
0.0029038601346986
0.00246079775374758
0.00194459294383448
0.00131401769153595
0.00045359472956597
0.000471718977300954
0.00134289395972073
0.000473559354144584
0.00196873411703083
0.00134461968632075
0.000476053900035386
0.00247235211764769
0.00196931846513312
0.00134388239176506
0.000473943263023704
0.00290418534722651
0.00247203968151445
0.00196207551034959
0.00133462260239014
0.000465796354866019
0.00328367173084532
0.00290237798233936
0.0024595935220532
0.00194365112606639
0.00131336275466131
0.000453348005461788
0.00361990681665316
0.00327978096954156
0.00288501387834734
0.00243286586665556
0.00191171005952893
0.00128138870904964
0.000438558500143444
0.000471590374221291
0.00134251960470975
0.000473435564948267
0.00196809632292173
0.00134422086399137
0.000475921912166201
0.00247141597076843
0.00196860928450306
0.00134343833731419
0.000473796582394948
0.00290289653535868
0.00247097299063459
0.00196126830645091
0.00133411903393549
0.000465628431497899
0.00328199522930773
0.00290092849879485
0.00245840416123097
0.00194274203077141
0.00131278127117109
0.000453147781421732
0.00361796588721853
0.00327810784789107
0.00288359695813946
0.00243168518136811
0.00191077366052288
0.00128073710913551
0.000438314380805703
0.0039162336934576
0.00361236841523544
0.00325605312563244
0.00284937938328408
0.00239000825197987
0.00186603874607033
0.00124083761192801
0.000421752985781623
0.000471445207850837
0.00134213505512495
0.000473306156834629
0.00196749595940014
0.00134384423635638
0.000475797111672625
0.00247057506625412
0.00196797155750659
0.00134303801744057
0.000473663486905314
0.00290176526223433
0.00247003737818985
0.00196056020254574
0.0013336763402403
0.000465482255124058
0.00328052236906652
0.00289964685935227
0.00245734846532213
0.00194194191813556
0.00131228200482371
0.000452981418035129
0.00361612228255979
0.00327646152288282
0.00288218153547072
0.00243051607258035
0.0019098732567046
0.00128016119184393
0.00043811617350655
0.00391415595365119
0.00361053594028122
0.00325445550388493
0.00284799290133364
0.00238883641666693
0.00186510701903313
0.00124019150215037
0.000421512265396368
0.00417853655149607
0.00390754617207483
0.00358466629084953
0.00321358142734227
0.00279743741183281
0.00233324494663879
0.00180945452464749
0.00119382293764654
0.00040284735462818
0.000471265124512316
0.00134170671157631
0.000473159380263874
0.00196689311158332
0.00134345924196648
0.000475662950090563
0.00246978476067586
0.00196737091234992
0.00134265823471389
0.000473536837671514
0.00290074703562989
0.00246919554034385
0.00195992139801525
0.0013332746498152
0.000465349121997353
0.00327922498502425
0.00289851723942049
0.00245641642300873
0.00194123604202502
0.00131184126087194
0.000452836410905718
0.0036144967485106
0.00327499809250583
0.00288091487063142
0.00242947185036631
0.00190907910226951
0.00127966628276735
0.000437951153043139
0.00391217719704636
0.00360872622889837
0.00325284948136198
0.00284660408270328
0.00238768003056581
0.00186421373062502
0.00123962158630916
0.000421316518276625
0.00417635222487487
0.00390558428771727
0.00358291766751952
0.00321202013304656
0.00279606297159535
0.00233207945080073
0.00180852991713239
0.00119318551831745
0.000402610672854303
0.0044099542269154
0.00416923324226502
0.00387707078076168
0.00353667296082548
0.00315367403767518
0.00273071993265917
0.00226387713980518
0.00174292686735224
0.00114024281763478
0.000381362071894587
0.000471025552019043
0.00134118278169176
0.000472977167672536
0.00196622714128365
0.00134302853930385
0.000475512280834398
0.0024689906826619
0.00196676489557272
0.00134226847503792
0.0004734002796748
0.00289979020796097
0.00246840373839434
0.00195931735755677
0.00133289116386954
0.000465220288105955
0.00327805440997349
0.00289749882064791
0.00245557424310165
0.00194059598941173
0.00131143936236179
0.000452703935513254
0.00361306018193527
0.00327370351615627
0.00287979119535619
0.00242854475935021
0.00190837591509565
0.00127922829034123
0.000437806895211121
0.00391042781201508
0.00360711164156036
0.00325140457888033
0.0028453532662131
0.0023866451686002
0.00186342535881198
0.00123913139892842
0.000421153088015584
0.00417426805725593
0.00390364219487242
0.00358115312648209
0.00321044604548955
0.00279469104437233
0.00233093275033658
0.00180764495436688
0.00119262325432884
0.000402418360236888
0.00440769110680301
0.00416717014225927
0.00387519900939862
0.0035349655499903
0.00315212783040997
0.00272935381363894
0.00226272100251921
0.0017420133229293
0.00113961792053665
0.000381132619970902
0.00461291734524459
0.00440030132971175
0.00413694040069681
0.00382497747767065
0.00347021228369147
0.00307824951744998
0.00265030343618347
0.00218235147070492
0.00166636001767683
0.00107942400185309
0.000356994651962729
0.000470695789990228
0.00134049647930173
0.000472734601034191
0.00196542560977624
0.00134250157620856
0.000475324772363004
0.00246812278176569
0.0019660963473504
0.00134183040195481
0.000473246194130037
0.00289883137155631
0.00246760787335988
0.00195870473845432
0.0013324955187034
0.000465084509344873
0.00327695360789725
0.00289654112814553
0.00245477909381873
0.00193998736547196
0.00131105337866848
0.000452575351996142
0.00361176134691802
0.00327253376299029
0.00287877375875594
0.00242770270425393
0.00190773544328413
0.00127882731234384
0.000437674563645461
0.00390887784536664
0.00360567896724273
0.00325011806766481
0.00284423742221331
0.002385723143603
0.00186272580060261
0.00123869656156326
0.000421009267610775
0.00417242107867558
0.00390190472664112
0.00357955963482499
0.00320902070786159
0.00279345316630671
0.00232990624910714
0.00180686374513733
0.00119213912640254
0.000402257415174144
0.00440552832893434
0.00416512440833541
0.00387330552206689
0.00353323705057801
0.00315057431408249
0.00272799444947756
0.00226158539513817
0.00174114037118507
0.00113906702700719
0.0003809456603553
0.00461060046649378
0.00439816301550845
0.00413497174624309
0.00382315053634647
0.00346852254067634
0.00307671359786449
0.00264894897006143
0.00218121038929764
0.00166546436222989
0.00107881794352277
0.000356775522452596
0.00478945356581334
0.00460302023399457
0.00436678905929359
0.00408188395844967
0.00375336453907642
0.00338744747180664
0.00298828986624332
0.00255628700570321
0.00208838937493368
0.00157921314930354
0.00101074836927664
0.000329585644436212
0.000470237001250681
0.00133956176327393
0.000472400788695578
0.00196439313629289
0.00134181142557911
0.000475074898558078
0.00246708952491868
0.00196529188696471
0.00134129319340066
0.000473053688943882
0.00289778854796275
0.00246673781549156
0.00195802695475996
0.00133204919913507
0.000464927984116509
0.00327585222602446
0.00289558108837992
0.00245397682359702
0.00193936647225524
0.00131065307829435
0.000452438772542887
0.00361053882959323
0.00327143310276599
0.00287781344482891
0.00242690339927242
0.0019071231853974
0.00127844040557267
0.000437546000997372
0.00390747332959688
0.00360438165179942
0.00324895070677329
0.00284322187142811
0.0023848819768478
0.00186208652553307
0.00123829719048993
0.000420877283024873
0.00417078093612095
0.00390035908445544
0.00357813655557843
0.00320774449402617
0.00279234504147597
0.0023289899016247
0.00180616961458653
0.00119170885177049
0.000402115946840413
0.00440360780418193
0.0041632900385343
0.00387159072325694
0.0035316658057474
0.00314916500291337
0.00272676775490354
0.00226056884180481
0.00174036983742114
0.00113859239452543
0.000380788591314143
0.00460838297298884
0.00439603984701028
0.00413297678644015
0.00382129591998858
0.00346681747126283
0.00307517526778976
0.00264760351184895
0.00218009066945014
0.0016646095194496
0.00107828450299727
0.000356596545300795
0.00478710391160519
0.0046008300512228
0.00436474789934573
0.00407996246957761
0.00375155704130249
0.00338576960787882
0.00298676760333084
0.0025549508558983
0.00208727135353553
0.00157834456002134
0.00101016905253057
0.000329379921123762
0.00494146154384639
0.00477935253312576
0.00456863972270471
0.00430956191011723
0.00400627305200216
0.00366456497278468
0.00328935486443063
0.00288367790788378
0.00244819223370521
0.00198145463518881
0.00148091776181139
0.000933800029446052
0.000299087354178192
0.000469599944844218
0.00133826738078335
0.000471936527405973
0.00196300455419737
0.00134087186654039
0.000474731143228794
0.00246577202320864
0.00196425560701225
0.00134058898142423
0.000472796676312103
0.00289655678474805
0.00246570220041284
0.00195720992861129
0.0013315002290181
0.000464732245699198
0.00327465914992265
0.00289453726626914
0.00245309712543246
0.00193867638859944
0.00131019922207
0.000452281419632816
0.00360931560339693
0.00327033138322017
0.00287684744185712
0.00242609258305861
0.00190649512553134
0.00127803749201508
0.000437409637500952
0.00390614936927494
0.00360315969931629
0.00324784838547866
0.00284225834138522
0.00238407941478875
0.00186147291467532
0.0012379108317513
0.000420748780862252
0.00416929180413234
0.00389895645808612
0.00357684254449741
0.00320658059748189
0.0027913321297852
0.00232815131734768
0.00180553394420129
0.00119131302440626
0.000401985661705878
0.0044018987578804
0.00416165450817816
0.00387005539741042
0.00353025470756287
0.0031478987952801
0.00272566763979705
0.00225966044049716
0.00173968473067273
0.0011381702837912
0.000380651371879717
0.00460641023540101
0.00439413228723793
0.00413116592016864
0.0038196049940619
0.0034652645030079
0.00307377963790947
0.00264638955585119
0.00217908843959642
0.0016638551588446
0.00107782477209577
0.000356446370016308
0.0047848526503847
0.00459865288788803
0.00436267671500602
0.0040780080632675
0.00374972775628414
0.00338408176058574
0.00298524561981397
0.00255362481849057
0.00208617517904422
0.00157751646918893
0.00100966082210536
0.000329212272190983
0.00493909711245668
0.00477713061553139
0.00456654804549549
0.00430756914412457
0.00400437191081902
0.00366277031726596
0.00328769214373638
0.00288217655703313
0.00244688354634631
0.0019803699484899
0.00148008687280744
0.000933256644549203
0.000298898872092924
0.00507088109376427
0.00493118079579457
0.004744328008524
0.00450978642411471
0.00423083652895971
0.00391256505352954
0.00355961710562073
0.00317571265646629
0.00276377228892234
0.00232541127041916
0.0018610225060478
0.00137102940500276
0.000848341395866379
0.000265522527543269
0.000468717925650946
0.00133647827436002
0.000471291184871151
0.00196110157964077
0.00133957188350689
0.00047425350262263
0.00246401650702559
0.00196286265526393
0.00133963047140809
0.000472442854768628
0.00289499689841476
0.00246438188788621
0.00195615674294007
0.00133077910041546
0.000464470798151316
0.00327325554036125
0.00289330388422375
0.00245204807791375
0.00193784221181702
0.00130963954101577
0.000452084060555622
0.00360799339817793
0.0032691378258038
0.00287579417417931
0.0024251994804013
0.00190579388050752
0.00127757916760532
0.000437252684270173
0.00390482457101377
0.00360193690605423
0.00324674125122692
0.00284128408573009
0.00238326098976903
0.00186084085275972
0.00123750793911499
0.000420613012434702
0.00416788553987059
0.00389763336785839
0.00357561939229207
0.00320547595502908
0.00279036628652722
0.0023273480964691
0.00180492225705008
0.00119092955401107
0.000401859064192196
0.00440034375376318
0.00416016722125364
0.00386865636487187
0.00352896512829714
0.00314673906548858
0.00272465902742068
0.00225882755996182
0.00173905672585947
0.00113778199232377
0.000380525114241165
0.00460465116680209
0.00439242792484002
0.0041295408906342
0.00381808247401135
0.00346386499258209
0.00307252348418013
0.0026452998669962
0.00217819245785782
0.00166318444215266
0.00107741629978179
0.00035631536071595
0.00478284619489049
0.00459669330677653
0.00436079292936451
0.00407622183895397
0.0037480564711093
0.00338254432409572
0.00298386513189587
0.00255242857219034
0.00208519428652999
0.0015767860815612
0.00100922314996696
0.000329072064104421
0.00493682931819639
0.00477491986098758
0.00456442332533158
0.00430553926311761
0.00400244382390755
0.00366095955364568
0.0032860224867538
0.00288067687693936
0.00244558569109251
0.0019793075601028
0.001479296020548
0.00093278256353934
0.000298746507101517
0.00506851629897227
0.00492894409335284
0.00474220497651773
0.00450774347305528
0.00422886426579584
0.00391067705081535
0.00355783846523287
0.0031740727383621
0.00276230184608487
0.00232414162657158
0.00185998398279787
0.00137024846305868
0.000847844214279291
0.000265355945943533
0.00517975200112269
0.00506044428399907
0.00489567985672452
0.00468424503754317
0.0044286233674723
0.00413315006094457
0.00380188430974523
0.00343827696298635
0.00304576988656551
0.00262787425805969
0.00218741478407569
0.00172669596649518
0.00124925161479777
0.000754199898321357
0.000228817247008187
0.000467511674060573
0.00133400430321645
0.000470399364416249
0.00195847243446027
0.00133777040758916
0.000473590082060224
0.00246162150053236
0.00196095221809278
0.00133830545303296
0.000471951506247191
0.00289292959267124
0.00246262208110982
0.00195474144962949
0.00132979665235032
0.000464110166168129
0.00327148744010268
0.00289174236055047
0.00245070959158101
0.00193676584095872
0.00130890422045493
0.000451820691557944
0.00360644287753501
0.00326773394632628
0.0028745470782775
0.00242413135128581
0.00190494396439948
0.00127701294393285
0.000437055150850343
0.00390339286723791
0.00360061475046188
0.00324553834889949
0.00284021709473982
0.00238235544794907
0.00186013273601166
0.00123704908981071
0.000420457185518837
0.00416647634341414
0.0038963087886644
0.00357439136249668
0.00320436084589588
0.00278938463509119
0.0023265256536725
0.00180429072680881
0.00119052965003296
0.000401725273749133
0.00439887212811308
0.00415876168964805
0.00386733200305801
0.00352774002936973
0.00314563295487448
0.00272369359518143
0.00225802783916062
0.00173845176396382
0.00113740573550537
0.000380402515577124
0.00460304707897426
0.00439087469147026
0.00412805696612158
0.0038166881372251
0.00346258053974777
0.00307136954156753
0.00264429899730945
0.00217737024896312
0.00166256966636745
0.00107704092665678
0.000356195964834796
0.00478105363998821
0.00459493892752111
0.00435909888095234
0.00407460977257214
0.00374654635753495
0.00338115633758456
0.00298262151492018
0.00255135438561918
0.00208431747373439
0.00157613713866497
0.00100883503070023
0.000328950152095276
0.00493480513188685
0.00477292670648037
0.00456248740649831
0.00430368023071617
0.00400067782514311
0.00365930494355177
0.00328450198422224
0.00287931688707351
0.0024444151663546
0.00197835745294581
0.00147859924388978
0.000932375633662852
0.00029861974195187
0.00506624610793647
0.00492671683420538
0.00474004651981498
0.00450566007105036
0.00422686092143693
0.00390876805126281
0.00355604706198516
0.0031724275386005
0.0027608340393954
0.00232288350205154
0.00185896811075094
0.00136950692031201
0.000847414976809652
0.00026522277862582
0.00517739773746276
0.00505820642003065
0.00489354159341537
0.00468217039616757
0.00442660049312827
0.00413119066093166
0.00380001259330805
0.00343652232307273
0.0030441634390612
0.00262644732017132
0.00218619811740846
0.00172571811254362
0.001248534006249
0.000753760578902663
0.000228677375402391
0.00527019937323009
0.00516918406715406
0.00502460631555647
0.00483467876961843
0.0046011787216855
0.00432772221094574
0.00401770263131404
0.0036740030231089
0.00329973163130937
0.00289874661819948
0.00247541627271684
0.00203382594034936
0.00157822235491918
0.00111538571167702
0.000651114985513789
0.000188789247064709
0.00046588374286399
0.00133062915668143
0.000469180107801848
0.00195486671650556
0.001335285877424
0.000472675045353275
0.00245833257421134
0.00195831715536996
0.00133647037679903
0.00047127010190126
0.00289012236427788
0.00246022214887436
0.0019528016457164
0.00132843967073576
0.000463609346888559
0.00326915336521989
0.00288967277677378
0.00244892554358819
0.00193531991517441
0.00130790254291111
0.000451457636985523
0.00360449571441512
0.00326596525642779
0.00287296683521581
0.0024227669256631
0.00190384631553974
0.00127626908078716
0.000436791885991342
0.00390171673778165
0.00359906426437489
0.00324412068567965
0.00283894991004847
0.00238126935810838
0.00185927285112895
0.00123648173080254
0.000420261576621306
0.00416495306687659
0.00389487728657652
0.0035730596126864
0.00320314387778576
0.00278830471466089
0.00232561249057797
0.00180358186306484
0.00119007443620075
0.000401572204729302
0.00439739460863111
0.00415735270973152
0.00386600166967815
0.00352650384820077
0.00314451063320387
0.00272270834061318
0.00225720686864296
0.00173782666646128
0.0011370135852834
0.000380273242328208
0.00460152527829182
0.0043894036498325
0.00412664964455689
0.00381536159749919
0.00346135434162249
0.00307026476078214
0.00264333861595041
0.00217657984325194
0.0016619774644404
0.00107667738477459
0.00035607961663048
0.00477941516952355
0.00459333651236331
0.0043575485373741
0.00407313025068659
0.00374515746616252
0.00337987868031991
0.00298147701396823
0.00255036687669733
0.00208351285100665
0.00157554280282764
0.00100847911301726
0.000328840199310401
0.0049329928689364
0.00477113875235395
0.00456074293389026
0.00430199882686933
0.00399907833914641
0.00365780718979047
0.00328312809045128
0.00287809131534712
0.00244336416936783
0.00197750872466852
0.00147798105660345
0.00093201567722082
0.000298510156295173
0.00506421675311665
0.00492470575117893
0.00473807663918468
0.00450374853028919
0.0042250220685427
0.00390701920279491
0.00355441054210752
0.00317092963554253
0.00275950328817287
0.00232174935823821
0.00185806050150119
0.00136885494204551
0.00084704848045112
0.000265112916584506
0.00517513587906989
0.00505597647621029
0.0048913660737248
0.00468005270997543
0.00442454323461959
0.00412920633370377
0.00379812347074714
0.00343475680802929
0.00304255290484064
0.0026250239766036
0.0021849936824057
0.00172476304871804
0.00124785525123371
0.00075338782947009
0.000228567763337429
0.00526786322290913
0.00516695534948718
0.00502246579696718
0.00483258805913623
0.0045991233136996
0.00432571148371465
0.00401575926912164
0.00367215587579843
0.00329801220044989
0.0028971870846063
0.0024740478339279
0.00203267824264219
0.00157732072059158
0.00111474585262682
0.000650746062250301
0.000188682116008345
0.00534438251782998
0.00525952476388921
0.00513312737837311
0.00496294392673649
0.00475014499723078
0.00449769607388623
0.00420833320011942
0.00388428868890974
0.00352807407902086
0.00314313544909917
0.0027340205998031
0.002306008527323
0.00186442891687801
0.00141546106221507
0.00096934748568139
0.000538972101762071
0.000148435558871222
0.000463718440841343
0.00132607739782537
0.000467535422129648
0.00194995732142814
0.00133189560812431
0.000471426697990563
0.00245382861424034
0.00195469980069829
0.001333943715584
0.000470332185198159
0.00288627906079698
0.00245692664708979
0.0019501298698989
0.00132656328822879
0.000462915530014163
0.00326599418452372
0.00288686269013696
0.00244649443829507
0.00193334047941248
0.00130651850942207
0.000450953266784281
0.00360193268544879
0.00326363055324374
0.00287087235719108
0.00242094865350818
0.00190237250607744
0.00127525687638191
0.000436430213295239
0.003899615954642
0.00359711705670062
0.00324233280453509
0.0028373420521577
0.00237988050160969
0.00185816178369085
0.00123573656209658
0.000420000467803433
0.0041631703746608
0.00389320115710107
0.0035714946413687
0.00320170519246495
0.00278701832003874
0.00232451489269337
0.00180272014036021
0.0011895117768354
0.000401379829558958
0.00439579545714
0.00415582935265666
0.00386455977799633
0.00352515724907967
0.0031432802433674
0.00272162058216061
0.0022562933273863
0.00173712445742564
0.00113656727817687
0.000380125503095581
0.00459999365805349
0.00438792615789687
0.00412523414481412
0.00381402235999122
0.00346011071419489
0.00306913916707531
0.00264235582435022
0.00217576739886262
0.00166136570570812
0.00107629888441172
0.000355957401385863
0.00477785659003393
0.00459181514849731
0.00435607501666609
0.0040717200627787
0.00374382964920219
0.00337865431990677
0.00298037850903264
0.00254941812821433
0.00208273927663583
0.001574970762232
0.00100813499822639
0.000328732858280965
0.00493133255688325
0.00476950185090645
0.0045591428124362
0.00430045224323206
0.00399760404894744
0.00365642555670751
0.00328186109205867
0.00287696236102138
0.00244239786595387
0.00197673048281511
0.0014774158243126
0.000931686612033622
0.000298411735307917
0.00506239633466627
0.00492289811224607
0.00473629803826533
0.00450201606171496
0.00422335292166307
0.00390543233282962
0.00355292786152567
0.00316957567065401
0.00275830415499672
0.00232073156449016
0.00185725068375658
0.00136827774550427
0.000846725265461419
0.000265018746346377
0.00517311108541847
0.00505396005449004
0.00488937760975054
0.00467810647716338
0.00442265134276634
0.00412738453694921
0.00379639325832391
0.00343314431895885
0.00304108693423296
0.00262373408846483
0.00218390879227771
0.00172391101927063
0.00124726034031377
0.000753071458877239
0.000228478433221684
0.00526561722660187
0.00516473324609441
0.00502028668673691
0.00483045235795611
0.00459703092310722
0.00432367266571098
0.00401379476041336
0.00367029340468455
0.00329628329930478
0.00289562466214813
0.00247268408258069
0.00203154358231267
0.00157644197094031
0.00111414419849233
0.000650441498380205
0.000188600607861541
0.00534206892496349
0.00525731233777192
0.00513099444798348
0.00496084977005991
0.00474807239891874
0.00449565178816786
0.00420633784959738
0.00388236991915715
0.00352626317557583
0.00314146532543847
0.00273252384639785
0.00230471563016797
0.00186336749260694
0.0014146519407314
0.000968800486958861
0.000538688024799528
0.000148363805120406
0.00540443227850082
0.005333623488656
0.00522334679847017
0.00507101693949107
0.00487730461425772
0.00464461133400166
0.00437507010928087
0.0040702645290922
0.00373203687469978
0.00336319683277435
0.00296780240634558
0.00255115179773007
0.00211940687541619
0.0016790830218757
0.00123841535087576
0.000811664121591018
0.000418976700045384
8.43800752552675e-05
0.000460874230315599
0.0013200279631035
0.00046534666644689
0.00194335250465984
0.00132732625345084
0.000469744608005766
0.00244771083852849
0.0019497765554237
0.00133050061819235
0.000469055221789687
0.00288102765103001
0.00245241417276693
0.00194646548915085
0.00132398486026014
0.000461962614389854
0.00326167898255445
0.00288301579984892
0.0024431595246267
0.00193061872383485
0.00130460746501373
0.000450254310908963
0.00359847121336005
0.00326047048826973
0.00286803016525015
0.0024184736406865
0.00190035752255748
0.00127385959923956
0.000435927924126643
0.00389685599757829
0.00359455402399872
0.0032399725679198
0.00283521103119087
0.00237803027371793
0.00185667081173219
0.00123472386439709
0.000419642785064219
0.00416093815042823
0.00389110024374893
0.00356952716549701
0.00319988809907365
0.00278538400043061
0.00232311029219948
0.00180160646482673
0.00118877311185385
0.000401122652335541
0.00439392302851494
0.00415404634009402
0.00386286790159513
0.00352356980152901
0.00314182113897545
0.0027203217953448
0.00225519376961517
0.00173627040213391
0.00113601556824278
0.00037993993590065
0.00459833269991066
0.00438632665604749
0.00412369923925785
0.00381256431153859
0.00345874979952764
0.00306790065681277
0.00264126816844327
0.00217486243678682
0.00166067879303546
0.00107586845439293
0.000355817959134698
0.00477628331905697
0.00459028338525605
0.00435459009416004
0.00407029454622865
0.00374248224332425
0.00337740738658335
0.00297925612998591
0.00254844575363983
0.00208194400299508
0.00157438034771668
0.00100777714914382
0.000328620577742372
0.00492974846084809
0.00476794353787707
0.00455761822572695
0.00429897491250571
0.00399619196789076
0.00365509961472534
0.00328064382116902
0.00287587725214847
0.00244146923205242
0.0019759829028874
0.00147687274706427
0.000931369527645806
0.000298316614356168
0.00506072419422027
0.00492123921384071
0.00473466277285564
0.00450041884923772
0.00422181097002393
0.00390396527341719
0.00355155759749097
0.00316832583151132
0.00275719928917134
0.00231979632571485
0.00185650916175426
0.00136775133533148
0.000846430974706923
0.000264934323596253
0.00517129129289522
0.00505214411165825
0.00488757871015742
0.00467633902464807
0.00442093044410311
0.00412572778325511
0.0037948219005593
0.0034316828609086
0.00303976184067621
0.00262257227933752
0.00218293615727845
0.00172315211210473
0.00124673521597876
0.000752793528200281
0.000228402412119045
0.00526360395312478
0.00516272116581276
0.00501829210933538
0.00482848655283133
0.00459510345395377
0.00432179728506595
0.0040119916118713
0.00366858803260535
0.00329470466367074
0.00289420303871505
0.00247144903189532
0.00203052275009955
0.00157565962946887
0.00111361898781433
0.000650185479869379
0.000188534277728699
0.00533984338382154
0.00525510546651697
0.00512882204141766
0.0049587092456094
0.00474596083383745
0.00449357688845993
0.00420431832562478
0.00388043223958769
0.00352443852728706
0.00313978716543181
0.00273102567941429
0.00230342859812504
0.00186231979635995
0.00141386567501002
0.00096829038978
0.000538464227200468
0.000148306464843008
0.00540214289899457
0.00533143157743321
0.00522122831390152
0.00506892896626981
0.00487522729272109
0.00464254864164214
0.00437304023861497
0.00406829334702683
0.00373015476945513
0.00336143684213708
0.00296619831334974
0.00254973589801227
0.00211820821336406
0.0016781257427094
0.00123771526445502
0.000811225583002388
0.000418796712919313
8.43841703590871e-05
0.00545239038857826
0.00539360793098936
0.00529740050614911
0.00516096166783275
0.00498457258632404
0.00477016647648051
0.00451935129400766
0.00423311093536572
0.00391262124656868
0.00355999667211745
0.00317861651118078
0.00277321389137629
0.00234981274010749
0.00191537997078512
0.00147767182247379
0.00104771309484181
0.00064444290538515
0.000290381077896662
2.83844095660298e-05
0.000457196343512354
0.00131208623237097
0.000462473132372431
0.00193457674313926
0.001321251756022
0.000467508083624564
0.00243949247177684
0.00194315353490367
0.0013258665626537
0.000467338086543677
0.0028739057996817
0.0024462853854254
0.00194148448514439
0.00132047825382856
0.000460668289217172
0.00325579220973691
0.00287775945472668
0.00243859794870646
0.00192689229987749
0.00130198705740266
0.000449295400299778
0.00359375133457704
0.00325615434195741
0.00286414283591365
0.00241508368373831
0.0018975916861522
0.00127193054533703
0.000435231405739742
0.00389313456146199
0.00359109270587206
0.00323677953816077
0.00283232195658324
0.00237551478602738
0.00185463474726921
0.00123332850164673
0.000419147577973467
0.00415800886727062
0.00388834013835624
0.003566937100512
0.00319748906695597
0.00278321819023045
0.00232123980687397
0.00180011280564104
0.0011877702052882
0.000400771519347895
0.00439157881232654
0.00415181355439874
0.00386074494260951
0.00352157092953687
0.00313997559356998
0.00271867016476065
0.00225378607026685
0.00173516667758464
0.00113529159922464
0.000379691910276779
0.00459638550473446
0.0043844535398569
0.00412189888903516
0.00381084796551919
0.00345714029398554
0.003066428217337
0.00263996743327465
0.00217377237280775
0.00165984348848903
0.00107533647898193
0.000355642760562925
0.0047745730825261
0.00458862184225249
0.00435297781334318
0.00406874183770579
0.00374100853097572
0.00337603771381956
0.00297801797725712
0.00254736814991944
0.00208105806098523
0.00157371786547485
0.00100737059580152
0.000328492595243134
0.00492814472796563
0.00476637008457043
0.00455607812071415
0.00429747868102635
0.0039947572007492
0.00365374845036968
0.00327940047035019
0.00287476669283528
0.00244051699725894
0.00197521495001628
0.00147631303749272
0.000931040174626934
0.000298217380918611
0.00505912425738532
0.00491965538130911
0.00473310048907209
0.00449888938834219
0.00422033083686883
0.0039025546949222
0.00355023911404833
0.00316712323539721
0.00275613679652293
0.00231889802965939
0.00185579792514352
0.00136724696769985
0.000846148900765494
0.000264854161845864
0.00516961557520609
0.00505047343438374
0.00488592078454929
0.00467470570078367
0.00441933700163286
0.00412419264378115
0.00379336645001853
0.00343033083500614
0.00303853826418916
0.00262150224503351
0.00218204350374605
0.00172245866064386
0.00124625800132701
0.000752542124857663
0.000228335183302183
0.00526179123317862