/*--------------------------------*- C++ -*----------------------------------*\
  =========                 |
  \\      /  F ield         | OpenFOAM: The Open Source CFD Toolbox
   \\    /   O peration     | Website:  https://openfoam.org
    \\  /    A nd           | Version:  12
     \\/     M anipulation  |
\*---------------------------------------------------------------------------*/
/*   Windows 32 and 64 bit porting by blueCAPE: http://www.bluecape.com.pt   *\
|  Based on Windows porting (2.0.x v4) by Symscape: http://www.symscape.com   |
\*---------------------------------------------------------------------------*/
FoamFile
{
    format      ascii;
    class       volScalarField;
    location    "100";
    object      nut;
}
// * * * * * * * * * * * * * * * * * * * * * * * * * * * * * * * * * * * * * //

dimensions      [0 2 -1 0 0 0 0];

internalField   nonuniform List<scalar> 
10244
(
0.000107279604503481
0.000107249423656327
0.000888093961746588
0.000109374603409643
0.000107226280428269
0.000887914563882242
0.00010934429808496
0.00209062472590137
0.000901450733751635
0.000111890399449158
0.000107207287812032
0.000887790167566413
0.000109322619720634
0.00209036206907499
0.000901281318499776
0.000111859633925263
0.00338813807757427
0.00210801557656968
0.000918202108945965
0.000113392859248205
0.000107190633611085
0.000887691923088584
0.00010930380659056
0.00209009128789137
0.000901167337480507
0.0001118381834022
0.00338787254121778
0.00210777179512643
0.000918032825465449
0.000113361814254041
0.00462683436995697
0.00340126778734727
0.00212811989866258
0.000928626912436309
0.000113130819207856
0.00010717560174811
0.000887598859209677
0.000109287037086401
0.00208985528639858
0.00090107452932639
0.000111819467054888
0.00338751518022511
0.00210751207299909
0.000917930440686508
0.000113339809026937
0.00462660265116308
0.00340102949539079
0.00212788548694638
0.000928451485316996
0.000113099274523759
0.0057425279491891
0.00463163200026903
0.00341202543071192
0.00213878972446975
0.000927399125113631
0.000111606456998322
0.000107161413996278
0.000887522295241564
0.000109271839151559
0.00208965258277021
0.000900988803010855
0.000111802762192139
0.00338717723656596
0.00210728214381374
0.000917847111563792
0.000113321115125761
0.00462620704601238
0.00340068353518508
0.00212763612546273
0.00092835650199174
0.000113076983740092
0.0057423518068283
0.00463143162011802
0.00341180778337204
0.00213855025331169
0.000927217859120894
0.000111574363605564
0.00671768952087254
0.00573876244926838
0.0046277084936097
0.00341071100302972
0.00213214916238069
0.000916508264709958
0.000109590500893566
0.000107146077862322
0.000887446861124592
0.0001092572579606
0.00208945186644485
0.000900910552864305
0.000111787566115308
0.00338685821565473
0.00210707507259801
0.000917767503648856
0.000113304331736229
0.00462580468439526
0.00340034840552719
0.00212741275072792
0.000928280553958528
0.000113058448184424
0.00574194944224222
0.00463104928665707
0.00341147339628053
0.00213830509922241
0.000927127587714042
0.000111552050872131
0.00671758414797018
0.00573861777397776
0.00462753707505462
0.00341049273273522
0.00213189866639409
0.000916323803289827
0.000109558063259153
0.00755690625287937
0.00670799167682969
0.00572022785729613
0.00460828432278189
0.00339044654385041
0.00210915413252582
0.000900431474899743
0.00010739078161144
0.000107128620783584
0.000887359400656088
0.000109241617562396
0.00208924792330346
0.000900833826051899
0.00011177325448159
0.00338654235914403
0.00210687601297816
0.000917691870937385
0.000113288925853313
0.00462540322413727
0.00340002892343765
0.00212720663355231
0.000928204702386437
0.000113041734028178
0.00574151206381531
0.00463065024535471
0.00341114210868266
0.00213808510286267
0.000927055014504087
0.000111533622551279
0.00671719843999274
0.00573823018143794
0.00462716878510827
0.00341016077692694
0.00213165253764084
0.000916235357692081
0.000109535697392971
0.00755688452031321
0.00670791647770429
0.00572011695097342
0.00460811567748093
0.00339021460851099
0.00210889269439592
0.000900244713514757
0.000107358207302121
0.00827342211913485
0.00754412345970158
0.00667849176153539
0.00568244757696388
0.00456870653051889
0.00335081195327337
0.00207455483255567
0.000881553172365705
0.000104942129274463
0.00010710681133553
0.000887253638454827
0.000109223628443743
0.00208902746460967
0.000900747871335757
0.000111756878767567
0.00338620874796408
0.00210667331398803
0.000917616759447225
0.00011327431875174
0.00462498774737366
0.00339971132118547
0.00212700756277444
0.000928130443987162
0.000113026151447424
0.00574105334056256
0.00463024833391
0.00341082160108531
0.00213787866045168
0.000926980209760418
0.000111516899547873
0.00671674963528362
0.00573779697142797
0.00462677316007404
0.00340982898499293
0.00213143073706324
0.000916163355454673
0.000109517288882177
0.00755653380457742
0.00670754628139736
0.00571974533390562
0.00460774969796789
0.00338987559981641
0.00210864121809356
0.000900156102709324
0.000107335813220963
0.008273492819492
0.00754412865359499
0.00667845258738347
0.00568234083708681
0.00456852222749115
0.00335056177487121
0.00207428228572634
0.000881364222103117
0.000104909423090248
0.00888201023136449
0.00825918071018339
0.00750779216342896
0.00662583520331465
0.0056225206489362
0.00450797149681266
0.00329444507943631
0.00203124336122757
0.000859953020756655
0.000102106410436775
0.000107077593166169
0.000887110103321925
0.000109201144854215
0.00208875028806395
0.000900640591305657
0.000111738127041783
0.00338582503907638
0.00210644769349798
0.000917531570870098
0.000113257674039604
0.00462453118651502
0.00339937517086377
0.0021268029389906
0.000928055209041338
0.000113010810775785
0.0057405560440386
0.0046298308394581
0.0034105002783888
0.00213767668124
0.000926905690961361
0.000111501230809317
0.00671625260122827
0.00573733743128587
0.00462636918700158
0.00340950425158044
0.00213122024261295
0.000916087846407562
0.000109500525180517
0.0075560916263435
0.00670710139187423
0.00571931561015794
0.00460735165252721
0.0033895366721713
0.00210841372522619
0.00090008298157009
0.000107317352932062
0.00827319244946471
0.00754379369503764
0.00667809908836723
0.00568197135992931
0.00456814554442955
0.00335020939674011
0.00207402298591578
0.000881274366171633
0.000104887083025577
0.00888217989325335
0.00825927421479853
0.00750783356640418
0.00662580011155812
0.00562239571485413
0.00450776343439998
0.00329417518230686
0.00203095782149888
0.000859761803521535
0.000102073913187635
0.0093962473213345
0.0088668945999691
0.00821875110660807
0.00744438141333665
0.00654783151520524
0.00553920470029258
0.00442650186099421
0.00322281549542291
0.00197943960120263
0.000834869189938705
9.87862123592912e-05
0.000107037304351711
0.000886904907299743
0.000109170990438072
0.00208837736481148
0.00090049443961309
0.000111714581995901
0.00338534226497869
0.00210616641492879
0.000917422288929458
0.000113238979269744
0.00462398958726617
0.00339898810814058
0.00212657149245377
0.000927969350893764
0.000112994439140283
0.00573998861326791
0.0046293715776662
0.00341015768319524
0.00213746651075708
0.000926828782190451
0.000111485841161351
0.00671569048100938
0.00573683829615587
0.00462594605346525
0.00340917530548724
0.00213101229997651
0.000916011364755124
0.000109484812782549
0.00755557399986786
0.00670660377092681
0.00571885328465689
0.00460694104662292
0.0033892027573022
0.00210819630725247
0.000900004902802639
0.000107300352868482
0.00827277128274134
0.00754335499503856
0.00667765714249754
0.00568153794132477
0.00456773662316873
0.00334985800800546
0.00207378760213926
0.000881199145884699
0.00010486856961633
0.00888194155846256
0.00825898889065502
0.00750751497579531
0.00662544787857871
0.00562201272610508
0.00450736750972419
0.00329380638339709
0.00203069010160177
0.000859670740465431
0.000102051616139399
0.00939652095108768
0.00886708182821556
0.00821887935503077
0.0074444257133363
0.00654777513351712
0.00553905086258642
0.00442626708911777
0.00322252525648408
0.00197914361603376
0.000834677081528286
9.87540829328955e-05
0.00982806482962539
0.00938036663786084
0.00882371012248237
0.00814760771926064
0.00735151113491393
0.0064430403039558
0.00543131433469794
0.00432379254146179
0.00313535206604478
0.0019179707231513
0.000805490607379611
9.49094071763999e-05
0.000106981433265737
0.000886608175784942
0.000109129412869744
0.00208785504131866
0.000900285261263696
0.000111682939283459
0.00338469219928736
0.00210578830784169
0.000917271937103063
0.000113215355848272
0.00462329477019982
0.00339850083014948
0.00212628161193208
0.000927859825399518
0.000112975383709524
0.00573929798796343
0.00462882666267955
0.00340976065676592
0.00213722650198241
0.000926740136048225
0.000111469238807811
0.00671502776011417
0.00573626893443815
0.0046254779394224
0.00340882141611903
0.00213079380735027
0.000915931226776839
0.000109469347315849
0.00755496261055533
0.00670603980624312
0.00571834767923001
0.00460650725604171
0.00338886195120885
0.00210797984665114
0.000899924527078878
0.000107284482730293
0.00827224724546295
0.00754283625967278
0.00667715606754017
0.00568106732297137
0.004567313124284
0.00334951083815268
0.00207356119656892
0.00088111754441708
0.000104851621673174
0.0088815540896715
0.00825857101337712
0.00750707819596053
0.00662500077074146
0.00562156559895271
0.00450694093002599
0.00329343969132448
0.00203044696613522
0.000859593487343188
0.000102033010727776
0.00939635378913677
0.00886685748005512
0.00821860911519886
0.0074441067662234
0.00654740655212145
0.00553864392667934
0.00442584794709967
0.00322213948206341
0.00197886851767914
0.000834586672290326
9.87319700441173e-05
0.0098284435768966
0.00938065105871448
0.00882392923777191
0.00814773676225824
0.00735153064413867
0.00644294978753495
0.00543112731525198
0.00432353038538762
0.00313504313590346
0.00191766862831361
0.000805299995963583
9.48777700957976e-05
0.010188026812809
0.00981141230363577
0.00933501340103549
0.00874666824710877
0.00804264500870821
0.00722750671980017
0.00630937499486721
0.00529662250055434
0.00419783658137829
0.00303002064910878
0.00184506427788139
0.00077104756081338
9.04187718055178e-05
0.000106904053094358
0.000886180552348665
0.000109071740980324
0.00208711057201227
0.000899983009848537
0.000111639270448128
0.00338378500506035
0.00210525842502239
0.000917055382596508
0.000113182908631739
0.00462235613209564
0.00339784554118336
0.00212589125868795
0.000927707651083707
0.000112951332574458
0.0057383999962985
0.00462812916714862
0.0034092596536999
0.00213692504498078
0.000926626258322372
0.000111450026691708
0.0067142001762269
0.00573557576117076
0.00462492067603796
0.00340840870986387
0.00213054243014024
0.000915838397154333
0.000109452624540624
0.00755421874129557
0.00670537495010488
0.00571776861426937
0.00460602415427522
0.00338849283112121
0.00210775087629238
0.000899839830548165
0.000107268801973652
0.00827160179352822
0.00754222306048657
0.00667658487679374
0.0056805491860012
0.00456686338845574
0.0033491550558197
0.00207333448698341
0.000881033065360457
0.000104835627874712
0.00888103665500734
0.00825804568918725
0.00750655493936935
0.00662448989511017
0.00562107938958065
0.00450649946248296
0.00329307707533074
0.00203021200354971
0.00085950909197872
0.000102016275319885
0.00939601024686804
0.00886647280976611
0.0082181919007565
0.00744366299532616
0.00654694312132375
0.00553817508676139
0.00442540019831116
0.00322175729578366
0.00197861845142805
0.000834508852207588
9.87136446375543e-05
0.00982835486756986
0.00938049651645408
0.00882371798918175
0.00814746385671076
0.00735119222605155
0.00644255288730304
0.00543069148881629
0.00432308741086138
0.00313464225035917
0.00191738988481313
0.000805213431430662
9.48562638464836e-05
0.0101885111751906
0.0098117952553722
0.00933532559048388
0.00874688526183799
0.00804274543682994
0.007227486763846
0.0063092448364112
0.00529640115114468
0.00419754845932211
0.00302969652731015
0.00184476029851735
0.000770861589910098
9.03878812999122e-05
0.0104856420029571
0.0101706172952049
0.00976419999905483
0.00925318572472935
0.00863171255579669
0.00790188244746066
0.00706987890358431
0.00614343491584659
0.00513161233795806
0.00404525101186219
0.00290367189239007
0.00175842916905432
0.000730679123411987
8.52562369506529e-05
0.000106797151498049
0.000885582925498098
0.000108991796920463
0.00208605788490473
0.000899548456027688
0.000111578712461583
0.00338250441758376
0.00210450483314279
0.000916741587907817
0.000113137219693091
0.00462104378038103
0.00339693161953749
0.00212534371054301
0.000927484649297308
0.000112918713848731
0.00573717434906169
0.00462718590956136
0.00340858604126558
0.00213651844471657
0.000926468022764808
0.000111425602016131
0.00671311010378257
0.00573467522693173
0.00462420705219178
0.00340788690044815
0.00213022590071732
0.000915718907408276
0.000109433279602478
0.00755327138837946
0.00670454610660101
0.00571706203065388
0.0046054468864472
0.00338806063230591
0.00210748668449614
0.000899742420526538
0.00010725200441213
0.00827079219154489
0.00754147737656808
0.00667590942594051
0.00567995300644104
0.0045663604306403
0.00334876852225488
0.00207309409378408
0.000880943628191423
0.000104819918436717
0.00888037010322077
0.00825739792599672
0.0075059335884562
0.006623904660664
0.00562054263087984
0.00450603017989468
0.00329270503595365
0.00202997626652438
0.000859421970470227
0.000102000413985929
0.00939551040843146
0.00886595370961485
0.00821766087562103
0.00744312824836267
0.00654641439194445
0.00553766745374066
0.00442493834448994
0.00322137967131906
0.00197837643342132
0.000834424270402971
9.8697151247331e-05
0.00982806314002148
0.00938015519873432
0.00882333240215139
0.00814703750068237
0.00735072943300925
0.00644206417568649
0.00543019681358136
0.00432261823532912
0.00313424662694892
0.00191713617963073
0.000805138185218288
9.48385158860415e-05
0.0101885049557897
0.00981171707937339
0.00933518155156104
0.00874666844885686
0.00804244958996271
0.00722711566424024
0.00630881377111429
0.00529593555723345
0.00419708392673653
0.00302928500065811
0.00184448305135398
0.000770782642577671
9.03673005718533e-05
0.0104862307408561
0.0101710987716331
0.00976460591841181
0.00925349225173856
0.00863189686425796
0.007901938029382
0.0070698128129543
0.00614326334110993
0.00513135783332777
0.00404494060960046
0.00290333958910447
0.0017581287925087
0.000730501475407794
8.52266019093309e-05
0.0107295371396828
0.0104675326791328
0.010121802753807
0.00967836848866321
0.00912984848198509
0.00847647920631083
0.00772265159261688
0.0068745504546167
0.00594046618570715
0.00493145124114454
0.00386125037308247
0.00275192915133687
0.00165488806905807
0.000683071626697777
7.92567386138854e-05
0.000106651165211083
0.000884737274724705
0.000108881571978144
0.00208456481539115
0.000898933454771252
0.000111494839451214
0.00338069109250991
0.00210343514917736
0.000916290806931865
0.000113073729633224
0.00461919059031046
0.00339563991997198
0.00212456523315184
0.000927156789288487
0.000112872712661428
0.00573545931171317
0.00462586881907394
0.00340764736131412
0.00213594745094767
0.000926238107896845
0.000111392555391958
0.00671161298603665
0.00573344782488507
0.00462324229271528
0.00340718580362309
0.00212979966108577
0.000915553320396053
0.000109408552526371
0.00755200510000884
0.00670345447830255
0.00571614392083732
0.00460470727670136
0.00338751402844113
0.00210715428359382
0.000899617615547702
0.000107232602308562
0.00826973903229684
0.00754052801607656
0.00667506643822431
0.00567922395398331
0.00456575845814098
0.00334831574531004
0.00207281754819572
0.00088084160134922
0.000104803036857244
0.00887950836708935
0.00825658611204213
0.00750517629190047
0.00662321047391865
0.00561992384090754
0.00450550514164756
0.00329230103333245
0.00202972636480143
0.000859329307561767
0.000101984867223623
0.00939483448001351
0.00886528451440296
0.0082170036921521
0.00744249129110479
0.00654580854399451
0.00553710813400542
0.00442444852822492
0.00322099279547484
0.00197813385624703
0.000834336719364921
9.86817982002606e-05
0.00982759022572036
0.00937965330770545
0.00882280624355453
0.00814649310990782
0.00735017463223394
0.00644151124753555
0.005429665131526
0.00432213663750662
0.00313385671522158
0.00191689101023522
0.000805056559838322
9.48225067598225e-05
0.0101882718270719
0.00981142714078038
0.00933483749914084
0.00874627124315099
0.00804200131805581
0.00722662417321062
0.00630829511933097
0.00529541470941387
0.00419659604127679
0.00302888067563276
0.00184423100446161
0.000770715418187338
9.03504774333715e-05
0.010486309518203
0.0101711011601706
0.00976453510974161
0.00925333924752913
0.00863165330528141
0.00790160502950802
0.00706940238287207
0.00614279686329724
0.00513086489172164
0.00404445963786222
0.00290292529792842
0.00175785973887187
0.000730437251529716
8.52072436717062e-05
0.010730227417345
0.0104681113139497
0.0101223018096847
0.00967876472534982
0.00913011800261969
0.00847661327801695
0.00772265456649836
0.00687443574444481
0.00594025402014304
0.00493116714434096
0.00386092408823016
0.00275159679631874
0.00165459800515364
0.000682908884320365
7.92290666665003e-05
0.0109275312157445
0.0107108125032298
0.0104173812202359
0.0100326239467667
0.00954797449274576
0.0089622048582595
0.00827817628183234
0.00750050603397103
0.00663589482045231
0.00569439250144683
0.00468980362628241
0.0036393214603136
0.00256855449407109
0.00152947580620355
0.000625558666982479
7.19755574451351e-05
0.000106454600702057
0.000883575722281206
0.000108731093957051
0.00208250035935305
0.000898072491673258
0.000111379448772714
0.00337814680445422
0.00210192742566331
0.000915651603562324
0.00011298590660543
0.00461657390366772
0.00339381304824748
0.00212346076615853
0.000926685010731068
0.000112807195577294
0.00573303542554856
0.00462400867764284
0.00340632173145984
0.00213513537545237
0.000925899717952411
0.000111346480018214
0.00670951122061149
0.00573173034811984
0.0046218971832375
0.00340621057047463
0.00212920318922219
0.000915314707028838
0.000109375144390304
0.00755025492409613
0.00670195645021943
0.00571489395932567
0.00460370883030464
0.00338678141083861
0.00210670836604433
0.000899445240692677
0.000107207839148094
0.00826831473770188
0.00753926087191651
0.00667395619327321
0.00567827696096441
0.00456498810439815
0.0033477444116915
0.00207247095788307
0.000880711877330214
0.000104783694519972
0.00887836488922268
0.00825553118045841
0.00750421131860234
0.00662234324942995
0.00561916718765969
0.00450487768221451
0.00329182922210173
0.00202944027074782
0.00085922411179459
0.000101968197519447
0.00939393331777098
0.00886442031972659
0.00821617891704886
0.00744171365004434
0.00654508991384878
0.00553646459238154
0.00442390214096346
0.00322057393950927
0.00197787703205459
0.000834243081632654
9.86665616480559e-05
0.00982691513820804
0.00937897442363157
0.00882212630499709
0.00814581858295331
0.00734951526837269
0.00644088074964078
0.00542908251383352
0.00432162826759405
0.00313345867024559
0.00191664554579709
0.000804971703112417
9.48078911878351e-05
0.0101878326427721
0.00981095162682823
0.0093343270718297
0.00874572964404011
0.00804143458289497
0.0072260426711918
0.00630771522195344
0.00529485986350571
0.00419609827896412
0.00302848388745576
0.00184398825872617
0.00077064094524009
9.03353024540248e-05
0.0104861386575483
0.0101708687405421
0.0097642404405109
0.00925298081643768
0.00863123105544769
0.00790112460483843
0.00706887709866513
0.00614224780658547
0.00513032094476058
0.00404395869523344
0.00290252029299164
0.0017576171611311
0.000730384715634145
8.51917226739028e-05
0.0107303914507172
0.0104681964973568
0.0101223081696395
0.0096786811568269
0.00912993415946019
0.00847632795740709
0.00772227706143563
0.00687398431372957
0.00593975451768981
0.00493065235240442
0.0038604346763828
0.00275118891477858
0.00165434671565499
0.000682868270672131
7.92117231576824e-05
0.0109283187505683
0.01071148554911
0.010417971659549
0.0100331089724014
0.00954832929224681
0.00896241877376426
0.00827825133745471
0.00750045316554025
0.00663573182049257
0.00569414310300229
0.00468949599207343
0.00363898829182956
0.00256823108945286
0.00152920555676057
0.000625417962627209
7.19511607813925e-05
0.0110866664510952
0.0109082853702491
0.0106595930429709
0.0103254583123309
0.00989633187035105
0.00936977882978988
0.00874733334006883
0.00803214179343497
0.00722925054879159
0.0063469107581064
0.00539764336997002
0.0043984545438041
0.00337060655415777
0.00234435935773432
0.00137384183674371
0.000552961714676214
6.69803756619285e-05
0.000106193569242321
0.000881997408826308
0.000108528591489008
0.00207966535142162
0.000896887980692631
0.000111222372644187
0.00337461911788013
0.00209983422244849
0.000914758481281785
0.000112865344420387
0.00461290771468688
0.00339125002869859
0.00212190789653881
0.000926016901238431
0.000112716443008438
0.00572961615524375
0.00462138283066927
0.00340445021771104
0.00213398479687465
0.000925406312259225
0.000111280900905211
0.00670653892693032
0.00572930387013959
0.00462000007791211
0.00340483628068841
0.00212835679527546
0.000914966865524329
0.000109328815724371
0.00754779079061132
0.00669985428422611
0.0057131472329467
0.00460232014569919
0.00338576588891713
0.00210608761473956
0.000899198326890274
0.000107174178034263
0.00826633311555279
0.00753751043127801
0.00667243433198502
0.00567699015344142
0.00456395121187391
0.00334698172318768
0.00207200805141477
0.000880533754238575
0.000104758914744763
0.00887680015805214
0.00825410588852998
0.00750292415380076
0.00662120207704532
0.00561818637090578
0.00450407738988438
0.00329123647536881
0.0020290830512953
0.000859090899493597
0.000101949109461223
0.00939271393197295
0.00886327495240594
0.00821510696058432
0.00744072263479079
0.00654419335912301
0.00553568007724108
0.00442325193685442
0.00322008717403702
0.00197758452130157
0.000834136847653298
9.86503390593927e-05
0.00982598614201605
0.00937807059685812
0.00882124778860037
0.00814497173551309
0.00734871167160657
0.00644013589292419
0.00542841568623008
0.00432106425483744
0.00313302974635595
0.00191638594578329
0.000804880585851873
9.47932227264136e-05
0.0101871669887706
0.0098102732607375
0.00933363608699817
0.00874503050722747
0.00804073583911643
0.00722535698293725
0.00630705964291441
0.00529425656814898
0.00419557622541787
0.00302808093991445
0.00184374572264974
0.000770562849913591
9.03214581401862e-05
0.0104857388339936
0.0101704267395765
0.0097637547987129
0.00925245270334503
0.00863066466649834
0.00790052870447569
0.00706826607336231
0.00614164199826246
0.00512974716300107
0.00404345126619255
0.00290212486229323
0.00175738424676416
0.000730322806177055
8.51778448887814e-05
0.0107302846344026
0.0104680254251121
0.0101220687296341
0.00967836912053925
0.0091295473322055
0.00847586997911136
0.00772175903805811
0.00687342461410156
0.00593917830745366
0.00493009157045284
0.00385992915901914
0.00275079277035384
0.00165412327532706
0.000682836460523065
7.91978355066535e-05
0.0109285662299164
0.0107116536943457
0.0104180571767066
0.0100330985274185
0.00954821057674748
0.00896218843645662
0.00827791628787503
0.00750002904761148
0.00663524159847177
0.00569361625487377
0.00468896776409948
0.00363850171045136
0.00256784072613943
0.00152898340906033
0.000625409182967933
7.19367033240557e-05
0.0110875453281762
0.0109090487164169
0.0106602719472267
0.010326030177147
0.00989677097446227
0.00937007271665395
0.00874748192940418
0.00803215383190025
0.00722914160680963
0.00634670241456682
0.00539736244870064
0.00439813181155272
0.00337027703432553
0.00234405589532156
0.00137360357339669
0.000552854618548248
6.69475949664902e-05
0.0112132274962348
0.0110669911835388
0.0108562511756286
0.0105654835510922
0.0101843102644067
0.00970926702115144
0.00914071780794185
0.00848042816215759
0.00773182046350683
0.00690126106411467
0.00599916698113776
0.00504085367827648
0.00404681741195167
0.00304300085153018
0.00206588585028806
0.00117469580145804
0.000457928598476436
3.68956537839177e-05
0.000105850723480364
0.000879897001740823
0.000108259378093945
0.00207583147142635
0.000895284107883109
0.000111011091420885
0.00336979010555107
0.00209696370046007
0.000913531678164358
0.000112701556697634
0.00460783049209724
0.00338769699993181
0.00211975288613126
0.000925085745375765
0.000112592099642484
0.0057248290479065
0.00461770461010729
0.00340182898137298
0.00213237101225319
0.00092470792374428
0.000111188423830678
0.00670234585506151
0.00572588098113023
0.00461732631908041
0.00340290107311709
0.0021271585541893
0.000914460533219259
0.00010926394029473
0.00754430294039092
0.00669688226225688
0.0057106831919007
0.00460036673871775
0.00338433959639242
0.0021052109702154
0.0008988412243106
0.000107127685628624
0.0082635349584675
0.00753504697479364
0.00667030176493169
0.00567519645583434
0.00456251420188821
0.00334592928432388
0.00207136693350077
0.000880279876462785
0.000104725045444364
0.00887460949769677
0.00825212417065597
0.00750114816232733
0.00661964108244713
0.00561685788683422
0.0045030047824582
0.00329044904622957
0.00202860777855199
0.000858908495449231
0.000101924685189354
0.00939102620985077
0.008861709188037
0.008213659886017
0.0074394025676861
0.0065430167243455
0.00553466728206967
0.00442242683783924
0.00321947894433013
0.00197722200142479
0.00083400267406547
9.86318063702637e-05
0.00982470398781705
0.0093768492669847
0.00882008393619804
0.00814387191346069
0.00734769002303784
0.00643921062279161
0.00542760735069884
0.00432039714189317
0.00313253430727081
0.00191609125050487
0.000804776465403868
9.47777274990358e-05
0.0101862196763585
0.00980934131674956
0.00933271661838167
0.00874412814290146
0.00803986158760361
0.0072245262569416
0.00630629085556203
0.00529357131558512
0.00419500116197599
0.0030276493774277
0.00184348983067671
0.000770478982419446
9.03078132519365e-05
0.0104850885833771
0.0101697573207209
0.0097630629408606
0.00925174058133003
0.00862993941562563
0.00789980208051661
0.00706755402581854
0.0061409645686334
0.00512912906756462
0.00404292331948721
0.00290172562844589
0.00175715226681633
0.000730256496667157
8.51650657908678e-05
0.0107299272739878
0.0104676222243616
0.0101216150176209
0.00967786341114991
0.00912899182049924
0.00847527187892667
0.00772113117082662
0.00687278529343686
0.00593855123494606
0.00492950619252533
0.00385942132093008
0.00275040849971499
0.00165390934405066
0.000682792568424751
7.91853852663406e-05
0.0109285232196562
0.0107115457282708
0.0104178767414607
0.0100328385470156
0.00954786661106479
0.00896176216376604
0.00827741685054416
0.00749947264058734
0.00663465077802628
0.00569301951249831
0.00468839931319498
0.00363800340347881
0.00256746474723316
0.00152878911784878
0.00062540583562049
7.19250750021291e-05
0.0110878725355378
0.0109092980079536
0.0106604366892766
0.0103260946972152
0.0098967209527313
0.00936990269422506
0.00874719659044676
0.00803176650615908
0.00722867283213462
0.00634617903190117
0.00539681698505103
0.00439760116240057
0.00336980569297985
0.00234369565576368
0.00137342228905481
0.000552888975078931
6.69220429870463e-05
0.0112141907524056
0.0110678393986028
0.0108570144680102
0.0105661392851296
0.01018483175278
0.00970964001700752
0.00914094019409471
0.0084805066553642
0.00773176864424085
0.00690109857347273
0.00599891886732429
0.00504054945703135
0.00404649048976889
0.00304268641743594
0.00206561602301266
0.0011745112234985
0.00045789503437679
3.68972159934403e-05
0.0113127613173072
0.0111932060057161
0.0110143649831412
0.0107604549918727
0.0104204148076557
0.00998989512522649
0.00946822239802843
0.00885587909051798
0.00815470720860316
0.00736919916077482
0.00650757514396696
0.00558264861455147
0.00461260851401693
0.00362155268826907
0.0026408709830261
0.00171603707227813
0.000915364649156705
0.00030835474413249
1.19178304272872e-05
0.00010540742837466
0.000877123997214806
0.000107906148713973
0.00207071225267133
0.000893150137850139
0.000110730391521707
0.00336326764233148
0.00209308263430059
0.000911875091892497
0.000112481626268485
0.00460088554106895
0.00338283408155545
0.00211680259148924
0.000923810030538713
0.000112423563762483
0.00571820172983166
0.0046126102797564
0.00339820005486821
0.00213013653993927
0.000923738688529426
0.000111061670326474
0.00669647805403916
0.00572108966102211
0.00461358667547944
0.00340019767378219
0.00212548187221421
0.000913738202091478
0.000109171407207787
0.0075393823106408
0.00669269028987394
0.00570721236585547
0.00459762093543815
0.00338233713057552
0.00210397337938033
0.000898327814409702
0.000107062835765439
0.00825957027495736
0.00753156099770223
0.0066672912589266
0.00567267278631812
0.00456049985171449
0.00334445715954147
0.00207046615040951
0.000879914390988939
0.000104678511077059
0.00887150723713121
0.00824932709341629
0.00749865236563525
0.00661745916176105
0.00561501257935139
0.00450152464202025
0.00328936762228335
0.00202795248868735
0.000858649516410649
0.000101891288809119
0.00938864897538705
0.00885951850129112
0.00821165054147443
0.00743758519951922
0.00654141258504443
0.0055333014928058
0.00442132658700465
0.00321867498329051
0.00197674238858837
0.000833819387298613
9.86080798956209e-05
0.00982291018141506
0.00937516053639529
0.00881849465979484
0.00814238988696172
0.00734633341103659
0.00643800188291528
0.00542656972334172
0.00431955575267826
0.0031319191849992
0.00191572772215372
0.000804645041411118
9.47600635174091e-05
0.0101848877284727
0.00980805749806933
0.00933147544555927
0.00874293461220015
0.00803872997694018
0.00722347579018763
0.00630534237422199
0.00529274682185693
0.00419432594794579
0.00302715424030675
0.0018431998192515
0.000770381236897199
9.02934610786561e-05
0.0104841316050762
0.010168807165965
0.0097621140726138
0.00925079548657694
0.00862900818070191
0.00789890000623507
0.00706669940454858
0.00614017786180873
0.00512843349509191
0.00404234674552417
0.00290130077388079
0.00175690858768456
0.000730185333642228
8.51527589136665e-05
0.0107292973875269
0.0104669681977496
0.0101209307330733
0.00967714841918132
0.0091282515829681
0.00847451715632446
0.00772037709107598
0.00687205071215355
0.00593785865236811
0.00492888235095082
0.00385889801210323