/*--------------------------------*- C++ -*----------------------------------*\
  =========                 |
  \\      /  F ield         | OpenFOAM: The Open Source CFD Toolbox
   \\    /   O peration     | Website:  https://openfoam.org
    \\  /    A nd           | Version:  12
     \\/     M anipulation  |
\*---------------------------------------------------------------------------*/
/*   Windows 32 and 64 bit porting by blueCAPE: http://www.bluecape.com.pt   *\
|  Based on Windows porting (2.0.x v4) by Symscape: http://www.symscape.com   |
\*---------------------------------------------------------------------------*/
FoamFile
{
    format      ascii;
    class       volScalarField;
    location    "100";
    object      omega;
}
// * * * * * * * * * * * * * * * * * * * * * * * * * * * * * * * * * * * * * //

dimensions      [0 0 -1 0 0 0 0];

internalField   nonuniform List<scalar> 
10244
(
4.40676903923504
4.40556127786011
1.51513724006521
4.33794895785675
4.40458441263347
1.51463732402039
4.33684230331463
0.943385841226511
1.49410542247844
4.26152631360556
4.40378772151245
1.51415736947337
4.33583775309671
0.943002495681739
1.49363226275816
4.26046301352462
0.730781938237229
0.935508882985365
1.46552347897714
4.18515036818776
4.4031050949216
1.51374542344983
4.33503613856655
0.942666931528951
1.49314986623466
4.25945772753409
0.730446814878104
0.935145564150905
1.46507316452552
4.1841011521574
0.628340884560012
0.727526594862848
0.922858997257025
1.43853985437098
4.12131226156814
4.40250778296828
1.51339806508476
4.33436562327679
0.942381537251955
1.49273487787884
4.25865344588042
0.730158749699831
0.93481450387934
1.46458861201951
4.18310659609528
0.628033283348968
0.727207975615907
0.922511000086541
1.43810444905826
4.1202628768308
0.572124922582249
0.626962620201677
0.721213192491984
0.909202490355417
1.41688476509502
4.0642337528266
4.40194804929823
1.51308194387976
4.33377307293017
0.942134655905779
1.49238223807821
4.25797977349847
0.729915190429848
0.934530039517664
1.46416802410089
4.18230320534468
0.627768130207188
0.726924353865204
0.92218565330238
1.43761862983323
4.11928528211058
0.571833952587277
0.62666972556218
0.720906240392674
0.908863901166931
1.41645541200697
4.06319149678914
0.538861881813046
0.571513631821385
0.623421696144256
0.713301673608364
0.896611781792217
1.39812018984374
4.00179300730973
4.40137785376768
1.51278872405777
4.33321844045359
0.941919914274167
1.49206917347968
4.25737788830011
0.729707538197215
0.934285308627266
1.46381118526528
4.18162814373188
0.627544121166927
0.726682297207568
0.921903051384759
1.43719377535845
4.11847534594101
0.571582049323324
0.626408470139363
0.720628266927517
0.908542953705666
1.41596613946946
4.06220932630959
0.538581401814185
0.571236485335532
0.623138596486647
0.713001132659766
0.89627790037262
1.39769053749051
4.00074962779231
0.518232403897484
0.538517128414612
0.569217382045255
0.6183167495108
0.704924328128656
0.884733228972534
1.37804779876911
3.92727363981393
4.40074001142262
1.51250446451868
4.33265423376112
0.941724501651861
1.49177816983857
4.25680645946473
0.729527288971685
0.934070892346807
1.46349560236238
4.18102196077499
0.627354010368591
0.726475401771723
0.921659500126567
1.43683428538057
4.11779117797352
0.571369063167408
0.626185677111132
0.720388769224021
0.908262218157504
1.41553843546782
4.06138891280847
0.53833786732132
0.57098816521539
0.622882300024695
0.712727707451553
0.895958990961215
1.39719688952907
3.99975701012575
0.517958947649627
0.538249984519319
0.568949119708313
0.618038500042715
0.704626901987223
0.884401100155254
1.37761597878024
3.92622302466522
0.505055404079033
0.517958937568792
0.536747879438188
0.565527685705335
0.612304028097662
0.696322258358744
0.87221340031702
1.35422680681057
3.83875720278729
4.39995476138298
1.51220198309125
4.33202400438089
0.94153530525786
1.49149310780408
4.25622973132464
0.729365772904814
0.933875650907447
1.46320151728998
4.18044304207515
0.627190209806955
0.726295648973763
0.921445429868972
1.43651644922623
4.11718098898394
0.571188733233913
0.625996065522657
0.72018320226045
0.908019747769448
1.41517720341731
4.06069764082097
0.538131826370803
0.570776224536015
0.622661792778558
0.712490820231371
0.895679633906335
1.39676649928034
3.99892252185225
0.517721126937397
0.538009888788508
0.568705299181709
0.61778617965266
0.704356239708359
0.88408294148327
1.37711846042937
3.92521848611049
0.504787073125339
0.517698526503276
0.536489197256286
0.565263546333359
0.612027879555887
0.696026400196835
0.871882255167167
1.35379391220381
3.83769790162663
0.496504069691657
0.504799857100165
0.516406247851026
0.533770136488788
0.560900392295022
0.605753593293549
0.687180112346124
0.858059108337919
1.32593617338713
3.73494739716398
4.39891800040816
1.51185605560064
4.33124733540082
0.941341409990245
1.49119254924639
4.25559559143665
0.729213900354231
0.933687981735116
1.46291257723703
4.17985168501041
0.627045227074404
0.726134543651185
0.921250070533888
1.43621968917818
4.11659986254728
0.57103430135094
0.625832545749566
0.720004117478541
0.907806127298002
1.41485738533076
4.0600801643835
0.537957756573139
0.570596301048056
0.622473278493935
0.712286766683011
0.895438151786658
1.39640351671264
3.99821730981998
0.517519903858999
0.537804847550156
0.568495393593174
0.617568069641998
0.704121359180145
0.883804414910114
1.37668573264978
3.92437081710539
0.504553481954358
0.51746407082159
0.536253367776497
0.56502327134741
0.611778021779584
0.695757331647588
0.871564571194333
1.35329393445284
3.83668177842983
0.496239792458039
0.504544350252078
0.516154090940327
0.533515272189373
0.560637847329419
0.605478493571889
0.686885450012608
0.857729936333024
1.32550424532567
3.73388859179226
0.490931878173407
0.496261828772283
0.503353897330047
0.513807295098849
0.529978860273514
0.555720484077323
0.598735416681425
0.677156813290842
0.841834232610286
1.29292590367641
3.61381050489433
4.39749293800955
1.51143202418733
4.33022178453489
0.941125700217337
1.49084937913151
4.25481404370687
0.729061521282022
0.933495251569129
1.46260933285216
4.17918103096575
0.626911310427535
0.725983085215851
0.921062256973194
1.43592621611912
4.1159946709189
0.570898973618625
0.625687759029653
0.71984328053671
0.907610648264532
1.41455833467963
4.05948726117733
0.537809381943875
0.570442043866418
0.622310274586856
0.712108497426466
0.89522497983947
1.39608236485767
3.9975824273887
0.517350216599692
0.537631130509511
0.568316392446113
0.617380902735505
0.70391868366767
0.883563733697185
1.37632201525339
3.92365221880311
0.504355908808948
0.517263834090732
0.536050228162236
0.564815502598464
0.611561785795092
0.695523882964337
0.871286791025955
1.35286005662848
3.83582437183833
0.496009605550358
0.504314082931897
0.515923782310746
0.533282747873033
0.560399712269098
0.605230091309879
0.68661758825231
0.857413137441154
1.32500383389865
3.73287239111376
0.490671014356658
0.49601019824958
0.503106514601906
0.513558826908233
0.529725360133622
0.555458628958652
0.598461167554489
0.676863706470198
0.841507583753583
1.29249738299687
3.61276730902386
0.487324173053495
0.490707923442561
0.494892624381124
0.500991714267275
0.51055687330063
0.525752953885276
0.550196450084399
0.591214074493726
0.66607810891495
0.823377088211665
1.25482328411596
3.47263410700312
4.39550104065848
1.51088361224278
4.32881270294594
0.940866629827044
1.49042918207464
4.25378219454187
0.728896271701788
0.933280842925287
1.4622634130035
4.17835271019114
0.626779967965898
0.72583116461474
0.920869062579516
1.4356146938052
4.11530343027562
0.570775769596673
0.625554011716592
0.719691811426014
0.907422058661708
1.41426169787271
4.0588666199018
0.53768040260966
0.570306786546509
0.622165640506389
0.711947944176984
0.895029438709034
1.39578209389312
3.99697277572079
0.517206177054748
0.537482889445996
0.568162498858546
0.617218580888817
0.703741259214492
0.883351199249501
1.37600115701858
3.92300239805355
0.504189588676582
0.517094492069041
0.535877328519087
0.564637648467159
0.611375871435072
0.695322396063416
0.871047171202452
1.35249701849812
3.83509516041461
0.495815007117161
0.504117483737884
0.515725375731426
0.53308156903839
0.560193587974861
0.605015197056913
0.686385376285942
0.857136318479563
1.32457075500254
3.73201367477126
0.490443748331043
0.495783298299157
0.502880320563846
0.513331691765516
0.529494761576938
0.555221694786483
0.598213843650902
0.676597236583329
0.841192582820958
1.29199822954058
3.61176369864243
0.487066326845288
0.490459566444346
0.494649014257944
0.500747948617673
0.510309651540878
0.525499921546681
0.549935111066766
0.590940881214424
0.66578712414878
0.823053856499354
1.25440091592432
3.47162376172193
0.485026358355643
0.487121770568616
0.489409015973982
0.492708970817747
0.498128793160005
0.507030310016231
0.521344010636011
0.544437121501858
0.583203320626024
0.653940967620671
0.8026374905008
1.21107967511237
3.30780155719766
4.39272348663645
1.51015205336713
4.32684509446958
0.94053692244238
1.48988575547226
4.25236694330935
0.728702331714678
0.933023510874373
1.46184080794395
4.17727978568242
0.626640765438996
0.72566635844021
0.920653829593916
1.43525843239807
4.11444677195681
0.57065717831363
0.625422748961964
0.719539540724109
0.907227136091186
1.41394570928961
4.05815443080973
0.537564491475322
0.570183625741633
0.622031737054922
0.711796263176288
0.894840252210255
1.39548363115825
3.99633758748841
0.517081845660856
0.537353947561118
0.568027250590951
0.617074128616345
0.703581070879789
0.883156038796066
1.37570130786185
3.92237792462342
0.504048902280866
0.516950563092281
0.535729360219727
0.564484258913555
0.611214282617083
0.69514587367406
0.870835822939619
1.35217742811827
3.83443748900218
0.49565145701752
0.503951499520917
0.515556793851368
0.532909667530583
0.560016782740183
0.604830348364288
0.686185105543032
0.856898061695522
1.32420970809158
3.73128082441883
0.490251725399774
0.495589664742213
0.502685501878869
0.513135132052621
0.52929503720925
0.555016695889071
0.598000053613482
0.676366417311512
0.840917640105767
1.29156781170688
3.61091287151911
0.486841665248886
0.490235552011736
0.494426127439119
0.500524842452489
0.510084302107576
0.52527031128531
0.549698988786538
0.590694699365738
0.665522574005117
0.822741624790969
1.25390459559454
3.47064346455584
0.484771231785422
0.486876304610595
0.489168588843915
0.49246892067033
0.497886193498292
0.506783400225401
0.521091228662236
0.544176408618561
0.582931577814703
0.653652909008722
0.802319344142973
1.21066694302157
3.30684675638275
0.483602348080758
0.484845772155782
0.485890089201701
0.48737662447023
0.490150303501298
0.495143414185676
0.50349053416121
0.516927858757768
0.538577762096131
0.574849685124652
0.640920384608593
0.779689867030637
1.16103138667074
3.11440590202164
4.38886167913861
1.50915090600727
4.32409775953209
0.940099310681559
1.48916033875741
4.25039411335666
0.728459213302587
0.932695722220161
1.46129562471949
4.17583935728872
0.626481166593936
0.725472916120032
0.920395479204767
1.43482601186306
4.11331994777706
0.57053443754879
0.625283690945979
0.719373971561333
0.907009352813751
1.41358310145177
4.05727276654224
0.537454822340091
0.570065033578705
0.621899958570462
0.711643182783554
0.894644028065649
1.39516521638851
3.99560979857785
0.516971305575126
0.537237994755218
0.567903799857071
0.616939931299904
0.703429261874508
0.882966837441547
1.37540246061844
3.92172635597969
0.503928214292623
0.516826236191946
0.535600345085319
0.564349027429292
0.611070091577495
0.694986255694375
0.870641743885107
1.35187941191657
3.83380439696497
0.495513554346935
0.503810917014936
0.515413082101032
0.532762065440626
0.559863926340505
0.604669502565195
0.686009689691993
0.856688205935036
1.32389214078532
3.73062323348668
0.490090582271072
0.495426444656097
0.502520236979495
0.512967444145712
0.529124003644571
0.554840735715299
0.597816209188587
0.676167567968141
0.840681487130546
1.29120920615297
3.61018890832055
0.486651960487917
0.490044483208207
0.494234233802778
0.500331787918314
0.509889053224874
0.525071503767697
0.54949484048773
0.590482072029661
0.665293620674596
0.822469524238448
1.25347818361558
3.46981456879645
0.484548944091253
0.486654866050471
0.488948533043614
0.492249053258709
0.497664769811271
0.506558871301881
0.520862178845613
0.543941074397099
0.58268686873605
0.653391001398943
0.802011175685293
1.21017588099792
3.30591381186579
0.483349682476898
0.484602913020519
0.485652469351168
0.487139703630093
0.489911352313102
0.494901002295154
0.503243658546899
0.51667535023635
0.538317914245608
0.574579913745916
0.640636041949052
0.779378887881957
1.16063313055732
3.11353427214937
0.482756332700088
0.483441937954219
0.483676670628972
0.483991185397629
0.485070850432053
0.487602217895774
0.49230296927806
0.500145716535883
0.512715633984027
0.532880511143366
0.566504259688671
0.627449280682374
0.754885866999342
1.10413003386986
2.88703838954205
4.38355899005207
1.50779710692254
4.32028446935604
0.939511412645993
1.48817512629962
4.24764127551797
0.72814150514556
0.932261790366913
1.46056846026228
4.17383867833894
0.626284959693945
0.725230630793779
0.920066571328377
1.4342737579162
4.11180129567958
0.570396765507782
0.625124160163575
0.719179343321465
0.906747888436777
1.41314010867787
4.05611209804926
0.537343688475204
0.569942213853107
0.621759989262698
0.711476124580017
0.894424015181009
1.39479909633274
3.99470736755246
0.516868409852284
0.537128246654944
0.567784575379285
0.616807306972712
0.703275448587702
0.882770070751131
1.37508322250624
3.92098276519461
0.5038219860557
0.516715643832552
0.535484012867374
0.564225125098015
0.610935655196033
0.694834606602212
0.870453228447121
1.35158199636504
3.8331453533769
0.495395910027731
0.503690221747042
0.515288629160064
0.532632934324149
0.55972875147833
0.604525687919965
0.685850964507659
0.856495631190118
1.32359704888061
3.72998981057663
0.489955101259819
0.495288637870182
0.502379835859659
0.512823997763595
0.528976751531257
0.554688380150121
0.59765617803906
0.675993517285136
0.84047379357923
1.29089479302386
3.60954067853473
0.4864929784593
0.48988366379665
0.494071700161937
0.500167337969828
0.50972208756845
0.524901099703607
0.549319606765862
0.590299335629293
0.665096608792153
0.822236178399919
1.25312317298903
3.46911470004141
0.484361353490221
0.48646610100605
0.488759167678948
0.492058856977056
0.497472913385482
0.506364362646249
0.520663970548445
0.543737751446516
0.582475687988998
0.653164539911271
0.801742970545836
1.20975344681144
3.30512633065039
0.483129560417997
0.484383820062481
0.485434940480275
0.486922607128392
0.489693083345998
0.494680262638511
0.503019473131256
0.516446760197382
0.538083558553617
0.57433716986711
0.640377522658792
0.779076333582171
1.16014753496615
3.11267877233176
0.482505872065085
0.483201436088106
0.483441581314377
0.483757021586073
0.484834970573015
0.487363352017651
0.492060412722961
0.499898820910468
0.512463512290657
0.532621840487693
0.566237011515707
0.627169691014465
0.754584498687988
1.10374985039594
2.88628132355724
0.482286370926741
0.482613626706221
0.482329119893982
0.481895742855639
0.48190102782337
0.482885883484056
0.485336684618746
0.489834020060611
0.497254962682555
0.509052830036385
0.527829408217481
0.558847566099342
0.614439895498476
0.729260121116667
1.04085359196538
2.62296331929931
4.37636081288676
1.50595939105935
4.3150500075643
0.93871134654347
1.4868352942602
4.24382640210256
0.727716323923499
0.931676865461695
1.45958394175199
4.17105209012511
0.626031863582161
0.724913869414458
0.919631611206614
1.43353961200662
4.10974977718419
0.570230797920996
0.624928060958319
0.718935478399061
0.906415554453721
1.41257472872276
4.05452994034183
0.537221802885161
0.569804414734742
0.621599036351427
0.711279257560844
0.894159056860714
1.39435002080323
3.99352054277207
0.516766225379965
0.53701695782536
0.567660696553404
0.616665826335634
0.703106893904542
0.882548757624207
1.37471596364255
3.92006386809801
0.503724543513713
0.516612616640553
0.53537354894354
0.564104903618815
0.610802186313364
0.694680418987816
0.870256760995632
1.35126420664195
3.83239211567179
0.495293295950141
0.503583914693745
0.515177612348768
0.532516016668924
0.55960439121825
0.604391180555816
0.685699869691844
0.85630835827502
1.32330269795225
3.72933180716159
0.489840104526491
0.495170974695826
0.502258980265625
0.512699329337465
0.528847485242121
0.55455330916538
0.597512904156314
0.675836010640886
0.84028351485227
1.29060391207258
3.60891887467021
0.486359666518407
0.489748271494354
0.493934045685321
0.500027125476425
0.509578840155503
0.524754115422555
0.549167747289033
0.590140270930145
0.66492431216377
0.822031390354137
1.25281312264516
3.46848975534006
0.484204348648796
0.486307438241484
0.488599006526591
0.491897074568384
0.497309068167127
0.506197839707357
0.520494025954857
0.543563265042023
0.582294314129129
0.652969868144102
0.801513268649792
1.20940326747167
3.30446844352014
0.482943905140072
0.484197159240545
0.485247845754274
0.486734882481156
0.489503993277533
0.494488999756106
0.502825341634349
0.516249056598268
0.537881219885679
0.574127861635882
0.640154181174073
0.778812913481449
1.1597291979415
3.11195628241146
0.482287706169749
0.48298448328582
0.483226354281111
0.483542399438826
0.484619402214966
0.487145654869977
0.491839834355936
0.499674810308917
0.51223546289317
0.532388777181484
0.56599680232202
0.626915527121065
0.754288831612701
1.10326963753719
2.88552949267915
0.482037845266473
0.482375234116476
0.482096319811321
0.481664065687863
0.481667857583636
0.482650006979961
0.485097529106474
0.489591201324957
0.497008060251156
0.508801242293811
0.527572224842443
0.558583342300402
0.614166196752805
0.728970574098792
1.04049787683855
2.62236375284637
0.482054956862349
0.482158706466727
0.481550032696417
0.48065119984162
0.479990471162552
0.480021583816519
0.48109898600095
0.48359314225311
0.48802763927038
0.495222883839149
0.506521163479218
0.524276994193648
0.553143443745509
0.60377307665964
0.705574295203403
0.974700575929864
2.21610520102819
4.36672808108742
1.5034935302021
4.30794701852369
0.937630335618753
1.48501890625822
4.23859594776593
0.727142391044648
0.93088291437551
1.45824689563396
4.16719753626341
0.625696250459868
0.724489974581038
0.919045484057009
1.43254759870439
4.10690328455015
0.570019717906351
0.624675080146713
0.718616599404987
0.905976688420638
1.41183228611487
4.05238691559842
0.537077727378144
0.56963823654971
0.62140093263559
0.711032324003166
0.893822177888752
1.39377383425914
3.99190469963128
0.516656603610784
0.53689481951414
0.567521310467396
0.616502538357561
0.702907578282338
0.882281330884059
1.37426474798965
3.91885877276483
0.503629640430042
0.516510218141213
0.535261115159779
0.563979345732009
0.610659095738761
0.694510781636265
0.870035296981262
1.35089855568798
3.83146227256065
0.495200452738882
0.503486314421004
0.515073816391794
0.532404419629608
0.559483085083315
0.604257064559558
0.685545795409143
0.856113038998932
1.32298838091154
3.72858090771418
0.489740632086648
0.495068265563144
0.502152213550815
0.512587627196032
0.528729902115634
0.554428566002849
0.59737854910189
0.675685868508603
0.840098457392189
1.29031451786323
3.60827347153422
0.486247031186391
0.489633246100289
0.493816194835317
0.499905978190875
0.509453876611779
0.524624693652648
0.549032845180367
0.589997736173501
0.664768433513367
0.821844245778089
1.25252741331734
3.46789410493759
0.484073006982126
0.486174209845394
0.488463742312294
0.491759547285499
0.497168931915406
0.506054657969453
0.520347242275668
0.543411964265126
0.582136453905235
0.652799750746079
0.801312136572356
1.20909879335358
3.30388527214383
0.482788710916065
0.484040467357133
0.485089817996012
0.486575420168033
0.489342719808923
0.494325440602117
0.502659043200898
0.516079522634292
0.537707623270661
0.573948197148779
0.639962362711369
0.778587692488796
1.15938494361649
3.11135773266414
0.482103808209602
0.482799749641981
0.483041336741376
0.483356898140575
0.484432708636598
0.486957037698912
0.491648760290588
0.499480900963893
0.512038328671898
0.532187698944471
0.56578986357166
0.62669607025646
0.75403106825104
1.10285771544825
2.88490754526353
0.481821413333021
0.482160214796778
0.48188319583824
0.481451701561129
0.481454706738691
0.482434920484715
0.484879844254104
0.489370558618493
0.496784216578335
0.508573906727461
0.527340815075014
0.55834619411534
0.613917348881051
0.728682987591767
1.04002550025486
2.62175772792848
0.481808079863084
0.481922161541021
0.481319282789812
0.480421777290462
0.479759753072058
0.479788356410243
0.480862708096372
0.483353531370135
0.487784493286754
0.494975992292981
0.506270214826074
0.524021500245648
0.552882589065809
0.603506061248311
0.705298461449967
0.974375553222435
2.21611852068275
0.481969377711772
0.481939797384974
0.481137246547517
0.479960705534093
0.478903773317226
0.478368894776862
0.478635288957243
0.479959791093454
0.482685402786381
0.487330764845628
0.494702417131708
0.506095189535899
0.523721892951443
0.551785261917152
0.599459718794764
0.69095685928525
0.914938925935949
2.28699227690736
4.35400170317298
1.50020736573929
4.29844208086131
0.936180287952044
1.48257546600407
4.23151058144982
0.726368931553439
0.929809397747767
1.45643621342813
4.16192318485991
0.625246014576963
0.723917803987871
0.91825113289659
1.43120231489714
4.10297539398174
0.569742599344028
0.624339589314254
0.71818999073864
0.905385935534196
1.41083193029338
4.04947111755653
0.536897273160343
0.569426870557507
0.621145218478158
0.710709359079651
0.893378407930543
1.39301758027224
3.98967786582441
0.516529628829614
0.536750368788377
0.567352882141136
0.616301089069503
0.702657108126153
0.881940498126047
1.37368406232604
3.91722067551223
0.503530047533059
0.516400263563785
0.535137283333022
0.563837414964556
0.610493223073776
0.694309441351185
0.869766932979798
1.35044903744782
3.8302456745998
0.495111703749365
0.503391157741609
0.514970217625541
0.532290158581593
0.559355640159563
0.604112570775414
0.685375685181733
0.855892607970403
1.32262700190038
3.72765375919293
0.489651780024553
0.494975242695718
0.502053809931681
0.512482592096696
0.52861698895835
0.554306248318064
0.597244061980632
0.675532430680124
0.83990507481647
1.29000600099811
3.60753769224258
0.486150353738872
0.48953366472661
0.493712999293419
0.499798448389275
0.50934133470385
0.524506431677977
0.548907822081549
0.589863771764999
0.664619697272831
0.821662510750389
1.25224480643588
3.46727639935992
0.483962511852133
0.486061539089863
0.488348506880653
0.491641344025321
0.497047358881446
0.50592931421813
0.520217651914286
0.543277322755892
0.581994888149781
0.652645883509205
0.80112877352957
1.20881886319745
3.30333116940765
0.48265917392853
0.483909208316475
0.484956698685207
0.486440233562055
0.489205168970224
0.494185200290726
0.502515804550874
0.515932928142003
0.537557010722776
0.573791819036797
0.639794866735411
0.778390900527716
1.15908722287303
3.11083331100605
0.481950264978201
0.482644864647506
0.482885261062443
0.483199527207672
0.484273677863954
0.486795921380826
0.491485226270677
0.499314719490171
0.511869262453845
0.532015211445349
0.56561229670369
0.626507703231465
0.753811096396204
1.10252156073846
2.88440109687932
0.481639087672668
0.481977232491002
0.481700084755635
0.481268240309482
0.481270177007774
0.482248603130724
0.484691261091623
0.489179467466933
0.496590517557109
0.508377502020007
0.527141326238937
0.558142069949106
0.613702537168968
0.728432047829692
1.03962170296077
2.62125938308883
0.481593143022412
0.481708856306395
0.481108062540888
0.480211482754141
0.479548817886762
0.479575619416993
0.480647517424785
0.483135588741533
0.487563707631003
0.494752377713996
0.506043782284839
0.523792065960717
0.552649014819945
0.603263342462152
0.705020151119273
0.973910226955775
2.21610785061829
0.481723828162612
0.481704819289864
0.480908294751351
0.47973330934636
0.478675289986052
0.478138080661095
0.478401580773942
0.479722911891532
0.482445212872943
0.487087208847904
0.494455480887802
0.505844832938896
0.523467982618449
0.551527667489162
0.599199101220099
0.690692065577714
0.914612916668356
2.28700643360434
0.481968127466522
0.481864438860052
0.480953783014946
0.479622996586186
0.478346848789741
0.477499154564183
0.477317822081231
0.478000082442196
0.479799108230506
0.483091390861954
0.488448683397473
0.49675594558249
0.509432511553236
0.52888364070732
0.559539573107266
0.610542226486351
0.704028614147219
0.941711076032267
2.38167590478889
4.33742052682753
1.49589594690982
4.28588303710392
0.934256674554157
1.47931652253039
4.2220394708251
0.725334029642001
0.928369240210614
1.45400019634488
4.15479489448506
0.624641881226629
0.723146724447265
0.91717786672705
1.42938289277778
4.09761329208905
0.569373443534102
0.623889572322304
0.71761459282333
0.904586285315038
1.40947550813899
4.04545869856849
0.536662900344961
0.569149329041571
0.620806118401581
0.710277435444483
0.892781872646786
1.39200762584477
3.98667945088736
0.516373145843442
0.536569383959899
0.567138443546527
0.616040773338205
0.702329393647161
0.881491546159888
1.3729158575115
3.91496801833054
0.503417094213426
0.516272807130224
0.534990442443376
0.563665345667032
0.610287968583995
0.694055775315183
0.86942392431048
1.34987018902289
3.82859399913385
0.495020597395878
0.503291178466213
0.514858504483085
0.532163605917849
0.559210785229032
0.603944303532798
0.685173057276693
0.855624915901151
1.32218277367745
3.72644133482387
0.489568362475174
0.494886210714266
0.501957416260807
0.51237705025087
0.528500572168397
0.554176963124792
0.597098490990046
0.675362496708338
0.839686292999645
1.28965156646906
3.60662899976738
0.486065024961706
0.489444615315014
0.493619147175903
0.499698724108139
0.509234787160015
0.524392160054916
0.548784615158918
0.589729198040791
0.664467356294751
0.821472617051046
1.25194407963403
3.46657213017575
0.483868340952705
0.485964737208022
0.488248417658574
0.491537323752772
0.49693884633624
0.505815836654832
0.520098715615713
0.543152126786727
0.581861549995704
0.652498945615712
0.800951162252302
1.20854471790721
3.30275722467687
0.48255062488302
0.483798669894657
0.484843800622052
0.486324597151689
0.489086433630607
0.494063058380494
0.502390000027901
0.515803174871593
0.537422743058021
0.573651439532484
0.63964341162092
0.778211784770062
1.15881388160021
3.11034152298449
0.481822377410835
0.482515408374854
0.48275409776129
0.483066446673259
0.484138387451837
0.486658126676078
0.491344710921348
0.499171350545978
0.511722902494041
0.531865453134178
0.565457676492665
0.626343261328806
0.753619199338831
1.1022319132152
2.88396088060807
0.481487036030103
0.481823996450028
0.48154580287157
0.481112789646482
0.481113177073608
0.482089626043464
0.484530005306695
0.489015801951227
0.496424441107015
0.508209028950485
0.526970198600365
0.557966928425055
0.613518165507035
0.728218052075512
1.03929312227669
2.62086121741818
0.481412195105141
0.48152744230483
0.480926688635348
0.480029901502452
0.479366284301861
0.479391392087445
0.480461111637536
0.482946793020151
0.487372525872606
0.494558957222986
0.505848300612794
0.523594477525253
0.552448170453349
0.603053856693656
0.704776735799959
0.973512667562901
2.21609760029436
0.481510126969343
0.481492992156727
0.480698766568522
0.479524896309177
0.478466397233299
0.477927512956195
0.478188654529849
0.479507314621694
0.482226879852875
0.486866254539155
0.494232149692631
0.505619422877854
0.523240685654783
0.551297976454419
0.598962851505865
0.690421756359139
0.914155099942817
2.28699445525235
0.481723556221458
0.481630719640239
0.480726357805566
0.479397386375648
0.478120387086842
0.477270557571238
0.477086478338421
0.477765671419615
0.479561463241969
0.482850464455415
0.488204530294739
0.496508704028652
0.509182351511245
0.528630666241267
0.559283938158123
0.610283419192158
0.703711338264803
0.941134665627598
2.38167938551781
0.482011265805046
0.481871408570905
0.480907792461919
0.479502273099356
0.478120961749406
0.477123529204736
0.476727465697238
0.47710184270809
0.478459801471827
0.481118062473166
0.485555609417057
0.492508781873027
0.503152661934736
0.519466907451801
0.544998245120329
0.586588596311004
0.658820434981343
0.80191587382638
1.20217998287948
3.68517148169645
1.49031215317033
4.26952033711504
0.931727153544538
1.47504505855883
4.20953481925206
0.723962598628445
0.926456373211392
1.45075119682492
4.14528402171204
0.623836101045419
0.722114920143821
0.915738758408808
1.42693753671894
4.09038328001232
0.568880578494125
0.623285722030479
0.71683974024387
0.903506922181353
1.40764138928984
4.03999162623216
0.536353073067564
0.568779604528742
0.620351500212238
0.70969533048284
0.891974927924465
1.39064176492515
3.98259665007877
0.516172295384656
0.536334269517353
0.566856805455667
0.615695535324916
0.701891207218445
0.880889347761092
1.37189399154064
3.91186352393008
0.503280290431708
0.516115652888025
0.534806188463954
0.563445886370291
0.610022331799565
0.693723524974804
0.86897104738098
1.34910003229412
3.82633263128639
0.494919514133218
0.503177673528028
0.514728576052657
0.532012899049528
0.559034459833521
0.603735382370417
0.684917016634211
0.855281932559787
1.32161018870335
3.72479572866711
0.489484596003953
0.494794679267097
0.501855637277955
0.512262482215738
0.528370769270564
0.554029175634543
0.59692819912493
0.675159401628392
0.839420118565963
1.28921579967707
3.60543937694443
0.48598629449835
0.489360891451768
0.493528852290457
0.49960029845188
0.509126860996381
0.52427348501056
0.548653616452742
0.589582882335804
0.664298100143828
0.821257516603566
1.25159918091254
3.46570093248716
0.483786154046972
0.485879198160929
0.488158519173348
0.491442086749018
0.496837448042209
0.505707628527625
0.51998308099698
0.543028142927861
0.581727128018363
0.652348133066247
0.800765718545341
1.20825347993115
3.30210420537739
0.482458717178306
0.483704365088418
0.484746473134159
0.486223634056713
0.488981314042942
0.493953394019697
0.502275506317103
0.515683565784453
0.537297467606518
0.573518913759927
0.639498704547008
0.778038859005106
1.15854835835387
3.1098354118587
0.481715601017001
0.482406811217203