/*--------------------------------*- C++ -*----------------------------------*\
  =========                 |
  \\      /  F ield         | OpenFOAM: The Open Source CFD Toolbox
   \\    /   O peration     | Website:  https://openfoam.org
    \\  /    A nd           | Version:  12
     \\/     M anipulation  |
\*---------------------------------------------------------------------------*/
/*   Windows 32 and 64 bit porting by blueCAPE: http://www.bluecape.com.pt   *\
|  Based on Windows porting (2.0.x v4) by Symscape: http://www.symscape.com   |
\*---------------------------------------------------------------------------*/
FoamFile
{
    format      ascii;
    class       surfaceScalarField;
    location    "100";
    object      phi;
}
// * * * * * * * * * * * * * * * * * * * * * * * * * * * * * * * * * * * * * //

dimensions      [0 3 -1 0 0 0 0];

internalField   nonuniform List<scalar> 
29275
(
-4.01874505034942e-06
7.21228369482711e-08
4.67437818319385e-08
-4.13675193717677e-06
7.02763643714489e-08
4.77285008538217e-08
-1.53648611442088e-06
1.05210104491008e-07
7.43091122883839e-09
-5.08448170424757e-06
9.07849245768689e-08
1.05155694304503e-07
-4.25219613427651e-06
6.78668700866329e-08
4.75724593236448e-08
-1.57628835487903e-06
1.0213898747413e-07
7.93693785517238e-09
-5.23191573268557e-06
8.86519505962939e-08
1.06503072967129e-07
-1.29787375562578e-06
1.34834993275659e-07
3.87873420061649e-09
-1.87905042085529e-06
1.33449081803254e-07
1.43843067212771e-08
-5.78286909349576e-06
1.06793390254475e-07
1.67843342976e-07
-4.36529667340189e-06
6.5630381607251e-08
4.74655521907646e-08
-1.61558871636381e-06
9.89443919777301e-08
8.21920202460412e-09
-5.37617517527404e-06
8.51562244506753e-08
1.0666753640213e-07
-1.33068117798903e-06
1.30681485097457e-07
4.2643690976371e-09
-1.92739828998607e-06
1.29628833093511e-07
1.53047414657592e-08
-5.94987370633234e-06
1.04453824953643e-07
1.69043884960289e-07
-1.24792080262399e-06
1.63942329921497e-07
3.23885697346815e-09
-1.55712186403865e-06
1.69745609326716e-07
7.86246276922427e-09
-2.17465876925026e-06
1.58480932215922e-07
1.96786848769684e-08
-6.55595643949868e-06
1.224912352524e-07
2.37201481492703e-07
-4.4768237449119e-06
6.35985847541847e-08
4.79274838850773e-08
-1.6543941157368e-06
9.58172723489994e-08
8.61726874814395e-09
-5.51770901951497e-06
8.2061671169391e-08
1.06930077966251e-07
-1.36286143871372e-06
1.2662804763262e-07
4.4963015829037e-09
-1.97574260732145e-06
1.25525249137947e-07
1.61912248150377e-08
-6.11300406065708e-06
9.9987006743528e-08
1.69800946047152e-07
-1.27956119306647e-06
1.58800692813274e-07
3.52098478105437e-09
-1.5963693020776e-06
1.64573723773673e-07
8.56601729588577e-09
-2.22985144807621e-06
1.53979726542454e-07
2.09687017274466e-08
-6.74496089691075e-06
1.20025612493714e-07
2.38011695767237e-07
-1.2361053547121e-06
1.93093900138177e-07
3.22093434972253e-09
-1.46587432710981e-06
2.05464367210901e-07
5.68793657916639e-09
-1.82105153263089e-06
2.03495511290746e-07
9.68423978290726e-09
-2.454312997698e-06
1.81431705651489e-07
2.48421705097659e-08
-7.16965809657212e-06
1.33372798573869e-07
3.1285432079908e-07
-4.58739747610806e-06
6.16859732306192e-08
4.88842578764558e-08
-1.69287182291694e-06
9.28013581583141e-08
9.27330631327784e-09
-5.65729998668693e-06
7.94622215410939e-08
1.08046205558776e-07
-1.39458331839379e-06
1.22639080291263e-07
4.89931856758663e-09
-2.0238843375907e-06
1.2152397883206e-07
1.72937186449568e-08
-6.27310925431698e-06
9.61063050421688e-08
1.70918391148253e-07
-1.31054000327046e-06
1.53799652288413e-07
3.80664121823501e-09
-1.63516166135847e-06
1.59508341755941e-07
9.30431254990159e-09
-2.28532759578541e-06
1.49030399411982e-07
2.26197117077676e-08
-6.92904658065308e-06
1.14719340066099e-07
2.39162710445874e-07
-1.26773260573093e-06
1.86969873033712e-07
3.45771710049292e-09
-1.50311786347854e-06
1.99017720344369e-07
6.31965339273305e-09
-1.86649394627761e-06
1.97257658934063e-07
1.07290566559479e-08
-2.51621044299754e-06
1.76384794999333e-07
2.65033856925802e-08
-7.37552530142744e-06
1.30800877975905e-07
3.13075768775808e-07
-1.23175157902867e-06
2.22505029794649e-07
3.21464345610273e-09
-1.42281752729226e-06
2.4009997250045e-07
5.96779198916181e-09
-1.70633155420326e-06
2.45453265900854e-07
7.93741336675474e-09
-2.04393882501027e-06
2.32646697963879e-07
1.07206191816538e-08
-2.6347347285414e-06
1.94836813785936e-07
3.16389483461456e-08
-7.54422506977927e-06
1.38791875773589e-07
3.92762740736435e-07
-4.69750918651417e-06
5.98259773021139e-08
5.02843082598023e-08
-1.73126868607795e-06
8.9906726494523e-08
1.01747290868777e-08
-5.7956223529423e-06
7.71157683070944e-08
1.10087037713246e-07
-1.42605110014712e-06
1.18734871525289e-07
5.53380134840812e-09
-2.07171632294499e-06
1.17725009256176e-07
1.88407725244485e-08
-6.43112437595578e-06
9.29982255789142e-08
1.73056850594401e-07
-1.34102709629316e-06
1.48896012889389e-07
4.2297371677967e-09
-1.6736253495895e-06
1.54545879390037e-07
1.03402970996499e-08
-2.34082761995472e-06
1.44218686055322e-07
2.46787177892825e-08
-7.10943234495844e-06
1.10110588073698e-07
2.4119089155536e-07
-1.2986756289189e-06
1.81007697897725e-07
3.73457379974322e-09
-1.5396799626006e-06
1.92829081348764e-07
7.04663394587037e-09
-1.9115243835441e-06
1.91193481568988e-07
1.21705449203522e-08
-2.57843045931324e-06
1.70660791992671e-07
2.88940342084486e-08
-7.5754895244647e-06
1.24742009113023e-07
3.14378869449728e-07
-1.26358466677733e-06
2.15380915269423e-07
3.42186939199007e-09
-1.45928384456363e-06
2.32499891041776e-07
6.44113760015134e-09
-1.74936552958063e-06
2.37747990547482e-07
8.86239445585308e-09
-2.09453638421434e-06
2.25544601083669e-07
1.21655043214701e-08
-2.70051239873592e-06
1.89451894197307e-07
3.36257719069105e-08
-7.75945606460219e-06
1.35962846577388e-07
3.92345361177265e-07
-1.23044167614878e-06
2.520539279791e-07
3.35187560115166e-09
-1.40110877922117e-06
2.73627135243367e-07
6.85243312585417e-09
-1.63835791241881e-06
2.8535734067123e-07
8.91368923197294e-09
-1.89916034968882e-06
2.79275899524182e-07
1.01707330961423e-08
-2.16253601945446e-06
2.47463404297846e-07
1.26508906038562e-08
-2.71700936760794e-06
1.99286572014225e-07
4.06091172184469e-08
-7.73281383352524e-06
1.40491754021283e-07
4.7475889103039e-07
-4.80767908874814e-06
5.80211385366105e-08
5.21472629222033e-08
-1.76987399598849e-06
8.70971099334165e-08
1.13317312598312e-08
-5.93321019792889e-06
7.48240473032525e-08
1.13043137046311e-07
-1.4574656162725e-06
1.14937842944231e-07
6.38308742863935e-09
-2.11943012909812e-06
1.14111217760851e-07
2.08915709175634e-08
-6.58774022741654e-06
9.02483944204271e-08
1.76451310127028e-07
-1.37122583324651e-06
1.44104064282182e-07
4.82916165929249e-09
-1.71184517581641e-06
1.49698890581677e-07
1.17780413986929e-08
-2.39606214697967e-06
1.39710374415715e-07
2.73604101613908e-08
-7.28739398885562e-06
1.06543260962433e-07
2.44470097847377e-07
-1.32909600136711e-06
1.75178399428973e-07
4.13774758384003e-09
-1.5757558476842e-06
1.86794936234119e-07
8.05542640016261e-09
-1.95632106483675e-06
1.85285747873169e-07
1.40681064134276e-08
-2.64074410794893e-06
1.65116089496016e-07
3.1983210343617e-08
-7.77112396825668e-06
1.19734830501592e-07
3.17082479566489e-07
-1.29470137482839e-06
2.08441527499157e-07
3.68260495770131e-09
-1.49502192992275e-06
2.25192369298997e-07
7.10830737984896e-09
-1.79167649499269e-06
2.30386465526886e-07
1.01633445913812e-08
-2.14468569324342e-06
2.18627723851765e-07
1.43512023215789e-08
-2.76665556030527e-06
1.83124977572493e-07
3.66495503166321e-08
-7.96815270739611e-06
1.29501931793419e-07
3.93565209937045e-07
-1.26249726166059e-06
2.43897423968726e-07
3.53878453191993e-09
-1.43733184894181e-06
2.64881999044216e-07
7.26230593539466e-09
-1.68010536820375e-06
2.76257904212544e-07
9.67775802192773e-09
-1.94667231953243e-06
2.70492689119486e-07
1.14245191835956e-08
-2.2153210424264e-06
2.3991019886382e-07
1.44910066336085e-08
-2.7838757596519e-06
1.93619492506904e-07
4.28300443511153e-08
-7.95163781395075e-06
1.37474941742304e-07
4.73686359949535e-07
-1.23419593155832e-06
2.81510286947291e-07
3.75996231913045e-09
-1.39387745732334e-06
3.06490673353752e-07
7.76836195993606e-09
-1.60170452852568e-06
3.23494393047774e-07
1.0987599031826e-08
-1.80703861856841e-06
3.22386288434234e-07
1.2688304477311e-08
-1.98954372015183e-06
2.95046601325053e-07
1.30910670260817e-08
-2.19457520288647e-06
2.5013929146105e-07
1.61000868847036e-08
-2.73949377067468e-06
1.98686578349617e-07
5.12974826766301e-08
-7.82833888968115e-06
1.40713233924024e-07
5.57272815672061e-07
-4.91846077191827e-06
5.62740365963733e-08
5.45069943369651e-08
-1.80899374391018e-06
8.43704921862724e-08
1.27691378756337e-08
-6.07066716474004e-06
7.26046736650561e-08
1.16990708340599e-07
-1.48908497980011e-06
1.11252843953094e-07
7.46346922968383e-09
-2.1673300536775e-06
1.10581957106667e-07
2.34715299487409e-08
-6.74351685425657e-06
8.75883481677693e-08
1.81226761487914e-07
-1.4013519290614e-06
1.39451731399465e-07
5.61195417623424e-09
-1.74999250054402e-06
1.44987921698567e-07
1.36528430690662e-08
-2.45116157307858e-06
1.35443803814661e-07
3.07928486755321e-08
-7.46368722083497e-06
1.03425993056815e-07
2.49315757330874e-07
-1.3591934519123e-06
1.69500835962227e-07
4.70035662247078e-09
-1.61153158894504e-06
1.80877582489998e-07
9.42544842677897e-09
-2.00090159623336e-06
1.79530657289246e-07
1.65371924938833e-08
-2.702755052375e-06
1.5999915181588e-07
3.59135130187721e-08
-7.96395278961168e-06
1.15933675690404e-07
3.21358889557174e-07
-1.32526150845543e-06
2.0167353498567e-07
4.0647808983545e-09
-1.53021479709548e-06
2.18087848774642e-07
8.03676147114679e-09
-1.83350018794847e-06
2.23258270094603e-07
1.19051453098646e-08
-2.19460360328472e-06
2.11923413454487e-07
1.71771386464319e-08
-2.83288133237768e-06
1.7724028160622e-07
4.07011425189543e-08
-8.17199977677625e-06
1.24308615161165e-07
3.96612175348051e-07
-1.2938003767757e-06
2.35963484538579e-07
3.7809112131223e-09
-1.47279130273798e-06
2.56473904605568e-07
7.85993587629659e-09
-1.72103027034029e-06
2.67603320133113e-07
1.08151589549883e-08
-1.99336080224469e-06
2.62156430114147e-07
1.33219799335525e-08
-2.26767885177511e-06
2.32526200275031e-07
1.73045610608782e-08
-2.85114717055702e-06
1.87033636219891e-07
4.63864557727195e-08
-8.16346446215377e-06
1.30817722373909e-07
4.7456907920598e-07
-1.26651669070823e-06
2.72289048749273e-07
3.92897045854118e-09
-1.43017245703445e-06
2.96605922516875e-07
8.10922075385924e-09
-1.64287056702098e-06
3.13069897932559e-07
1.16154072574178e-08
-1.85268496727015e-06
3.12098821576749e-07
1.37168229020691e-08
-2.03863340134462e-06
2.85757442865682e-07
1.46647007252987e-08
-2.24712963696963e-06
2.42428062484175e-07
1.8234724534148e-08
-2.80574735627459e-06
1.92868167343461e-07
5.36848551799683e-08
-8.04772857516961e-06
1.37639141976312e-07
5.55431818696039e-07
-1.24464536924584e-06
3.10837653111589e-07
4.2750151450061e-09
-1.39724515781935e-06
3.38904997036442e-07
8.94117641205373e-09
-1.59018410067843e-06
3.60327525652028e-07
1.32313756386394e-08
-1.75754179940441e-06
3.632286602959e-07
1.61424281899458e-08
-1.88041454823008e-06
3.38800230093764e-07
1.70687247190312e-08
-2.00126457587842e-06
2.96245740344964e-07
1.68157977273227e-08
-2.18257840746279e-06
2.46770011106293e-07
2.07755419976762e-08
-2.73635825811497e-06
1.96229082478065e-07
6.32977156709641e-08
-7.90045933230552e-06
1.40843471311918e-07
6.39425647972347e-07
-5.03048738868085e-06
5.45794576600802e-08
5.7445753649683e-08
-1.84897293505131e-06
8.17372574704229e-08
1.45146789200471e-08
-6.20864935646642e-06
7.0448276894212e-08
1.2203645774448e-07
-1.52119395336785e-06
1.07689370729113e-07
8.79035134103084e-09
-2.21575337764588e-06
1.07149474950765e-07
2.66452423505396e-08
-6.89908980240675e-06
8.50141598641816e-08
1.87546011788352e-07
-1.43164652488516e-06
1.3495267184157e-07
6.59451180337669e-09
-1.78834991051707e-06
1.40403129831327e-07
1.5999437998926e-08
-2.50643771297741e-06
1.31293057687234e-07
3.50425890948369e-08
-7.63893288417804e-06
1.00447345265574e-07
2.56022028221128e-07
-1.3891792281961e-06
1.64006117223773e-07
5.43124382423331e-09
-1.6472217621953e-06
1.75100565215077e-07
1.11888724710902e-08
-2.0454083341101e-06
1.73942657613276e-07
1.96595417600296e-08
-2.76456862012526e-06
1.55187499199837e-07
4.08426811046955e-08
-8.15476052742686e-06
1.12569438131482e-07
3.27550220507209e-07
-1.35546042435152e-06
1.95103740390527e-07
4.59571665480774e-09
-1.56505856857528e-06
2.11146798953589e-07
9.27412201398069e-09
-1.87500648886831e-06
2.16292684238125e-07
1.41688994395478e-08
-2.2442361497384e-06
2.054191446249e-07
2.07486106114578e-08
-2.89872582541264e-06
1.71862038661056e-07
4.5825874161465e-08
-8.37261202973796e-06
1.20373332647245e-07
4.01587359922244e-07
-1.32451374273492e-06
2.28245940477386e-07
4.14071003217643e-09
-1.50766353559669e-06
2.483177714732e-07
8.7062332038488e-09
-1.76135934305205e-06
2.5925122669873e-07
1.23720371004874e-08
-2.03951341255365e-06
2.54135119092344e-07
1.58440120313952e-08
-2.31975107302408e-06
2.25479940425135e-07
2.10068247266932e-08
-2.91845266020735e-06
1.81062014450182e-07
5.1249527421367e-08
-8.3700240641388e-06
1.25550194841301e-07
4.77620114992221e-07
-1.29804241063874e-06
2.63340590061495e-07
4.1484696333886e-09
-1.46565973735384e-06
2.87101321389141e-07
8.64017846785096e-09
-1.68317278134856e-06
3.03162104901914e-07
1.26025226219085e-08
-1.8974219883215e-06
3.02374600004911e-07
1.5332087910374e-08
-2.08686121811997e-06
2.7697597807027e-07
1.7097712012667e-08
-2.29929069815914e-06
2.34935146905828e-07
2.15614514369383e-08
-2.87241397002363e-06
1.86220389043511e-07
5.76448227210971e-08
-8.25978843317048e-06
1.30872949640743e-07
5.55744965155626e-07
-1.27729739543427e-06
3.00529045788177e-07
4.41187188553425e-09
-1.43380481213547e-06
3.27827162640029e-07
9.2670445727437e-09
-1.63133509921705e-06
3.48586549207595e-07
1.3742677318742e-08
-1.8023138119254e-06
3.51517062613817e-07
1.69683867411619e-08
-1.92726524134277e-06
3.27982821365745e-07
1.83403738062022e-08
-2.04969985587069e-06
2.86875704073475e-07
1.86495579855889e-08
-2.23364770747283e-06
2.39064746312924e-07
2.31051155247838e-08
-2.80121337890659e-06
1.90400124378293e-07
6.5773606785648e-08
-8.11946746349365e-06
1.37762017668503e-07
6.36669620326644e-07
-1.26138844231455e-06
3.39999182092561e-07
4.88012858409042e-09
-1.40902977854489e-06
3.71054142468485e-07
1.0139552587858e-08
-1.5948949834974e-06
3.96597253589757e-07
1.53220442940251e-08
-1.74265230075993e-06
4.02883919911944e-07
1.95359827261259e-08
-1.82369987132303e-06
3.80312909544159e-07
2.17256694370398e-08
-1.8827564716687e-06
3.38859008591773e-07
2.17515778352784e-08
-1.97668912355502e-06
2.90523978860128e-07
2.1129626222464e-08
-2.15511035656623e-06
2.41405026617914e-07
2.6346053566251e-08
-2.7267136804422e-06
1.93557898230862e-07
7.64997655466853e-08
-7.98870615660258e-06
1.41786997700103e-07
7.20619061756971e-07
-5.14447090116581e-06
5.29353044945488e-08
6.10465964514573e-08
-1.89020216332429e-06
7.91885630401204e-08
1.66194703824018e-08
-6.34790063369778e-06
6.83497062953194e-08
1.28340683788883e-07
-1.55410549848303e-06
1.04251673190943e-07
1.0397089757054e-08
-2.26508780215366e-06
1.03810207164284e-07
3.04868235064406e-08
-7.05517252526776e-06
8.25040782981328e-08
1.95613320284937e-07
-1.46237867059788e-06
1.30621830255936e-07
7.79958172729373e-09
-1.82722999848093e-06
1.3594873918468e-07
1.88706853310382e-08
-2.56225770756371e-06
1.27259522398778e-07
4.02192626748893e-08
-7.81378801454276e-06
9.7562071479036e-08
2.64837215452268e-07
-1.41928767834431e-06
1.5871493756512e-07
6.34601581917302e-09
-1.68308949625122e-06
1.69480849222556e-07
1.33839988605e-08
-2.09012785110411e-06
1.68507293379446e-07
2.35042799995728e-08
-2.82650004119233e-06
1.5052956938743e-07
4.68894733904304e-08
-8.34420777276642e-06
1.09372248062899e-07
3.36092707757328e-07
-1.38550803162418e-06
1.88765073333701e-07
5.28849529320223e-09
-1.59977715161886e-06
2.0439397806619e-07
1.08557757369828e-08
-1.916413237197e-06
2.09511454253109e-07
1.70266756725393e-08
-2.29373254732849e-06
1.99129905966054e-07
2.52121931342746e-08
-2.96428590544274e-06
1.6678743831699e-07
5.21812057559479e-08
-8.57083941006281e-06
1.16913644903629e-07
4.08858821583961e-07
-1.35483117810926e-06
2.20777184628408e-07
4.64374070667179e-09
-1.54214479200241e-06
2.40377617416713e-07
9.84552244270866e-09
-1.80130559155175e-06
2.51102466857001e-07
1.44095516257795e-08
-2.08530463851579e-06
2.46310711776682e-07
1.90674266411945e-08
-2.37148411910847e-06
2.18681668618648e-07
2.56605129719499e-08
-2.98527507225103e-06
1.75639017828693e-07
5.73786181166694e-08
-8.57299006981267e-06
1.2162213026809e-07
4.82919157300206e-07
-1.32894181989728e-06
2.54662885963577e-07
4.48233210218394e-09
-1.50051807591705e-06
2.77901764657574e-07
9.41447574574186e-09
-1.72282557311082e-06
2.93618032132753e-07
1.3991364279897e-08
-1.94150556588143e-06
2.93044074171117e-07
1.75450903912767e-08
-2.13449301830518e-06
2.68594677072488e-07
2.03587368950228e-08
-2.35110622350856e-06
2.27880510731268e-07
2.6001804630697e-08
-2.9390477537368e-06
1.80297149483683e-07
6.3132223695401e-08
-8.46623243070549e-06
1.25573794104363e-07
5.58478703338207e-07
-1.30910855858005e-06
2.9054668019237e-07
4.60488300669756e-09
-1.4694987870281e-06
3.17204572683721e-07
9.73866351760934e-09
-1.67157821987984e-06
3.37441265922479e-07
1.46033802410276e-08
-1.84613819407336e-06
3.40452492534926e-07
1.8347691227676e-08
-1.97316018742126e-06
3.17808644041876e-07
2.03922613449362e-08
-2.09727133473881e-06
2.78072158005772e-07
2.15290737964069e-08
-2.28433708703577e-06
2.31647560482223e-07
2.68212086396177e-08
-2.86647926363256e-06
1.83789850727921e-07
6.99887668892174e-08
-8.33084038447121e-06
1.30953854225262e-07
6.36150153682645e-07
-1.29442245159087e-06
3.2855503529172e-07
5.00793643558372e-09
-1.44594782280337e-06
3.5876096235346e-07
1.03957172620149e-08
-1.63634043152897e-06
3.83550025009665e-07
1.57486044200849e-08
-1.78735238277269e-06
3.89763442812592e-07
2.0195525427441e-08
-1.86953376104748e-06
3.68049689651582e-07
2.27342685933981e-08
-1.92878346196791e-06
3.28012016988737e-07
2.32285328593671e-08
-2.0233997191526e-06
2.81272491106852e-07
2.315000826064e-08
-2.20419143878361e-06
2.3378992246572e-07
2.87936060698221e-08
-2.78991377122907e-06
1.87756863899183e-07
7.89743839696342e-08
-8.20752615052782e-06
1.38693090751953e-07
7.16788203134428e-07
-1.28273201722942e-06
3.6916758704252e-07
5.29125157022646e-09
-1.42746365851017e-06
4.03317351987779e-07
1.10919475273628e-08
-1.60989068921658e-06
4.32833818047767e-07
1.70704051386766e-08
-1.7482963985864e-06
4.4212693280899e-07
2.24491700561844e-08
-1.80754752558296e-06
4.2082384979188e-07
2.60820434727138e-08
-1.82281263765595e-06
3.7950353747924e-07
2.73073165936565e-08
-1.85349824391539e-06
3.31192125183994e-07
2.65791133142248e-08
-1.9408950032057e-06
2.82557538915966e-07
2.5900854653301e-08
-2.12429767408222e-06
2.35736568474253e-07
3.2749398958141e-08
-2.72106512393268e-06
1.91603457819433e-07
9.10503966887722e-08
-8.11365385328279e-06
1.44287571575661e-07
8.00092550725297e-07
-5.26118885386407e-06
5.13340888113083e-08
6.53821887484633e-08
-1.93311496001686e-06
7.67113267075986e-08
1.9135944763542e-08
-6.48926858727972e-06
6.63153084623938e-08
1.3609800764379e-07
-1.58817508149731e-06
1.00933432123366e-07
1.23243612381884e-08
-2.31576811314067e-06
1.00553914493661e-07
3.50943805618565e-08
-7.21260857218166e-06
8.00620644255314e-08
2.05712188900556e-07
-1.49385008718588e-06
1.26462365273279e-07
9.26056419952469e-09
-1.86698751053312e-06
1.31624378191188e-07
2.23397148570441e-08
-2.61905292438249e-06
1.23327172228766e-07
4.64585271293071e-08
-7.98898134287655e-06
9.47353254600137e-08
2.76068112568196e-07
-1.44978108630835e-06
1.53641893096522e-07
7.47320711897746e-09
-1.71943440110887e-06
1.64031179696617e-07
1.6061427502205e-08
-2.13540546824511e-06
1.6322707819982e-07
2.81801911132277e-08
-2.888930524977e-06
1.4600155362271e-07
5.42100005326583e-08
-8.5329856731688e-06
1.06322930637684e-07
3.47286900620966e-07
-1.4156344116742e-06
1.82682568220502e-07
6.15865986921055e-09
-1.634627631743e-06
1.97853646813598e-07
1.28232798139977e-08
-1.95800776860287e-06
2.0292994804674e-07
2.05551293994741e-08
-2.34342086578836e-06
1.93030479423942e-07
3.06912162096826e-08
-3.02984717782091e-06
1.61878324332062e-07
5.99434287368386e-08
-8.76737363472446e-06
1.13681037971185e-07
4.1894151908355e-07
-1.38496074609833e-06
2.13592425296299e-07
5.30205859899031e-09
-1.5764593465948e-06
2.3268221783941e-07
1.13143107522948e-08
-1.84111055930028e-06
2.43178966558976e-07
1.69925953046214e-08
-2.13095658527483e-06
2.38703212399637e-07
2.31038206345355e-08
-2.4230180849047e-06
2.12113657693687e-07
3.1418622645867e-08
-3.051681355656e-06
1.70550804727086e-07
6.49485185545645e-08
-8.77322690599355e-06
1.18252415069169e-07
4.90834728697449e-07
-1.35941177415411e-06
2.46289156096301e-07
4.9578241233324e-09
-1.53494636008105e-06
2.6897844649746e-07
1.04706276127645e-08
-1.76204784728532e-06
2.84333688521341e-07
1.58357691371838e-08
-1.98515921391649e-06
2.83957194117684e-07
2.04152017190618e-08
-2.18170090664637e-06
2.6044773895285e-07
2.45069876483031e-08
-2.40249655064988e-06
2.21112596178988e-07
3.15755965602278e-08
-3.00507855586711e-06
1.74980577907708e-07
7.00465350320065e-08
-8.66873911555358e-06
1.21722472085813e-07
5.63694140311519e-07
-1.34025379769172e-06
2.80896235004516e-07
4.91176333217026e-09
-1.50451615030145e-06
3.06951322743826e-07
1.04497363624076e-08
-1.71112595846504e-06
3.26724588176578e-07
1.58551503258866e-08
-1.88925236400039e-06
3.29848062153727e-07
2.03005004809625e-08
-2.01834845619442e-06
3.08101209210362e-07
2.3224708629602e-08
-2.14419259418608e-06
2.69734712268187e-07
2.54233616975311e-08
-2.33461996520839e-06
2.24740831495303e-07
3.18375569051969e-08
-2.93164078849493e-06
1.77969991961541e-07
7.58909124871873e-08
-8.53624986777582e-06
1.25679742311609e-07
6.38199823461024e-07
-1.32655960355478e-06
3.17515858964034e-07
5.16786667279241e-09
-1.48194834757721e-06
3.47003028899021e-07
1.08067514965347e-08
-1.67683340182118e-06
3.71164493227975e-07
1.65081195295435e-08
-1.83105797253294e-06
3.77371086966977e-07
2.13895783533882e-08
-1.91437418807021e-06
3.56519318108584e-07
2.44761566580908e-08
-1.97384398120228e-06
3.17868387086965e-07
2.56538242082497e-08
-2.06924798108602e-06
2.72644830365581e-07
2.63769422477811e-08
-2.25289105274962e-06
2.26523474124441e-07
3.27837999494247e-08
-2.85351157591675e-06
1.81211650929208e-07
8.33223124325855e-08
-8.41834308553519e-06
1.31784342431118e-07
7.15173671674742e-07
-1.31612700965474e-06
3.56555552163298e-07
5.39448988179584e-09
-1.46477755709686e-06
3.89775469005117e-07
1.13071615026587e-08
-1.65178500643702e-06
4.1842497633209e-07
1.7414602207105e-08
-1.7933454454108e-06
4.27582850278078e-07
2.29777568981656e-08
-1.85330920994767e-06
4.07127371277795e-07
2.68789394882829e-08
-1.86778971558435e-06
3.67248836176039e-07
2.84734143802717e-08
-1.89775465658656e-06
3.20545945508103e-07
2.82094138773019e-08
-1.98548940572928e-06
2.73493412591503e-07
2.80377421780715e-08
-2.17121767981198e-06
2.28228094132796e-07
3.52394983211467e-08
-2.78264098033448e-06
1.85792199336751e-07
9.3444394411576e-08
-8.33305119152365e-06
1.41096765062589e-07
7.95081748114926e-07
-1.30680161357068e-06
3.98454383902863e-07
5.51651728120087e-09
-1.45061904851867e-06
4.3579218173784e-07
1.17383625304279e-08
-1.63195096002114e-06
4.69277096929359e-07
1.83786322533789e-08
-1.7655415474829e-06
4.81413978078937e-07
2.47465191542309e-08
-1.81390128683969e-06
4.61053660488993e-07
2.97334632489359e-08
-1.80606951868219e-06
4.1932887395253e-07
3.24643574852973e-08
-1.7920010965621e-06
3.70158422415438e-07
3.27839839845047e-08
-1.81489177965333e-06
3.20956423368103e-07
3.15398702998718e-08
-1.90310748148864e-06
2.74126222416915e-07
3.11670983993602e-08
-2.0957966412384e-06
2.30628241612581e-07
4.01314630802275e-08
-2.72656729866278e-06
1.91169708878067e-07
1.07191762321131e-07
-8.28685215544558e-06
1.49123717774132e-07
8.76554390833086e-07
-5.38154815074091e-06
4.97570269778013e-08
7.0598110841805e-08
-1.97819686504213e-06
7.42903133131045e-08
2.2124856356541e-08
-6.63364919464561e-06
6.42965480158722e-08
1.45469688544686e-07
-1.62379794144436e-06
9.77199128925045e-08
1.46140842689762e-08
-2.36826630779795e-06
9.73665978316248e-08
4.05820458125005e-08
-7.3723758582135e-06
7.76955633014655e-08
2.18167187830654e-07
-1.52640014302223e-06
1.22470038892102e-07
1.10134503887118e-08
-1.90802150882854e-06
1.27422710300092e-07
2.64883121154714e-08
-2.67730492909776e-06
1.19488139395172e-07
5.39180508376746e-08
-8.16536513839333e-06
9.19831079090087e-08
2.90108376746524e-07
-1.48094899256475e-06
1.48788756976607e-07
8.84147395180509e-09
-1.75659280159639e-06
1.58755138612373e-07
1.9287799971671e-08
-2.18164494327246e-06
1.58095260374064e-07
3.38105793592732e-08
-2.95231626582959e-06
1.41586090145209e-07
6.29915432967693e-08
-8.7218857068146e-06
1.03403379191484e-07
3.61559236143311e-07
-1.44609523893346e-06
1.76872505199677e-07
7.23009029895239e-09
-1.66989754825957e-06
1.91542091364897e-07
1.52317638502566e-08
-2.00012425207446e-06
1.96557028010581e-07
2.48477660399538e-08
-2.39366739576489e-06
1.87112139715235e-07
3.73155128471279e-08
-3.09578669312927e-06
1.57154419595739e-07
6.9315448700881e-08
-8.96284815566446e-06
1.10630336367461e-07
4.32125784515481e-07
-1.41512795131124e-06
2.06717948837858e-07
6.13160842511238e-09
-1.61085910803865e-06
2.25260227026374e-07
1.31511566731607e-08
-1.88105849538707e-06
2.35507053223005e-07
2.01933423683024e-08
-2.17676997098133e-06
2.31330187048223e-07
2.8067602582983e-08
-2.47465946326038e-06
2.05762560806554e-07
3.84464698829765e-08
-3.11791609918511e-06
1.6565871362996e-07
7.41968132239405e-08
-8.97135331677291e-06
1.15121729813415e-07
5.01939375222508e-07
-1.38966068061497e-06
2.38255610927293e-07
5.58557001544754e-09
-1.56916809768285e-06
2.60363408378918e-07
1.18421619766769e-08
-1.8010855350456e-06
2.75333699315928e-07
1.81967118380971e-08
-2.02863407647149e-06
2.75133107207922e-07
2.40366401838058e-08
-2.22870572880654e-06
2.52545233039249e-07
2.96750534763656e-08
-2.45357877410776e-06
2.14600125000002e-07
3.84502990361941e-08
-3.07050009429542e-06
1.70030833665155e-07
7.8588605710579e-08
-8.86807584598009e-06
1.18445770060377e-07
5.7172302206784e-07
-1.37093591495969e-06
2.71613884330643e-07
5.35727444616458e-09
-1.53906453678983e-06
2.97034374381578e-07
1.14500110483331e-08
-1.75019934380424e-06
3.16328706168937e-07
1.75483199973586e-08
-1.93188745520714e-06
3.19547582299791e-07
2.2879397874446e-08
-2.06305177140786e-06
2.98673515086455e-07
2.68908488425444e-08
-2.19061494281074e-06
2.6166459211604e-07
3.03749095949508e-08
-2.38436993820356e-06
2.18161413036545e-07
3.8142147386354e-08
-2.99604416201241e-06
1.72811018930738e-07
8.33571474866216e-08
-8.73731460296553e-06
1.21922164665436e-07
6.42826341417066e-07
-1.35798766008569e-06
3.06879621053747e-07
5.44460325523652e-09
-1.51722805961576e-06
3.35685840535376e-07
1.14566638957516e-08
-1.71658732964502e-06
3.59276879544039e-07
1.76507923857435e-08
-1.87400434459387e-06
3.65507463225719e-07
2.31412839157067e-08
-1.95845594698574e-06
3.45517958618397e-07
2.6963788422492e-08
-2.01815523310081e-06
3.08242863780668e-07
2.90250455472281e-08
-2.1143946597448e-06
2.64533789926324e-07
3.07744173219436e-08
-2.3011169833184e-06
2.19819789788834e-07
3.82117568336319e-08
-2.91691893822096e-06
1.75512706118556e-07
8.94579875282425e-08
-8.62284854498826e-06
1.26540965545979e-07
7.1615473144117e-07
-1.34857414906558e-06
3.44426212964963e-07
5.53672442558924e-09
-1.50112520901674e-06
3.76846046305837e-07
1.16723306951918e-08
-1.69266762283249e-06
4.04764022512949e-07
1.80895445121241e-08
-1.83734335644198e-06
4.1384889078409e-07
2.40278810862125e-08
-1.89802997565722e-06
3.9424582631069e-07
2.83828433333337e-08
-1.91176256852663e-06
3.55785893269545e-07
3.05297304751968e-08
-1.94104302565419e-06
3.10654234785998e-07
3.09301640446302e-08
-2.02921414375966e-06
2.65108906128709e-07
3.15125903091709e-08
-2.21774596062911e-06
2.21124929295012e-07
3.93944737607345e-08
-2.84460953687157e-06
1.79266035836863e-07
9.78014932709741e-08
-8.54405097168799e-06
1.33977230455792e-07
7.92178716067872e-07
-1.34047774911962e-06
3.84624435852868e-07
5.60724074871476e-09
-1.48831215568319e-06
4.20942958340513e-07
1.19199947373069e-08
-1.6743332061248e-06
4.53453154939453e-07
1.86610274993663e-08
-1.81111007696645e-06
4.65397200264839e-07
2.51686246880394e-08
-1.86005771186758e-06
4.45899059121013e-07
3.03620176710384e-08
-1.8509951798711e-06
4.05672803386669e-07
3.33795558527614e-08
-1.83522361186885e-06
3.58172679418668e-07
3.40676546800291e-08
-1.85703980800518e-06
3.10583825809307e-07
3.32649247917372e-08
-1.94545364716825e-06
2.6525826857525e-07
3.33501432268227e-08
-2.14054639928324e-06
2.23191538655845e-07
4.25871508570658e-08
-2.78675186051217e-06
1.85270574704774e-07
1.09448008594846e-07
-8.50790017269228e-06
1.45732361675792e-07
8.70386010064429e-07
-1.33218897657335e-06
4.27870145431054e-07
5.60172969014378e-09
-1.47671846636128e-06
4.68501204166563e-07
1.20913455439397e-08
-1.6587586322618e-06
5.06031168042233e-07
1.92408101528981e-08
-1.79017730730998e-06
5.20978861201501e-07
2.64155708866865e-08
-1.8321430475334e-06
5.01388187903142e-07
3.25670677022727e-08
-1.81240783378937e-06
4.58974298217928e-07
3.67819519827886e-08
-1.77456139389679e-06
4.08480775100121e-07
3.85887454970237e-08
-1.75234431591101e-06
3.57904482864785e-07
3.81784914265614e-08
-1.77470885223951e-06
3.10077071115409e-07
3.67046471589398e-08
-1.86731797482955e-06
2.66094891650537e-07
3.70830654192735e-08
-2.07403438710843e-06
2.26891914039546e-07
4.87547055264488e-08
-2.74893521284106e-06
1.93193661289226e-07
1.25167961159757e-07
-8.51106538908617e-06
1.57506596850996e-07
9.47452404390665e-07
-5.50653497762414e-06
4.81772160055633e-08
7.6806924315317e-08
-2.02596599710414e-06
7.19029482959793e-08
2.56232038066899e-08
-6.78208897688768e-06