/*--------------------------------*- C++ -*----------------------------------*\
  =========                 |
  \\      /  F ield         | OpenFOAM: The Open Source CFD Toolbox
   \\    /   O peration     | Website:  https://openfoam.org
    \\  /    A nd           | Version:  12
     \\/     M anipulation  |
\*---------------------------------------------------------------------------*/
/*   Windows 32 and 64 bit porting by blueCAPE: http://www.bluecape.com.pt   *\
|  Based on Windows porting (2.0.x v4) by Symscape: http://www.symscape.com   |
\*---------------------------------------------------------------------------*/
FoamFile
{
    format      ascii;
    class       volVectorField;
    location    "100";
    object      U;
}
// * * * * * * * * * * * * * * * * * * * * * * * * * * * * * * * * * * * * * //

dimensions      [0 1 -1 0 0 0 0];

internalField   nonuniform List<vector> 
10244
(
(-1.45620500374208e-06 0.000839998288789763 1.79501185729866e-05)
(-1.24072474287713e-06 0.000859766670416377 1.72841370921008e-05)
(-1.28618370661785e-06 0.000662069897463962 3.2478874026873e-05)
(-4.47599059767024e-06 0.000851060134263026 1.82480839450407e-05)
(-9.82163186236614e-07 0.000880112488945042 1.67592288499045e-05)
(-1.18375161321884e-06 0.000677126223950986 3.1355938890514e-05)
(-3.93896599706671e-06 0.000868763118756089 1.74021046669303e-05)
(-7.41144770977067e-07 0.00065377537261552 4.99118121551114e-05)
(-4.52742671396145e-06 0.000643251015209544 3.23075813944223e-05)
(-7.57977161940151e-06 0.000850259702740386 1.88324514579305e-05)
(-7.90722455858211e-07 0.000900629887902542 1.63079037540535e-05)
(-1.02680186627019e-06 0.000692464572955574 3.03120376049127e-05)
(-3.25783928250128e-06 0.000888043088613305 1.67118256546895e-05)
(-6.69611489702897e-07 0.000669437236211746 4.81630020767792e-05)
(-4.22596601724537e-06 0.000656041062222888 3.11065465509914e-05)
(-6.90081748039616e-06 0.000866532564354264 1.7842595903398e-05)
(-4.82444878791318e-07 0.000651392490697213 6.78395090975482e-05)
(-2.20410527586559e-06 0.000649178835798477 5.01293357597132e-05)
(-8.34171188479355e-06 0.000637063226227421 3.2587054646244e-05)
(-1.02409517675674e-05 0.000860077505951505 1.91891825283701e-05)
(-5.78803441234337e-07 0.000921014179491324 1.58938438912072e-05)
(-8.64471962474009e-07 0.000707799985779011 2.93412858993788e-05)
(-2.66590212917319e-06 0.000908212216430784 1.62439057842372e-05)
(-5.60188943776883e-07 0.000685038960553077 4.6543033418139e-05)
(-3.7422295196073e-06 0.000669999367211202 3.00673855564393e-05)
(-5.99143728409341e-06 0.000885061527825196 1.70315069542654e-05)
(-4.22721980612935e-07 0.000667516701724115 6.55082776719311e-05)
(-2.00938815305934e-06 0.000663711863467396 4.82508214713842e-05)
(-7.85993263331144e-06 0.000648553338974358 3.13229673119743e-05)
(-9.43903813219153e-06 0.000875938732341826 1.81214507541535e-05)
(-1.96743847579313e-07 0.000655030735003721 8.55780439070154e-05)
(-9.672912359306e-07 0.000650109532225152 6.81787133296839e-05)
(-4.29764129154387e-06 0.000646576546061555 5.05315942156076e-05)
(-1.21958805517147e-05 0.000633751065018469 3.27801954999383e-05)
(-1.28484126872175e-05 0.000864179469409782 1.91609325791991e-05)
(-3.13146134017844e-07 0.000941393479931846 1.5515625830977e-05)
(-6.79716425687839e-07 0.000723019379418129 2.84447510157334e-05)
(-1.99234712301588e-06 0.00092832794105794 1.58753573032924e-05)
(-4.2562767062536e-07 0.000700484877706301 4.5021395320119e-05)
(-3.22260871620922e-06 0.000684512384544674 2.91149247829872e-05)
(-4.98718036129979e-06 0.000904890643485692 1.65546379607226e-05)
(-3.30816645024226e-07 0.000683426966561766 6.32984381488163e-05)
(-1.67659953927792e-06 0.000678707630604378 4.65727385690686e-05)
(-7.10999474477376e-06 0.000661747872774105 3.02753823856414e-05)
(-8.3622203768763e-06 0.000894219541819428 1.72109361988014e-05)
(-1.49875726750331e-07 0.000671622874496386 8.26516647613721e-05)
(-8.1019091749987e-07 0.000665590426326201 6.57185206836169e-05)
(-3.95659017218967e-06 0.000660316268490999 4.85597678248071e-05)
(-1.15314509242937e-05 0.000644472610218158 3.14824070775352e-05)
(-1.19326987209266e-05 0.000879659429910195 1.80461696962412e-05)
(9.38983104553908e-08 0.000663353337761369 0.000103091618143433)
(-4.83610932238303e-08 0.000654151679055796 8.58387793259433e-05)
(-1.85488793588903e-06 0.000648142109217906 6.84944956708299e-05)
(-6.45355043911319e-06 0.000643009118814599 5.05718738289558e-05)
(-1.6184507592846e-05 0.000626218743262157 3.24228101063199e-05)
(-1.56509817950772e-05 0.000861488680597293 1.87505643603603e-05)
(3.6816294890292e-09 0.000961930275316452 1.51636337226523e-05)
(-4.59301793284837e-07 0.000738224932570924 2.7623052034533e-05)
(-1.1717097822277e-06 0.000948454266359388 1.55815165826482e-05)
(-2.65331766870399e-07 0.000715787359262242 4.35784361060597e-05)
(-2.63183986300101e-06 0.00069900523441204 2.8272447569604e-05)
(-3.80725720265326e-06 0.000924709113487316 1.62267128235784e-05)
(-2.13431370061833e-07 0.000699120351106995 6.11849732239364e-05)
(-1.25754570843618e-06 0.000693846720558407 4.50545960479449e-05)
(-6.22801278651879e-06 0.000675837047073054 2.9331706662014e-05)
(-6.93631131757791e-06 0.00091400547375909 1.67059403516544e-05)
(-7.14697865891321e-08 0.000687929998589767 7.98540796959457e-05)
(-5.38173742423838e-07 0.000681159269640982 6.3456436045393e-05)
(-3.38655269004553e-06 0.000674841879331901 4.68443653205563e-05)
(-1.05313722289288e-05 0.000657093979458387 3.0407936574445e-05)
(-1.06188185742682e-05 0.000897401088249808 1.70139833211243e-05)
(1.29962275191415e-07 0.000680461692607414 9.95814065990765e-05)
(8.03058907757e-08 0.000670274573785324 8.27961668506105e-05)
(-1.58138075097636e-06 0.000663066349581767 6.59454478621861e-05)
(-5.94145775405477e-06 0.000656124037256352 4.85520219918355e-05)
(-1.53274152882921e-05 0.000636150862650144 3.1074657103631e-05)
(-1.45664062093493e-05 0.000876322952095567 1.75479173493154e-05)
(3.48208965320632e-07 0.000675047744736192 0.000120387488092268)
(6.93012678204465e-07 0.000662057940674028 0.000103087962153252)
(-7.78597303581281e-08 0.000651801903044418 8.59118368360606e-05)
(-2.83138058052719e-06 0.000644111556106032 6.82530836435983e-05)
(-8.68611944904286e-06 0.000635071154818358 4.96076864002043e-05)
(-2.02254953360932e-05 0.000614693340964888 3.14471137068376e-05)
(-1.84522781980232e-05 0.000852900899604383 1.79059959561623e-05)
(3.81456219951821e-07 0.000982811427864474 1.48455094473311e-05)
(-1.96142085649484e-07 0.000753563137919733 2.68383345840484e-05)
(-1.83915380974625e-07 0.000968758224002642 1.53073747198837e-05)
(-7.32752937285944e-08 0.000731041771761264 4.22106418655578e-05)
(-1.93131032089359e-06 0.000713503661570376 2.75403040608315e-05)
(-2.38043164565375e-06 0.000944557883338796 1.59764828902326e-05)
(-7.05653025679365e-08 0.000714641336637353 5.9167598293961e-05)
(-7.5820698927268e-07 0.00070890744293653 4.36393428929819e-05)
(-5.19380357233058e-06 0.000689968633171414 2.85257429411249e-05)
(-5.19626017556409e-06 0.000933833322069271 1.64075563924141e-05)
(3.05712351495548e-08 0.000703979990902179 7.71624294970264e-05)
(-1.82464144388202e-07 0.000696689457744354 6.13419236140449e-05)
(-2.65872958326297e-06 0.000689712698528912 4.53284124642001e-05)
(-9.28108986273545e-06 0.000670827161126685 2.94668916798463e-05)
(-8.7715350705447e-06 0.000916758337322011 1.65165066184579e-05)
(1.95724645128683e-07 0.000697231939420342 9.62018775684769e-05)
(3.11334720750036e-07 0.00068631557152573 7.99526307164035e-05)
(-1.11297509661537e-06 0.000678287530214195 6.36496211855773e-05)
(-5.12103125758276e-06 0.000670181347541939 4.68093460165383e-05)
(-1.40653457719498e-05 0.000648052987379321 2.98728490927053e-05)
(-1.29103714443995e-05 0.000893263897974039 1.64725186396911e-05)
(3.77808104317498e-07 0.000692686019457739 0.000116277156803664)
(7.96549518267112e-07 0.000678749611967782 9.94571786457714e-05)
(1.46353823464555e-07 0.000667461617194416 8.27824505198363e-05)
(-2.41215762287224e-06 0.000658512058702067 6.56658594371856e-05)
(-7.98620671388836e-06 0.000647462108226121 4.75740096361303e-05)
(-1.9189242414924e-05 0.00062370696054914 2.99719672822383e-05)
(-1.71007628838743e-05 0.000866843799619284 1.66380825483486e-05)
(5.56859841124138e-07 0.000688956425490614 0.000137493465953962)
(1.30320156502308e-06 0.000672996005840654 0.000120028072762003)
(1.29590320131215e-06 0.000658994489588919 0.000102810681867469)
(-1.73257473917585e-07 0.000646996281814691 8.52839513451768e-05)
(-3.8335878133396e-06 0.000635706262762215 6.67171338651404e-05)
(-1.08852775693971e-05 0.000623134984357301 4.77058916705979e-05)
(-2.41651058352086e-05 0.000600078438022478 2.98346927910892e-05)
(-2.09469252623202e-05 0.000840523461509157 1.6737914143988e-05)
(8.26901078642189e-07 0.0010042522007111 1.45720068878096e-05)
(1.18620079437804e-07 0.000769193646711202 2.61019603603545e-05)
(9.84338323464296e-07 0.000989405782777991 1.50716998326078e-05)
(1.56748233108086e-07 0.000746376148648168 4.09169723343634e-05)
(-1.09808203366628e-06 0.000728156423508131 2.68260767611035e-05)
(-6.82476062453144e-07 0.000964586373517226 1.57416958805652e-05)
(1.02255248042426e-07 0.000730086230389341 5.72496469584847e-05)
(-1.61003870690613e-07 0.000723933945750786 4.23108925752972e-05)
(-3.96052465333878e-06 0.0007041155407718 2.78290745158968e-05)
(-3.13578498189584e-06 0.000953674675021315 1.61797268168538e-05)
(1.5665804893972e-07 0.000719832207595327 7.45831457843461e-05)
(2.52059965460453e-07 0.000712089241101618 5.93419544668622e-05)
(-1.78082000916491e-06 0.00070455190707785 4.39307374424285e-05)
(-7.77857098257428e-06 0.0006846373101013 2.86902634779177e-05)
(-6.50710877123096e-06 0.000936286186446584 1.62270376361244e-05)
(2.84881691836193e-07 0.000713711373680822 9.29429904284636e-05)
(6.19703170649977e-07 0.000702229340577787 7.72648150192207e-05)
(-4.93546214063345e-07 0.000693607634688525 6.1540085866007e-05)
(-4.07216662682928e-06 0.00068473892263208 4.52953317390196e-05)
(-1.24358574332039e-05 0.000661217338674949 2.8984363350665e-05)
(-1.06563508447596e-05 0.000911962733107604 1.60172135569326e-05)
(4.3437599672493e-07 0.00070994289712325 0.00011231591678463)
(9.94604606762803e-07 0.0006952672750935 9.6042248128909e-05)
(5.41168166183904e-07 0.000683192680143364 7.99137674059531e-05)
(-1.73148675631538e-06 0.000673315497001905 6.33590102773636e-05)
(-6.91359880183679e-06 0.000660891200179657 4.58214670973613e-05)
(-1.7653971432203e-05 0.000634755111888316 2.87168441092621e-05)
(-1.51281876029869e-05 0.000882810034019601 1.55543021066144e-05)
(5.81159974381555e-07 0.000707111622941187 0.000132773445580879)
(1.38881939570898e-06 0.000690233573079503 0.000115808079880512)
(1.47821148076488e-06 0.000675254270181935 9.9102503375902e-05)
(1.67406039416828e-07 0.00066217057448044 8.21262731728224e-05)
(-3.25785619207791e-06 0.000649462834101704 6.41396490359433e-05)
(-1.00131056782855e-05 0.000634680553069409 4.56684341779322e-05)
(-2.2953840251104e-05 0.000608075617350365 2.82757157797541e-05)
(-1.9360507020946e-05 0.000853377058491216 1.54359905747556e-05)
(7.15822448366198e-07 0.000704208176940261 0.000154505818383938)
(1.81282474213352e-06 0.000686099553161974 0.000136804119817632)
(2.38569896545625e-06 0.000669091123545672 0.000119365690267424)
(1.88789139013169e-06 0.00065330796539526 0.000101724461016215)
(-2.75122309555279e-07 0.000637932981138269 8.31619782609822e-05)
(-4.83612001015504e-06 0.00062335633259873 6.4007861056532e-05)
(-1.2977341303165e-05 0.000608108946605736 4.50434146277733e-05)
(-2.78625061894237e-05 0.000583302149447666 2.7704156583524e-05)
(-2.29763989054516e-05 0.000826590689110486 1.52421420627082e-05)
(1.34576900174726e-06 0.00102648708242136 1.43497586699645e-05)
(4.90930113670972e-07 0.000785302197645804 2.54238922563123e-05)
(2.35361480366135e-06 0.0010106142114415 1.48872847322449e-05)
(4.31073904020002e-07 0.000761943462204909 3.96990998458533e-05)
(-1.10232143321445e-07 0.000743105500732208 2.61668394012699e-05)
(1.32183287050946e-06 0.000984968741449173 1.55447778397274e-05)
(3.09927586897396e-07 0.000745579828650732 5.54333460889787e-05)
(5.54499972898023e-07 0.000739043440730816 4.1062523661696e-05)
(-2.49777725630818e-06 0.00071840929943509 2.71551883020169e-05)
(-6.91505924297696e-07 0.000973665587661383 1.59721652274764e-05)
(3.11298769146262e-07 0.000735586504136747 7.2129025703025e-05)
(7.78858821902347e-07 0.000727423852120605 5.74530152492904e-05)
(-7.25279872353085e-07 0.000719370054820119 4.26265008399506e-05)
(-5.9810040864265e-06 0.000698449800240969 2.80195203997648e-05)
(-3.82687875536803e-06 0.000955797848037207 1.59612741517358e-05)
(3.97519271408313e-07 0.000729965405305242 8.98168909378175e-05)
(1.00447890028103e-06 0.00071797687809386 7.47052772051902e-05)
(2.70057454517089e-07 0.000708825370666838 5.95592297074933e-05)
(-2.79286678651312e-06 0.000699272420388301 4.39214457886821e-05)
(-1.04595123085568e-05 0.000674486119400009 2.82811578262201e-05)
(-7.89487138807009e-06 0.000930864595687961 1.57225471467826e-05)
(5.13628123404022e-07 0.000726875483352971 0.000108496639810067)
(1.26664713981082e-06 0.000711599837437769 9.27974694773294e-05)
(1.07844542424192e-06 0.000698897922827537 7.72409866236698e-05)
(-8.30865456806135e-07 0.00068831157191775 6.12698174494686e-05)
(-5.53592660255856e-06 0.000674910801192518 4.43543599156458e-05)
(-1.56554548407047e-05 0.000647167438555388 2.78785910784013e-05)
(-1.2489991858e-05 0.000900610419262168 1.51276636397068e-05)
(6.30588891588919e-07 0.000724846059423685 0.000128228273861404)
(1.56172371928942e-06 0.000707232355849031 0.000111825877420082)
(1.8170184413079e-06 0.000691464237174566 9.56748702112634e-05)
(7.41425676777631e-07 0.000677497120585816 7.9263021549503e-05)
(-2.36016477664059e-06 0.000663687237617552 6.18534357562082e-05)
(-8.70896911034553e-06 0.000647346859137024 4.39384203475985e-05)
(-2.11655239495482e-05 0.000618177006049137 2.70220589056773e-05)
(-1.71118263724228e-05 0.000868244781865357 1.43268088245304e-05)
(7.35089898493394e-07 0.000722842161160821 0.000149161569394037)
(1.88164266764233e-06 0.00070385537507464 0.000131983768073028)
(2.53300716713347e-06 0.000685901921493994 0.0001150790285356)
(2.16356779750037e-06 0.000669092107519635 9.80055605877984e-05)
(1.91712506816413e-07 0.000652495818010285 8.00363847744027e-05)
(-4.11501172961853e-06 0.000636338453263138 6.14659172315893e-05)
(-1.19686426601824e-05 0.000618712544512164 4.30217983737604e-05)
(-2.65027589303578e-05 0.000590205273499286 2.61390256724833e-05)
(-2.12289827186659e-05 0.000838239378091449 1.39363252148457e-05)
(8.26816804035826e-07 0.00072019037353616 0.000171520778589475)
(2.21975737934664e-06 0.000700647786541269 0.000153532466941784)
(3.25674507398178e-06 0.000681368351096864 0.000135768191089286)
(3.51857756566137e-06 0.000662517076901457 0.000117832175703592)
(2.49390073370736e-06 0.00064353689659034 9.90381883467023e-05)
(-3.99091925533789e-07 0.000625072891939881 7.97028867457486e-05)
(-5.80791717877097e-06 0.00060799139992492 6.03704717857667e-05)
(-1.49383697097585e-05 0.000590920566467412 4.17826793984948e-05)
(-3.12232064040918e-05 0.000565257824696224 2.52070287723838e-05)
(-2.44989367591256e-05 0.000812933619458653 1.3558145259826e-05)
(1.95417705499018e-06 0.00104979591301151 1.41815911678066e-05)
(9.29838046204004e-07 0.000802095990912521 2.4805359797743e-05)
(3.96161681454684e-06 0.00103261641279626 1.47658720868418e-05)
(7.5722766777229e-07 0.000777917285097309 3.85662778392513e-05)
(1.05310802501487e-06 0.000758534100586466 2.55725244757895e-05)
(3.67307388712306e-06 0.0010058981925744 1.54011692209227e-05)
(5.59372551566105e-07 0.000761263748390638 5.37282865597505e-05)
(1.40776625299185e-06 0.000754385904711676 3.98989051453376e-05)
(-7.69168091430511e-07 0.000732985129912157 2.65412775123165e-05)
(2.19733442909082e-06 0.00099397697682789 1.58033806626328e-05)
(4.98995285945747e-07 0.000751357795482385 6.98069089641089e-05)
(1.41508776962451e-06 0.000742808447207345 5.56754077404851e-05)
(5.39507465884103e-07 0.000734262402570933 4.14093061380062e-05)
(-3.84695479692435e-06 0.000712382497419523 2.73885021087627e-05)
(-6.42998285075344e-07 0.000975414223793005 1.57649298764042e-05)
(5.37908330083428e-07 0.000746094783176642 8.68400550006243e-05)
(1.47699864502885e-06 0.000733634618777335 7.22782554618573e-05)
(1.19945417612335e-06 0.000723979661441115 5.76985883621257e-05)
(-1.2431573296515e-06 0.000713746503716753 4.2657145070349e-05)
(-8.09526464024377e-06 0.000687735601902542 2.76557899984502e-05)
(-4.59248785467773e-06 0.000949722010054738 1.54373901110516e-05)
(6.16178893534672e-07 0.000743557324167803 0.000104835239000096)
(1.61224391067428e-06 0.000727735821719711 8.96986696216466e-05)
(1.75507533619962e-06 0.000714457958301249 7.47083149165306e-05)
(2.89162490472054e-07 0.000703219394779354 5.93219380610781e-05)
(-3.8474261996954e-06 0.00068891114147898 4.30386423065305e-05)
(-1.32308701419733e-05 0.000659693846136263 2.72306936734119e-05)
(-9.26222907741088e-06 0.00091861194472894 1.48671899573222e-05)
(7.02065985335229e-07 0.000742223744157043 0.000123851501944326)
(1.80662941449538e-06 0.000723998913765295 0.000108034145428369)
(2.29167451072083e-06 0.000707571419644236 9.24573514035304e-05)
(1.52613895957201e-06 0.000692867105964725 7.66251762732867e-05)
(-1.17429014138157e-06 0.000678162808433788 5.98222748522752e-05)
(-7.02119068930052e-06 0.000660656241252891 4.25360961352187e-05)
(-1.88350960913303e-05 0.000629702408352648 2.62410236310823e-05)
(-1.41509901535198e-05 0.00088500029564308 1.39021069090048e-05)
(7.7866099309833e-07 0.000741017418692174 0.000144023428399647)
(2.03363960161058e-06 0.000721320157079145 0.000127430123667134)
(2.82822783545508e-06 0.000702582181257458 0.000111098477482865)
(2.65597750049586e-06 0.000684893448520956 9.46025656484415e-05)
(9.50256581282778e-07 0.000667256522170117 7.72247265730914e-05)
(-3.01592708707273e-06 0.00064983778610749 5.92375776219596e-05)
(-1.0464841780007e-05 0.000630503023087234 4.13419360817982e-05)
(-2.45016164594852e-05 0.000599276246357743 2.49227564267676e-05)
(-1.87837555018345e-05 0.000851917841511162 1.28703038088478e-05)
(8.41452156086249e-07 0.000739243832516564 0.000165531752866527)
(2.27472808292287e-06 0.000718878403816976 0.000148095294644353)
(3.37379022442289e-06 0.000698692113373615 0.000130894345575785)
(3.73988901034793e-06 0.00067884869670571 0.000113552027198023)
(2.87003435632696e-06 0.0006587185029771 9.53745736450094e-05)
(1.85673786817292e-07 0.000638891799828011 7.66500779539514e-05)
(-4.9682484590503e-06 0.000620090381524912 5.78897413631032e-05)
(-1.38258693796976e-05 0.000600502803936251 3.98050723891868e-05)
(-2.97477670883549e-05 0.000570982629973366 2.36584987961058e-05)
(-2.26330195025029e-05 0.000823323175243823 1.22872787377905e-05)
(8.97996749743458e-07 0.000736486367540883 0.000188607912749218)
(2.5300696576015e-06 0.000716070040403223 0.000170303996604126)
(3.93862704142792e-06 0.000695186349242368 0.000152164489330758)
(4.81632946931363e-06 0.000673968320449323 0.000133821727601613)
(4.69188848855933e-06 0.000652047676903882 0.00011462111542018)
(3.05967849509987e-06 0.000630159067777835 9.49072029192662e-05)
(-5.59693942162243e-07 0.000609331254206707 7.51957292660651e-05)
(-6.74260105982876e-06 0.000590532019597516 5.60142133507397e-05)
(-1.67424486638781e-05 0.000572455190263334 3.80619512753966e-05)
(-3.41721326659053e-05 0.000546820053191119 2.24421950435316e-05)
(-2.54854011025892e-05 0.000800960293976911 1.17930275568402e-05)
(2.66212263542525e-06 0.00107447191564356 1.40674674730229e-05)
(1.4456766727805e-06 0.000819806229753858 2.42470466832836e-05)
(5.84416733025914e-06 0.00105568065207986 1.4718056175641e-05)
(1.14287042109592e-06 0.000794490382859005 3.75176849478526e-05)
(2.42076642258461e-06 0.000774643993696812 2.50470781872537e-05)
(6.43690165069658e-06 0.00102761618609396 1.53305622868283e-05)
(8.56694628976645e-07 0.000777300084808189 5.21354883165412e-05)
(2.42127611563714e-06 0.000770132703893299 3.88257988630282e-05)
(1.26408653188972e-06 0.000748022675500511 2.59940567184215e-05)
(5.6064898529059e-06 0.00101476650527786 1.56830392352533e-05)
(7.26168013813995e-07 0.000767284395289498 6.76249198764714e-05)
(2.17822946493469e-06 0.00075838478296276 5.40139088993638e-05)
(2.04668055917793e-06 0.000749369830028203 4.02850005421536e-05)
(-1.32994455169753e-06 0.000726571484074828 2.68120858301566e-05)
(3.13667463554966e-06 0.000995268013853096 1.56229239743899e-05)
(7.10630600961576e-07 0.000762216870684287 8.40247605803688e-05)
(2.05180496181659e-06 0.000749315016446657 6.99903756314792e-05)
(2.32257181773826e-06 0.000739177970562643 5.59571403015844e-05)
(6.16186995527148e-07 0.000728278832264351 4.14831699617908e-05)
(-5.29123479826986e-06 0.000701075387550917 2.70442259972611e-05)
(-6.35981439388963e-07 0.000968645642722561 1.52727998015951e-05)
(7.45918084444953e-07 0.000760090787712732 0.000101349996108979)
(2.04420598136296e-06 0.00074375698765588 8.67561219347812e-05)
(2.59000539723687e-06 0.000729929044957942 7.23160255103961e-05)
(1.65943158758019e-06 0.000718053480498465 5.75016439681816e-05)
(-1.80114077344629e-06 0.000702842204654596 4.18253764336795e-05)
(-1.03352008311458e-05 0.000672172226761549 2.66639542855578e-05)
(-5.3986477929921e-06 0.000936572610479475 1.46671180666233e-05)
(7.96862181375251e-07 0.000759324633098135 0.000119660751875322)
(2.12410298457543e-06 0.000740540397684493 0.000104411105876237)
(2.90173543301811e-06 0.000723500554768401 8.9396387526418e-05)
(2.52217705408455e-06 0.000708104663243481 7.41378842780708e-05)
(3.05428519663021e-07 0.00069255109086778 5.79443447825769e-05)
(-4.95151446332878e-06 0.000673935730499243 4.12960293478662e-05)
(-1.60160727200553e-05 0.000641330927595882 2.56668864530389e-05)
(-1.0550240755033e-05 0.0009019586052606 1.37206423749818e-05)
(8.44119476708292e-07 0.000758804027761546 0.000139085745229475)
(2.25647931446637e-06 0.000738511682617568 0.000123093351422399)
(3.2551956686052e-06 0.000719102804137201 0.00010734777320047)
(3.35087052785578e-06 0.000700648895094721 9.14372439191954e-05)
(1.98563748001331e-06 0.000682102785920133 7.46628985728101e-05)
(-1.56283782833669e-06 0.000663619397333083 5.72933819882484e-05)
(-8.50750285232756e-06 0.000642966379516681 4.00217891271154e-05)
(-2.18951768965542e-05 0.000609809336103515 2.42085975837727e-05)
(-1.55708426048232e-05 0.000867554086278741 1.25109463045977e-05)
(8.80559687034633e-07 0.000757801894680097 0.000159786356182783)
(2.41011167208844e-06 0.000736772282965858 0.000142959527871267)
(3.63369906749677e-06 0.000715823589299114 0.000126356651433966)
(4.1676967924646e-06 0.000695108811985273 0.00010961413928109)
(3.51983636087868e-06 0.000673954420658629 9.20485166518708e-05)
(1.11704376517513e-06 0.000652940290438237 7.39304957726011e-05)
(-3.69607974484827e-06 0.000632745237297714 5.57478130727006e-05)
(-1.21579742277347e-05 0.000611321133149271 3.81981895142717e-05)
(-2.75736334896292e-05 0.000578948967034506 2.2492670867535e-05)
(-2.00487658693822e-05 0.000835740991434653 1.12536588598986e-05)
(9.09945577123339e-07 0.000755881310116366 0.000181949000664806)
(2.57275910587121e-06 0.000734715211803572 0.000164230058590514)
(4.0318931632721e-06 0.000712978428093462 0.00014668772362008)
(4.99351565499126e-06 0.00069080547311482 0.000128970593863843)
(4.992827812698e-06 0.000667775950241263 0.000110417834770321)
(3.52981368562902e-06 0.000644608548894422 9.13462979796595e-05)
(1.24027542960058e-07 0.000622295543039043 7.22449360288617e-05)
(-5.81219823640491e-06 0.000601660376001368 5.36183423827736e-05)
(-1.55506089370705e-05 0.000580940730626684 3.61413539501271e-05)
(-3.26107739771862e-05 0.000551294135372303 2.09034241516576e-05)
(-2.35182954872094e-05 0.000810025232573258 1.05223553612191e-05)
(9.41371495309036e-07 0.000752816869999228 0.000205798914008452)
(2.7486670150671e-06 0.000731939297361398 0.000187180150778104)
(4.46356385592125e-06 0.000710010933617771 0.000168641407581481)
(5.83716797885473e-06 0.000687071117755449 0.000149831840792086)
(6.43654491013471e-06 0.000662850323367473 0.00013012223849521)
(5.80561400472839e-06 0.000638171549048158 0.000109879598572584)
(3.53578387112597e-06 0.000614057423377397 8.96337146403496e-05)
(-7.65342207768711e-07 0.000591599852593624 6.98782930530879e-05)
(-7.63495725426547e-06 0.000571837670714929 5.1104898852391e-05)
(-1.83467319191185e-05 0.000553577273627256 3.39981826045868e-05)
(-3.66465351370088e-05 0.0005288763964456 1.94619884728312e-05)
(-2.59660739543144e-05 0.00079179855653462 9.91497899758463e-06)
(3.48421787239812e-06 0.00110084685119715 1.40234529830212e-05)
(2.0498399280626e-06 0.000838688230623846 2.37497215519609e-05)
(8.02243943152891e-06 0.00108012761737694 1.46898618023736e-05)
(1.5961399406623e-06 0.000811875896692114 3.65507628517866e-05)
(4.02420317649399e-06 0.000791660716279554 2.45957231836001e-05)
(9.67706458924699e-06 0.00105038221823505 1.5346647128126e-05)
(1.20872845856375e-06 0.000793871610652915 5.06540052590176e-05)
(3.61986071705333e-06 0.000786473271322441 3.78456512412096e-05)
(3.65012249597606e-06 0.000763718159794424 2.55244240737475e-05)
(9.61677467480801e-06 0.00103624542424446 1.56391361345228e-05)
(9.98817651339079e-07 0.000783523261643999 6.55841045706268e-05)
(3.09064294485858e-06 0.000774312345808302 5.24720712563723e-05)
(3.83421014825774e-06 0.000764865663389553 3.92572093969806e-05)
(1.6284042499113e-06 0.000741181723960704 2.62943950531804e-05)
(7.61613346705789e-06 0.00101555610247508 1.55493188531855e-05)
(9.20885673670026e-07 0.000778465367791097 8.13777788636478e-05)
(2.74927750017173e-06 0.000765152941132485 6.78485579423654e-05)
(3.67022167444032e-06 0.000754558358760799 5.4338698543417e-05)
(2.82943500689122e-06 0.000743016002105856 4.04011436079623e-05)
(-1.98459377220389e-06 0.000714624955335595 2.64997729386283e-05)
(4.02377434010032e-06 0.000987719214522665 1.51701496254094e-05)
(9.07102340161903e-07 0.000776592486209623 9.80554536332349e-05)
(2.5763367067943e-06 0.000759775837769133 8.39808212034029e-05)
(3.60837475641767e-06 0.000745419178697637 7.0070248795969e-05)
(3.31759710335715e-06 0.000732916543367078 5.58061706902799e-05)
(6.53954276409422e-07 0.00071680399990106 4.07040927421258e-05)
(-6.90177664494985e-06 0.000684696949243035 2.61078164995921e-05)
(-7.66850162126054e-07 0.000954541387532616 1.45518025456752e-05)
(9.18558388840123e-07 0.000776253611490213 0.00011567693592523)
(2.52586440871535e-06 0.000756943457910307 0.000100970513027938)
(3.66549855977557e-06 0.0007393176146664 8.64981920241905e-05)
(3.7558649189566e-06 0.000723247524110358 7.17974122442575e-05)
(2.11894835112096e-06 0.000706849795979345 5.61965713249206e-05)
(-2.4481888774749e-06 0.000687119102181004 4.01608619765829e-05)
(-1.26579375855261e-05 0.000652877989331662 2.51735535547067e-05)
(-6.24976933272514e-06 0.000918843530635134 1.36050312200572e-05)
(9.32962694482092e-07 0.000776288368949227 0.000134367262953595)
(2.55147519649248e-06 0.000755450305200365 0.000118952335075888)
(3.81474319253226e-06 0.000735415667923891 0.000103774709786002)
(4.25042209205502e-06 0.000716238016010702 8.84374605928172e-05)
(3.30375334947723e-06 0.000696819579465713 7.2261819014474e-05)
(2.50943827958153e-07 0.00067730465497235 5.55135213826122e-05)
(-6.10874342232686e-06 0.000655380705292814 3.88779737588723e-05)
(-1.87496795755071e-05 0.000620426948960234 2.37150689597796e-05)
(-1.16793437389181e-05 0.000883387802824809 1.24252115882055e-05)
(9.41631246467358e-07 0.000775939629685365 0.000154278784110082)
(2.61568626364169e-06 0.000754356128743283 0.0001380727198011)
(4.02270506983819e-06 0.000732749244563473 0.000122074643287953)
(4.79177177787017e-06 0.000711259684079299 0.000105932586553803)
(4.43652893632781e-06 0.00068917921306685 8.89798657702883e-05)
(2.38603476613611e-06 0.000667096793807747 7.14803369449041e-05)
(-2.01146655709933e-06 0.000645699095122196 5.39140402255145e-05)
(-9.97857298511618e-06 0.000622830841362678 3.6974684611099e-05)
(-2.47465801807495e-05 0.000588419263230015 2.18575427679816e-05)
(-1.66742231151825e-05 0.000850210906919041 1.09680181923465e-05)
(9.46071895754667e-07 0.00077474551712901 0.000175577267097016)
(2.69516912006742e-06 0.000752982299985484 0.000158496769605476)
(4.26418590504961e-06 0.000730526611165189 0.000141581713165885)
(5.37001181901767e-06 0.000707504473685408 0.000124492267283443)
(5.55602998203884e-06 0.000683465958376162 0.000106578881626071)
(4.32739510505228e-06 0.000659137629666475 8.81413605328024e-05)
(1.20485540778376e-06 0.000635514642923119 6.96474254405175e-05)
(-4.39956382385294e-06 0.000613376068310062 5.15854852534423e-05)
(-1.37504398400745e-05 0.000590711992504965 3.46180831965368e-05)
(-3.03047436401206e-05 0.000558102940209096 1.97828977427094e-05)
(-2.08444187478694e-05 0.00082114067096957 9.46872695123938e-06)
(9.51560070247222e-07 0.000772461254118073 0.000198442187607182)
(2.78307066555597e-06 0.000750923717888644 0.000180444107141752)
(4.53805355863561e-06 0.000728212473588074 0.000162539359979698)
(5.97776307694648e-06 0.000704368534765767 0.000144393309305302)
(6.67601600157596e-06 0.000679080246081986 0.000125368626729742)
(6.18092293192731e-06 0.000653172300232307 0.000105805379034123)
(4.08537872194829e-06 0.000627667787217578 8.62085187774579e-05)
(-5.54808499195068e-09 0.000603622515274489 6.70506972431152e-05)
(-6.63840240216096e-06 0.0005819253358081 4.8805635944517e-05)
(-1.71005772620623e-05 0.000560905318656409 3.21283048892824e-05)
(-3.50193642573236e-05 0.000532031996132909 1.79173149667939e-05)
(-2.38810760343558e-05 0.000799515958610207 8.59080289979324e-06)
(9.6253961874587e-07 0.000769016058020685 0.000223091339021566)
(2.88925598091279e-06 0.000747957409654727 0.000204177181675045)
(4.84295297117498e-06 0.000725416172824572 0.000185239535091992)
(6.61265881641518e-06 0.000701307829255089 0.0001659411250572)