/*--------------------------------*- C++ -*----------------------------------*\
  =========                 |
  \\      /  F ield         | OpenFOAM: The Open Source CFD Toolbox
   \\    /   O peration     | Website:  https://openfoam.org
    \\  /    A nd           | Version:  12
     \\/     M anipulation  |
\*---------------------------------------------------------------------------*/
/*   Windows 32 and 64 bit porting by blueCAPE: http://www.bluecape.com.pt   *\
|  Based on Windows porting (2.0.x v4) by Symscape: http://www.symscape.com   |
\*---------------------------------------------------------------------------*/
FoamFile
{
    format      ascii;
    class       volScalarField;
    location    "400";
    object      k;
}
// * * * * * * * * * * * * * * * * * * * * * * * * * * * * * * * * * * * * * //

dimensions      [0 2 -2 0 0 0 0];

internalField   nonuniform List<scalar> 
10252
(
5.58266825167971e-05
5.60273873227869e-05
5.72187121473753e-05
0.000217735446179891
5.61802105865485e-05
5.74410486937581e-05
0.000217977472809841
5.90523057255447e-05
0.000218181799025927
0.000334089604085764
5.62354900662345e-05
5.76119982391726e-05
0.000218042226175922
5.92936495207969e-05
0.000218434449600733
0.000334282657909744
5.96107979645726e-05
0.00021841940470501
0.000333871651727533
0.000424820068277272
5.61975870483899e-05
5.76709273004079e-05
0.000217897127505962
5.94767615412355e-05
0.000218503510093255
0.000334209843909747
5.98632356269075e-05
0.000218678124169664
0.000334072974685583
0.000424961850397141
5.81258353000429e-05
0.000216889132296587
0.000332353521319828
0.000424255599289905
0.000501967419174123
5.60736023129112e-05
5.76308733284943e-05
0.00021753328752856
5.9536964449682e-05
0.00021835980855301
0.000333846346161334
6.00546359434665e-05
0.000218750075108264
0.000334002614515073
0.000424762535170592
5.83803925492221e-05
0.000217149899109854
0.000332557373102711
0.000424406905572563
0.000502057531494079
5.50992442771165e-05
0.000212601038872066
0.000328636673502165
0.000421608593346793
0.000501027037744945
0.000570469648773582
5.5867621938816e-05
5.75026146900974e-05
0.000216947056146015
5.94915621877422e-05
0.00021799606000626
0.000333177149021135
6.01157761073104e-05
0.000218606587185353
0.000333639855343615
0.000424200499129995
5.85764279362645e-05
0.000217224020408981
0.000332488596990021
0.000424209884441036
0.000501740415808198
5.53498826856412e-05
0.0002128598661745
0.000328838575993409
0.000421762399331824
0.000501128591480475
0.00057050706647362
5.13391445707175e-05
0.000205755462368283
0.000322057160001697
0.000416202248409635
0.000497446427105412
0.00056909476762464
0.000632740548138134
5.55804139029689e-05
5.72907893559246e-05
0.000216134225658881
5.93541935775426e-05
0.000217409257807667
0.000332191471862672
6.00680220990315e-05
0.000218241371280671
0.000332970795538612
0.00042325912461362
5.86397730276835e-05
0.000217081888452325
0.000332127003395143
0.000423648383117131
0.000500995285200128
5.55479288602222e-05
0.000212935512339816
0.000328770454607832
0.000421567214382489
0.00050081442361305
0.000570078016388826
5.1582379903324e-05
0.000206009138778052
0.000322253698813116
0.000416353173670805
0.000497551434389537
0.000569145665760839
0.000632724099545608
4.72428853601789e-05
0.000197057479153846
0.00031267715680315
0.000407654495123417
0.000490612389746104
0.000564632262491744
0.000630995933063312
0.000690184802082764
5.52105349245093e-05
5.69972589103819e-05
0.000215088177103337
5.91307861448604e-05
0.000216595438874969
0.000330878696145621
5.99272181699907e-05
0.000217652104406771
0.000331985033479819
0.000421924134571756
5.85942384102995e-05
0.000216717768350728
0.000331459139022646
0.00042270719189566
0.000499804890512173
5.56146593232958e-05
0.000212796911821539
0.000328411303229175
0.000421007813774662
0.000500070389802373
0.000569161339606941
5.17811639367777e-05
0.000206085801093573
0.000322185571386828
0.000416158975302088
0.00049724014887596
0.00056872057467599
0.00063218717726086
4.74764269815493e-05
0.000197303562037842
0.000312865674156893
0.000407798985217314
0.000490714785782126
0.000564687928868527
0.000630994871489591
0.000690113281680994
4.28610545386945e-05
0.000186986288602192
0.000300932217181426
0.000396090078292045
0.000480326425735282
0.000556533822691085
0.000625783904246496
0.000688191353149619
0.000743729756522635
5.47571139733063e-05
5.66207822473743e-05
0.00021379980884412
5.88240642205771e-05
0.000215548314447031
0.000329226663210435
5.9699387578257e-05
0.000216835248840324
0.000330672090279411
0.00042018094141566
5.8455720983537e-05
0.000216129864279529
0.000330474927523635
0.000421372417921196
0.000498153138235635
5.55747090954154e-05
0.000212438359194347
0.000327747550127687
0.000420069593928404
0.000498880960589143
0.000567739277993985
5.18513698790406e-05
0.000205952722445136
0.000321830789046868
0.000415603622136885
0.000496499681315587
0.000567806035868007
0.000631107900347769
4.76751097388812e-05
0.000197380864962346
0.000312797216760115
0.000407605140156036
0.000490405757129425
0.00056426718658577
0.000630462938844982
0.000689471423831111
4.30840717116216e-05
0.000187223045584435
0.00030111060143958
0.000396225707802813
0.000480422533142859
0.000556587733248001
0.000625789024531638
0.000688136938224692
0.000743601934569413
3.81813649579236e-05
0.000175687653323054
0.000287165738213633
0.000381849280245687
0.000466813614717692
0.000544720973657493
0.000616624019153715
0.000682411472593104
0.000741581005123803
0.000793987886061045
5.4217321577245e-05
5.61591654099806e-05
0.000212258999133274
5.84319562894182e-05
0.000214258905589103
0.000327221242234382
5.93866512224717e-05
0.000215784735676938
0.000329019871259416
0.000418013485972113
5.82320976646944e-05
0.000215314989991759
0.000329164134917709
0.000419629597370106
0.000496022964900114
5.54444183904768e-05
0.000211858318150765
0.000326769317882731
0.0004187389970508
0.000497230489926614
0.000565794633207861
5.18180826503206e-05
0.000205603929925054
0.000321175416994112
0.000414672425058312
0.000495315310895457
0.000566386252500526
0.000629467835365996
4.77484653658305e-05
0.000197254678530158
0.000312448856591028
0.000407056048627223
0.000489671552764133
0.000563358096891962
0.000629386774050226
0.000688236430893754
4.32827440813114e-05
0.000187301034850826
0.000301041735009569
0.000396032051338991
0.000480115290490754
0.000556170994958631
0.000625262956638992
0.000687500922307666
0.000742857198938984
3.83921858577621e-05
0.000175914798308596
0.000287332330224533
0.000381974202504527
0.000466901186049506
0.000544769399365093
0.000616628501988785
0.000682364588738915
0.000741471797935804
0.000793802370609671
3.32399822853434e-05
0.000163160718853768
0.000271536769740564
0.000365188449506062
0.000450399030316289
0.000529491613376017
0.000603512324565448
0.000672402901745421
0.000735378863836484
0.000791732769928039
0.000841330510557819
5.35841471664041e-05
5.56095619414975e-05
0.00021045262551228
5.79502580283086e-05
0.00021271633176791
0.000324845500542654
5.89868762644327e-05
0.000214491574205526
0.000327014144751601
0.000415403824530802
5.79255169754241e-05
0.000214267264515666
0.000327514805469481
0.000417462705504374
0.000493395606174872
5.52318208282184e-05
0.000211054056511265
0.000325466631001559
0.000417001769765605
0.000495102058810977
0.00056330864081526
5.16982138785731e-05
0.000205038039216258
0.000320209626809857
0.000413351990067124
0.000493671797856902
0.000564444510830963
0.000627248865012569
4.77224709306759e-05
0.000196918572815873
0.000311806246093335
0.000406136680930548
0.000488497452695976
0.000561945837579609
0.000627750181415553
0.000686389102621805
4.33597664656237e-05
0.000187183012269748
0.000300701707593706
0.000395491566662553
0.000479390049918304
0.000555270742395539
0.00062419406809601
0.000686269759008472
0.000741471681164021
3.85943406511826e-05
0.000175995251255187
0.000287263354305168
0.000381780949807255
0.000466595784810542
0.000544356414029361
0.000616108279276625
0.000681735784290664
0.000740733572116114
0.000792956072627779
3.34412910758093e-05
0.000163383173805048
0.000271690418306637
0.000365301184934485
0.000450476471715536
0.000529532467509452
0.000603512452576779
0.00067235655629154
0.00073527842836879
0.000791567265103981
0.000841085798558574
2.81256709976937e-05
0.000149398695702956
0.000254108291382305
0.000346246875407815
0.000431299796973876
0.000511175252348046
0.000586792736071274
0.000658203526220848
0.00072468583771072
0.000785195511242112
0.00083898861266203
0.000885953335773161
5.28545066105724e-05
5.49647517522264e-05
0.000208366009193508
5.7376474724929e-05
0.000210907887455709
0.000322081900719055
5.84992794868087e-05
0.000212944607707837
0.000324638453233251
0.000412331768679176
5.75345212084218e-05
0.000212977838421786
0.000325512816659295
0.000414853759225421
0.000490250391780231
5.49404820603535e-05
0.0002100200726694
0.00032382776411623
0.00041484203348801
0.000492476956863389
0.000560260648132457
5.15008467841174e-05
0.000204252729433675
0.000318923677968746
0.000411628295343824
0.000491552468992474
0.000561962254512855
0.000624431088100681
4.76143551962558e-05
0.000196371355332442
0.000310859519920372
0.000404833657789875
0.000486868423054
0.000560014169620772
0.000625535630276976
0.000683910637839673
4.33426388817181e-05
0.000186862027351954
0.000300075718447327
0.000394588881118634
0.000478231793150242
0.00055387222050978
0.000622567309587163
0.000684426786305795
0.0007394256115829
3.86778262762769e-05
0.000175887778890364
0.000286933692219075
0.000381251470045221
0.000465882244088047
0.000543468199955198
0.000615050737282297
0.00068051342679549
0.000739352449025565
0.000791424111393796
3.36529035263307e-05
0.000163473044173418
0.000271622419907788
0.000365108917896737
0.000450173436469706
0.00052912354044563
0.000602998109874468
0.00067173533188752
0.000734548576969179
0.000790728073683166
0.000840138822293547
2.83177888450463e-05
0.000149620430658482
0.000254248438288513
0.000346346307375745
0.000431365856254826
0.000511207170224846
0.000586786593007638
0.000658154083029348
0.000724587100227593
0.000785039948073008
0.000838765254828389
0.000885647983116865
2.29649115418948e-05
0.00013443018022767
0.000234913764518134
0.000325107767124998
0.000409638104074792
0.000489973653652322
0.000566809303669907
0.000640191918958669
0.000709561463670005
0.000773924093906116
0.000832161173874293
0.000883531178840634
0.000927938012106748
5.20203630244132e-05
5.42193770560765e-05
0.000205982516025296
5.67084330406786e-05
0.000208818744903047
0.000318910220895782
5.79186111218674e-05
0.000211131257030105
0.000321874771099987
0.000408775861699611
5.70579118441186e-05
0.000211435985763986
0.000323141907011417
0.000411782755286201
0.000486564802621728
5.4571063661937e-05
0.000208747993525577
0.000321838803741472
0.000412241943265756
0.000489334532082432
0.000556627934266369
5.12297825334825e-05
0.000203243119313745
0.000317306161573481
0.000409485691781856
0.000488938791035654
0.000558918882852285
0.000620992396188825
4.74334219420372e-05
0.00019561120713254
0.000309599161700299
0.00040313314596574
0.000484768043235248
0.000557544831093547
0.000622723409274073
0.000680780160896625
4.32471204255661e-05
0.000186337015443917
0.000299153838881735
0.000393310561389484
0.000476625525749009
0.000551959448028538
0.000620365701043991
0.000681953794407401
0.000736699439290227
3.86701693964752e-05
0.000175584905069997
0.000286327979426795
0.000380370083039231
0.000464745271050535
0.000542089732760798
0.000613440957714121
0.00067868215853021
0.000737311307794355
0.000789186070284806
3.37439967626773e-05
0.000163381414618152
0.000271305786180753
0.000364593052194664
0.000449474464701522
0.000528250523603001
0.000601955667025018
0.000670526559757776
0.000733177535465936
0.000789200941455051
0.000838463675398579
2.85399614716748e-05
0.000149735195549657
0.000254183849432739
0.000346156065858734
0.000431066102039866
0.000510803140162218
0.00058627874119753
0.000657540843158349
0.000723866431604481
0.000784210196300661
0.000837825952079352
0.00088460104237036
2.31455320885234e-05
0.0001346480894452
0.00023504153966406
0.000325193154951851
0.000409691840118653
0.000489995619902952
0.000566795749271978
0.000640137672924839
0.000709460931768182
0.000773771373305509
0.000831948891337579
0.000883248442631601
0.000927570601207561
1.78963896397669e-05
0.000118309715073951
0.000213977196292155
0.000301831665966337
0.000385500394760458
0.00046599943238723
0.000543764413010256
0.000618735904111116
0.000690415284557906
0.000757988714969151
0.000820375800328074
0.000876436732025962
0.000925438252004605
0.000967299422172036
5.10667027921617e-05
5.33679418814831e-05
0.000203282116015967
5.59407400565241e-05
0.000206432168513642
0.00031530830781825
5.72432458960858e-05
0.000209037072445475
0.000318702978572956
0.00040471271903241
5.64922973346657e-05
0.000209629068752363
0.000320383979591262
0.000408228072981968
0.000482314761710202
5.41187898105208e-05
0.000207227302342113
0.000319483724918403
0.000409181688192059
0.000485652296781049
0.000552386239400288
5.08835388117135e-05
0.000202001223015727
0.000315343466562534
0.000406906569609018
0.000485810250003885
0.000555291778280004
0.000616908625806493
4.71820485948676e-05
0.000194633374709856
0.000308014089161179
0.000401019767788331
0.000482178026817089
0.000554517424087164
0.000619291498821286
0.000676974423884767
4.30818179052471e-05
0.000185606111829609
0.000297926742676734
0.000391642935286034
0.00047455502823735
0.000549514460634992
0.000617569855702853
0.000678830127569794
0.000733271473326344
3.85867042426266e-05
0.000175085021435281
0.000285436165237515
0.000379123278850907
0.000463169845399351
0.000540205101808268
0.000611262267831701
0.000676224383985371
0.000734591292893313
0.000786221674413976
3.37451399879648e-05
0.000163099984687248
0.000270724309158947
0.000363737571615164
0.000448364064232674
0.000526898156202533
0.000600369957387866
0.000668715067992131
0.000731149585550328
0.000786968258500239
0.000836039282695002
2.86414910831408e-05
0.000149667619782894
0.000253884065001485
0.000345656839957886
0.000430384835192278
0.000509948649082764
0.0005852550511856
0.000656350046535449
0.000722510976431497
0.000782694262859565
0.000836156040293849
0.000882785555845034
2.3373377362647e-05
0.000134804863221215
0.000234984342353669
0.000325006547463604
0.000409396665199293
0.00048959774591512
0.000566295563966493
0.000639533401727913
0.000708750282645107
0.00077295233014782
0.000831020050409481
0.00088220971448076
0.000926424348446413
1.80672952964016e-05
0.000118523444092992
0.000214097126505559
0.000301903051434557
0.000385541232554962
0.000466010723203706
0.00054374266654164
0.00061867596105067
0.000690311509842539
0.000757835530064315
0.000820167501853469
0.00087616617514689
0.000925094690815012
0.000966868731487781
1.30470329072067e-05
0.000101086438905133
0.00019132222663233
0.000276463674051692
0.000358959572498208
0.000439338241721406
0.000517768551988745
0.000594049472820453
0.000667643105341933
0.000737827184431504
0.000803708453359501
0.000864178418226137
0.000918091696300957
0.000964724650864067
0.00100401682359667
4.99791714546475e-05
5.24116095582287e-05
0.000200239767478203
5.5071911361069e-05
0.000203728145184822
0.000311251829567229
5.64669442089592e-05
0.000206645484692247
0.000315100948439664
0.000400117514144907
5.58339472237685e-05
0.000207542289047123
0.000317218998482318
0.00040416638906629
0.000477474821481667
5.35789092927278e-05
0.000205444575751945
0.000316744535794573
0.000405639665555002
0.000481406163147059
0.000547509594017975
5.04597004239878e-05
0.000200515643952809
0.000313019813804146
0.000403871349812326
0.000482144508351801
0.000551056596834392
0.00061215388290209
4.68600643348972e-05
0.000193429508167525
0.000306091012039132
0.000398476212550775
0.000479078125678773
0.000550909518766688
0.000615215782125422
0.000672468030161829
4.28506149398875e-05
0.000184664435077792
0.000296383612232144
0.000389570896253925
0.000472002283688146
0.000546517123086681
0.00061415798751655
0.000675032633045369
0.000729117501277391
3.84382228476355e-05
0.000174386481130415
0.000284249035680916
0.000377497519376025
0.000461139908975362
0.000537796578520184
0.000608495611454626
0.000673119800735377
0.000731170939737471
0.000782508587710054
3.36754361179682e-05
0.000162628362365043
0.000269867717827189
0.00036252885961391
0.000446827183573604
0.000525050536583325
0.000598224404432401
0.000666283625612789
0.000728446558154054
0.000784010554884054
0.000832844821555796
2.86554806334852e-05
0.000149413122298169
0.000253331445983919
0.000344832146014377
0.000429306392036895
0.000508628303436071
0.000583700137912469
0.000654566281874972
0.000720505237447179
0.000780476040951046
0.000833737417569329
0.000880179907816533
2.34852860705687e-05
0.000134774143930599
0.00023470675619652
0.000324527589971683
0.000408736604425049
0.000488765417556184
0.000565294447766651
0.000638364822178828
0.000707415499609331
0.000771453835910765
0.000829362396105394
0.000880399894397519
0.000924471395565065
1.83026453596548e-05
0.000118722302704511
0.000214053841361574
0.000301722422472774
0.000385252371321823
0.000465620641769365
0.000543251763000461
0.000618082211665831
0.000689612296070891
0.00075702849654287
0.000819250858192822
0.000875138911269827
0.000923957210987663
0.000965624006787795
1.32107911469126e-05
0.000101297449506171
0.000191433642267829
0.00027652224347365
0.00035898746058642
0.00043933846920952
0.000517738109563175
0.000593983295141607
0.000667535463567131
0.000737672366814926
0.000803501046613927
0.000863912988877144
0.000917761407682182
0.000964318992147475
0.00100352189361503
8.54848402891575e-06
8.27772569924682e-05
0.000166958841999723
0.000249027687043645
0.000330073652599373
0.000410067452728333
0.000488906741355489
0.000566246446617143
0.000641474829449872
0.000713862615838727
0.000782621906791846
0.000846836707986571
0.000905390733570322
0.000957139163770841
0.00100137048464753
0.00103805215210372
4.8727706430822e-05
5.13168992163786e-05
0.000196825933374119
5.40807445672113e-05
0.000200683043196845
0.0003067141782765
5.55805721196511e-05
0.000203936145238552
0.000311044345481395
0.000394964232752984
5.50755517925266e-05
0.000205158244647215
0.000313624932072243
0.000399572897649577
0.000472018635609182
5.29502025930475e-05
0.000203385333676677
0.000313601255910478
0.000401592649283073
0.000476570720973266
0.000541971134551576
4.99554413398364e-05
0.000198773758260152
0.000310317341869325
0.00040035865493598
0.000477917611916116
0.000546187476866353
0.000606700952512572
4.64662391710584e-05
0.000191989442289451
0.000303814359967921
0.000395483188843273
0.000475446216462431
0.000546696898983123
0.000610470396542492
0.000667233862706223
4.2554940858782e-05
0.000183504916563548
0.000294511464812317
0.000387077467253001
0.000468947370186403
0.000542945294521737
0.000610106174816205
0.000670535969790427
0.000724211081046865
3.82294188220485e-05
0.000173485797440152
0.000282756078866878
0.000375477971666776
0.000458637716764105
0.000534844300621652
0.000605119511868941
0.00066934550990274
0.000727026134461716
0.000778021665283259
3.35457510152754e-05
0.000161966749934907
0.00026872701624783
0.000360953498286371
0.000444847907060614
0.000522690120115949
0.000595500213372727
0.000663212291545306
0.000725047365278443
0.000780305648373656
0.000828857063420254
2.86018027822888e-05
0.00014897517070113
0.000252515654641892
0.000343668205554692
0.000427815686212496
0.000506826217001218
0.00058159746206127
0.000652172453382421
0.000717831457568154
0.000777536814580356
0.000830550049283518
0.000876762588625653
2.35141881124726e-05
0.000134555950986628
0.000234188838972722
0.00032373903519163
0.00040769578401388
0.000487483168674408
0.000563776913165044
0.000636616298057602
0.000705440848223615
0.000769260035943668
0.00082695941887574
0.000877800401795731
0.000921689351097458
1.84289930145927e-05
0.000118743680241763
0.000213806085355891
0.00030126817458787
0.000384617463745011
0.000464814478267152
0.000542277361733971
0.00061694021324368
0.000688303059616803
0.000755553249310281
0.000817612422997698
0.000873342394236257
0.000922010294332659
0.000963536434465743
1.34502743325104e-05
0.000101535822723912
0.000191413695724769
0.000276351345442493
0.000358707219016867
0.000438958211424039
0.000517258476447676
0.000593402054286489
0.000666849643248854
0.000736879211186013
0.000802598377168452
0.000862899394061031
0.000916636394490356
0.000963083577120348
0.0010021797442877
8.70771669308102e-06
8.29935080114965e-05
0.000167064524625087
0.000249076255038315
0.000330089221491632
0.000410056637519862
0.000488867406800708
0.000566173756143558
0.000641363038853502
0.000713705831532033
0.000782414525044389
0.000846573550080445
0.000905066722897151
0.000956747853524085
0.00100090169502937
0.00103749226492461
4.66161640391423e-06
6.34252348657002e-05
0.000140867163729332
0.00021951679898454
0.000298872785012111
0.000378248849868483
0.000457256206156831
0.000535411616926803
0.000612029608298551
0.000686340235387952
0.000757563317362289
0.000824896090536532
0.000887420658001198
0.000944022125375852
0.000993559825609826
0.00103533846552541
0.00106936027027054
4.73270622766198e-05
5.00259005307338e-05
0.000193006041252736
5.29376557670537e-05
0.000197263524337182
0.000301667173454121
5.45712728392831e-05
0.000200882201753978
0.00030650661558489
0.000389226239235005
5.42069332358725e-05
0.000202456521222503
0.000309577432451683
0.00039442160385929
0.00046591946391805
5.22288923815236e-05
0.000201032893318033
0.000310031913561378
0.000397015968606895
0.0004711196438298
0.00053574352881803
4.93661842769242e-05
0.000196762020689984
0.00030721633800271
0.000396345370246677
0.000473104290850988
0.00054065756160464
0.000600521875366676
4.59976567461496e-05
0.000190301382923577
0.000301166677740972
0.000392019620192512
0.000471258612561106
0.000541853882215949
0.000605028157686851
0.0006612436132461
4.21933602621287e-05
0.000182118272883078
0.000292295251962582
0.00038414369215498
0.000465368444480548
0.00053877501875595
0.000605388725567089
0.000665313056125235
0.000718524035328719
3.79619198731501e-05
0.000172376834044589
0.000280944867419761
0.00037304801601187
0.000455643695748425
0.000531326465433738
0.000601110349277172
0.000664876379554561
0.000722130495070379
0.000772733602180454
3.33608904677587e-05
0.000161112526838274
0.000267292244859056
0.000358996959133449
0.000442408774799279
0.000519797319176391
0.00059217622588118
0.000659478502593249
0.000720928163348669
0.000775828562283818
0.000824050261858423
2.84919284404872e-05
0.000148355647658897
0.000251428194692562
0.000342151740914548
0.000425896949522041
0.00050452500030532
0.000578928420840126
0.000649148907762284
0.000714468938224899
0.00077385478766604
0.000826571018439704
0.000872509762149676
2.34778655864133e-05
0.000134158128312246
0.000233420239397842
0.000322626865573922
0.000406259062193454
0.000485735144981315
0.000561726486406963
0.0006342707942703
0.000702808732448378
0.000766352667240111
0.000823791876891316
0.000874390626259726
0.000918056172057607
1.84716632159097e-05
0.000118572854715991
0.000213330212910956
0.000300521783817
0.000383620311582553
0.000463576699622465
0.000540803956713656
0.000615234235211067
0.000686367853772704
0.000753393693541688
0.000815235964536578
0.0008707597025174
0.000919234822206013
0.000960583010960362
1.35877655726718e-05
0.000101610272169148
0.000191206098804709
0.000275927408039306
0.000358101981492583
0.000438182610785529
0.000516315295657915
0.000592291298447169
0.000665570892395623
0.000735432742143121
0.000800985688028844
0.000861123843062923
0.000914703804202187
0.000961002451891366
0.00099996073986639
8.93922893257827e-06
8.32788745253269e-05
0.000167071329638711
0.0002489213020691
0.000329820809923589
0.000409688705581087
0.000488401397073682
0.000565607370805808
0.000640692982080517
0.000712928934029587
0.000781528159043737
0.000845575879355538
0.000903956843437401
0.000955525898473345
0.000999569397897716
0.00103605413224117
4.79724630455811e-06
6.36642454109145e-05
0.000140974810180933
0.000219557459326588
0.000298877677252135
0.00037822750223564
0.000457208122739316
0.000535332411103945
0.000611913623954762
0.00068618146842667
0.000757355928938388
0.000824634652612811
0.000887100318900173
0.000943638246667876
0.00099310643134294
0.00103480578459772
0.00106873507573586
1.82998994754063e-06
4.33759502767094e-05
0.00011307361373829
0.000187890862901442
0.000265332950410487
0.000343907270749895
0.000422874094977672
0.000501618460996565
0.000579391324554906
0.00065538372949069
0.000728790469468421
0.000798823831600438
0.000864685041292761
0.000925464226629861
0.000980052702875607
0.00102731740799767
0.00106658400012275
0.00109789477050308
4.85674769266019e-05
0.000188777092899029
5.1569062011367e-05
0.00019343011710122
0.000296085084990691
5.34122598445203e-05
0.000197450097652374
0.000301459306409184
0.000382877003099766
5.3208043046829e-05
0.000199411396096344
0.000305049632519841
0.000388685800545465
0.000459150721526883
5.14069216347896e-05
0.000198366716744122
0.000306012325217983
0.000391883721199746
0.000465026181745113
0.000528799684554803
4.86885315686956e-05
0.00019446406035806
0.00030369510786822
0.000391807044164263
0.000467678351134061
0.000534439534910534
0.000593588623402947
4.54507826622268e-05
0.000188351481418025
0.000298128678538663
0.000388062681624081
0.000466490278484674
0.00053635377031543
0.000598861126350321
0.000654468429359531
4.17625433301177e-05
0.000180492752115637
0.00028971795903755
0.000380748863016314
0.00046124216665054
0.000533980894780545
0.000599978629905357
0.000659335614236167
0.000712027154217392
3.7634584036501e-05
0.000171050540631431
0.00027880087622544
0.000370189143662811
0.000452136354782532
0.000527219458903774
0.000596442723021802
0.000659685515993055
0.00071645589234769
0.000766615236551272
3.31229361134126e-05
0.000160060142373637
0.00026555156659971
0.000356643056298351
0.000439490555169612
0.000516350681812341
0.000588229175564699
0.000655057446985091
0.000716062790498812
0.000770551997075207
0.000818396106369552
2.83318005418568e-05
0.000147553182496129
0.000250059737824464
0.000340268607173863
0.000423533029519095
0.00050170540489623
0.000575672169429749
0.000645473426894526
0.000710394193258178
0.00076940527325396
0.000821774593784823
0.000867394796597772
2.33881221994684e-05
0.000133585786776286
0.000232393160604843
0.000321177995049302
0.000404410829833661
0.000483504129466308
0.000559124721411875
0.000631308884323938
0.00069949876708699
0.000762710347828519
0.000819837297543615
0.00087014699057267
0.000913547351612793
1.84500241829292e-05
0.000118222069822579
0.000212615866499797
0.000299468833338358
0.000382245669705923
0.000461891489626807
0.000538815156487574
0.000612947315585961
0.000683789154198491
0.00075053174854625
0.000812102725905521
0.000867371074207842
0.000915609636060628
0.00095674100763362
1.36418446088648e-05
0.000101492072649327
0.000190780669091917
0.000275230027677568
0.000357155021349427
0.000436996024867412
0.000514893068352822
0.000590635293281234
0.000663683188707205
0.000733316648827663
0.000798646501068723
0.000858569711447339
0.000911946284098153
0.000958055983005745
0.00099684109632372
9.07747642649534e-06
8.34098349385735e-05
0.000166908573608144
0.000248534806236525
0.000329250574452817
0.000408948529445046
0.000487494308217817
0.000564532868602863
0.000639449908996591
0.000711516768451346
0.000779947402732853
0.00084382852427465
0.000902046942622065
0.000953460124583851
0.000997357212903748
0.00103370717238804
4.99669608568534e-06
6.40109679983943e-05
0.000141018318421812
0.000219425161256345
0.00029862579494772
0.000377875044226139
0.000456758486263095
0.000534783563334173
0.000611262041796737
0.000685423592077413
0.000756488676417499
0.000823655697961018
0.000886008302800004
0.000942432880406609
0.000991788572747364
0.00103337798468953
0.00106720271378395
1.92337553173186e-06
4.36597111400897e-05
0.000113199043272953
0.000187929245946809
0.000265330121815709
0.000343876561296539
0.000422817781966154
0.000501533029051041
0.000579271348515392
0.000655223171139698
0.000728583333044164
0.000798564392829484
0.000864368145909683
0.000925085434218377
0.000979607888825489
0.00102680113886757
0.00106598699098642
0.00109720423036982
3.88638954432931e-07
2.3639384276238e-05
8.38085719040647e-05
0.000154125030006639
0.000229356462735707
0.000306989699354849
0.000385767657148184
0.000464912614080227
0.000543626587665986
0.000621074481662303
0.000696429529817227
0.000768887094476367
0.00083766776599294
0.000901986133033415
0.000960945477151538
0.00101344673068165
0.00105836818585227
0.00109506099722815
0.00112361120364332
5.00248726346487e-05
0.000189179909973385
0.000289953842645845
5.20256157210293e-05
0.000193597788868232
0.000295875169123912
0.000375892291891627
5.2071153759514e-05
0.000195989666261369
0.0003000128609736
0.000382338979582895
0.000451687195252306
5.04679635871808e-05
0.000195360842405888
0.000301515835804599
0.000386169221310995
0.000458263798007592
0.000521113347726094
4.79155694594853e-05
0.000191859659384662
0.000299729702666395
0.000386717987724407
0.000461613150507731
0.000527506264384607
0.000585873764374205
4.48211020864697e-05
0.00018612345126733
0.000294678932607514
0.000383588153510903
0.000461115253012124
0.000530169384560828
0.000591941274931273
0.000646879704032347
4.12588635869173e-05
0.000178614632957966
0.000286760638940483
0.000376870629620202
0.000456543831977796
0.00052853648954116
0.000593848111697433
0.000652574816153542
0.000704690711436321
3.72438334285057e-05
0.00016949534042035
0.000276307493054599
0.00036688105119944
0.0004480927292199
0.000522498233604596
0.000591089911460793
0.000653744819553675
0.000709973101735668
0.000759636372683238
3.28313860741452e-05
0.000158801099000045
0.000263490975235181
0.000353873769000521
0.000436072270211666
0.000512326986624055
0.000583634025581129
0.000649922539287079
0.000710423319389725
0.000764446867185063
0.000811864606288504
2.81242857608027e-05
0.000146563329135381