/*--------------------------------*- C++ -*----------------------------------*\
  =========                 |
  \\      /  F ield         | OpenFOAM: The Open Source CFD Toolbox
   \\    /   O peration     | Website:  https://openfoam.org
    \\  /    A nd           | Version:  12
     \\/     M anipulation  |
\*---------------------------------------------------------------------------*/
/*   Windows 32 and 64 bit porting by blueCAPE: http://www.bluecape.com.pt   *\
|  Based on Windows porting (2.0.x v4) by Symscape: http://www.symscape.com   |
\*---------------------------------------------------------------------------*/
FoamFile
{
    format      ascii;
    class       volScalarField;
    location    "400";
    object      nut;
}
// * * * * * * * * * * * * * * * * * * * * * * * * * * * * * * * * * * * * * //

dimensions      [0 2 -1 0 0 0 0];

internalField   nonuniform List<scalar> 
10252
(
2.26308404256794e-05
2.27122071644984e-05
2.40245149686837e-05
0.000303456850130301
2.27741666075965e-05
2.41178856711639e-05
0.000303823761602748
2.58208923435572e-05
0.000310861818685164
0.00081498915764218
2.27965816332236e-05
2.41896802423763e-05
0.000303985903817229
2.59264489452498e-05
0.00031125397728396
0.000815579661666085
2.68988417632731e-05
0.000320326735444821
0.000823918312399617
0.00140725173888632
2.27812060260668e-05
2.42144338255557e-05
0.00030391281069888
2.60065361426951e-05
0.000311424179508567
0.000815723433610063
2.70127795842289e-05
0.000320744715001504
0.000824531172381161
0.00140797461653659
2.65752261346628e-05
0.000326069811895783
0.000834639843207513
0.00141360930017932
0.00200282127997414
2.27309309798195e-05
2.41975982974817e-05
0.000303602241221787
2.60330131364124e-05
0.000311350605365991
0.000815384182596313
2.70991583114145e-05
0.000320925238831981
0.000824681941193942
0.00140798608944689
2.66916262551405e-05
0.00032650655639854
0.000835273344277719
0.00141435431869441
0.00200358830282162
2.52032917057933e-05
0.000324609302869802
0.000840090996617211
0.00141913566559595
0.00200475325268302
0.0025658059153074
2.2647431507883e-05
2.41437128685759e-05
0.000303053341836587
2.60130038335292e-05
0.0003110348586104
0.000814545288565224
2.71269016700111e-05
0.000320851008376976
0.000824341740868481
0.00140724103329863
2.67812517150516e-05
0.000326696358696213
0.000835432433580306
0.00141437154807866
0.00200336535022159
2.5317958263118e-05
0.000325053946696108
0.000840736773337846
0.00141989252764313
0.00200554489751603
0.0025665325461949
2.34219040952565e-05
0.000317026794505184
0.000835412960716977
0.00141797430525519
0.00200233971269098
0.00256308164560808
0.00308217310877998
2.25310302829937e-05
2.40547637009906e-05
0.000302263048557032
2.59528935768403e-05
0.000310476304681605
0.000813194171320658
2.71051986238211e-05
0.000320526323829067
0.000823496587488995
0.00140570650155799
2.68102138979095e-05
0.000326622140188544
0.000835091007979376
0.00141362494250691
0.00200209816531567
2.54085272230604e-05
0.000325249711928658
0.000840902058155025
0.00141991376752817
0.00200532761407979
0.00256599323056173
2.35328839313336e-05
0.000317471002779048
0.000836059679154046
0.00141873084655684
0.00200313752513475
0.00256383726065905
0.00308278840349234
2.15243929283667e-05
0.000306122493721986
0.000820987557017719
0.0014057221243017
0.00199110362011993
0.00255241996391353
0.00307591927944446
0.00354903731236176
2.2381064632346e-05
2.39315421399141e-05
0.000301224107342873
2.58550469104331e-05
0.000309671807023231
0.000811315267729313
2.70416231403148e-05
0.000319951936008392
0.000822134461194367
0.00140335451477604
2.67893966750091e-05
0.000326291090519239
0.000834236895261031
0.00141208428635561
0.00199974050707613
2.54390537626138e-05
0.000325177513518175
0.000840559826654851
0.00141916500796508
0.002004059401017
0.00256412207265209
2.36235618450031e-05
0.000317670300723486
0.000836227081444814
0.00141875191536157
0.00200292141301421
0.00256330528060076
0.00308187322041317
2.16307698948054e-05
0.000306562168016578
0.000821625513612321
0.00140646634096835
0.00199189054777909
0.00255317956533852
0.00307656872016689
0.00354948786750977
1.95255431152282e-05
0.000293493952092742
0.000799714840102796
0.00138197741315468
0.00196778776880618
0.00253039051850361
0.00305844348880404
0.00354061112554695
0.00396865131397087
2.21972933075889e-05
2.37734947833021e-05
0.000299924952020221
2.57211082135148e-05
0.000308614669913866
0.000808886948971706
2.69386451001847e-05
0.000319124776323375
0.000820239804685164
0.00140015305046008
2.67260446205648e-05
0.000325705009160419
0.000832858929293663
0.00140972240242781
0.00199624954801116
2.54207828855867e-05
0.000324847003346279
0.000839698923572301
0.00141761705431017
0.00200169778110216
0.00256086152458428
2.36556050282595e-05
0.000317602960235489
0.000835885667501507
0.00141800097248801
0.00200165166883791
0.00256143574672585
0.00307934995182276
2.17213266478512e-05
0.000306764377887869
0.000821791728268611
0.00140648199385908
0.00199166925868217
0.00255264867910551
0.00307566359589026
0.00354815893694281
1.96270980775433e-05
0.000293928388545353
0.000800337651534679
0.00138269878525914
0.0019685500790162
0.00253113241833189
0.00305909715349228
0.00354110117019946
0.0039689004574057
1.73962363478985e-05
0.000279358187403084
0.000773603428318067
0.0013485495877715
0.00193173732182724
0.00249469792883682
0.00302680778209351
0.00351817231373537
0.00395889188819889
0.004344916099639
2.19784514736786e-05
2.35796763748845e-05
0.000298354119426956
2.55497044820632e-05
0.000307293434132993
0.000805881141413655
2.67977055954124e-05
0.000318039047276863
0.000817791000433656
0.0013960620355626
2.66237795509086e-05
0.000324861103877321
0.000830941821029685
0.00140650745226213
0.00199157610548686
2.53611703862231e-05
0.000324259777079052
0.000838308909352731
0.00141524336108549
0.00199820096544795
0.00255615586665937
2.36404247266228e-05
0.000317279305794986
0.000835024659413674
0.00141644839222847
0.00199928699035621
0.00255817580429227
0.00307514952236666
2.17547730572234e-05
0.00030670376101622
0.000821453543512199
0.00140572958860104
0.00199039766050385
0.00255078077424586
0.00307314472516817
0.00354496110110183
1.97176598336793e-05
0.000294134875775232
0.000800500975465961
0.00138270452830222
0.0019683168443945
0.00253059442967124
0.00305819482548273
0.00353978481363086
0.00396713730768667
1.74922706027003e-05
0.000279791430852907
0.000774208104311212
0.00134923945861029
0.00193246337249362
0.00249540604101807
0.00302743994331225
0.00351866787037423
0.00395918518073243
0.00434493989501052
1.51448549251616e-05
0.000263432246161237
0.000743164134860542
0.00130684381084835
0.00188368595227609
0.00244468887211765
0.00297917290803641
0.00347864161268764
0.0039327890461226
0.0043341553658249
0.00468180446381889
2.17217655607656e-05
2.33488937950129e-05
0.000296492904059788
2.53390744538344e-05
0.000305693992003376
0.000802259363393107
2.66173620949814e-05
0.000316682161542192
0.000814758990483938
0.00139103188867496
2.64836299172682e-05
0.000323753608309793
0.000828464204843921
0.00140239925980079
0.00198566045318316
2.52638853628214e-05
0.000323414201189169
0.000836375018815995
0.0014120124661692
0.00199352013142247
0.00254993954648836
2.35857240884193e-05
0.000316701259018405
0.000833633829406108
0.00141406796658299
0.00199578624999103
0.00255347081578193
0.0030692039390858
2.17429621586417e-05
0.000306390868850631
0.00082059976874343
0.00140417840585079
0.00198803370142714
0.00254752469551436
0.00306894916292417
0.00353981392634929
1.97527764538717e-05
0.000294082863843049
0.00080016816443049
0.00138195207529927
0.00196704318464278
0.00252872776410038
0.0030556816370775
0.00353659338605055
0.00396326056230319
1.75844434542092e-05
0.000280009187326125
0.000774369677416477
0.00134923203539318
0.00193221231756487
0.00249485257425277
0.0030265308809723
0.00351735642653278
0.00395743649406309
0.00434273464467208
1.52365568011777e-05
0.000263890561623497
0.000743752106745539
0.00130749522081422
0.00188436517566079
0.00244535002864795
0.00297976505891812
0.00347911366276094
0.00393308942377047
0.00433422752813713
0.00468158889897569
1.28127523254202e-05
0.000245458039050456
0.000708121952680125
0.00125719249544929
0.00182413814543688
0.00238037011805646
0.00291493443969752
0.00342017472549833
0.00388669383254082
0.00430504709598555
0.00467012141123397
0.00498291432455796
2.14259821980154e-05
2.30781393835335e-05
0.000294320886118097
2.50881467739759e-05
0.000303798996627669
0.00079798327473537
2.63973650485385e-05
0.000315039064279348
0.000811107435158152
0.00138500058911913
2.6304922663452e-05
0.000322370031192969
0.000825396618705471
0.0013973475559058
0.00197843048345136
2.51306467826304e-05
0.00032230437578518
0.000833876219134214
0.00140788442090486
0.00198759566415639
0.00254213438352512
2.34956236596641e-05
0.000315867977089358
0.000831699238544025
0.0014108288264092
0.00199110118246673
0.00254725612103907
0.00306143391704819
2.16936704130866e-05
0.000305828266001308
0.000819220403685687
0.0014018022449676
0.00198453645518231
0.00254282662681239
0.00306301063359675
0.00353263918652212
1.97450254682794e-05
0.000293783636175549
0.000799327281148709
0.00138040927337664
0.00196468562018765
0.00252548071604934
0.00305149715828801
0.00353145431755901
0.0039571809306185
1.7622506446066e-05
0.000279970767159995
0.000774045287766541
0.00134848117426159
0.00193093691143609
0.00249298624989014
0.00302402355235433
0.00351417435497631
0.00395356795053421
0.00433818872861161
1.53329840562877e-05
0.000264145720050265
0.000743920831761167
0.0013074735324697
0.00188409153079085
0.0024447738674275
0.00297883972054114
0.00347779702888643
0.00393134772379562
0.0043320385643537
0.00467894361156309
1.29002940560008e-05
0.000245962172990641
0.000708707387450274
0.00125780059502057
0.00182476051317176
0.00238097213431746
0.00291547189494022
0.00342060281305153
0.00388696983761163
0.00430512815973918
0.00466995824841508
0.00498245362627036
1.04630631937932e-05
0.000225295836091603
0.000667931750816939
0.0011991636435732
0.00175287369287949
0.0023014647701359
0.00283375401427191
0.00334220619091998
0.00381847080762857
0.00425321297479076
0.00463829662813784
0.00497031889971801
0.0052514678337592
2.10878347121407e-05
2.27651838438406e-05
0.000291814444587893
2.47960205867138e-05
0.000301587340747316
0.00079300297236259
2.61352731626671e-05
0.000313092674624787
0.000806795075843195
0.00137789977338351
2.60870320630908e-05
0.000320696077891087
0.000821703033979224
0.00139129156057007
0.00196980051210928
2.49617115533045e-05
0.000320919533668483
0.000830783369432493
0.00140280906450273
0.00198035541407691
0.00253264623581881
2.33719946572023e-05
0.000314775121977076
0.000829200524484982
0.00140669159112362
0.00198517262734569
0.00253945365620766
0.00305174410329091
2.16111932753157e-05
0.000305016404491002
0.000817302470820094
0.00139857092842419
0.0019798583320382
0.00253662277593782
0.0030552505507236
0.00352334478894997
1.97014630843832e-05
0.00029324049886047
0.000797968662906768
0.00137804980327579
0.00196120310529728
0.00252079978137629
0.00304557631028981
0.00352429096016276
0.00394880994810714
1.76190634552653e-05
0.000279689614632886
0.000773222214321689
0.00134695299973183
0.00192859216085459
0.00248975411635769
0.0030198573688986
0.00350905242079021
0.00394749839866147
0.00433120431088601
1.5374506491765e-05
0.000264134927476058
0.00074361277561351
0.00130672707263126
0.00188281531457996
0.00244290744084282
0.00297633753460436
0.0034746258745003
0.00392749189782316
0.00432750226658729
0.00467374763683363
1.30015148204929e-05
0.000246313757849669
0.000708912039775801
0.00125776869733623
0.00182446093946817
0.00238036734641352
0.00291452227488825
0.00341927115897391
0.00388522526120082
0.00430294848890772
0.00466733114770477
0.00497937812562731
1.05453648982392e-05
0.000225838765321715
0.000668541739752089
0.00119972891525051
0.00175342977491542
0.00230199566693088
0.00283422341146913
0.00334257458894114
0.00381870074807408
0.00425326980370106
0.00463814450899492
0.00496991422150143
0.00525076178742539
8.16468144639992e-06
0.000202851328913567
0.00062188641975744
0.00113181872051888
0.00166900890960716
0.00220712058326848
0.00273485421784801
0.00324433054567057
0.00372756432756446
0.00417609916483254
0.00458123429776046
0.0049359332343311
0.00523797801963918
0.00549038474487458
2.07012909161498e-05
2.2407707587281e-05
0.000288943564574286
2.44603564743929e-05
0.000299034695893986
0.00078726057537191
2.58304684376349e-05
0.000310822619193971
0.00080177229654195
0.00136964727654973
2.58283758476628e-05
0.000318714416243551
0.000817341446936119
0.00138416142578173
0.00195967156641137
2.47548284826334e-05
0.000319245873717166
0.000827061007750117
0.00139672607441805
0.00197171385450081
0.00252136667466675
2.32140503004531e-05
0.00031341294542355
0.000826109807380749
0.00140160670808944
0.00197792883488618
0.00252997003075813
0.00304002128508271
2.14966571936382e-05
0.000303951241370408
0.000814826979762172
0.00139444600396704
0.00197394097857391
0.00252883581978115
0.00304557401198923
0.00351182015673336
1.96261353361318e-05
0.000292453947864259
0.000796080409886739
0.00137484428028826
0.00195654875690468
0.00251462205393581
0.00303784150414231
0.00351501212000788
0.00393804420964495
1.75809906442779e-05
0.000279168431337377
0.000771891151033774
0.00134462096382017
0.00192513676110612
0.00248510265093439
0.00301396782053536
0.00350191543176545
0.00393914160562658
0.004321683527451
1.53750650168235e-05
0.000263877105412713
0.00074281424212163
0.0013052195910843
0.00188048984175922
0.00243969663050524
0.00297219698017945
0.00346953119077574
0.00392144450673627
0.00432052958218828
0.0046658953583187
1.30477800636323e-05
0.000246355798932419
0.000708640153284175
0.0012570334185931
0.00182318604439052
0.0023785014043381
0.00291202504842486
0.00341611162500461
0.00388138582471883
0.00429842828984823
0.00466214640825138
0.00497355828917992
1.06491797947811e-05
0.000226350861344754
0.000668838174678879
0.00119970232816253
0.00175310367724858
0.00230135754626323
0.0028332431594783
0.00334122004894378
0.00381694411947255
0.00425109046378124
0.00463552943777617
0.00496685883358741
0.00524727118455915
8.24264507560292e-06
0.000203430680932484
0.000622566277000457
0.00113234917353267
0.00166949100471583
0.00220756857297455
0.00273524258662893
0.00324462536683693
0.0037277321228208
0.00417610954286874
0.00458105905799855
0.00493554203253359
0.00523733157398348
0.00548943777878953
5.96793555288244e-06
0.000177939293689732
0.000569112064863612
0.00105373095236006
0.00157104070566087
0.002095896691566
0.00261687047183719
0.00312553893852584
0.00361363999444969
0.0040731269037948
0.00449594075598717
0.00487402303273648
0.005201173818655
0.00547604376367375
0.00570232374542677
2.0260410659866e-05
2.20061866377131e-05
0.000285666924303643
2.4080480706811e-05
0.000296110431300841
0.00078068692383566
2.5480212630739e-05
0.000308204667865033
0.000795980919761427
0.00136014806757103
2.55273317091881e-05
0.0003164038658658
0.000812262254546003
0.00137587517948757
0.00194792885671142
2.45078844894205e-05
0.000317263600867523
0.000822667025248515
0.00138956523699201
0.00196157173482363
0.0025081678315453
2.30207003460704e-05
0.000311764561040391
0.000822392213507371
0.00139551454751311
0.00196928479479371
0.00251869608345415
0.00302613336814886
2.13499943881477e-05
0.000302621076696951
0.000811767090490105
0.00138937910484342
0.00196671354052364
0.00251937322540001
0.00303386816724379
0.00349793414426698
1.95207647611443e-05
0.000291418394365375
0.000793644362502043
0.00137075549826185
0.00195066532761533
0.00250687130701138
0.00302819884292193
0.00350350773776899
0.00392475944814043
1.75133173683506e-05
0.000278407463964044
0.000770040793923215
0.00134145647916481
0.00192052456610419
0.00247896983433055
0.00300627844874722
0.0034926733637813
0.00392839508093856
0.00430951350399388
1.53432670394297e-05
0.000263379222703361
0.00074151655513732
0.00130292410692133
0.00187707340088468
0.00243508780840348
0.00296635374921098
0.00346243867476913
0.00391312114396212
0.00431102558119987
0.00465528150129943
1.30541833935545e-05
0.000246130905649618
0.000707877188486713
0.00125555444376207
0.00182088673480862
0.00237531903171492
0.00290791794308217
0.00341105455998679
0.00387537454459563
0.00429148261321245
0.00465430788965908
0.00496488234103286
1.0700175147e-05
0.000226482585388643
0.000668641437040933
0.00119899371877837
0.0017518349040007
0.00229949406819519
0.00283075211616157
0.00333807358514604
0.00381312434112032
0.0042465928400496
0.00463036465804537
0.00496105231692863
0.00524085972832137
8.35001755702095e-06
0.00020409012826449
0.000623028493365017
0.00113235908028625
0.00166914318493398
0.00220689415968145
0.00273422680213433
0.00324324216385981
0.00372595670787019
0.00417392282170514
0.00457844848934894
0.00493250186618055
0.00523386332471183
0.00548555153993884
6.04283018774359e-06
0.000178552900491979
0.000569837420203321
0.00105424196558446
0.00157144418137859
0.00209625084741943
0.00261716529075753
0.00312574712757778
0.00361373193784119
0.00407307502858736
0.00449572028980714
0.00487361072834348
0.00520054364513878
0.00547515983762775
0.00570114369366796
3.90839394026998e-06
0.000150019071454025
0.000508275193469723
0.000962821406935303
0.00145675734033591
0.00196571231139305
0.00247788096055675
0.00298414222582976
0.0034756353351639
0.00394407882521491
0.00438179221720798
0.00478118929095787
0.00513476962786173
0.00543698752242053
0.00568719436266403
0.00588969101467108
1.97530636354895e-05
2.15465484295165e-05
0.000281933161733662
2.36470988015235e-05
0.000292776541370702
0.000773197796823076
2.50802691422837e-05
0.000305207160082055
0.000789351337862368
0.00134929182231136
2.51806157871293e-05
0.000313736897150556
0.000806406778742868
0.00136633759208785
0.00193444093411124
2.42202602740395e-05
0.000314950282639997
0.000817551442021534
0.00138124465499258
0.00194981448916609
0.00249290414986234
2.27906571802777e-05
0.000309810738672212
0.000818005075279173
0.00138834511294906
0.00195914169216888
0.00250550488360806
0.00300992776900365
2.11705964728911e-05
0.000301011014462713
0.000808087533666871
0.00138331158736103
0.0019580920291375
0.00250812636752044
0.00302000122943153
0.00348153398812808
1.93861214237397e-05
0.000290124397797687
0.000790633841353222
0.00136573644277013
0.00194348338780702
0.00249745635803921
0.00301653651854842
0.0034896471523369
0.00390880829967375
1.74181408023154e-05
0.000277403786242674
0.000767653266475842
0.00133742353315805
0.00191469965249284
0.00247128076738815
0.00299669680453406
0.0034812173370373
0.00391513510923722
0.00429455706310564
1.5284160297993e-05
0.000262647078115875
0.000739709451257813
0.00129981272435001
0.00187252054604391
0.0024290198297225
0.00295873254541488
0.00345325966762492
0.00390242061854873
0.00429887771582935
0.00464178258306417
1.30296967625604e-05
0.00024566365274518
0.000706619311459162
0.00125330429643621
0.00181752057560624
0.00237076640570912
0.00290213683928594
0.00340402621852114
0.00386710819178262
0.0042820187146071
0.00464371303078562
0.00495323734454534
1.07133573837318e-05
0.000226312296830107
0.000667934077886035
0.00119755536825259
0.00174957020886638
0.00229634833016436
0.00282668744981027
0.00333306514160648
0.00380716400254979
0.00423969263154919
0.0046225584558934
0.00495239232361566
0.00523140868399499
8.40765794596857e-06
0.000204362212394372
0.000622962972925275
0.00113170598821598
0.00166789039062305
0.00220503725182099
0.00273174495134042
0.00324011192776325
0.00372216086896359
0.00416945451449934
0.00457331341957345
0.00492671977950873
0.00522746708951184
0.0054785833276192
6.15236598644962e-06
0.000179318908034218
0.000570506297513046
0.00105433012857444
0.00157108683633938
0.00209554017949405
0.00261611081713543
0.00312433136723862
0.00361193348312464
0.00407087612507853
0.00449310859879522
0.0048705801500789
0.00519709428768222
0.00547129819575862
0.00569688376676118
3.98118387725824e-06
0.000150685222919857
0.000509027956986082
0.000963318052228593
0.00145708117022177
0.00196596369908508
0.00247807092000422
0.00298425175015796
0.00347563907651432
0.00394395180504615
0.00438151158509221
0.00478073442036811
0.00513412118272746
0.00543612293955746
0.0056860805379561
0.00588828770335797
2.10353317511674e-06
0.000118111136212145
0.000437028784349889
0.000856046776566287
0.00132302775068581
0.00181371945258399
0.00231536084864922
0.00281789718288346
0.00331170485292304
0.0037879342399199
0.00423869429565309
0.00465675871575831
0.00503501517825703
0.00536645454674323
0.00564607596595604
0.0058738462503175
0.00605463834807846
1.91852524741286e-05
2.1004469980672e-05
0.00027767324339131
2.31472750912086e-05
0.000288972438766558
0.000764692022854443
2.46248395117008e-05
0.000301782676668269
0.000781799233261522
0.00133695122157207
2.47835160198626e-05
0.000310679954131217
0.000799704361770036
0.00135543812124202
0.00191905768769162
2.38903311574966e-05
0.000312280233819597
0.000811654356830595
0.00137166912588713
0.00193631076109241
0.00247540971261574
2.25217872539817e-05
0.000307531618443608
0.000812897919963704
0.00138001690465609
0.00194738556530333
0.00249025105926291
0.00299123013331045
2.0957076250514e-05
0.000299104253666105
0.000803746036894661
0.00137617416425572
0.00194797871000332
0.00249496940561981
0.00300382105268633
0.0034624437282138
1.92214511791259e-05
0.000288559394021427
0.000787014732161968
0.00135972950326198
0.00193492037779767
0.00248627003309092
0.0030027238067807
0.00347327801404424
0.00389001905418415
1.72963097163592e-05
0.000276150506277922
0.000764703377581744
0.00133247639490363
0.00190759430995673
0.00246194611241735
0.00298511278379166
0.00346741794759715
0.00389921488231561
0.00427665266394163
1.51998983138646e-05
0.00026167986582403
0.000737377120402427
0.00129585065499383
0.00186677680020357
0.00242141931217838
0.00294924267686531
0.00344188701524284
0.00388922054040549
0.00428394989918746
0.00462525167008072
1.29796268406038e-05
0.000244965718402586
0.000704861412201698
0.00125025623670911
0.00181304277789665
0.00236478318979014
0.00289460757780928
0.00339493940401612
0.00385648717183265
0.00426992536728669
0.00463023977713938
0.00493849189433643
1.06967922750248e-05
0.000225886852974127
0.000666727401266064
0.00119536061076341
0.00174626595496124
0.00229186604292295
0.00282098529756687
0.00332612157259691
0.0037989807307893
0.00423029853454064
0.00461201061198641
0.0049407692921454
0.00521879912527547
8.42713389175875e-06
0.000204275743693474
0.000622343580530766
0.00113032780328862
0.00166567192407286
0.00220193810894263
0.00272773346777111
0.00323516456186543
0.00371626717460899
0.00416262006944987
0.00456556293795837
0.00491809801937304
0.00521803464530544
0.00546840910029475
6.21525783678689e-06
0.00017969948563808
0.000570636807156025
0.00105377152249083
0.00156986700725606
0.00209369734360078
0.00261364349351607
0.00312122276249622
0.00360816784549506
0.00406644521768037
0.00448801406586666
0.00486483585555378
0.00519072734463812
0.00546434751733823
0.00568939622635088
4.08702272981403e-06
0.000151568067957207
0.000509831308947588
0.000963512314781961
0.00145673214741204
0.00196522115624782
0.00247697731736311
0.00298280178208941
0.00347381570209092
0.00394173878477531
0.00437889652399595
0.00477771036353614
0.00513068728797913
0.00543228418957826
0.00568184760638516
0.00588367809399097
2.16471729220258e-06
0.000118865279445909
0.000437825858824666
0.000856504584545735
0.00132327206211232
0.00181386269573608
0.00231543723789224
0.00281789801834958
0.00331160974540128
0.00378772103906512
0.00423834194343442
0.00465624766273872
0.00503432805121721
0.00536557518587849
0.00564498471002362
0.00587251229454314
0.00605302330769361
8.00178608550898e-07
8.17133736268341e-05
0.000351862550204707
0.000729002196911984
0.00116552540571976
0.00163614533457443
0.00212608834932892
0.0026240275755812
0.00311944901337769
0.00360281147313327
0.00406571425597866
0.00450075523545601
0.00490119674555893
0.00526039732689292
0.00557179315681485
0.00583086759202327
0.00603815459895499
0.00619906479939853
2.03921083508377e-05
0.000272875484051891
2.25488416292558e-05
0.000284619740262042
0.000755061352987421
2.41018418060937e-05
0.000297867641212826
0.000773221381399123
0.00132297874386446
2.432682474221e-05
0.000307187635010407
0.000792067789409255
0.00134304851111113
0.00190160720702137
2.35143912196947e-05
0.000309219301842923
0.000804904075213801
0.0013607279164378
0.00192091035677109
0.00245549666644537
2.22126533188348e-05
0.000304902157088802
0.000807011713074705
0.00137043509442055
0.0019338856750112
0.00247276908520986
0.00296984255557889
2.07078849641814e-05
0.000296879873664181
0.000798693734716325
0.00136788604306872
0.00193626088647689
0.00247975811152805
0.00298515379113241
0.00344046245823025
1.90251445971054e-05
0.000286706319517118
0.000782746456950732
0.00135266667294156
0.00192488028316961
0.00247318825217851
0.00298660989246922
0.00345422489974243
0.00386819468468307
1.71472132478184e-05
0.000274635032298529
0.000761158957066853
0.00132655909629681
0.00189912777756801
0.00245086081274113
0.00297139760225057
0.0034511241983465
0.00388046326484772
0.00425561108724321
1.50915229882395e-05
0.000260471529576186
0.000734496721838338
0.00129099391217184
0.00185977627012428
0.00241219907341655
0.00293777630089873
0.00342819335081542
0.00387337552870087
0.0042660807596409
0.00460551287786442
1.29066499848295e-05
0.000244039271445815
0.000702591145583472
0.00124637750802059
0.0018074004544745
0.0023572978211454
0.00288524145791312
0.00338368909381433
0.00384339107623967
0.00425506799239667
0.00461374119479644
0.00492048816822942
1.06558926874879e-05
0.000225229329422505
0.000665026469917015
0.00119238592850411
0.00174187817936237
0.0022859876437397
0.0028135725577156
0.00331715723842487
0.00378847671313252
0.0042183011337307
0.00459860078254945
0.00492605290150044
0.00520289206021632
8.417259255556e-06
0.000203905927549759
0.000621205109501719
0.00112820181094946
0.00166244258438163
0.00219754147188821
0.00272212858420039
0.00322832764654381
0.00370819420914308
0.00415332931518282
0.00455509847985567
0.00490652964097026
0.00520545028448036
0.00545490360921447
6.24000219730112e-06
0.000179699350076646
0.000570142221657948
0.00105248016186275
0.00156771105060108
0.00209065757463084
0.00260969832654174
0.00311635121107392
0.0036023581176592
0.00405969802551414
0.00448034568075522
0.00485628101797056
0.00518133961169704
0.00545419447734462
0.00567855126515403
4.15022811463273e-06
0.000152053963663652
0.000510101610223478
0.000963081948725178
0.00145556778635679
0.00196340458941232
0.00247453323210344
0.00297972316155715
0.00347008922028042
0.00393735557428364
0.00437385506421346
0.00477201917696066
0.00512436697297362
0.00542536806656093
0.00567437978767096
0.00587570916732094
2.25471214473953e-06
0.000119886648497665
0.000438749754904069
0.000856777111864775
0.00132294667472619
0.0018130976061686
0.00231430832367947
0.00281641554920523
0.00330976248794717
0.00378549481291942
0.00423572447832324
0.00465323087269085
0.00503090944137623
0.00536175836525271
0.00564077888157871
0.00586793182120642
0.0060480884961583
8.41001508444835e-07
8.25533738418556e-05
0.000352757931119945
0.000729434828614675
0.00116569372464708
0.00163618108365113
0.00212604736214046
0.00262391340187338
0.00311924732569913
0.00360250339156491
0.0040652809394954
0.00450017817452066
0.00490045898746548
0.00525948415485147
0.00557069110856266
0.00582955953532286
0.00603661175678833
0.00619725026022395
1.63178765524973e-07
4.21752456919578e-05
0.000249186896806075
0.000576341049209945
0.000978831127090044
0.00142823616127366
0.00190610604610728
0.00239920670135297
0.00289602348872978
0.00338628683954006
0.00386101069730899
0.00431235529316947
0.00473345249046706
0.00511807670158935
0.00546004787892232
0.00575321768145837
0.00599351898039538
0.00618201742801099
0.00632462410013006
2.18736317619357e-05
0.000279704815479545
0.000744222745479851
2.34761256236152e-05
0.000293378017776856
0.000763501993176328
0.00130721340962498
2.38070319799989e-05
0.000303196532888184
0.000783391066433952
0.00132902108087052
0.00188189641692763
2.30848768593794e-05
0.000305720984988885
0.000797212973904235
0.00134829214072946
0.00190344182646259
0.00243295096902598
2.18600565340689e-05
0.000301888832713535
0.000800275174305549
0.00135948936489488
0.00191849246033097
0.00245287114493979
0.00294554026162669
2.04210245576943e-05
0.000294312886502404
0.000792872579381464
0.00135835374420821
0.00192280923579109
0.0024623282096744
0.00296380205944963
0.00341536237008521
1.87956448886859e-05
0.000284544699372706
0.000777781011081361
0.0013444689557653
0.00191325234025599
0.00245806883144668
0.0029680224882195
0.00343228758720512
0.00384310902977806
1.69691373490591e-05
0.000272840260199702
0.000756980470082323
0.00131960543255041
0.00188920623818403
0.00243790328075579
0.00295540274259532
0.00343216225539279
0.00385868346030086
0.00423121468598807
1.495872644886e-05
0.000259010143301112
0.000731037442268063
0.00128518859685696
0.00185144060737086
0.00240125666526483
0.00292420733542314
0.00341203003418019
0.0038547160461849
0.0042450819170243
0.00458236169074657
1.28121508654455e-05
0.000242880161860464
0.00069978804679165
0.00124162647200646
0.00180052982844383
0.0023482253026118
0.00287393330135598
0.00337015062177274
0.00382767686876357
0.004237286725124
0.00459404241341076
0.00489903857232602
1.0594108766081e-05
0.000224348364257152
0.000662825079628633
0.00118860199648282
0.00173635603029144
0.0022786435095026
0.00280436273407859
0.00330606954744521
0.0037755340435716
0.00420356808222034
0.00458218342725789
0.00490808596281729
0.00518352038338577
8.38398860774799e-06
0.000203295750908905
0.000619570677502294
0.00112531136027853
0.00165815999884598
0.00219178855094896
0.00271485822094541
0.0032195171885978
0.00369784613275563
0.00414147493879128
0.00454180179452433
0.00489188614104677
0.00518957622782003
0.00543792148794667
6.23551618087958e-06
0.000179393741063619