/*--------------------------------*- C++ -*----------------------------------*\
  =========                 |
  \\      /  F ield         | OpenFOAM: The Open Source CFD Toolbox
   \\    /   O peration     | Website:  https://openfoam.org
    \\  /    A nd           | Version:  12
     \\/     M anipulation  |
\*---------------------------------------------------------------------------*/
/*   Windows 32 and 64 bit porting by blueCAPE: http://www.bluecape.com.pt   *\
|  Based on Windows porting (2.0.x v4) by Symscape: http://www.symscape.com   |
\*---------------------------------------------------------------------------*/
FoamFile
{
    format      ascii;
    class       volScalarField;
    location    "400";
    object      omega;
}
// * * * * * * * * * * * * * * * * * * * * * * * * * * * * * * * * * * * * * //

dimensions      [0 0 -1 0 0 0 0];

internalField   nonuniform List<scalar> 
10252
(
2.4668408891015
2.46684027303008
2.38168022213812
0.717516991580179
2.46683936033949
2.38167845543925
0.717447087284927
2.28699709289014
0.70186103892964
0.409931348108125
2.46683871165478
2.38167671758827
0.717277424505248
2.28699463031016
0.701788460686732
0.409871253075222
2.21611021356181
0.681864423216822
0.405224215438483
0.301879227815678
2.46683985843802
2.38167564502551
0.716972499464187
2.28699282422284
0.701626670215709
0.409709749823748
2.21610795143266
0.681782470425548
0.405167185760624
0.301824937329115
2.18721884079202
0.665161644482158
0.398199923026196
0.300122246816066
0.250630160660469
2.46684143129436
2.38167741360068
0.716507515402852
2.28697938796826
0.701330926581399
0.409434415441215
2.21610705592176
0.681623159039822
0.405007794922146
0.301680917414074
2.18721751875193
0.665070562456933
0.398141967992863
0.30007113490793
0.250579188742038
2.18619237996008
0.654944380806418
0.391191757589933
0.297088293647911
0.249919553478418
0.222335464023293
2.46684141287147
2.38168068859615
0.715870859008701
2.28699317343202
0.70087340364419
0.409034529692029
2.21609444523363
0.681333645454859
0.404734879726107
0.301441252132659
2.18721770586038
0.664911054643779
0.397983826848949
0.299928180128693
0.250448783968786
2.18619061262425
0.654844736813801
0.391131429505424
0.297038255445928
0.249871539700332
0.222287095996287
2.1919287331176
0.64901600096429
0.385506540053314
0.293518893020231
0.248432583118918
0.222035364577559
0.205290399275656
2.46683854243988
2.38168165225274
0.715053416852243
2.28699714742054
0.700244284441033
0.40850203257505
2.21610706243788
0.680884392500184
0.404337796412619
0.301100638109383
2.1872176496233
0.664626985565073
0.397713542861362
0.299689380385321
0.250235125269763
2.18619239015978
0.654683169670331
0.390973540163724
0.296896349639856
0.249741947448754
0.222166609638339
2.19192768951888
0.648906945751606
0.385443416119748
0.293468753908654
0.248386058444024
0.221989778561271
0.205244089678301
2.19485332373385
0.64372100448394
0.380854927861473
0.28999649936215
0.246402238833032
0.221214482912136
0.205140602121808
0.194470990676474
2.46684131570385
2.38167931582309
0.714047022997763
2.28701136569974
0.699435447343517
0.407829988299956
2.21611024822873
0.680265002056628
0.403808682338316
0.300653990227902
2.18721754435627
0.664185368977916
0.397320162780541
0.299349830587385
0.249934873421627
2.18619213757979
0.654402297130688
0.390705447506506
0.296658817975184
0.249528726318492
0.221971233615354
2.19192873100677
0.648741165366161
0.385284785121003
0.293327516104907
0.248257443175297
0.221870012510839
0.205130818838845
2.19485608752884
0.643600491588291
0.380788654896271
0.289945783513415
0.246356300214016
0.221170471726558
0.205096953418731
0.194426155952791
2.19512739214238
0.637104401194292
0.376299403350754
0.286611108489739
0.244094629181829
0.219939894107808
0.204608620867865
0.194370781977167
0.187401133958148
2.46683742988546
2.38167685329728
0.712844354576092
2.28699571310341
0.698438329283536
0.407011960854312
2.21612435800818
0.679468549382079
0.403140750291111
0.300096436798529
2.18721931409772
0.663575499918331
0.396795802866527
0.298904534109348
0.249544521491284
2.1861918787295
0.653964349389097
0.39031555350025
0.296320922953919
0.249228912225927
0.221698546580394
2.19192744455692
0.648459706711898
0.385017714215429
0.293091210937374
0.248044996562183
0.221674908923171
0.204948417757519
2.19485257561824
0.643428243922423
0.380628334406736
0.28980473403549
0.246228511582245
0.221051643810028
0.204984361647163
0.194318077652175
2.19513203334511
0.636968230632635
0.376229458731809
0.28655967013709
0.244048926295517
0.219896726546931
0.20456657410087
0.194328516794659
0.18735716416921
2.19480606002091
0.628897455829907
0.371205358846426
0.283155535182579
0.241654809607411
0.218351475487646
0.20372090451255
0.193967609240993
0.18732034773023
0.182739520822281
2.46683992464964
2.38167668279781
0.711433110228061
2.2869914730497
0.697245309499111
0.406041567941867
2.21610954755165
0.678485039885971
0.402327576465068
0.299423288739212
2.18722129791325
0.662790920248394
0.396133792507659
0.298348648416475
0.2490605121911
2.18619320583863
0.653359846414488
0.389795830912776
0.295877732808884
0.248839080014731
0.221345904836114
2.19192689004294
0.648021872746744
0.384629858978812
0.292755053649301
0.24774597808352
0.221402396016023
0.204695033782147
2.19485007911752
0.643143983225319
0.380360957790899
0.289569240007474
0.246016945498307
0.220857120525584
0.204802191350029
0.194144988129726
2.19512581342848
0.63678621706171
0.376066668543829
0.286418423627547
0.243921750635858
0.219778795225945
0.204454912888127
0.194221106226646
0.187252706756491
2.19480859459351
0.62873547546593
0.3711306154308
0.283103343937154
0.241609332779758
0.218308920636755
0.203679846185205
0.193926967215107
0.187278887975287
0.182695823139286
2.19480361149704
0.619365021675833
0.365379270881417
0.279443072289562
0.239105159632402
0.216588548103202
0.202577139090334
0.193294675511547
0.18698660294569
0.182672909275681
0.179702188987098
2.46684124347559
2.38167865380308
0.70980661806949
2.28699189995629
0.695847276467117
0.404913317768882
2.21610526444897
0.6773086717641
0.401363039341691
0.29862997959486
2.1872196959547
0.66182201222183
0.395327647899022
0.297677499889491
0.248479343678282
2.18619662158135
0.652581289675083
0.38913958891587
0.295324425071779
0.248355685506772
0.220910586523911
2.19192820558591
0.647417821614477
0.384113042818786
0.292314089446466
0.247357049312831
0.221049916585053
0.204368584643288
2.19484680065585
0.642703790601126
0.379973597324794
0.289234387338745
0.245718899204425
0.220585040282072
0.204548901949688
0.19390541901441
2.19512262323634
0.636497515780611
0.375798139641967
0.2861832720045
0.243710994075283
0.219585022270312
0.204273266076567
0.194048250419553
0.187086281486657
2.19480023645242
0.628533845392033
0.370964104978339
0.282961669892458
0.241482667597619
0.218191816080516
0.203569136911861
0.19382050085913
0.187175100150654
0.182593719743071
2.19480631432586
0.619132313031159
0.365297006680736
0.279390072804244
0.239060070486373
0.21654669528118
0.202536925107746
0.193255128019581
0.186946786392645
0.182631682339067
0.179658192273696
2.19513109153706
0.608652689807589
0.358848204635581
0.275412776214572
0.236440314596118
0.214746122239769
0.201305637643146
0.192447339404552
0.186453028958285
0.182389528786876
0.179650278608142
0.177798227717221
2.46684171218383
2.38168037894096
0.707955225134449
2.28699533854952
0.69423497048015
0.403619863869784
2.21610298525032
0.675930803041675
0.40024100280865
0.297712341726455
2.18721499182965
0.660662647931743
0.394371395862779
0.296886595945346
0.247797633468017
2.18619451125017
0.651620295746098
0.38834032759976
0.294656313635027
0.247775221965185
0.220389862850427
2.19193359283035
0.646639559083549
0.383460346226906
0.29176345679829
0.246874680865541
0.220614743005748
0.203966868147444
2.19485012400357
0.642096814333054
0.37945773630858
0.28879512730359
0.245331055412269
0.220232934371459
0.204222480789248
0.193597648027276
2.19511688912979
0.636053218567611
0.375410330066666
0.285849196125309
0.24341390206977
0.219313581366883
0.204020281616924
0.193808761139201
0.186856659967612
2.19479711326258
0.628236228641146
0.370693674845569
0.28272657959351
0.241272638856729
0.217998875837822
0.203388209990446
0.193648168262294
0.187008914043241
0.182431922837779
2.19480457312094
0.618874476339462
0.365122750044176
0.27924765498471
0.23893395257753
0.216430463158704
0.202427175156952
0.193149665235813
0.186843960030071
0.182530248042964
0.179557372783316
2.19512739183443
0.608306671059435
0.358749524543869
0.275358676682834
0.236395873946787
0.214705230211101
0.201266420721119
0.192408800144267
0.186414387170244
0.182349960081228
0.179608726718928
0.177753382078103
2.19485547554733
0.596682932804012
0.351703245475027
0.271112094556387
0.233695163398722
0.212896438828994
0.200020644281483
0.191547703040562
0.185823461646594
0.181962224439088
0.179410943411005
0.177761466953511
0.176700694259512
2.46684231617502
2.38167973639037
0.705868129030382
2.28699733662361
0.692398906351993
0.402155139400871
2.21610888707301
0.674341094958948
0.398954803688645
0.296665889345376
2.18721362039673
0.6593033103317
0.393258748780022
0.29597157558943
0.247012222623858
2.18619078044401
0.650468331233518
0.387391967127747
0.293868890426572
0.247094298631502
0.219781162640904
2.19193026889109
0.645677199764685
0.382665172300223
0.291098414439779
0.246295352001402
0.220094145638774
0.203487702497456
2.19485436726049
0.641313726909105
0.3788061002552
0.288246479154233
0.244849863947688
0.219798086015141
0.203820733827079
0.193219852633131
2.19512227291621
0.635440930458177
0.374894219269219
0.285410992008082
0.243027111501928
0.2189620342347
0.203694026299068
0.193500991296106
0.186562394486309
2.19479142547267
0.627784858227451
0.370304906045641
0.282392988556364
0.240976438919361
0.217728220308691
0.203135738804067
0.193408954083786
0.186779381099778
0.182209384189352
2.19480194572434
0.618552859250168
0.36484820470831
0.279012396567639
0.238724670030526
0.216238452088365
0.202247110761594
0.192978059790166
0.186678306293211
0.182368695112764
0.179398577020008
2.19512586538689
0.607904312194546
0.358554849079903
0.275214406744135
0.236270392374375
0.214590046755532
0.201157749333039
0.192304386691482
0.186312602986822
0.182249496670068
0.179508572579292
0.177652915695957
2.19485359794313
0.596213361569653
0.351573470567775
0.271055528309866
0.233651695653688
0.212856881940284
0.199982734945435
0.191510363012609
0.185785946208534
0.181923886566565
0.179371058776662
0.177719051731394
0.17665448153236
2.19192748146444
0.58323362093606
0.344077615291253
0.266678453443466
0.230975636224251
0.211134559624803
0.198827568014989
0.190712966943764
0.185218878572382
0.181506397489856
0.179073094063125
0.177562517647128
0.176678529106992
0.176180626152846
2.46683663347405
2.38167789692934
0.703535710565044
2.28699610797118
0.690328484781669
0.400513270551233
2.21611334824584
0.672528508342001
0.397498117542255
0.295486820557129
2.18721833954486
0.657733249794924
0.391983033274834
0.294928080914705
0.246120201964983
2.18619126561461
0.649115053326279
0.386287978667384
0.292957721407574
0.246309724746548
0.219082073603315
2.1919285154095
0.644520993677336
0.381721005785366
0.290314370829233
0.245615636637321
0.219485516242896
0.20292904817267
2.19485514281871
0.640344069108992
0.3780116476397
0.287583575590217
0.244271754855326
0.219277748183412
0.203341470732078
0.192770242686482
2.19512487646681
0.634650731115304
0.374242022510164
0.284863486651681
0.242546998413733
0.218527654990899
0.203292322809058
0.193123125722898
0.186201940427798
2.19479692716778
0.627166261588115
0.369788104003055
0.281955501997967
0.240590619200076
0.217377379403282
0.202809818892866
0.193101289040684
0.186485119459539
0.181924860860347
2.19479657165941
0.618090699578328
0.364457617809942
0.278679215436072
0.238429399763853
0.215968719067099
0.201995345998776
0.192739315838984
0.186449045573476
0.182146249326605
0.17918088994526
2.19512368720656
0.607526270668186
0.3582693752603
0.274978242300633
0.236061940314025
0.214399137268819
0.200978714624096
0.19213366499245
0.18614768257001
0.182088477480963
0.179350017582881
0.177495769530952
2.19485235605674
0.595557102899179
0.351332132718783
0.270905990456304
0.233526784817327
0.212743016273196
0.199875383823663
0.191407148394815
0.185685265610607
0.181824484031398
0.179271874241004
0.177619244685391
0.176553548665933
2.19192930554274
0.582623248124151
0.343894512785186
0.266616568891634
0.230933399141367
0.211096827934902
0.198791386621316
0.190677163340369
0.185182702806492
0.181469265182093
0.179034474663987
0.177521773570455
0.176634738081208
0.176132560464322
2.18618863953803
0.568095089111654
0.336176718864994
0.262366473559965
0.228485214421741
0.209618271496552
0.197857921345737
0.190063052966039
0.184756396975733
0.18114515011651
0.17876313256335
0.177302899970284
0.176516249660422
0.176171829973991
0.17607152249149
2.46683901396193
2.38167613594662
0.700955379998291
2.28699385330345
0.688014077348862
0.398689692454424
2.21610961522504
0.670481359428145
0.395864951805762
0.294172027064261
2.18722222360875
0.655941065951294
0.390537657889349
0.293752220471639
0.24511923001529
2.18619070592799
0.647551673719199
0.385021553159846
0.291918403509496
0.245418586840692
0.218290653094235
2.1919272509275
0.643163685069489
0.380621081599456
0.28940676435946
0.244832291208701
0.218786458776983
0.202289128874897
2.19485136543695
0.639180556353738
0.377067530360622
0.286801644822262
0.243593241113914
0.21866927583912
0.202782635306244
0.19224719575238
2.19512992775677
0.633674602044038
0.373446377540898
0.284201593025095
0.241969894582155
0.218007650236431
0.202812965519776
0.192673367256561
0.185773806245081
2.19479965098444
0.626371429298091
0.369135035343673
0.281408696621343
0.240111434716397
0.216943575138508
0.202408267174386
0.192723375657045
0.186124594057577
0.181577012575748
2.19480219117791
0.617468457442478
0.363940246455067
0.278242499074275
0.238044598236281
0.215618728315002
0.201669947352544
0.192431892142383
0.18615487007808
0.181861726430731
0.178903213763405
2.19511858915923
0.607047383601908
0.35787485471242
0.274645315245066
0.235767762942167
0.214130521687798
0.200727857297717
0.191895576679813
0.185918865171872
0.18186629454076
0.179132416104599
0.177281121154107
2.19485062140813
0.595075085792258
0.35102035739097
0.27066663059948
0.233319134977622
0.212553458743994
0.19969761553448
0.191237492492515
0.185521225201245
0.181664187024286
0.179113840346107
0.177462328182536
0.176396897358131
2.1919289671751
0.581715067328753
0.343569906739667
0.266454720702642
0.230808461969703
0.210984581986738
0.198685698851463
0.190575412022347
0.185083281996876
0.18137098573222
0.178936349311057
0.17742292552795
0.176534455270388
0.176030431900483
2.18619268396909
0.567324581270087
0.335944315835777
0.262294854977007
0.228444296552417
0.209582965583706
0.197824001178511
0.190029222102141
0.184721909385982
0.181109447195911
0.178725764686841
0.177263437117142
0.176474128534631
0.176126180923567
0.176021154269379
2.18721146321429
0.551778225196095
0.328481193150474
0.258643695756942
0.226581080774415
0.208610105533566
0.197308405503724
0.189751829425521
0.184563329460921
0.180996031639867
0.178607717572359
0.177118423148002
0.176325482774843
0.176042185093102
0.176074602130965
0.176249000077925
2.46684298344866
2.38167608998943
0.698129770062517
2.28699279438571
0.685447823986515
0.396682685254317
2.21610748291157
0.668189256057177
0.394050571097694
0.292719652058963
2.18722021169465
0.653918128567338
0.388916537335118
0.292440828652752
0.244007778829414
2.18619461533212
0.645769649647073
0.383585961435095
0.290746934535816
0.244418493975336
0.217405524629379
2.19192632071471
0.64159738010392
0.379358699899776
0.288371134238774
0.24394234160115
0.217994975958624
0.20156661523921
2.19484789814771
0.637815339189967
0.375967141318587
0.285895956093121
0.242810965668379
0.217970237091201
0.202142433119938
0.191649389315592
2.19512402345064
0.632504256644805
0.372500453950012
0.283420325570204
0.241292193763257
0.217399312213812
0.202253866666197
0.192150077219524
0.185276694461407
2.19480478748723
0.625390878004763
0.368338273560614
0.280747244502391
0.23953507077049
0.216423931946396
0.201928840766735
0.192273404702847
0.185696307835303
0.181164589002021
2.19480497202587
0.616670671140874
0.363287255274193
0.277696541605154
0.237566369031543
0.215185612616289
0.201268686585264
0.192053988225406
0.185794263650667
0.181513804289061
0.178564387406767
2.19512420768482
0.606419260791736
0.357357420816096
0.274209708314188
0.235384232758849
0.213781592222968
0.20040318367771
0.191588551766723
0.185624870566979
0.181581834737894
0.17885473193054
0.177007990459244
2.19484772795677
0.59455872646478
0.350616695159369
0.270333250364877
0.233026249502752
0.212286246938642
0.199447913211234
0.191000256823893
0.185293002284944
0.18144240698472
0.178896476219015
0.17724775107374
0.176183778934588
2.19192944492102
0.581045188591983
0.343208336045901
0.26620710478239
0.230601162946525
0.210796655649828
0.198509513660082
0.190407068335313
0.184920287931686
0.181211534190584
0.178779005064113
0.177266504555155
0.176378019898498
0.175873282716768
2.18619541849984
0.56623043178769
0.335515482579562
0.262110830329916
0.228317882067328
0.209472581685368
0.197720399709237
0.189929295115376
0.184624009928325
0.181012437751787
0.178628751012976
0.177165628625792
0.176374786322985
0.176024691519635
0.175917183028199
2.18721791345087
0.55077403346735
0.328203043334328
0.258560767611578
0.226541409111335
0.208577929343606
0.197277407540813
0.189720507364565
0.184530966747191
0.18096210775671
0.178571826149336
0.177080229864612
0.176284643600162
0.175998200217667
0.176026647591093
0.176195919287868
2.21608884473882
0.536996229989517
0.322329257874585
0.256430845829535
0.22590061686702
0.208548708748531
0.197488096260933
0.190003957624505
0.184808017465189
0.18119116962349
0.178725632121947
0.177139538654883
0.176249847633706
0.175911696848109
0.175973513569541
0.176262438852472
0.176618355844477
2.46684594536562
2.38167878440955
0.695083324901932
2.2869929855009
0.68263785009801
0.394494992020523
2.21610674105522
0.665651865679471
0.392052847514574
0.291129723324781
2.18721722908197
0.651656209325288
0.387114848000173
0.290991966123743
0.242785543606295
2.18619373826196
0.643757982563088
0.381975296445167
0.289440041416783
0.243307868394022
0.216426204554201
2.19193013947845
0.639810702020757
0.377927326983968
0.287203271865318
0.242943307827844
0.217109660326645
0.20076084039113
2.19485085592612
0.636237634841574
0.374703779448237
0.284861924002569
0.241921849628584
0.217178567799448
0.201419507711943
0.19097598839165
2.19511835339206
0.631129246374681
0.371397433895084
0.282514787855543
0.240510384727164
0.216700121702447
0.201613190064305
0.191551915347701
0.184709644174073
2.19479880365723
0.624213355129995
0.367390645387504
0.279965947193271
0.23885775574512
0.215815635750059
0.201369392989449
0.191749708169823
0.185198948215321
0.180686546909857
2.19481010852082
0.615685606269059
0.362490559394059
0.277035750801977
0.236990718307103
0.214666380400166
0.200789250245962
0.19160376260832
0.185365719392582
0.181101222129365
0.178163334805961
2.19512693164311
0.60561799678061
0.356705857832681
0.273665294256119
0.234907281126667
0.213349368552511
0.200002385566293
0.191210749445
0.185264181207006
0.181233797104464
0.178515813051558
0.176675345594935
2.19485103410207
0.593917381847862
0.35009846446178
0.269899194158555
0.232644438288021
0.211938715389242
0.199124216241559
0.190693809719976
0.184999288559792
0.181158057991131
0.178618816433405
0.17697459131512
0.175913299213092
2.19192710750376
0.580454891863793
0.342785271005796
0.265871354259048
0.230309646238459
0.210531212362311
0.198261290226262
0.190170924367544
0.184692817153255
0.180990261174918
0.178561981428107
0.177052124436593
0.176164951881458
0.175660414819474
2.18619499455815
0.565445537077353
0.335074948560808
0.26184747087024
0.228109756965021
0.20928651035681
0.197546182920047
0.189762584575502
0.184462286926761
0.180853965263212
0.178472187536286
0.177009845477078
0.176218811636687
0.175867740629989
0.17575867457341
2.18722271040196
0.54944867773098
0.32769923444597
0.258347815850625
0.226411430893135
0.208469517172969
0.197176370429429
0.189622848625767
0.184434937551488
0.180866610639757
0.178476050932246
0.176983495234253
0.176186306570528
0.17589762706202
0.175923302971804
0.176089533738989
2.21610753599928
0.535600014635776
0.32198831416531
0.256341254078675
0.225862606647223
0.208520470223438
0.197460814422902
0.189975793168514
0.184778301490538
0.181159452174449
0.178691558879906
0.177102833084222
0.176210272726603
0.175868982164561
0.17592721368749
0.176211769800684
0.176562194032436
2.28697684240109
0.530830491405204
0.321357341588372
0.257737032477183
0.22765093674353
0.210193595570375
0.198897705784968
0.191163563090781
0.185735148120773
0.181908971473525
0.179252752058689
0.177486619424996
0.176423246440019
0.175930479984578
0.175895385074894
0.176186029228833
0.176640724023088
0.177106516229609
2.3816800151813
0.691806717466529
2.28699384470638
0.679608929876521
0.392133809814557
2.2161069794681
0.662878642501808
0.389874508984351
0.289405256792993
2.18721693483106
0.649151767093711
0.385130713050906
0.289405630049728
0.241454028903311
2.18618977435967
0.641508196810067
0.380184837723302
0.287995650317548
0.242086352497358
0.215353452432214
2.19192776611748
0.637791684436733
0.376320570009009
0.285899745095136
0.241833505039719
0.216129980800523
0.199872084898198
2.19485392838735
0.634436680039419
0.373270335774639
0.283695183228494
0.240923256645169
0.216292777840708
0.200613157060543
0.190226877143774
2.1951235701237
0.62953879921318
0.370130016514129
0.281480183279983
0.239621222516257
0.215907905235352
0.200889520729912
0.190878021371837
0.184072212558694
2.19479302511673
0.622828556138094
0.366284694723696
0.2790596700111
0.238075794647968
0.215116034400221
0.200728008453009
0.19115090564087
0.184631535836948
0.18014222184196
2.19480407240704
0.614501487491057
0.361542208023847
0.276254638333942
0.236313669676107
0.214058071534287
0.200229396426388
0.191079492884869
0.184867897572271
0.180622927808818
0.177699233087161
2.19513201141722
0.604628843636304
0.355910744671854
0.273006055536298
0.234332700575887
0.212830725246441
0.199523047837435
0.190760264610157
0.184835261144755
0.18082091158797
0.17811458404118
0.176282264470904
2.1948533910191
0.593110085257563
0.349449489783229
0.26935741807372
0.232169410366975
0.211507761553485
0.198724116738556
0.190316237352593
0.184638528900606
0.180809838759418
0.178279728184863
0.176641828249069
0.175584528958075
2.19192775495787
0.579787312920216
0.342263550714096
0.265439064564462
0.229930148142894
0.210185562154571
0.197938906932954
0.189865274747491
0.184399498956261
0.180706053286606
0.178284339953777
0.176778932907113
0.175894415664759
0.175391001596707
2.18619227646508
0.564788200992591
0.334619436773399
0.261506142966578
0.227819419409265
0.209023242337797
0.197299842328954
0.189527833442655
0.184235760862794
0.18063329937817
0.178255553918353
0.176795722543696
0.176005888909387
0.175654899542962
0.175544967330092
2.18722349127998
0.548554164119514
0.327206521726173
0.258061950559355
0.226200784009457
0.208285409767454
0.197004550956638
0.189458160370794
0.184274774625223
0.180709299687977
0.178320358421184
0.176828401769351
0.176030902427469
0.175741094960998
0.175764973481465
0.175928920739855
2.2161126409609
0.533929080515094
0.321409452303044
0.256105302321588
0.22572776412891
0.208414066038429
0.197362849880306
0.189880915650066
0.184684563929499
0.18106578557132
0.178597234142331
0.177007270968422
0.176112949979404
0.175769368219597
0.175824756397788
0.176105997168363
0.17645289325079
2.28700604269846
0.528866466726447
0.320897230895889
0.257636787516329
0.227615638830035
0.21017023404841
0.198875053065831
0.191139322163972
0.185708694447805
0.18187995955087
0.179220905981125
0.177451727878429
0.176385140273715
0.175889004887496
0.175850333420882
0.176137001885975
0.176586971952882
0.177046945709463
2.38167602985973
0.560503771546391
0.336328165639011
0.267419837989877
0.234316682814898
0.21494323395445
0.202385201986014
0.193777640675166
0.187714840636333
0.183408704310076
0.180374928850267
0.178298642436591
0.176967608247883
0.176235368405736
0.175995796824625
0.176153030668006
0.176585439925052
0.177136510852651
0.177656598377161
2.28699436742377
0.676355570243014
0.389606262919165
2.21610740013656
0.659891938514231
0.387523767807088
0.287552353061819
2.18721736515752
0.646411304227044
0.382966916305643
0.287684661354251
0.240017033450611
2.18619158744508
0.639016789812419
0.378212404557303
0.286413611446305
0.240755347306433
0.214189827234668
2.19192340078393
0.635530826563299
0.374533300906766
0.284458266250806
0.240612439221208
0.215056655329342
0.198901971229771
2.19485079996056
0.632399938307866
0.371659886179188
0.282391943296405
0.239813312953228
0.215312232738841
0.199723619546035
0.189402948775889
2.19512891583482
0.62772082330731
0.368690717380456
0.280311886714915
0.238621859945934
0.215021029020613
0.200082079584808
0.190128245251421
0.183364746088668
2.19479827774337
0.621225548957806
0.365012710333926
0.278023295562194
0.237185713324037
0.21432279029651
0.200003168076416
0.190476082104358
0.18399361052547
0.179531512593492
2.19479821269459
0.613107645037018
0.360434308833338
0.275347734850705
0.235531330832648
0.213357861337806
0.199587087588191
0.190479724028348
0.184299780029931
0.180078236916785
0.177171655377608
2.19512602186524
0.603438864717088
0.354963379999173
0.272226086497322
0.233656279409899
0.212222517213024
0.198962798410725
0.190235287128254
0.184336719524345
0.180342101348459
0.177650206493559
0.175828093902323
2.19485825705806
0.592115645854323
0.348657944293015
0.268701166175609
0.231596678206125
0.210990097461588
0.198245075121383
0.189865540761884
0.184209127550103
0.180396451898524
0.177878129599759
0.176248537562653
0.175196665606648
2.19192937417372
0.578968960218883
0.34161799574981
0.264901342453478
0.229458015279188
0.209756468192765
0.197539852512045
0.189488113063948
0.184038708228872
0.180357572678833
0.177944947414088
0.176445928413898
0.17556549284171
0.175064190826416
2.1861921764514
0.564087031800182
0.334091335628342
0.261075660635812
0.227442956869384
0.208680110227664
0.196979218577789
0.18922326390692
0.183942984498123
0.180349264087901
0.177977884381266
0.176522434195037
0.175735251959349
0.175385398097334
0.175275283005786
2.18721906377378
0.547890495396848
0.326727841622611
0.257712644503158
0.225911364665506
0.208024758550479
0.196760570734131
0.189225168324818
0.184049433140864
0.180489365512661
0.178104147134516
0.176614525153344
0.175818137002238
0.175528340018045
0.175551266968818
0.175713444629937
2.21611501155134
0.532885780665249
0.320886218747624
0.255802908187646
0.225513695202352
0.208232029279007
0.197193883472805
0.189718689556792
0.184526304057754
0.180909869456101
0.178442540507748
0.176852906713036
0.175958123186961
0.175613327817172
0.175666799225526
0.175945543025254
0.176289535964066
2.28699910306706
0.526673458269563
0.320222452074902
0.257382924530876
0.227477107704652
0.210066102314716
0.198780690659758
0.191047783186922
0.185617724561786
0.181788498924079
0.179128307084072
0.177357512162294
0.176288896105101
0.175790328308947
0.175748780568
0.176032084465131
0.176478270040059
0.176934296049903
2.38169099295276
0.558257063369725
0.335694266826095
0.267283157639356
0.234281670159132
0.214925364793702
0.202368133188777
0.193758184769387
0.187692358494844
0.183382974310621
0.180345777597188
0.178265948517892
0.176931275663716
0.176195317856572
0.175951944241824
0.176105221388083
0.176533313526743
0.177079347657142
0.177593329858399
3.68517227836365
0.850214834243211
0.412072432921284
0.298994172164967
0.251577005769701
0.225595777985953
0.209481150229619
0.198758383971223
0.191328465621214
0.186079843268018
0.182362319244362
0.179767196518182
0.178024472352403
0.176949621238913
0.176414011187364
0.176323671525063
0.17659105585749
0.177099159213743
0.177693043857588
0.178224082847627
2.21610762850206
0.656690008977184
0.385007080139809
0.386916608412057
0.285578688153887
2.18721762615399
0.643459152902302
0.380631321547468
0.285835120627363
0.238481457032762
2.18619236374481
0.636286690990879
0.376059649128668
0.284696534548703
0.239318604437731
0.212940218460891
2.19192766678206
0.633024134222565
0.37256277853055
0.282878358120454
0.239281325761453
0.213892151640416
0.197853895061298
2.19484577466888
0.630117000086859
0.369866712132635
0.280949538643152
0.2385912818685
0.214237521513121
0.198752449432472
0.188506489523528
2.19512361721198
0.625662729220046
0.367072157869631
0.279005652579117
0.237510133472316
0.214038676623413
0.199191006230124
0.189303437157263
0.182588636812889
2.19480371874289
0.61939140974618
0.363566714777062
0.27685187491061
0.236184397735865
0.213434063634663
0.199193958325734
0.189725013576986
0.183285475234215
0.178855124914152
2.19480341604061
0.611492689318714
0.359158773524932
0.274309584940094
0.234639929937468
0.212563199930204
0.198860650262229
0.189803442853849
0.183660855252375
0.179467023394164
0.176580779293616
2.19512014199443
0.60203654851218
0.353855377931365
0.271319555120188
0.232873871249327
0.211521721010605
0.198319439868838
0.189634247111565
0.183767466928885
0.179796643559868
0.177122237322347
0.1753126057909
2.19485258641085
0.590918227470291
0.347713912115249
0.267923979445307
0.230921737922286
0.210382376781107
0.197684561128826
0.189339789382944
0.183709610214261
0.17991677163988
0.177413157170943
0.175794053048943
0.174749194450958
2.19193195349557
0.577965949062495
0.34083222523657
0.264250126602245
0.228888348129613
0.209240448092725
0.19706144367561
0.18903732391359
0.18360875956839
0.179943464310659
0.177542695733675
0.176052179776863
0.175177378614557
0.174679272738721
2.18619294962443