/*--------------------------------*- C++ -*----------------------------------*\
  =========                 |
  \\      /  F ield         | OpenFOAM: The Open Source CFD Toolbox
   \\    /   O peration     | Website:  https://openfoam.org
    \\  /    A nd           | Version:  12
     \\/     M anipulation  |
\*---------------------------------------------------------------------------*/
/*   Windows 32 and 64 bit porting by blueCAPE: http://www.bluecape.com.pt   *\
|  Based on Windows porting (2.0.x v4) by Symscape: http://www.symscape.com   |
\*---------------------------------------------------------------------------*/
FoamFile
{
    format      ascii;
    class       volScalarField;
    location    "400";
    object      p;
}
// * * * * * * * * * * * * * * * * * * * * * * * * * * * * * * * * * * * * * //

dimensions      [0 2 -2 0 0 0 0];

internalField   nonuniform List<scalar> 
10252
(
83333.3322577826
83333.3322229236
83333.3322581023
83333.3322574941
83333.3321871143
83333.3322232317
83333.3322226258
83333.3322586965
83333.332257821
83333.3322575166
83333.3321504
83333.3321873996
83333.3321868335
83333.3322238447
83333.332222952
83333.3322227169
83333.3322596056
83333.3322584083
83333.3322578702
83333.3322589364
83333.3321126335
83333.3321507055
83333.3321500899
83333.3321880329
83333.3321871468
83333.3321869315
83333.3322248112
83333.33222357
83333.3322230977
83333.3322242975
83333.3322608772
83333.3322593249
83333.3322584945
83333.3322593551
83333.3322622986
83333.3320737552
83333.3321129677
83333.332112292
83333.3321513866
83333.332150418
83333.3321501601
83333.3321890567
83333.3321877883
83333.3321873169
83333.3321886064
83333.3322261739
83333.3322245543
83333.3322237781
83333.3322247622
83333.3322278609
83333.3322625297
83333.3322606156
83333.3322594626
83333.3322600419
83333.33226276
83333.3322677068
83333.3320337079
83333.3320741213
83333.3320733856
83333.3321137057
83333.3321126449
83333.3321123383
83333.3321524887
83333.3321511008
83333.3321505598
83333.3321518849
83333.3321905122
83333.3321888345
83333.3321880284
83333.3321890834
83333.3321923436
83333.3322279477
83333.3322259447
83333.3322248322
83333.3322255262
83333.3322283912
83333.3322335405
83333.3322645505
83333.3322622968
83333.3322608093
83333.3322610795
83333.3322635192
83333.3322681653
83333.3322750257
83333.3319924256
83333.3320341088
83333.3320333119
83333.332074924
83333.3320737672
83333.3320734109
83333.3321148976
83333.3321133793
83333.3321127607
83333.3321141119
83333.3321540592
83333.3321522232
83333.3321513089
83333.3321523757
83333.3321557747
83333.3321924141
83333.3321903251
83333.3321891508
83333.3321898861
83333.332192897
83333.3321982948
83333.3322301169
83333.332227754
83333.3322262913
83333.332226667
83333.3322292348
83333.3322340731
83333.332241207
83333.3322669099
83333.3322643542
83333.3322625494
83333.3322624973
83333.3322646261
83333.3322689637
83333.332275481
83333.3322840866
83333.3319498334
83333.331992865
83333.3319920065
83333.3320349847
83333.3320337269
83333.3320333192
83333.332076218
83333.3320745626
83333.3320738634
83333.3320752382
83333.3321165979
83333.3321145896
83333.3321135584
83333.3321146276
83333.3321181566
83333.3321561146
83333.3321538297
83333.3321525055
83333.3321532167
83333.3321563482
83333.3321619945
83333.332194743
83333.3321922711
83333.3321907169
83333.3321911025
83333.3321937853
83333.3321988538
83333.3322063227
83333.3322326478
83333.3322299654
83333.3322281685
83333.3322282112
83333.3322304538
83333.3322349589
83333.3322417326
83333.3322506953
83333.3322695729
83333.3322667574
83333.3322646737
83333.3322643143
83333.3322661211
83333.3322701156
83333.3322762734
83333.3322845143
83333.3322946859
83333.3319058454
83333.3319503157
83333.3319493951
83333.3319938239
83333.3319924587
83333.3319920006
83333.3320363951
83333.3320345922
83333.3320338082
83333.3320352081
83333.3320780645
83333.3320758736
83333.3320747212
83333.3320757896
83333.3320794443
83333.3321188258
83333.332116327
83333.3321148417
83333.3321155189
83333.3321187625
83333.3321246525
83333.3321586324
83333.3321559315
83333.3321541891
83333.3321545088
83333.3321572786
83333.3321625756
83333.3321703954
83333.3321974602
83333.332194651
83333.3321927384
83333.3321927629
83333.3321950867
83333.3321997879
83333.3322068742
83333.332216256
83333.3322355009
83333.3322325461
83333.3322304542
83333.332230178
83333.3322320855
83333.3322362277
83333.3322426118
83333.3322511745
83333.332261776
83333.3322725043
83333.3322694751
83333.33226716
83333.3322665306
83333.3322680328
83333.3322716776
83333.332277445
83333.3322852833
83333.3322950702
83333.3323066155
83333.3318603635
83333.3319063756
83333.3319053916
83333.3319513688
83333.3319498888
83333.3319493804
83333.3319953672
83333.3319934043
83333.3319925303
83333.3319939559
83333.3320384071
83333.3320360187
83333.3320347368
83333.3320358017
83333.3320395827
83333.332080486
83333.3320777592
83333.3320761064
83333.3320767442
83333.3320800965
83333.3320862289
83333.3321215554
83333.3321186034
83333.3321166577
83333.3321168997
83333.3321197472
83333.3321252681
83333.3321334424
83333.3321615683
83333.3321585036
83333.3321563706
83333.3321562908
83333.33215866
83333.3321635551
83333.3321709693
83333.3321807963
83333.3322005206
83333.3321974274
83333.3321952009
83333.3321948834
83333.3321968425
83333.3322011439
83333.3322078025
83333.3322167554
83333.3322278513
83333.3322386333
83333.3322354615
83333.3322331251
83333.3322325677
83333.3322341577
83333.3322379328
83333.3322439025
83333.3322520309
83333.3322622077
83333.3322742449
83333.3322756686
83333.3322724762
83333.3322699813
83333.3322691333
83333.3322703683
83333.3322736864
83333.3322790604
83333.3322864631
83333.3322958168
83333.3323069749
83333.3323197163
83333.3318132764
83333.3318609472
83333.3318598988
83333.3319075351
83333.3319059325
83333.3319053703
83333.3319530636
83333.3319509262
83333.3319499546
83333.3319514055
83333.3319975686
83333.3319949631
83333.3319935403
83333.331994598
83333.3319985061
83333.3320410468
83333.3320380724
83333.3320362398
83333.3320368321
83333.3320402918
83333.33204667
83333.3320834529
83333.332080232
83333.3320780732
83333.3320782311
83333.3320811496
83333.3320868937
83333.3320954276
83333.3321247367
83333.3321213897
83333.3321190171
83333.3321188179
83333.3321212221
83333.3321263057
83333.3321340504
83333.3321443375
83333.332164872
83333.3321615031
83333.3321590307
83333.3321585767
83333.3321605426
83333.3321649956
83333.332171944
83333.3321813137
83333.3321929377
83333.3322038774
83333.3322005603
83333.3321980761
83333.3321974598
83333.332199077
83333.3322029791
83333.3322091836
83333.3322176615
83333.332228302
83333.3322409005
83333.3322420015
83333.3322386752
83333.3322361523
83333.3322353667
83333.3322366778
83333.3322401101
83333.3322456652
83333.3322533313
83333.3322630397
83333.3322746497
83333.3322879386
83333.3322790267
83333.3322757267
83333.3322731068
83333.3322721012
83333.3322731196
83333.3322761495
83333.3322811575
83333.3322881205
83333.3322970002
83333.3323077021
83333.3323200622
83333.3323338434
83333.3317644633
83333.3318139198
83333.3318128109
83333.3318622272
83333.3318604934
83333.331859873
83333.3319094038
83333.3319070764
83333.3319059954
83333.3319074686
83333.3319554824
83333.3319526372
83333.3319510575
83333.3319521012
83333.3319561433
83333.3320004558
83333.3319972082
83333.3319951783
83333.3319957159
83333.3319992805
83333.3320059085
83333.3320442814
83333.3320407674
83333.3320383782
83333.3320384421
83333.3320414263
83333.3320473947
83333.3320563024
83333.3320869089
83333.3320832582
83333.3320806326
83333.332080304
83333.3320827358
83333.332088004
83333.3320960827
83333.3321068438
83333.3321283125
83333.3321246368
83333.3321218957
83333.3321212865
83333.3321232454
83333.3321278439
83333.3321350846
83333.3321448812
83333.3321570565
83333.3321684912
83333.3321648837
83333.3321621346
83333.3321613578
83333.3321629494
83333.3321669627
83333.3321734123
83333.3321822671
83333.3321934069
83333.3322066067
83333.3322074803
83333.3322040081
83333.3322013299
83333.3322004743
83333.332201794
83333.3322053268
83333.3322110815
83333.3322190543
83333.3322291827
83333.3322413233
83333.3322552337
83333.3322455625
83333.3322421485
83333.3322395037
83333.3322385528
83333.3322396376
83333.3322427673
83333.3322479371
83333.3322551392
83333.3322643437
83333.3322754608
83333.332288329
83333.3323027075
83333.3322825302
83333.3322791865
83333.3322765088
83333.3322754087
83333.3322762693
83333.3322790586
83333.3322837391
83333.3322902896
83333.3322986867
83333.3323088831
83333.3323207735
83333.3323341806
83333.3323488609
83333.3317137954
83333.3317651707
83333.3317640024
83333.3318153379
83333.3318134671
83333.3318127815
83333.3318642949
83333.3318617612
83333.3318605567
83333.3318620467
83333.331912072
83333.3319089604
83333.3319072042
83333.3319082243
83333.3319124018
83333.3319586527
83333.3319551012
83333.3319528497
83333.3319533193
83333.3319569799
83333.3319638645
83333.3320039933
83333.3320001552
83333.3319975116
83333.3319974671
83333.3320005092
83333.332006702
83333.3320159977
83333.3320480465
83333.3320440641
83333.3320411631
83333.3320406917
83333.3320431416
83333.3320485911
83333.3320570082
83333.332068261
83333.3320907887
83333.3320867824
83333.3320837553
83333.3320829783
83333.3320849198
83333.3320896577
83333.332097191
83333.3321074248
83333.3321201737
83333.3321322233
83333.3321282923
83333.3321252524
83333.3321242934
83333.3321258422
83333.3321299576
83333.3321366538
83333.3321458953
83333.3321575525
83333.3321713837
83333.3321723706
83333.332168598
83333.3321656421
83333.3321646101
83333.33216588
83333.3321694903
83333.3321754476
83333.3321837497
83333.3321943339
83333.332207047
83333.3322216246
83333.3322112729
83333.3322077267
83333.3322049232
83333.3322038997
83333.3322049812
83333.3322081907
83333.3322135309
83333.3322210016
83333.3322305804
83333.3322421826
83333.3322556415
83333.3322706952
83333.3322492704
83333.3322458378
83333.3322431405
83333.3322420977
83333.3322430185
83333.3322458957
83333.3322507208
83333.3322574881
83333.3322661827
83333.332276762
83333.3322891229
83333.3323030882
83333.3323184101
83333.3322861175
83333.3322828112
83333.3322801516
83333.3322790284
83333.3322797938
83333.3322823962
83333.3322867927
83333.3322929674
83333.3323009058
83333.3323105829
83333.332321945
83333.3323348763
83333.3323491895
83333.332364641
83333.3316611352
83333.3317145684
83333.3317133393
83333.3317667465
83333.3317647311
83333.3317639728
83333.3318176337
83333.3318148734
83333.3318135322
83333.3318150293
83333.3318672507
83333.3318638455
83333.3318618861
83333.3318628695
83333.3318671754
83333.3319155671
83333.3319116759
83333.3319091719
83333.3319095562
83333.3319133003
83333.3319204477
83333.3319625335
83333.3319583342
83333.3319554045
83333.3319552318
83333.3319583182
83333.3319647338
83333.331974426
83333.3320081072
83333.3320037588
83333.3320005514
83333.3319999185
83333.3320023727
83333.3320079977
83333.3320167568
83333.3320285201
83333.3320522672
83333.3320479007
83333.33204456
83333.3320435984
83333.3320455098
83333.3320503796
83333.3320582054
83333.3320688893
83333.3320822355
83333.3320950241
83333.3320907455
83333.3320873936
83333.3320862373
83333.3320877303
83333.3320919393
83333.3320988798
83333.3321085142
83333.3321207058
83333.332135198
83333.3321364066
83333.3321323023
83333.3321290399
83333.3321278082
83333.3321290082
83333.3321326834
83333.3321388416
83333.3321474817
83333.3321585391
83333.33217185
83333.332187131
83333.3321764496
83333.3321725959
83333.3321695079
83333.3321683006
83333.3321693165
83333.3321725776
83333.3321780843
83333.3321858389
83333.3321958229
83333.3322079523
83333.3322220495
83333.3322378292
83333.3322151985
83333.332211668
83333.3322088114
83333.3322077031
83333.3322086159
83333.3322115581
83333.33221653
83333.3322235338
83333.3322325616
83333.332243578
83333.3322564833
83333.3322710932
83333.3322871378
83333.3322530598
83333.3322496918
83333.3322470243
83333.3322459685
83333.3322467944
83333.3322494764
83333.3322540028
83333.3322603743
83333.3322685851
83333.3322786151
83333.3322904136
83333.3323038652
83333.3323187813
83333.3323349131
83333.332289696
83333.3322865373
83333.3322839885
83333.3322829266
83333.3322836647
83333.3322861374
83333.3322902971
83333.3322961353
83333.3323036488
83333.3323128265
83333.3323236409
83333.3323360298
83333.3323498671
83333.3323649592
83333.3323810646
83333.331606359
83333.3316619782
83333.3316606912
83333.3317163233
83333.331714147
83333.3317133114
83333.3317693037
83333.3317662937
83333.3317647995
83333.3317662908
83333.3318209217
83333.3318171881
83333.3318149987
83333.3318159277
83333.3318203387
83333.3318711192
83333.3318668479
83333.331864054
83333.3318643305
83333.3318681408
83333.3318755535
83333.3319198401
83333.331915237
83333.3319119797
83333.3319116529
83333.3319147642
83333.3319213934
83333.3319314897
83333.3319670433
83333.3319622875
83333.3319587343
83333.3319579136
83333.3319603525
83333.3319661425
83333.3319752454
83333.3319875345
83333.3320127135
83333.3320079492
83333.3320042593
83333.332003089
83333.332004952
83333.3320099415
83333.3320180575
83333.3320292026
83333.3320431705
83333.3320568672
83333.3320522097
83333.332048516
83333.332047141
83333.3320485622
83333.3320528536
83333.3320600339
83333.3320700669
83333.3320828113
83333.3320979966
83333.3320995458
83333.3320950858
83333.3320914956
83333.3320900447
83333.3320911589
83333.3320948877
83333.3321012419
83333.3321102234
83333.3321217665
83333.3321356992
83333.3321517204
83333.3321407959
83333.332136609
83333.3321332099
83333.3321317917
83333.3321327195
83333.3321360165
83333.3321416843
83333.3321497281
83333.3321601333
83333.3321728141
83333.3321875813
83333.3322041293
83333.3321806554
83333.3321768241
83333.332173686
83333.3321723909
83333.3321732305
83333.3321762062
83333.332181316
83333.3321885646
83333.3321979491
83333.3322094398
83333.3322229368
83333.332238244
83333.3322550668
83333.3322191922
83333.3322157701
83333.3322129585
83333.3322118472
83333.3322126678
83333.332215406
83333.3322200612
83333.3322266424
83333.3322351513
83333.3322455748
83333.332257868
83333.3322719174
83333.332287526
83333.3323044221
83333.3322568101
83333.3322536395
83333.3322511051
83333.3322501274
83333.3322509329
83333.3322534818
83333.3322577602
83333.3322637777
83333.3322715407
83333.3322810435
83333.3322922624
83333.3323051364
83333.3323195386
83333.3323352729
83333.3323520918
83333.3322931236
83333.3322902741
83333.3322879648
83333.3322870602
83333.3322878458
83333.332290249
83333.3322942219
83333.3322997657
83333.3323068902
83333.3323155992
83333.332325882
83333.3323377042
83333.3323509935
83333.3323656146
83333.3323813701
83333.3323980219
83333.3315494786
83333.3316072954
83333.33160594
83333.3316639348
83333.3316615703
83333.3316606582
83333.3317191786
83333.3317158836
83333.3317142226
83333.3317156891
83333.3317729775
83333.3317688749
83333.3317664224
83333.3317672741
83333.3317717622
83333.3318252227
83333.3318205211
83333.3318173965
83333.3318175346
83333.3318213896
83333.3318290464
83333.3318758453
83333.331870788
83333.3318671558
83333.3318666381
83333.3318697473
83333.3318765703
83333.3318870685
83333.3319248016
83333.3319195887
83333.3319156452
83333.3319145986
83333.331916994
83333.3319229318
83333.3319323735
83333.3319452002
83333.331972087
83333.3319668801
83333.3319627997
83333.3319613851
83333.3319631734
83333.3319682643
83333.3319766641
83333.3319882777
83333.33200289
83333.3320177255
83333.332012649
83333.332008578
83333.3320069532
83333.3320082791
83333.3320126356
83333.332020047
83333.332030482
83333.3320437969
83333.3320597076
83333.3320617688
83333.3320569205
83333.3320529744
83333.3320512777
83333.3320522863
83333.3320560541
83333.3320625954
83333.3320719187
83333.3320839597
83333.3320985398
83333.3321153409
83333.3321042791
83333.332099737
83333.3320960078
83333.3320943557
83333.3320951763
83333.3320984949
83333.332104316
83333.3321126493
83333.3321234851
83333.3321367368
83333.3321522049
83333.3321695644
83333.3321453126
83333.3321411507
83333.3321377111
83333.3321362006
83333.3321369417
83333.3321399328
83333.3321451717
83333.3321526666
83333.3321624203
83333.3321744077
83333.332188527
83333.332204569
83333.3322222176
83333.3321849057
83333.3321812139
83333.3321781328
83333.3321768404
83333.3321775864
83333.3321803475
83333.3321851192
83333.3321919134
83333.3322007368
83333.3322115834
83333.3322244138
83333.3322391133
83333.3322554715
83333.3322731914
83333.332223123
83333.3322199602
83333.3322173085
83333.3322162921
83333.3322170998
83333.3322197022
83333.3322240969
83333.3322303028
83333.3322383342
83333.3322481927
83333.3322598606
83333.3322732818
83333.3322883296
83333.3323047984
83333.3323224173
83333.3322603592
83333.3322575694
83333.3322553148
83333.3322545247
83333.3322553926
83333.3322578744
83333.3322619595
83333.3322676687
83333.3322750224
83333.3322840311
83333.3322946884
83333.3323069622
83333.3323207804
83333.3323360059
83333.3323524378
83333.3323698311
83333.3322962166
83333.3322938669
83333.3322919895
83333.3322913683
83333.3322922862
83333.3322946848
83333.3322985248
83333.3323038203
83333.3323105955
83333.3323188697
83333.332328649
83333.332339917
83333.3323526298
83333.3323667048
83333.3323819989
83333.3323983127
83333.3324154123
83333.3314903386
83333.3315506126
83333.3315490708
83333.3316095042
83333.3316068979
83333.331605872
83333.331667134
83333.3316635094
83333.3316616559
83333.3316630724
83333.3317233032
83333.3317187793
83333.3317160238
83333.3317167677
83333.3317212987
83333.3317777822
83333.3317725941
83333.3317690898
83333.3317690472
83333.3317729127
83333.3317807741
83333.3318304727
83333.3318248993
83333.3318208408
83333.3318200842
83333.3318231544
83333.3318301441
83333.3318410261
83333.3318813252
83333.3318755964
83333.33187121
83333.3318698884
83333.3318722003
83333.3318782588
83333.331888029
83333.3319013949
83333.3319303438
83333.3319246402
83333.3319201204
83333.331918416
83333.3319200917
83333.3319252575
83333.3319339277
83333.3319460118
83333.3319612877
83333.3319775668
83333.3319720235
83333.3319675318
83333.3319656172
83333.3319668146
83333.3319712102
83333.3319788381
83333.3319896741
83333.3320035745
83333.3320202419
83333.3320230552
83333.3320177779
83333.3320134391
83333.3320114636
83333.3320123382
83333.3320161227
83333.3320228369
83333.3320324982
83333.332045047
83333.3320602999
83333.3320779218
83333.332066888
83333.3320619584
83333.3320578697
83333.3320559573
83333.3320566473
83333.3320599696
83333.3320659313
83333.3320745501
83333.3320858229
83333.3320996643
83333.3321158665
83333.3321340848
83333.3321091374
83333.3321046292
83333.3321008672
83333.3320991203
83333.3320997417
83333.3321027311
83333.3321080886
83333.3321158265
83333.3321259555
83333.3321384554
83333.3321532232
83333.3321700376
83333.3321885618
83333.3321498537
83333.332145856
83333.3321424878
83333.332140988
83333.3321416333
83333.3321443974
83333.3321492744
83333.3321562795
83333.3321654257
83333.3321767141
83333.3321901099
83333.3322054957
83333.3322226466
83333.3322412431
83333.3321890726
83333.3321856789
83333.3321827859
83333.3321816036
83333.3321823422
83333.3321849637
83333.3321894605
83333.3321958545
83333.3322041652
83333.3322144018
83333.3322265536
83333.3322405691
83333.3322563192
83333.3322735836
83333.3322920655
83333.3322268038
83333.3322241144
83333.3322217828
83333.3322209822
83333.3322218658
83333.3322244043
83333.332228599
83333.3322344806
83333.3322420782
83333.33225141
83333.3322624763
83333.3322752502
83333.332289663
83333.3323055765
83333.3323227791
83333.3323410022
83333.3322634975
83333.3322613002
83333.3322595447
83333.3322590869
83333.3322601145
83333.3322626021
83333.3322665534
83333.3322720051
83333.332278993
83333.3322875442
83333.3322976703
83333.3323093583
83333.3323225656
83333.3323372087
83333.3323531418
83333.3323701609
83333.3323880248
83333.33229866
83333.332297089
83333.3322959045
83333.3322957399
83333.3322969046
83333.3322993752
83333.3323031439
83333.3323082445
83333.3323147168
83333.3323225961
83333.332331905
83333.3323426451
83333.3323547911
83333.3323682884
83333.3323830447
83333.3323989109
83333.3324156868
83333.3324331435
83333.3314917595
83333.3314899966
83333.3315531652
83333.3315501753
83333.3315489026
83333.331613103
83333.3316090633
83333.3316069597
83333.3316082828
83333.3316717894
83333.3316667647
83333.3316636643
83333.3316642548
83333.33166878
83333.331728696
83333.331722955
83333.3317190078
83333.331718731
83333.3317225566
83333.3317305776
83333.331783639
83333.3317774778
83333.3317729307
83333.3317718758
83333.3317748557
83333.3317819753
83333.3317932087
83333.3318365506
83333.3318302368
83333.3318253428
83333.3318236873
83333.3318258626
83333.3318320022
83333.3318420796
83333.3318559752
83333.331887438
83333.3318811729
83333.3318761536
83333.3318741045
83333.3318756158
83333.3318808182
83333.3318897357
83333.3319022844
83333.3319182363
83333.3319363548
83333.3319302888
83333.3319253225
83333.3319230691
83333.3319240929
83333.3319284919
83333.331936313
83333.3319475422
83333.3319620383
83333.3319794916
83333.331983382
83333.3319776262
83333.3319728484
83333.3319705527
83333.3319712554
83333.3319750244
83333.3319818892
83333.3319918786
83333.3320049412
83333.3320208907
83333.3320393747
83333.3320286088
83333.3320232513
83333.3320187653
83333.3320165591
83333.3320170876
83333.3320203876
83333.3320264704
83333.3320353645
83333.3320470765
83333.3320615253
83333.3320784953
83333.3320976223
83333.3320721293
83333.3320672443
83333.3320631288
83333.3320611201
83333.3320615972
83333.3320645646
83333.3320700246
83333.3320779975
83333.3320885029
83333.3321015282
83333.3321169707
83333.3321345982
83333.3321540527
83333.3321140071
83333.3321096842
83333.3321060105
83333.3321042829
83333.3321048065
83333.3321075551
83333.3321125242
83333.3321197338
83333.3321292051
83333.3321409472
83333.3321549309
83333.3321710358
83333.3321890234
83333.332208552
83333.3321542887
83333.3321506271
83333.3321474726
83333.3321461007
83333.332146746
83333.3321493664
83333.3321539526
83333.3321605297
83333.3321691241
83333.3321797528
83333.3321924128
83333.3322070565
83333.3322235505
83333.3322416588
83333.332261061
83333.3321929545
83333.3321900936
83333.332187559
83333.3321866185
83333.332187446
83333.3321900065
83333.3321942957
83333.3322003473
83333.3322081958
83333.3322178675
83333.3322293701
83333.3322426835
83333.3322577424
83333.3322744045
83333.3322924424
83333.3323115614
83333.332229996
83333.3322280338
83333.3322262631
83333.3322258328
83333.3322268994
83333.3322294537
83333.3322335141
83333.3322391281
83333.3322463409
83333.3322551879
83333.3322656881
83333.3322778345
83333.3322915884
83333.3323068685
83333.3323235265
83333.3323413471
83333.3323600648
83333.3322658987
83333.3322645835
83333.332263606
83333.3322636838
83333.3322650034
83333.332267586
83333.3322714732
83333.3322767267
83333.3322834001
83333.3322915376
83333.3323011686
83333.3323122994
83333.3323249071
83333.3323389376
83333.3323542968
83333.3323708317
83333.3323883368
83333.3324065756
83333.3323001986
83333.3322996582
83333.3322994412
83333.3322999814
83333.3323015568
83333.332304207
83333.332307986
83333.3323129593
83333.3323191871
83333.3323267214
83333.3323356016
83333.332345847
83333.3323574511
83333.332370378
83333.3323845631
83333.3323999055
83333.3324162511
83333.3324334005
83333.3324511308
83333.3314947684
83333.3314913529
83333.3314896748
83333.3315572134
83333.3315526324
83333.3315501052
83333.3315511956
83333.3316183581
83333.3316127184
83333.331609198
83333.3316095727
83333.3316140295
83333.3316778631
83333.3316714873
83333.3316670111
83333.3316664342
83333.3316701546
83333.3316782753
83333.331735258
83333.3317284254
83333.331723311
83333.331721882
83333.3317247031
83333.3317318962
83333.3317434371
83333.3317904101
83333.331783429
83333.3317779492
83333.3317758864
83333.3317778566
83333.3317840222
83333.3317943677
83333.3318087725
83333.3318433195
83333.3318364167
83333.3318308258
83333.3318283635
83333.3318296442
83333.331834829
83333.3318439573
83333.3318569533
83333.3318735854
83333.3318940555
83333.331887399
83333.3318818922
83333.3318792398
83333.3318800306
83333.3318843838
83333.3318923625
83333.3319039675
83333.3319190626
83333.3319373268
83333.3319427208
83333.3319364299
83333.3319311565
83333.3319284889
83333.3319289705
83333.3319326805
83333.331939663
83333.3319499624
83333.3319635387
83333.3319802051
83333.3319995918
83333.3319894263
83333.3319835921
83333.3319786614
83333.3319761191
83333.3319764459
83333.3319796865
83333.3319858621
83333.3319950136
83333.3320071616
83333.332022232
83333.3320400035
83333.3320600907
83333.3320342808
83333.33202898
83333.3320244738
83333.3320221695
83333.3320224707
83333.3320253874
83333.3320309263
83333.3320391188
83333.3320499961
83333.3320635563
83333.3320796993
83333.3320981826
83333.3321186259
83333.3320773682
83333.3320726916
83333.3320686821
83333.3320667011
83333.332067079
83333.3320697902
83333.3320748332
83333.3320822355
83333.3320920286
83333.3321042318
83333.3321188232
83333.332135681
83333.3321545535
83333.3321750761
83333.3321187503
83333.3321147968
83333.3321113627
83333.3321097823
83333.3321103145
83333.3321129152
83333.3321175762
83333.3321243275
83333.3321332044
83333.3321442332
83333.3321574193
83333.33217272
83333.3321899972
83333.3322089993
83333.3322293827
83333.3321584148
83333.3321553331
83333.3321525738
83333.3321514704
83333.3321522207
83333.3321547843
83333.3321591548
83333.3321653697
83333.3321734703
83333.3321834916
83333.3321954501
83333.3322093326
83333.3322250766
83333.332242534
83333.3322614603
83333.3322815361
83333.3321963197
83333.3321942515
83333.3321923278
83333.3321917935
83333.3321928247
83333.3321954106
83333.3321995646
83333.3322053372
83333.3322127792
83333.3322219346
83333.3322328304
83333.3322454669
83333.3322598112
83333.3322757837
83333.3322932309
83333.3323119203
83333.3323315602
83333.3322324413
83333.3322314295
83333.3322305413
83333.3322307028
83333.3322320942
83333.332234763
83333.332238766
83333.3322441782
83333.3322510637
83333.3322594753
83333.3322694509
83333.3322810033
83333.3322941147
83333.3323087339
83333.3323247676
83333.3323420592
83333.3323603907
83333.3323795016
83333.3322674242
83333.3322671229
83333.3322671972
83333.3322680825
83333.332269892
83333.3322726981
83333.3322766153
83333.3322817466
83333.3322881705
83333.3322959496
83333.3323051313
83333.3323157411
83333.3323277762
83333.3323412029
83333.3323559558
83333.3323719314
83333.3323889708
83333.3324068685
83333.3324253936
83333.3323008253
83333.332301446
83333.3323021871
83333.3323037234
83333.3323059722
83333.3323089892
83333.3323129059
83333.3323178491
83333.3323239119
83333.3323311678
83333.3323396744
83333.3323494693
83333.3323605649
83333.3323729452
83333.3323865644
83333.3324013486
83333.3324171891
83333.3324339288
83333.3324513697
83333.3324692958
83333.3314994448
83333.3314942174
83333.3314910693
83333.3314277041
83333.3314917412
83333.3315629457
83333.331556717
83333.3315525985
83333.3315526027
83333.3315568722
83333.331625192
83333.3316180693
83333.3316129528
83333.3316119897
83333.3316155259
83333.3316236637
83333.3316852429
83333.3316776425
83333.3316718561
83333.3316699556
83333.3316725307
83333.3316797193
83333.3316915029
83333.3317428328
83333.3317350895
83333.3317289293
83333.3317263645
83333.3317280406
83333.3317341566
83333.3317447112
83333.3317595893
83333.331797936
83333.3317903071
83333.3317840563
83333.3317810941
83333.3317820606
83333.3317871551
83333.3317964397
83333.3318098512
83333.3318271564
83333.3318506324
83333.3318433058
83333.33183718
83333.3318340537
83333.3318345351
83333.3318387755
83333.3318468604
83333.3318588107
83333.3318744982
83333.3318935922
83333.3319010471
83333.3318941542
83333.3318883165
83333.3318852125
83333.3318854085
83333.3318890021
83333.3318960556
83333.3319066349
83333.3319207161
83333.3319381143
83333.3319584431
83333.331949321
83333.3319429542
83333.3319375217
83333.33193459
83333.3319346637
83333.3319377963
83333.3319440241
83333.3319534049
83333.3319659778
83333.3319816794
83333.3320002841
83333.332021385
83333.3319955831
83333.3319898203
83333.3319848772
83333.3319822346
83333.3319823189
83333.3319851456
83333.3319907302
83333.3319991177
83333.3320103551
83333.3320244549
83333.3320413221
83333.3320607052
83333.3320821997
83333.3320399348
83333.332034868
83333.3320304859
83333.3320282197
83333.3320284206
83333.3320310651
83333.3320361554
83333.3320437309
83333.3320538354
83333.3320665019
83333.3320817184
83333.3320993634
83333.3321191724
83333.3321407559
83333.33208246
83333.3320781858
83333.3320744454
83333.3320726314
83333.3320730273
83333.3320755866
83333.3320803029
83333.3320872139
83333.332096366
83333.3321077972
83333.3321215235
83333.3321375082
83333.3321556098
83333.3321755611
83333.332196994
83333.3321231631
83333.3321198265
83333.3321168262
83333.3321155433
83333.3321161988
83333.3321187482
83333.3321231854
83333.3321295527
83333.3321379013
83333.3321482763
83333.3321607041
83333.3321751798
83333.3321916441
83333.3322099421
83333.3322298121
83333.3322509105
83333.3321620116
83333.3321597585
83333.3321576586
83333.3321569997
83333.3321579772
83333.3321605783
83333.3321648135
83333.3321707373
83333.3321784074
83333.3321878773
83333.3321991835
83333.3322123347
83333.332227304
83333.3322440131
83333.3322623007
83333.3322819161
83333.3323025424
83333.3321989526
83333.3321978583
83333.3321968769
83333.3321969795
83333.3321983633
83333.3322010804
83333.3322051832
83333.3322107496
83333.3322178497
83333.3322265449
83333.3322368818
83333.3322488816
83333.3322625328
83333.3322777885
83333.3322945559
83333.3323126712
83333.3323318992
83333.3323519522
83333.3322340825
83333.3322339929
83333.3322342822
83333.3322353335
83333.3322372672
83333.3322401916
83333.3322442412
83333.3322495357
83333.3322561659
83333.3322642038
83333.3322737062
83333.3322847063
83333.3322972072
83333.3323111791
83333.3323265586
83333.3323432413
83333.3323610637
83333.3323798073
83333.3323992172