/*--------------------------------*- C++ -*----------------------------------*\
  =========                 |
  \\      /  F ield         | OpenFOAM: The Open Source CFD Toolbox
   \\    /   O peration     | Website:  https://openfoam.org
    \\  /    A nd           | Version:  12
     \\/     M anipulation  |
\*---------------------------------------------------------------------------*/
/*   Windows 32 and 64 bit porting by blueCAPE: http://www.bluecape.com.pt   *\
|  Based on Windows porting (2.0.x v4) by Symscape: http://www.symscape.com   |
\*---------------------------------------------------------------------------*/
FoamFile
{
    format      ascii;
    class       surfaceScalarField;
    location    "400";
    object      phi;
}
// * * * * * * * * * * * * * * * * * * * * * * * * * * * * * * * * * * * * * //

dimensions      [0 3 -1 0 0 0 0];

internalField   nonuniform List<scalar> 
29323
(
1.16919964590832e-05
-1.50389242460097e-07
-1.23082056720515e-07
1.19820580519575e-05
-1.53872462575251e-07
-1.36185974298457e-07
1.29350418165078e-05
-2.77390857801307e-07
-1.3395535552569e-07
3.3307198838772e-06
-2.58966968374805e-08
-1.9501753264955e-07
1.22845979461621e-05
-1.5210260273668e-07
-1.50425530947097e-07
1.32238106510981e-05
-2.91734501383163e-07
-1.50894489136991e-07
3.43353288073885e-06
-2.64264945652831e-08
-2.12567096157909e-07
1.40608400206538e-05
-3.96353220993278e-07
-1.47677913331517e-07
4.24552807417324e-06
-4.81200826331356e-08
-2.27621341669812e-07
2.27444634606392e-06
-7.92664174221167e-09
-2.56941228537751e-07
1.26071881922726e-05
-1.61605901319232e-07
-1.60982850674896e-07
1.35408265642961e-05
-3.02931075242731e-07
-1.66176393622042e-07
3.53839144019698e-06
-2.5866289778545e-08
-2.2941839542415e-07
1.43625144901882e-05
-4.24100330425626e-07
-1.69308508036634e-07
4.36878831589742e-06
-5.13029708753422e-08
-2.49268877295927e-07
2.34540791882613e-06
-9.32359342241644e-09
-2.7420419098414e-07
1.54439444445584e-05
-5.18816378340296e-07
-1.63687999439493e-07
4.81340003810022e-06
-6.25271700358579e-08
-2.6038383577351e-07
2.80770855862027e-06
-1.30052926806576e-08
-3.04804369870468e-07
2.04902365934233e-06
-2.9016914264558e-09
-3.16376505282646e-07
1.29549162762769e-05
-1.76752648578494e-07
-1.70969921519832e-07
1.38813810225236e-05
-3.26097914008899e-07
-1.76059532710432e-07
3.65014673671166e-06
-2.83204660282132e-08
-2.44415057025056e-07
1.46959826728407e-05
-4.50414878168174e-07
-1.8597580283638e-07
4.49824685950802e-06
-5.43460575748422e-08
-2.67149530353484e-07
2.41835144825552e-06
-1.01164715061711e-08
-2.92244237694831e-07
1.57681180032018e-05
-5.58373037017013e-07
-1.8989649504465e-07
4.94862850542771e-06
-6.92311601688096e-08
-2.86605443981011e-07
2.89029797974163e-06
-1.62167470543874e-08
-3.24963886578024e-07
2.11327151089899e-06
-4.72647882515994e-09
-3.33725291142842e-07
1.64987564571961e-05
-6.42599906171476e-07
-1.75709638679434e-07
5.45716145957383e-06
-7.63222628642013e-08
-2.92122322200533e-07
3.23955064936848e-06
-1.19767800683522e-08
-3.5424356425569e-07
2.47174403788305e-06
-5.2503720883505e-09
-3.75415566963566e-07
1.96293093041021e-06
-2.16002613212664e-09
-3.72141071090594e-07
1.33319254610532e-05
-1.95691303453211e-07
-1.81314647954947e-07
1.42469211658195e-05
-3.56309587161498e-07
-1.85981894741248e-07
3.77161868988937e-06
-3.30899962625876e-08
-2.59348613802673e-07
1.50544988374438e-05
-4.88831487650366e-07
-1.9576824541714e-07
4.63834202786146e-06
-6.1455172983325e-08
-2.83014043301464e-07
2.496002195718e-06
-1.21473721725562e-08
-3.09917991093908e-07
1.6125827307328e-05
-5.99317073360764e-07
-2.08797447643395e-07
5.09212151671651e-06
-7.72145262602299e-08
-3.0659462210448e-07
2.9773580323426e-06
-1.90985415258061e-08
-3.45224822858981e-07
2.17982058785107e-06
-5.97056905288823e-09
-3.52822281219444e-07
1.68380803463351e-05
-6.92178700334313e-07
-2.05504377492408e-07
5.6073266240548e-06
-8.64541442520807e-08
-3.22831298065262e-07
3.33141911513915e-06
-1.69079583705957e-08
-3.77781554398853e-07
2.54629785436447e-06
-8.86851641313844e-09
-3.95374845876011e-07
2.02351712252533e-06
-3.82678015752319e-09
-3.90484617644896e-07
1.70525253273572e-05
-7.62611820692468e-07
-1.81876450507237e-07
5.9325519450816e-06
-9.40045262532147e-08
-3.11551138801274e-07
3.65655916928315e-06
-8.61087498439333e-09
-3.99157121542376e-07
2.85963700172041e-06
-4.55319376940886e-09
-4.38112358663542e-07
2.31345489273764e-06
-4.05748195785852e-09
-4.40527672202262e-07
1.91097650127838e-06
-2.46509988189951e-09
-4.2408078537937e-07
1.37422966762634e-05
-2.17790209064309e-07
-1.92580241585172e-07
1.4640788053065e-05
-3.93000283840157e-07
-1.96557717632603e-07
3.90440244646233e-06
-3.93444075827147e-08
-2.74751450726499e-07
1.54393783045974e-05
-5.35234991014991e-07
-2.05936131265696e-07
4.79090952944183e-06
-7.22243799848677e-08
-2.9941296258443e-07
2.57989954434192e-06
-1.54067337533546e-08
-3.27838915592799e-07
1.65094332623895e-05
-6.53637497379e-07
-2.18783720877991e-07
5.2488305652474e-06
-8.99001551685837e-08
-3.24031908723045e-07
3.07140386551363e-06
-2.40027745481853e-08
-3.65203537153033e-07
2.25036271740736e-06
-7.90416988279335e-09
-3.7255583403055e-07
1.72119473558762e-05
-7.46466098420269e-07
-2.26716750313639e-07
5.7664304954496e-06
-9.97817376514912e-08
-3.45332499120203e-07
3.42938431194653e-06
-2.26656800227802e-08
-4.0099092974492e-07
2.62446634078082e-06
-1.20956772385294e-08
-4.17266944637892e-07
2.0868325305784e-06
-5.30590295970071e-09
-4.1083138356539e-07
1.73953146088839e-05
-8.20813833251133e-07
-2.14151516790224e-07
6.09359198883583e-06
-1.07410876188943e-07
-3.45582165204407e-07
3.75806647515144e-06
-1.52289475577591e-08
-4.26016448994682e-07
2.94370721750755e-06
-9.81647887186142e-09
-4.60902291337703e-07
2.38322886077679e-06
-7.61369523062672e-09
-4.61361515216913e-07
1.96836966026368e-06
-4.13819269105068e-09
-4.43739515689955e-07
1.72156941916122e-05
-8.74478732704622e-07
-1.83937622416594e-07
6.22644511061626e-06
-1.16648785626306e-07
-3.19435468072326e-07
3.90511651181208e-06
-6.33573547823486e-09
-4.24034623304268e-07
3.2030619543539e-06
-3.06743872625204e-09
-4.93131352925214e-07
2.65844818024405e-06
-5.48750271599075e-09
-5.1282174206169e-07
2.21806889400663e-06
-5.74957673944133e-09
-4.99580857811131e-07
1.87081621735453e-06
-3.09585202175368e-09
-4.72223796602278e-07
1.41902705671335e-05
-2.42993878622981e-07
-2.04983705324091e-07
1.50671530287799e-05
-4.36074582169924e-07
-2.08071412784573e-07
4.04973761063014e-06
-4.68919779620059e-08
-2.91022293850073e-07
1.58529284255228e-05
-5.89814266098017e-07
-2.16737112758256e-07
4.95742657583534e-06
-8.59226877223297e-08
-3.16495725748996e-07
2.6711164973852e-06
-1.96665613758336e-08
-3.46301782771491e-07
1.69209023324787e-05
-7.17135594099097e-07
-2.29570448025568e-07
5.42000572413321e-06
-1.06967893675929e-07
-3.42365604752959e-07
3.17330070809541e-06
-3.10851208801303e-08
-3.85629897536659e-07
2.32616138271024e-06
-1.07398187164271e-08
-3.92897313320092e-07
1.76116581328089e-05
-8.1591993348597e-07
-2.37417368749951e-07
5.94068582164872e-06
-1.18450140266064e-07
-3.64485817539491e-07
3.53629396062197e-06
-3.10630741472905e-08
-4.23878778396586e-07
2.70797106252035e-06
-1.65515414087487e-08
-4.40059378872745e-07
2.15389488706544e-06
-7.21481280189307e-09
-4.32403438896487e-07
1.777294011369e-05
-8.86635676316021e-07
-2.37442622727471e-07
6.26320175786531e-06
-1.25953407045438e-07
-3.70146527984493e-07
3.86624555662239e-06
-2.40128676595607e-08
-4.52161506982487e-07
3.03234066827721e-06
-1.56079529906205e-08
-4.86110802478513e-07
2.45643040434251e-06
-1.09863522724595e-08
-4.84787727344883e-07
2.02870209227318e-06
-5.66582208103533e-09
-4.65497536566716e-07
1.75525245417068e-05
-9.39516326117171e-07
-2.18117063184174e-07
6.39365276774259e-06
-1.33150407645591e-07
-3.55615947996461e-07
4.01208715027359e-06
-1.46223082628065e-08
-4.53159288975466e-07
3.29581255072239e-06
-9.95827353068742e-09
-5.18624806589143e-07
2.73716009288925e-06
-1.0782227760033e-08
-5.36444627528713e-07
2.28363379234235e-06
-9.23018968681499e-09
-5.21834029490728e-07
1.92509417626536e-06
-4.66611389482492e-09
-4.93351198114478e-07
1.71699082244192e-05
-9.74432441356329e-07
-1.85152548043682e-07
6.41249401617756e-06
-1.43544079657487e-07
-3.21185055150135e-07
4.01167082447323e-06
-6.7480936614561e-09
-4.32066450732295e-07
3.38596905499117e-06
-2.45149246987245e-09
-5.22151282090695e-07
2.95441327543656e-06
-7.62842402727298e-09
-5.75185422381287e-07
2.53589706987065e-06
-9.69934499730527e-09
-5.79518077334484e-07
2.15667012726266e-06
-8.45226240793879e-09
-5.52720379633725e-07
1.84015512504922e-06
-4.35820315086842e-09
-5.16244554476177e-07
1.46806195428987e-05
-2.71717994039741e-07
-2.18629666572868e-07
1.55309649113473e-05
-4.85789595041399e-07
-2.21009216640593e-07
4.20878340300981e-06
-5.56919440440207e-08
-3.08338885031478e-07
1.62991907847654e-05
-6.53507117123123e-07
-2.28825703456268e-07
5.13934161104428e-06
-1.02339833369579e-07
-3.34536199633755e-07
2.77046068164741e-06
-2.48321428597457e-08
-3.65534679797025e-07
1.73630667570531e-05
-7.90328309403548e-07
-2.41647674882163e-07
5.60689180070428e-06
-1.27992431271199e-07
-3.61555944701595e-07
3.28402175660004e-06
-4.01462859558133e-08
-4.06736321892289e-07
2.40814441764034e-06
-1.4380215943079e-08
-4.13904709718818e-07
1.8039614488399e-05
-8.9614048734914e-07
-2.48942705666936e-07
6.13117376068191e-06
-1.42230205270329e-07
-3.84793063752145e-07
3.65251152171439e-06
-4.22965268774474e-08
-4.47371466451366e-07
2.79785328228096e-06
-2.26201860313602e-08
-4.63631265918732e-07
2.22567130463662e-06
-9.7325371078374e-09
-4.54940934673413e-07
1.81754377527527e-05
-9.69438017920312e-07
-2.48966468369654e-07
6.44873853370819e-06
-1.50719678524431e-07
-3.90683662915027e-07
3.98467859504219e-06
-3.61431896027608e-08
-4.77837286056156e-07
3.12757090698163e-06
-2.31531568209722e-08
-5.12506198658529e-07
2.53420938890961e-06
-1.52282237795077e-08
-5.09824103739301e-07
2.09263452271116e-06
-7.54349159179921e-09
-4.88792241426009e-07
1.7923897047344e-05
-1.01451325218808e-06
-2.43471136347177e-07
6.56841716348099e-06
-1.56519214839991e-07
-3.81632766369946e-07
4.12556300849466e-06
-2.63063088110919e-08
-4.81327666762571e-07
3.39336547554958e-06
-1.84227104879067e-08
-5.46898543316769e-07
2.82000219722426e-06
-1.65675355228234e-08
-5.63370860771347e-07
2.35268475685134e-06
-1.26232865245927e-08
-5.46880930741756e-07
1.9823747118671e-06
-6.17195908444726e-09
-5.1660595260173e-07
1.74953745406628e-05
-1.04393851546675e-06
-2.21039340640939e-07
6.58296452727997e-06
-1.62831657593165e-07
-3.58901151322217e-07
4.12046960367996e-06
-1.65784828984116e-08
-4.6245638469342e-07
3.48310441644757e-06
-1.09691646375161e-08
-5.49282605984288e-07
3.04097881020931e-06
-1.46459302905232e-08
-6.01325473332913e-07
2.60980816911507e-06
-1.49415637025947e-08
-6.04644277295639e-07
2.21850503232602e-06
-1.18362995364796e-08
-5.76498499822109e-07
1.89152813178239e-06
-5.99325031227206e-09
-5.38730814889783e-07
1.70388087682022e-05
-1.05964153625963e-06
-1.8698441189193e-07
6.56084189859719e-06
-1.74933072262004e-07
-3.20905160691387e-07
4.0529647980256e-06
-1.00673593471082e-08
-4.32156968435207e-07
3.44596133859536e-06
-3.47602265359638e-09
-5.30267517084946e-07
3.10609973817721e-06
-1.0686643050405e-08
-6.07475743154728e-07
2.80648504783856e-06
-1.49733350843575e-08
-6.47823772837897e-07
2.46460699432341e-06
-1.48283070227788e-08
-6.39519603106326e-07
2.11594629492017e-06
-1.1393640606399e-08
-6.00841572868941e-07
1.81954882387327e-06
-5.83121837158521e-09
-5.56161177243203e-07
1.52189030769753e-05
-3.04412590680762e-07
-2.33873882183396e-07
1.60375906384652e-05
-5.42922569701573e-07
-2.35431143396407e-07
4.38275236108161e-06
-6.58792271553244e-08
-3.26718537541212e-07
1.67832264995948e-05
-7.27332864941964e-07
-2.42487026438868e-07
5.33809623750509e-06
-1.21675074550059e-07
-3.53778681646363e-07
2.87862586415121e-06
-3.08820961698917e-08
-3.85621663126496e-07
1.78398111318636e-05
-8.75067658814983e-07
-2.5517876119534e-07
5.81081124146253e-06
-1.53191793173782e-07
-3.81896386732058e-07
3.40447445906395e-06
-5.11107998181345e-08
-4.28708228773645e-07
2.49704217655132e-06
-1.87919439880479e-08
-4.35640806692834e-07
1.84990945878238e-05
-9.880842253224e-07
-2.6171489598474e-07
6.33890829197844e-06
-1.71163905425172e-07
-4.06207591205465e-07
3.77883583973649e-06
-5.63470335176857e-08
-4.71677361767034e-07
2.89503947653132e-06
-3.02659632325645e-08
-4.88036231794423e-07
2.30299804668422e-06
-1.2874332220661e-08
-4.7835700025218e-07
1.86052686006692e-05
-1.06458641407831e-06
-2.61377209311832e-07
6.65136851769921e-06
-1.81324612082309e-07
-4.12473464640182e-07
4.11354648796494e-06
-5.17218456679739e-08
-5.04233921457905e-07
3.23027842778123e-06
-3.28614335178113e-08
-5.3983627013173e-07
2.61756276643075e-06
-2.07057820769894e-08
-5.36010626143269e-07
2.1609467956455e-06
-9.93960952878588e-09
-5.13313596922048e-07
1.83185793088719e-05
-1.10829075863773e-06
-2.5580332057975e-07
6.75898177021917e-06
-1.87123730109207e-07
-4.03116840294146e-07
4.24970586791907e-06
-4.21100266344119e-08
-5.08858703008053e-07
3.49825533102268e-06
-2.93012465988724e-08
-5.76577300237891e-07
2.90832505979757e-06
-2.36907370964375e-08
-5.92366222135452e-07
2.42598981821788e-06
-1.67479457778431e-08
-5.73923929745708e-07
2.04313834867991e-06
-7.99192299200256e-09
-5.41563866162302e-07
1.78549305880167e-05
-1.12547739672053e-06
-2.48578691504141e-07
6.75952236018147e-06
-1.90470823389493e-07
-3.86073019384216e-07
4.23519644656264e-06
-3.08752979120621e-08
-4.91786321141144e-07
3.58478594136747e-06
-2.19962318362095e-08
-5.79433250325002e-07
3.13184487406821e-06
-2.29877779445228e-08
-6.31342716115436e-07
2.68782452892388e-06
-2.06896385527203e-08
-6.33320466916146e-07
2.28385372836978e-06
-1.52327578282127e-08
-6.03168301592584e-07
1.94582969376454e-06
-7.48536348038194e-09
-5.63422056093376e-07
1.73498965810166e-05
-1.13018088811791e-06
-2.24825486196647e-07
6.73348169025409e-06
-1.96509678835502e-07
-3.59994288978354e-07
4.16199413304603e-06
-2.11892658161849e-08
-4.63316344317717e-07
3.54414610168008e-06
-1.35111219809424e-08
-5.58097456796937e-07
3.19656025205957e-06
-1.94080462793222e-08
-6.34980573028014e-07
2.88766729769809e-06
-2.20001009610641e-08
-6.75448275027021e-07
2.53446688237989e-06
-2.00154188472532e-08
-6.66324850905137e-07
2.17439590293803e-06
-1.47510159796449e-08
-6.26190523871862e-07
1.86818265935354e-06
-7.3932418676776e-09
-5.7997143507599e-07
1.687446380181e-05
-1.12793675497547e-06
-1.89491232822009e-07
6.71469375378636e-06
-2.12290156415999e-07
-3.19994589920306e-07
4.07898734851557e-06
-1.66036376861064e-08
-4.29712923984486e-07
3.45498649926833e-06
-6.41420752028875e-09
-5.28922718789448e-07
3.15050917002153e-06
-1.47290775568002e-08
-6.1593429081605e-07
2.9457160053391e-06
-2.10992622369962e-08
-6.8306911634083e-07
2.72648393058112e-06
-2.25972111922035e-08
-7.13299772071509e-07
2.42246276578725e-06
-1.97002507285434e-08
-6.9400121495894e-07
2.08915467555429e-06
-1.40840250353063e-08
-6.44741332608879e-07
1.80747283388522e-06
-6.9914468118049e-09
-5.92451191048548e-07
1.58114024180356e-05
-3.41647232145698e-07
-2.50854372136973e-07
1.65930118235501e-05
-6.08353641937152e-07
-2.51478307911698e-07
4.57274328984901e-06
-7.76924731656049e-08
-3.46169885864641e-07
1.7310888457645e-05
-8.12752044941336e-07
-2.57824594387784e-07
5.55533784369782e-06
-1.44314448707748e-07
-3.7423807132164e-07
2.99634554869947e-06
-3.79116780992774e-08
-4.06526445404081e-07
1.83563972611462e-05
-9.73661497186551e-07
-2.70251308533979e-07
6.0333011608512e-06
-1.83051551217536e-07
-4.03598589226402e-07
3.53551967074755e-06
-6.40753480560216e-08
-4.5163017674142e-07
2.59351153170684e-06
-2.40067947464081e-08
-4.58084504601584e-07
1.8994565842244e-05
-1.09398378294692e-06
-2.76546544081483e-07
6.56516044626533e-06
-2.05643082529998e-07
-4.28975132041125e-07
3.91615166869919e-06
-7.33276630243021e-08
-4.96995637845857e-07
3.00036676930872e-06
-3.9511905268218e-08
-5.133143332016e-07
2.38657205413942e-06
-1.66449713077144e-08
-5.02569694607628e-07
1.90656340445432e-05
-1.17341270307773e-06
-2.75023221664213e-07
6.87215394260408e-06
-2.18202698102247e-07
-4.35466018867691e-07
4.25352308934316e-06
-7.09428632924256e-08
-5.31586944470405e-07
3.341337636035e-06
-4.48839418395567e-08
-5.68118404143925e-07
2.70736190582268e-06
-2.74987346049363e-08
-5.63210821213897e-07
2.23435794624983e-06
-1.2887530520168e-08
-5.388804874464e-07
1.87387290119934e-05
-1.21578073514263e-06
-2.68951658533343e-07
6.9665450285903e-06
-2.24389855500096e-07
-4.25868191472049e-07
4.38465508484838e-06
-6.19752201595116e-08
-5.37166576442683e-07
3.61138892819941e-06
-4.29059281943799e-08
-6.07322337698331e-07
3.00307766573067e-06
-3.25650049961269e-08
-6.22728652646681e-07
2.50437560075041e-06
-2.19191620836207e-08
-6.0241654013411e-07
2.10801142993059e-06
-1.02591248681828e-08
-5.67927445398718e-07
1.8235947001467e-05
-1.22752144144113e-06
-2.61784236183642e-07
6.95119102801999e-06
-2.26328052929909e-07
-4.08259793716072e-07
4.36036134233429e-06
-5.00650329570688e-08
-5.20324373321605e-07
3.69386671656095e-06
-3.61342154550871e-08
-6.11103761151513e-07
3.22865935860027e-06
-3.3256818107377e-08
-6.63824638330074e-07
2.77082553719161e-06
-2.75826149655064e-08
-6.64532246101627e-07
2.35326782867878e-06
-1.92835848313274e-08
-6.32046269758632e-07
2.00347237424906e-06
-9.27983842243083e-09
-5.8992662865728e-07
1.76952304180939e-05
-1.21594797698064e-06
-2.54849819028157e-07
6.91041210103038e-06
-2.27651611232793e-07
-3.88317488224718e-07
4.2761237756953e-06
-3.76740240124674e-08
-4.93402570118826e-07
3.64634302841756e-06
-2.68517266783452e-08
-5.89124616930488e-07
3.29109992214332e-06
-3.02173684210932e-08
-6.66741822570112e-07
2.97313577571306e-06
-3.02499201883719e-08
-7.07250803314144e-07
2.60842223754251e-06
-2.57391136271851e-08
-6.96769111230662e-07
2.23633526286934e-06
-1.81460644446479e-08
-6.54446560988723e-07
1.91966178137543e-06
-8.87353270727172e-09
-6.06027611026788e-07
1.71706820195583e-05
-1.1963766123504e-06
-2.30002405773138e-07
6.88937210432053e-06
-2.35473178879933e-07
-3.60533797308615e-07
4.18799866314573e-06
-2.86760343687176e-08
-4.61515509959403e-07
3.5529123560794e-06
-1.77398450608751e-08
-5.57010675004021e-07
3.24189352679574e-06
-2.50405883895379e-08
-6.43847464770319e-07
3.03057958225443e-06
-2.98880812823423e-08
-7.11954878721446e-07
2.80332068935307e-06
-2.96162473030204e-08
-7.42683832686285e-07
2.48874746042877e-06
-2.48445064505043e-08
-7.22515813995086e-07
2.14449971431026e-06
-1.73719744045119e-08
-6.71556132475502e-07
1.85351622606118e-06
-8.5133278118023e-09
-6.17501357046996e-07
1.66828292895477e-05
-1.17659365524718e-06
-1.91930164840692e-07
6.90180451024075e-06
-2.58111013026375e-07
-3.18469219876754e-07
4.10888231906214e-06
-2.71009206505617e-08
-4.26280767985807e-07
3.45395562757505e-06
-1.16709142194529e-08
-5.24566500703033e-07
3.15163720392845e-06
-2.00371126766188e-08
-6.13591001009604e-07
2.98632475369082e-06
-2.78530051167025e-08
-6.92119261721969e-07
2.86356584185089e-06
-3.11501139555843e-08
-7.51426193953445e-07
2.6826319426873e-06
-2.93828302870927e-08
-7.73024580932172e-07
2.39651671330006e-06
-2.3788605217452e-08
-7.43825287133285e-07
2.072112690586e-06
-1.62006491706828e-08
-6.84852423327394e-07
1.80098697292503e-06
-7.83505393636109e-09
-6.25493211509336e-07
1.64643793463164e-05
-3.84708983764434e-07
-2.6826442300111e-07
1.72041776115021e-05
-6.83600352227575e-07
-2.69213445634742e-07
4.77988138553808e-06
-9.14220002257232e-08
-3.66570273316964e-07
1.78883940988586e-05
-9.1184965121643e-07
-2.74010311945881e-07
5.79294996778572e-06
-1.70966319256974e-07
-3.95813840413159e-07
3.12437349204622e-06
-4.60951630506738e-08
-4.28102830444841e-07
1.89190257881806e-05
-1.08831626771425e-06
-2.87062878495448e-07
6.27603833663052e-06
-2.18194846037341e-07
-4.26680026547882e-07
3.67807387821537e-06
-7.92791543674859e-08
-4.75424889355734e-07
2.69822120316602e-06
-3.00807204582514e-08
-4.81155152631854e-07
1.95309800941011e-05
-1.21644266574732e-06
-2.9362514527443e-07
6.81155705773035e-06
-2.46429187548866e-07
-4.53271618012339e-07
4.0653919805342e-06
-9.35056382625171e-08
-5.23407162530292e-07
3.11461618214485e-06
-5.04827320990535e-08
-5.39402919942287e-07
2.47698419129427e-06
-2.10670589514271e-08
-5.27429337545165e-07
1.9560826631625e-05
-1.29854592396955e-06
-2.90627874390481e-07
7.11217397732827e-06
-2.6218220335068e-07
-4.60030631903182e-07
4.4054602116102e-06
-9.41129749067701e-08
-5.6012779816282e-07
3.46160434360408e-06
-5.93818131796815e-08
-5.97392693496249e-07
2.80439714919905e-06
-3.567022786291e-08
-5.91323979644335e-07
2.3135213758091e-06
-1.63978372331116e-08
-5.65335249337539e-07
1.91872462906e-05
-1.33858461506856e-06
-2.83330841977788e-07
7.19212986933465e-06
-2.68983943212431e-07
-4.49827162963899e-07
4.53104120038602e-06
-8.62698121601092e-08
-5.66524645033061e-07
3.73360866025135e-06
-5.95378146556529e-08
-6.39152009968514e-07
3.10512766981347e-06
-4.34041378752065e-08
-6.54262053930172e-07
2.58861894236101e-06
-2.82336166702631e-08
-6.32107511216071e-07
2.17759858497267e-06
-1.3000175790714e-08
-5.95467463539122e-07
1.86401906622971e-05
-1.34416220261241e-06
-2.75850025175412e-07
7.15918329387367e-06
-2.69649634028885e-07
-4.31677638825482e-07
4.49607342022393e-06
-7.39251537022664e-08
-5.49626457243865e-07
3.8113018649217e-06
-5.35848930429114e-08
-6.43921414144366e-07
3.33245189516502e-06
-4.5804869759298e-08
-6.97874236810948e-07
2.85961703348315e-06
-3.59842505139653e-08
-6.97454897564005e-07
2.42742213785488e-06
-2.42617194337636e-08
-6.62568192578463e-07
2.0649984465829e-06
-1.15186767068406e-08
-6.17934748684251e-07
1.80602460454393e-05
-1.32338214719378e-06
-2.6914118746761e-07
7.10146466068137e-06
-2.67953522265233e-07
-4.11201862913897e-07
4.40012596002931e-06
-5.97716456989305e-08
-5.2255206845192e-07
3.75556284867638e-06
-4.39643776196135e-08
-6.21711367995512e-07
3.39153098469514e-06
-4.35773766283356e-08
-7.01213296854522e-07
3.06396336522815e-06
-4.01729439818291e-08
-7.42061189414379e-07
2.68710114209318e-06
-3.25008128658105e-08
-7.29993723483189e-07
2.30218988970192e-06
-2.21469820334259e-08
-6.85033341036377e-07
1.97434269822337e-06
-1.06396456399654e-08
-6.33967711954346e-07
1.75011162655127e-05
-1.28258728713239e-06
-2.63782327588955e-07
7.06633862392975e-06
-2.69197378156858e-07
-3.90263949957997e-07
4.30109427324768e-06
-4.67689435570033e-08
-4.9231520497321e-07
3.65415730340003e-06
-3.30299522126449e-08
-5.88466346346441e-07
3.33691475802068e-06
-3.8093616225309e-08
-6.76268086218813e-07
3.11957241837826e-06
-4.05598820579852e-08
-7.45423726960553e-07
2.88446938405039e-06
-3.78070402062477e-08
-7.76331258988981e-07
2.5590714791646e-06
-3.05320718073555e-08
-7.54706921574117e-07
2.20323400566405e-06
-2.07383934628521e-08
-7.01315909683239e-07
1.9022986777807e-06
-9.97915612756109e-09
-6.44830942022997e-07
1.69644517151633e-05
-1.24011765512906e-06
-2.37868513194895e-07
7.0785558675185e-06
-2.8208708540655e-07
-3.60134598017473e-07
4.21823295671463e-06
-3.98274927598629e-08
-4.58730185091999e-07
3.55147546028081e-06
-2.39805840142079e-08
-5.52792364992609e-07
3.24280060669973e-06
-3.17361912324276e-08
-6.41476535718371e-07
3.07214683414659e-06
-3.8290061466889e-08
-7.21267100586204e-07
2.9440295479929e-06
-3.99748594962839e-08
-7.82059457024053e-07
2.75570065071988e-06
-3.63715916381171e-08
-8.04225750047329e-07
2.45947207911837e-06
-2.88608118469864e-08
-7.73982137935991e-07
2.12449791363913e-06
-1.94145093750867e-08
-7.13040197306563e-07
1.8444932842077e-06
-9.31937852966251e-09
-6.51688146921563e-07
1.64435024266129e-05
-1.20379110181685e-06
-1.94481171412012e-07
7.14483967271595e-06
-3.1495297644333e-07
-3.16283797936066e-07
4.1505280907773e-06
-4.30979851717108e-08
-4.2215554612411e-07
3.45551926860714e-06
-1.99507006438072e-08
-5.18865560750959e-07
3.14442609698519e-06
-2.70957621955221e-08
-6.07696801136547e-07
2.986343669845e-06
-3.55178922600868e-08
-6.89098830997675e-07
2.90499585633616e-06
-4.0193398544186e-08
-7.61202568342985e-07
2.8205806218494e-06
-3.98380186688622e-08
-8.1395555175303e-07
2.65666704240848e-06
-3.48996117789181e-08
-8.27817315263925e-07
2.38019719615757e-06
-2.69145377605563e-08
-7.89511742928824e-07
2.0611829040361e-06
-1.77010146414768e-08
-7.21525186570651e-07
1.79718854010451e-06
-8.36611400659039e-09
-6.5556827736887e-07
1.71843384172477e-05
-4.33186550603822e-07
-2.8676700873553e-07
1.78776743846574e-05
-7.71246617905186e-07
-2.86955464760964e-07
5.006581191087e-06
-1.07457005496341e-07
-3.87504535855863e-07
1.85228932161187e-05
-1.0265611983821e-06
-2.91538016988257e-07
6.05280378143896e-06
-2.02175720710772e-07
-4.18312949139782e-07
3.26345646851351e-06
-5.55959706477407e-08
-4.50056817591948e-07
1.95350211100869e-05
-1.22146393504836e-06
-3.06380472867703e-07
6.54123076445202e-06
-2.59199542735268e-07
-4.50968036901048e-07
3.83311150263102e-06
-9.70580557892438e-08
-4.99888176852305e-07
2.8118388718547e-06
-3.71425456907828e-08
-5.04577297977968e-07
2.01139678272242e-05
-1.35867276322516e-06
-3.12635585799097e-07
7.080032021289e-06
-2.94584195624767e-07
-4.79141676730042e-07
4.22755353932419e-06
-1.17284569182479e-07
-5.50835867346955e-07
3.23856582148716e-06
-6.33861195446723e-08
-5.66069686515832e-07
2.57495950894651e-06
-2.64719891345237e-08
-5.5265840957264e-07
2.00962836346645e-05
-1.44294972634028e-06
-3.08937681506682e-07
7.37278010506874e-06
-3.14227682331071e-07
-4.86434339797565e-07
4.57031894012851e-06
-1.21681378324876e-07
-5.89954151351676e-07
3.59193005893246e-06
-7.6612946987917e-08
-6.27602007229683e-07
2.90946300718167e-06
-4.53580181678607e-08
-6.20178139963599e-07
2.39906286066938e-06
-2.05163925399042e-08
-5.92454217835252e-07
1.96682764195047e-05
-1.47946550580148e-06
-3.00113778886137e-07
7.43675807917042e-06
-3.21985079991684e-07
-4.75452107962785e-07
4.68964128852729e-06
-1.15517955293991e-07
-5.97224456214244e-07
3.86576588385785e-06
-7.95312876645573e-08
-6.72135741909908e-07
3.21530619026256e-06
-5.6396939050312e-08
-6.86844995473681e-07
2.67945352291705e-06
-3.57796689231822e-08
-6.62777059127892e-07
2.25252583973647e-06
-1.63369632031323e-08
-6.23925418809936e-07
1.90701672111519e-05
-1.47720693070793e-06
-2.91346966858046e-07
7.38449250398211e-06
-3.21298248462667e-07
-4.56321228460389e-07
4.64293120353634e-06
-1.02942446547957e-07
-5.80010355666635e-07
3.93792364410299e-06
-7.47650214812791e-08
-6.77919785018503e-07
3.44411237952909e-06
-6.09614596518368e-08
-7.33254750045264e-07
2.95499405484679e-06
-4.61127923479644e-08
-7.31760360322723e-07
2.507017397071e-06
-3.02660351040201e-08
-6.94437055387379e-07
2.13096137442577e-06
-1.42241254282425e-08
-6.4720629795613e-07
1.84462748466858e-05
-1.44537784495825e-06
-2.84813049092956e-07
7.30780438307296e-06
-3.16483093443329e-07
-4.35349262540945e-07
4.53407669707923e-06
-8.71182681039834e-08
-5.52434978284623e-07
3.87277405412068e-06
-6.49611837915863e-08
-6.55460696473187e-07
3.49895003347062e-06
-5.97671365784919e-08
-7.37376362503651e-07
3.16103315318554e-06
-5.20954812329535e-08
-7.78832328960882e-07
2.77116869570233e-06
-4.061738274445e-08
-7.651666508529e-07
2.37251734635493e-06
-2.70018713979977e-08
-7.17412392606723e-07
2.03270493789983e-06
-1.28059339887792e-08
-6.63491070860627e-07
1.78497037393757e-05
-1.39218089529735e-06
-2.79785550633034e-07
7.25626347278592e-06
-3.12963176382967e-07
-4.14046828182526e-07
4.42332827191216e-06
-7.11550304611062e-08
-5.22048052857657e-07
3.76182915442904e-06
-5.26904385121067e-08
-6.21494755092923e-07
3.43743400936712e-06
-5.42810971311216e-08
-7.11525661146625e-07
3.21385697117301e-06
-5.34685207638719e-08
-7.82201132626969e-07
2.9706935824321e-06
-4.75234498426312e-08
-8.13262239620182e-07
2.63393243586815e-06
-3.7184660057863e-08
-7.89816967492992e-07
2.26572277870099e-06
-2.46740262409505e-08
-7.3348760952732e-07
1.95414139249523e-06
-1.17135372359279e-08
-6.74096784052116e-07
1.72822549792941e-05
-1.32213589742586e-06
-2.78248395157442e-07
7.2552631264836e-06
-3.17092064267807e-07
-3.92583164501491e-07
4.3303783177597e-06
-5.87720934809302e-08
-4.90401622381597e-07
3.65149846906879e-06
-4.07675455286913e-08
-5.84598503898607e-07
3.33703944598087e-06
-4.67193965743845e-08
-6.74077567935309e-07
3.16174567471516e-06
-5.11759921486069e-08
-7.55248780311856e-07
3.02871107158817e-06
-5.05611032274226e-08
-8.17350578835188e-07
2.83304716067255e-06
-4.4486462168824e-08
-8.39723031094375e-07
2.52635553157025e-06
-3.44758837858106e-08
-8.07852613410685e-07
2.18014178505134e-06
-2.27291164103568e-08
-7.44209645275196e-07
1.89061648912765e-06
-1.07614205556977e-08
-6.8019264634646e-07
1.67119738235757e-05
-1.25984535416421e-06
-2.4874341216062e-07
7.32348431798869e-06
-3.38802674768095e-07
-3.59792477688244e-07
4.26124262965171e-06
-5.55056570569291e-08
-4.55167861774054e-07
3.55289484516513e-06
-3.28795046663951e-08
-5.47204566739036e-07
3.23523876318519e-06
-3.9917584771869e-08
-6.35421571402898e-07
3.07204825945179e-06
-4.741690648364e-08
-7.18053093287373e-07
2.98649228634624e-06
-5.07117557665335e-08
-7.92026300536722e-07
2.89723562756845e-06
-4.86531482545155e-08
-8.4643274848313e-07
2.72618828137401e-06
-4.18156889525369e-08
-8.60792162997678e-07
2.43991209798713e-06
-3.18912439178668e-08
-8.21219942828958e-07
2.11064625091153e-06
-2.08335016125556e-08
-7.50989241265512e-07
1.8381228510969e-06
-9.80811302059527e-09
-6.82814398094341e-07
1.61121743817724e-05
-1.20559987994071e-06
-1.99183905311644e-07
7.46208590521544e-06
-3.86113975530659e-07
-3.14139684852936e-07
4.20748391197329e-06
-6.60660678763604e-08
-4.17130672015195e-07
3.46344077086121e-06
-3.2329365496157e-08
-5.11947419773386e-07
3.13910821567878e-06
-3.6531469527811e-08
-6.00115000956844e-07
2.97801923884078e-06
-4.45550082116442e-08
-6.81992576737147e-07
2.90587569306749e-06
-4.99346503861707e-08
-7.57734351105285e-07
2.86363739289224e-06
-5.07355789302835e-08
-8.24512597843283e-07