/*--------------------------------*- C++ -*----------------------------------*\
  =========                 |
  \\      /  F ield         | OpenFOAM: The Open Source CFD Toolbox
   \\    /   O peration     | Website:  https://openfoam.org
    \\  /    A nd           | Version:  12
     \\/     M anipulation  |
\*---------------------------------------------------------------------------*/
/*   Windows 32 and 64 bit porting by blueCAPE: http://www.bluecape.com.pt   *\
|  Based on Windows porting (2.0.x v4) by Symscape: http://www.symscape.com   |
\*---------------------------------------------------------------------------*/
FoamFile
{
    format      ascii;
    class       volVectorField;
    location    "400";
    object      U;
}
// * * * * * * * * * * * * * * * * * * * * * * * * * * * * * * * * * * * * * //

dimensions      [0 1 -1 0 0 0 0];

internalField   nonuniform List<vector> 
10252
(
(3.92724210783456e-06 0.000632733701493492 3.29439877690816e-05)
(7.440641429245e-06 0.000663354808791031 3.84404566575334e-05)
(2.29133963595539e-05 0.000197187214509714 2.70200622083074e-05)
(4.74020485018863e-06 0.000638081021445333 6.82365846830981e-05)
(1.08790379366267e-05 0.000698085166661687 4.63638925278303e-05)
(3.03691918438205e-05 0.00020230031761306 3.29087132533775e-05)
(5.96316718068988e-06 0.000665366012610949 7.7006094102118e-05)
(4.82554953294382e-05 5.20820720653298e-05 2.45741801472787e-05)
(1.89792611237397e-05 0.000391356505624225 6.19398380508492e-05)
(3.19529807210976e-06 0.000812221491503548 0.000104303867604612)
(1.12393999935806e-05 0.000726297845616766 5.16529417206254e-05)
(3.77114601121648e-05 0.000227649218767126 4.25224422966153e-05)
(6.78210657789802e-06 0.000690618004960724 8.61433809762655e-05)
(5.52704753938582e-05 4.84304860073799e-05 3.12154499156883e-05)
(2.2119220704625e-05 0.000406598952811297 7.16826900818445e-05)
(3.49998158631767e-06 0.000839978999600836 0.000113206772257476)
(7.69715645313491e-05 -1.70278548787561e-06 2.34716372690875e-05)
(3.61428396258426e-05 0.000274996345497694 5.83838289461304e-05)
(1.16656022789983e-05 0.000685309943906923 9.82684462098079e-05)
(2.19837479496268e-06 0.000876455403162635 0.000140484173972756)
(1.09151405033258e-05 0.000763030314385471 5.64653229371966e-05)
(3.90843271070536e-05 0.000242372553858784 4.79535659133449e-05)
(6.85868866350241e-06 0.000716260497689214 9.36022410720808e-05)
(6.2315483019732e-05 6.868395208586e-05 4.17713315795559e-05)
(2.42075634514211e-05 0.000423501575729356 8.01426145402623e-05)
(3.60956232352235e-06 0.000867797609861782 0.00012263980687356)
(8.36433270237953e-05 -9.18265022112797e-06 3.07282797108299e-05)
(3.97910228791505e-05 0.000283161158422627 6.88360207772732e-05)
(1.24753732550783e-05 0.000705818293175419 0.000107201941463308)
(2.19474891841397e-06 0.000904684213142665 0.000149490998533726)
(0.000107812310959987 -4.82379957530137e-05 2.35750220158826e-05)
(5.5459634673037e-05 0.000232119474284639 5.64403706299306e-05)
(2.17644162839901e-05 0.000613623164002761 9.47414101179697e-05)
(7.38625273613073e-06 0.000807908062308445 0.000134473236106916)
(1.42763866346517e-06 0.000906990973153351 0.000174894645928186)
(1.05664285558279e-05 0.000806071714438469 6.16916875386537e-05)
(3.94237155163303e-05 0.000266034356286294 5.28903219426672e-05)
(6.62449106653762e-06 0.000745529754201436 0.000100863772250906)
(6.44904036535844e-05 7.7575500501032e-05 4.73443803111865e-05)
(2.46794940677117e-05 0.000442172583955039 8.68843382937671e-05)
(3.44767617481794e-06 0.000897240284098039 0.000131583650382004)
(9.083191158854e-05 9.18154002883288e-06 4.20244741668636e-05)
(4.23761855859961e-05 0.000294934686864961 7.72145206504168e-05)
(1.28276989769614e-05 0.000728383313204381 0.000116224304781111)
(2.09174173890091e-06 0.00093396204678013 0.00015948928730162)
(0.000115145578539294 -5.78829873234836e-05 3.13399858920329e-05)
(5.93207434309033e-05 0.000237158917734064 6.75144249547266e-05)
(2.27624620887397e-05 0.000629207588120826 0.000103775122929157)
(7.33176026220609e-06 0.000831836067850032 0.000143087101184013)
(1.29229229978129e-06 0.00093500080542224 0.000184341396816023)
(0.000140290309421771 -0.000101264416794511 2.34527843032429e-05)
(7.62559342244957e-05 0.000203754238672142 5.477234188559e-05)
(3.33607592892089e-05 0.000579280905018154 9.27933065793991e-05)
(1.36266989501938e-05 0.000764523477814993 0.000130862128825184)
(4.60427529648213e-06 0.000862290076576076 0.000168422333583365)
(7.92501793902583e-07 0.000927962678091782 0.000206813679027764)
(1.02561893422248e-05 0.000855000566858724 6.75865987132377e-05)
(3.95651406393566e-05 0.000294976274881707 5.84350148991213e-05)
(6.27761754351377e-06 0.00077855725837742 0.000108437712234567)
(6.54332654902562e-05 9.63254241466596e-05 5.22374070943519e-05)
(2.44264531395523e-05 0.000464891239883193 9.38700129684132e-05)
(3.1300751830787e-06 0.000929364649069763 0.000140510284725103)
(9.38893228514206e-05 1.5350551246701e-05 4.73848004921015e-05)
(4.31662384543243e-05 0.000309575404485802 8.36802228007822e-05)
(1.25117050788477e-05 0.000753757233246947 0.00012480502221006)
(1.85923545790695e-06 0.000965008750860131 0.000169638854090968)
(0.000122868652803528 -4.03492826089723e-05 4.32615066850318e-05)
(6.21147498340985e-05 0.000246354381836292 7.6191092804882e-05)
(2.31491263361593e-05 0.000648117635639215 0.000112701047209269)
(7.0427715020991e-06 0.000858048198380046 0.000152713189640706)
(1.10865537648902e-06 0.000964530344951965 0.000194920682098711)
(0.000148934897050548 -0.000112425849537705 3.15897947248776e-05)
(8.05660628027742e-05 0.000207360112074601 6.63866428955421e-05)
(3.44042992152997e-05 0.000592273039294343 0.000102006658157838)
(1.34462357577101e-05 0.000785260996865691 0.000139227589494151)
(4.20167805686937e-06 0.00088746779590515 0.000177319357033093)
(6.13222675152712e-07 0.000955478902958358 0.000216944534649367)
(0.000173421378783166 -0.00016232883694555 2.20416728213584e-05)
(9.76080129287968e-05 0.000178078024575356 5.27237304149216e-05)
(4.60597682056621e-05 0.000555088717723445 9.07561023501273e-05)
(2.07625201855148e-05 0.000741606471832894 0.000128734306586327)
(8.46298376953526e-06 0.000832612892101313 0.000164435495151555)
(2.56093681233838e-06 0.000894267604916657 0.000199664809353036)
(2.54698357806349e-07 0.000945022249979331 0.00023606497302146)
(9.96551300461054e-06 0.000909972160347693 7.42992082566336e-05)
(3.95156510388176e-05 0.000327986731878044 6.44925951523352e-05)
(5.85319983854356e-06 0.000815408537129733 0.000116604724695729)
(6.59711578723124e-05 0.000119602327598985 5.75835011789207e-05)
(2.38570832993761e-05 0.000491119031840406 0.000101281387825911)
(2.70606268747393e-06 0.000964603348542933 0.000149691564810405)
(9.57804457273502e-05 3.1966695269289e-05 5.20743210056786e-05)
(4.30046949138615e-05 0.000328585880518513 9.05317113586849e-05)
(1.17701024402855e-05 0.000781990878848638 0.000133469202046858)
(1.5240772917761e-06 0.000998389353361341 0.000180011563272329)
(0.000126928126174567 -3.62546676010366e-05 4.86794868050261e-05)
(6.32009840450247e-05 0.000259013310458669 8.26338076881772e-05)
(2.26316792120316e-05 0.00067076102204729 0.000121137444523385)
(6.39386715096614e-06 0.000886748484763568 0.000162579462715897)
(8.37380384223014e-07 0.000995913318928649 0.000206078746215214)
(0.000157504045642323 -9.50741083262836e-05 4.40850357259637e-05)
(8.36167202648192e-05 0.00021498336495337 7.54540962024018e-05)
(3.47035762844026e-05 0.000608994848408373 0.000111036054948354)
(1.28759422079556e-05 0.000809116090446676 0.000148665835160775)
(3.62296298561978e-06 0.000914981474246359 0.000187482751751226)
(3.84054486098183e-07 0.000984713392702796 0.000228245074981844)
(0.000183763229902158 -0.000174767030161491 3.05987984982695e-05)
(0.000102639172094607 0.000181075094819159 6.4817853800524e-05)
(4.72057098848847e-05 0.000566647066293605 0.00010015090329311)
(2.04125807053762e-05 0.000760520885527537 0.000137019161889919)
(7.79368813281722e-06 0.000855567862770977 0.000172917867391255)
(2.01036188278069e-06 0.000919662475435533 0.00020915556360515)
(4.97884320499149e-08 0.00097187454568217 0.000246972223929971)
(0.000206365170699377 -0.000231969327593017 1.97175384895605e-05)
(0.000118686406982383 0.000152238002974784 4.98052117960223e-05)
(5.91117727601279e-05 0.000533865294185103 8.80620263735301e-05)
(2.86226729483668e-05 0.000724552566139668 0.000126295442468058)
(1.28934708529414e-05 0.000816317969998641 0.000161989612863946)
(4.7257016692927e-06 0.000871442417434395 0.000195132852937148)
(9.51822719528691e-07 0.000917306436779198 0.00022827847483061)
(-1.73137141740387e-07 0.000959527561224785 0.000262779295341084)
(9.68252193586227e-06 0.000971375662679133 8.20086840471884e-05)
(3.94482979857858e-05 0.000365242521707462 7.15385255684486e-05)
(5.34663859178463e-06 0.000856138185335773 0.00012550891685598)
(6.62863574387598e-05 0.000146236760070123 6.36900734040546e-05)
(2.30478713716741e-05 0.000520625541491301 0.00010930340363207)
(2.18223744971667e-06 0.00100323884434037 0.00015935469904565)
(9.73020147039472e-05 5.32379502807428e-05 5.78227081029061e-05)
(4.23059272209817e-05 0.000350919189783327 9.7837004436504e-05)
(1.06909027791913e-05 0.000813170501371752 0.000142424318972009)
(1.08258325717081e-06 0.00103456731255155 0.000190707448958296)
(0.000129860999709332 -2.11578160057581e-05 5.31674987836474e-05)
(6.3234593878291e-05 0.000276335305451064 8.94705603201481e-05)
(2.1455852676901e-05 0.000696410152575716 0.000129672730494453)
(5.42208093574375e-06 0.000917839165528772 0.000172674810552724)
(4.83501096548996e-07 0.00102944110533614 0.000217683607333488)
(0.000162651468706258 -9.29063815582798e-05 4.96741696921906e-05)
(8.50204530041375e-05 0.000226173220639763 8.19779673431811e-05)
(3.39628440355707e-05 0.000629972976004436 0.000119481048779751)
(1.17462636664416e-05 0.000836050434727867 0.00015839078163651)
(2.81221636935894e-06 0.000944781176554875 0.000198332196548258)
(9.00351333592478e-08 0.00101581010710298 0.000240352831846424)
(0.000193567374418935 -0.000157368552282125 4.37912598439732e-05)
(0.000106096095438314 0.000187692160903079 7.42834669047665e-05)
(4.74232743341485e-05 0.000581897719404961 0.000109349189194991)
(1.950518088593e-05 0.000782853413548303 0.000146420515626016)
(6.79805616595407e-06 0.000881444337933108 0.000182813272133497)
(1.32175466217686e-06 0.000947376695700726 0.00022000022289344)
(-2.01856923968982e-07 0.00100050891702882 0.000259086910032158)
(0.000218747713864234 -0.000245629237981977 2.8674786860585e-05)
(0.000124655660363175 0.000155064560248653 6.23603861091982e-05)
(6.0489088511087e-05 0.00054457461218923 9.76244561280749e-05)
(2.81253509921663e-05 0.000742392427606848 0.000134548917513609)
(1.19067789780007e-05 0.000837965841249272 0.000170250176351425)
(3.82502375738692e-06 0.00089514838605606 0.000204142430522073)
(3.44361212244549e-07 0.000942443043992366 0.000238500804750544)
(-3.83952327665283e-07 0.000985608956471281 0.000274488377628159)
(0.000238468886878129 -0.000312059340145149 1.63777115080548e-05)
(0.000138799247409487 0.000124430467345061 4.57552667318999e-05)
(7.19066562503002e-05 0.0005127389362925 8.43882533184951e-05)
(3.66754061558967e-05 0.000709122935059121 0.000123024620771703)
(1.77539967933583e-05 0.000803475630453398 0.000159166001171847)
(7.26088363404663e-06 0.000858589170580358 0.000192299220034227)
(1.84950212392189e-06 0.000898386485107936 0.000223282579187027)
(-3.19530021702822e-07 0.000935616691677237 0.00025452637002648)
(-5.04366921348163e-07 0.000971926199532246 0.000287209620879653)
(9.42354951820829e-06 0.00103989343883984 9.10429204487562e-05)
(3.93154217925382e-05 0.000407115686366879 7.97465502113029e-05)
(4.73316356122157e-06 0.000900832276956595 0.000135250140991482)
(6.63787761990556e-05 0.000176251214274332 7.07711482781541e-05)
(2.20234394621615e-05 0.000553322978320449 0.000118147726076987)
(1.55442548887271e-06 0.00104541896886214 0.000169624997113086)
(9.83828233284343e-05 7.77893475820224e-05 6.44065936745326e-05)
(4.11830011299709e-05 0.000376165638481695 0.000105784798580634)
(9.31091790541605e-06 0.000847406282927999 0.000151872683764146)
(5.43203335854604e-07 0.00107383905950122 0.000201844972234015)
(0.000132287769147849 -1.40183684207268e-06 5.8548862490488e-05)
(6.25480600728386e-05 0.000296933943311153 9.67891266888864e-05)
(1.9728562583079e-05 0.000724864313745452 0.000138509228052097)
(4.15514507807513e-06 0.000951589168218021 0.000183115748382102)
(3.74292801699594e-08 0.00106552949413997 0.000229731616856712)
(0.000166691634045101 -7.91976869278276e-05 5.43023221265456e-05)
(8.53122383049827e-05 0.000242206878518594 8.88593949559214e-05)
(3.23827351551258e-05 0.000654059088406071 0.000128002124605529)
(1.01034741685462e-05 0.000865422021703002 0.000168348816604378)
(1.75319018930691e-06 0.000976743669513678 0.000209639990973507)
(-2.74420374882505e-07 0.0010489746099328 0.000253080667807339)
(0.000199964050066163 -0.000157214802772904 4.95424278576923e-05)
(0.000107865772016951 0.000197641220862613 8.09162827665665e-05)
(4.64796411644929e-05 0.000601571019781039 0.000117865476315294)
(1.78605091952067e-05 0.000808602191535504 0.000156117194078764)
(5.38365068649167e-06 0.000910001966609922 0.000193474810301414)
(4.37726595930387e-07 0.000977282114167288 0.000231750328717008)
(-5.09661783428175e-07 0.00103101142854644 0.000272113024061034)
(0.000230170510869359 -0.000228048084431541 4.26313401230796e-05)
(0.000128692241088146 0.000160971950138711 7.22389828992228e-05)
(6.07124114402517e-05 0.000558766706536022 0.000107003412645362)
(2.68889091223086e-05 0.000763659268391054 0.000143966928020225)
(1.04360918663032e-05 0.000862765228734658 0.000180009621177461)
(2.62851649508817e-06 0.000921624311690202 0.000214655168933167)
(-4.02895551854124e-07 0.000969849689840182 0.000250103946366308)
(-6.44570105701888e-07 0.00101346770649809 0.000287413018964449)
(0.000253334852256538 -0.000327071794102113 2.5771644166688e-05)
(0.000145895324846335 0.000127329481965202 5.87624504239685e-05)
(7.36506597008307e-05 0.000522907919121824 9.40948186622095e-05)
(3.61033487984348e-05 0.000726289960312362 0.000131248951252024)
(1.64688469049354e-05 0.000824330692334351 0.000167269508633497)
(5.95923710972466e-06 0.000881294484288692 0.00020100805865561)
(8.31114874317058e-07 0.000922159083244212 0.000232979061615518)
(-9.5112415791467e-07 0.000960236169612497 0.000265514374824921)
(-7.2193666592471e-07 0.00099712611440669 0.000299688008537904)
(0.000269099110671887 -0.000406072171882318 1.14866510131363e-05)
(0.000157377745818279 9.2755467942888e-05 4.02299546697059e-05)
(8.40166471335543e-05 0.000489822761908931 7.94534094536754e-05)
(4.448729418868e-05 0.000693204356663933 0.000118656754110813)
(2.27089682357057e-05 0.000791204470158738 0.000155439277542398)
(1.00268673926028e-05 0.00084799045703592 0.000189126186242024)
(2.92569995894519e-06 0.000887465072760307 0.000220101004294471)
(-4.35650499441297e-07 0.000919224607220208 0.00024919640656732)
(-1.33427112221082e-06 0.000950708848281679 0.000278678766313868)
(-7.62839208980919e-07 0.000982385378602898 0.000309614167984969)
(9.17550637601054e-06 0.00111642614987478 0.000101569920444742)
(3.91027304585159e-05 0.000454121050327481 8.92507547054253e-05)
(4.00208325801139e-06 0.000949696917422945 0.000145976675825053)
(6.61834126370793e-05 0.000209939329053114 7.89586849357375e-05)
(2.07442935475133e-05 0.000589240309186828 0.000127953343040079)
(8.08960122568111e-07 0.00109131615062222 0.000180552993597878)
(9.89447135979425e-05 0.000105315252139624 7.1716691336483e-05)
(3.96369386653791e-05 0.000404141117821542 0.000114571772168024)
(7.63910999452802e-06 0.000884770992973166 0.000161960553148832)
(-1.0341400677787e-07 0.001116456001684 0.00021347540518165)
(0.000134210116890493 2.16577615045645e-05 6.52635199664301e-05)
(6.1218347292997e-05 0.00032024962265409 0.000104778637234011)
(1.74796132038056e-05 0.000756119657588547 0.000147851315508752)
(2.59054969511084e-06 0.000988232226034873 0.000194007831981561)
(-5.03380271801346e-07 0.00110449620223798 0.000242221062653543)
(0.00017011517220137 -6.08078041041001e-05 5.97461420309259e-05)
(8.47276732755572e-05 0.000261508422101296 9.62008962710167e-05)
(3.00409810072122e-05 0.000680847484490265 0.000136817631008829)
(7.95200939565748e-06 0.000897337193221988 0.000178636714438492)
(4.22370438475345e-07 0.00101116039803203 0.000221380644598031)
(-7.20897773243078e-07 0.00108454811363286 0.000266337488232687)
(0.000205265596368854 -0.000144977365969248 5.42542898999164e-05)
(0.00010847616860736 0.000212507634843444 8.7862459740604e-05)
(4.45553989982106e-05 0.000624360311037596 0.000126415976576109)
(1.55174764919739e-05 0.000836799854348437 0.000166030907487856)
(3.54271215593502e-06 0.00094073480372065 0.000204601929302822)
(-6.6373038444606e-07 0.001009246964176 0.000244126104747167)
(-8.80636875349627e-07 0.001063520683602 0.000285859498693912)
(0.000238003043428758 -0.000230104255383804 4.84932139598445e-05)
(0.000130927173076567 0.000169773422811628 7.89694869558993e-05)
(5.96380480104653e-05 0.000577319075234035 0.000115599718176157)
(2.47528499620399e-05 0.000788444438726012 0.000153665040396282)
(8.37294550811297e-06 0.000890463012265773 0.000190582535916977)
(1.07600532924444e-06 0.000950582034940607 0.000226169013504613)
(-1.3253289223658e-06 0.00099938237602875 0.000262724569721839)
(-9.56905235425046e-07 0.00104316281933406 0.000301307058410963)
(0.000266684791463589 -0.000309117309946444 4.06096253417016e-05)
(0.000150701912094174 0.000132670796792784 6.90941016035501e-05)
(7.40119937735705e-05 0.000536258150182487 0.00010364463389476)
(3.46093933823688e-05 0.000746764221185452 0.000140695074987304)
(1.4532756402363e-05 0.000848359923956365 0.000176936293731984)
(4.21023437792405e-06 0.00090695151947444 0.000211307891645745)
(-4.66904463534931e-07 0.000948562324449785 0.000244192693617923)
(-1.72590164650536e-06 0.000987048865463127 0.000277891045440004)
(-9.88085599840708e-07 0.00102406162643805 0.000313396505453263)
(0.000286980460544018 -0.000422494425546853 2.16528647066727e-05)
(0.000165809196868901 9.58755084439418e-05 5.36627497580374e-05)
(8.62709107256139e-05 0.000499605106928226 8.9272916884173e-05)
(4.39393538140489e-05 0.000709907792645381 0.000126826357779118)
(2.11818733223651e-05 0.000811550454249857 0.000163391263413755)
(8.33811808972284e-06 0.000870081775229836 0.0001976023427116)
(1.45386734535835e-06 0.000910425944426636 0.000229447746532992)
(-1.52137473527382e-06 0.000942691856392143 0.000259620382757265)
(-1.98397346131714e-06 0.00097462898083552 0.000290416153014555)
(-9.82300607094911e-07 0.0010065913761374 0.000322824749040903)
(0.000297405300567711 -0.000517939109784058 4.38866809269722e-06)
(0.000173889368032274 5.51887556278174e-05 3.26661095767697e-05)
(9.51278181801033e-05 0.000463573886375652 7.28969830434824e-05)
(5.17765951711328e-05 0.000675435146246091 0.000112913041761919)
(2.74703716967978e-05 0.000778038514929622 0.000150538962724109)
(1.28280567756793e-05 0.000837426961763106 0.000185044571005058)
(4.11096167903924e-06 0.00087817962391935 0.000216652139951976)
(-5.08858148373937e-07 0.000909552589179983 0.000245762676193353)
(-2.25827906200457e-06 0.000936136637454482 0.000273133668052052)
(-2.14091784642874e-06 0.00096323423565422 0.000300940165889832)
(-9.55199675225008e-07 0.000991006062531847 0.000330200320996025)
(8.49492242772973e-06 0.00120142775311345 0.000111814377298681)
(3.87758149639399e-05 0.000506962799916478 9.99711512870878e-05)
(3.15053904841838e-06 0.00100282055727358 0.000157761327432399)
(6.57026932813913e-05 0.000248027547168051 8.8690508275488e-05)
(1.91280153524982e-05 0.000628510487851105 0.000138830112623918)
(-7.94419625204253e-08 0.00114115252228413 0.000192141293136917)
(9.90380287966802e-05 0.000136219132384549 7.99444447243942e-05)
(3.76172095392779e-05 0.000434813074759549 0.000124363044422755)
(5.63133730283448e-06 0.000925383305811602 0.000172744775482531)
(-8.69942875803703e-07 0.00116265117548271 0.00022558107754242)
(0.000135514199764238 4.81302192116583e-05 7.33189997320128e-05)
(5.92301498311372e-05 0.000346026075012991 0.000113627374048293)
(1.46895378534517e-05 0.000790186001881986 0.000157841454670309)
(7.04593287101079e-07 0.00102795641520484 0.000205403456858784)
(-1.14769112503265e-06 0.00114660785023925 0.000255115574221624)
(0.000172936841906544 -3.92419835519471e-05 6.62483016387827e-05)
(8.3310294617066e-05 0.000283416755660284 0.000104248791049423)
(2.69407658308312e-05 0.000710248966390662 0.000146142368541596)
(5.27718310114708e-06 0.000931962191445995 0.000189371899203969)
(-1.19562917471981e-06 0.00104829896141578 0.000233565541684722)
(-1.2553146886965e-06 0.00112282400417448 0.000280050852147325)
(0.000209898133714505 -0.000128067305192599 5.97632375603565e-05)
(0.000108087614282637 0.000230591076111238 9.52506422619598e-05)
(4.16840999549068e-05 0.000649748210370319 0.000135232066919116)
(1.245641977556e-05 0.000867430706402364 0.000176258082676077)
(1.24266979592092e-06 0.000973819088828407 0.000216150219512544)
(-2.01213161436707e-06 0.00104352324281018 0.00025702047940028)
(-1.32622964301197e-06 0.00109831937011478 0.000300198439212396)
(0.000244752866651787 -0.000219431796780218 5.331324781063e-05)
(0.000131951593230232 0.000183492487686664 8.59698371962116e-05)
(5.74633693498782e-05 0.000598913432161919 0.000124173415450738)
(2.17502253548251e-05 0.00081561568782697 0.000163554735297231)
(5.70283941327467e-06 0.000920309980768921 0.000201614305746808)
(-8.52775454984597e-07 0.000981586164242952 0.000238307092462933)
(-2.44490269012117e-06 0.00103090387293595 0.000276068731699061)
(-1.32663349006416e-06 0.00107480343163873 0.000315984814053364)
(0.00027614636500654 -0.000313606753465093 4.65776289380563e-05)
(0.000153541050476909 0.000140330048267933 7.59237096080842e-05)
(7.29209213777275e-05 0.000553776730886058 0.000112302340514607)
(3.20600992054758e-05 0.000770696514157053 0.000150394170476673)
(1.18384397230154e-05 0.000875339023242119 0.000187437189840698)
(1.94344167814695e-06 0.000935243462308113 0.000222670510183982)
(-2.08424810532615e-06 0.000977318527766761 0.000256517543502386)
(-2.66349564984803e-06 0.00101591892541193 0.000291342170116592)
(-1.30384939536371e-06 0.0010527824467866 0.000328110185235351)
(0.000302574175872948 -0.000404035938784844 3.76685559525063e-05)
(0.000171602683875791 0.000100721645345457 6.46110983599856e-05)
(8.69290437113675e-05 0.00051220339883655 9.89819852955111e-05)
(4.22973285404399e-05 0.000729728993322583 0.000136282512339837)
(1.88442451816123e-05 0.000834994214920274 0.000172969894537974)
(6.04645579825137e-06 0.00089514640215512 0.000207731514585214)
(-4.39623585841281e-07 0.000936167817774813 0.000240397449460442)
(-2.8709965204111e-06 0.000968656945488212 0.000271568531570581)
(-2.7725950847115e-06 0.00100064983511885 0.000303550115484762)
(-1.24813775343064e-06 0.00103247072056198 0.000337278156523053)
(0.000318925883475475 -0.000536636932412901 1.58337353744575e-05)
(0.000183884696257793 5.88059774264567e-05 4.59058014662287e-05)
(9.80587975329456e-05 0.000473044360237129 8.27961355950659e-05)
(5.13710005785659e-05 0.000691773561054336 0.000120986145146022)
(2.57830136250364e-05 0.000798021249809894 0.000158311972162993)
(1.07997492359089e-05 0.000859115592002955 0.000193296007678005)
(2.19757552272331e-06 0.000900638229763761 0.00022572055844693)
(-2.07637613898958e-06 0.000932334134540135 0.000255807289583703)
(-3.37689412217095e-06 0.000959054347593251 0.000284282306074875)
(-2.79699584988289e-06 0.000986299597713372 0.000313391044893638)
(-1.17367754612065e-06 0.00101410428112366 0.000344096618174907)
(0.000322221562776561 -0.000652894098375989 -5.20449782286886e-06)
(0.000187719990905435 9.70772060600279e-06 2.19569642805538e-05)
(0.000104933625254963 0.000432616220359047 6.42467455303881e-05)
(5.83491505394839e-05 0.000654869343451507 0.000105444645122354)
(3.1850390557239e-05 0.000763073891858923 0.000144186322236884)
(1.5490576063916e-05 0.000825821516922856 0.000179752555998147)
(5.30272083335438e-06 0.000868710662950691 0.000212315429506669)
(-5.48786265558637e-07 0.000901175730906261 0.000242121985252593)
(-3.22901773424552e-06 0.000927399316809829 0.00026953626020341)
(-3.68153115169924e-06 0.000950072236893218 0.000295272268562944)
(-2.7524291803996e-06 0.000973518409014759 0.000321460359196495)
(-1.08976383991212e-06 0.000997861308860297 0.000349103804955246)
(8.12989583626233e-06 0.00129604046906357 0.000123926988625178)
(3.81701435416343e-05 0.00056619769643951 0.00011182112586927)
(2.13778271201884e-06 0.00106032026476768 0.00017050945363822)
(6.50000356389768e-05 0.000291083272346151 0.000100216268653213)
(1.71243579798548e-05 0.000671222629525136 0.000150864244129016)
(-1.13198360987078e-06 0.00119510850964465 0.000204340470680546)
(9.86315872142742e-05 0.000171334947272148 8.98117112011248e-05)
(3.50391589908865e-05 0.000468262530988747 0.000135327661237096)
(3.21687347657877e-06 0.000969394045163589 0.000184240800324057)
(-1.77707419633528e-06 0.00121266111834071 0.000238085391735635)
(0.000136100335008986 7.74849201337895e-05 8.21885744064268e-05)
(5.65262893190404e-05 0.000374196329168756 0.000123542511238199)
(1.12933168493175e-05 0.000827130802370756 0.000168552391056955)
(-1.54480897881725e-06 0.00107094965750883 0.000217285579073749)
(-1.89725667289979e-06 0.00119212469555023 0.000268327872972413)
(0.000175100349594928 -1.45617172685711e-05 7.41097211790976e-05)
(8.10230864285113e-05 0.000307599922353201 0.000113274051971699)
(2.30353733183036e-05 0.000742217471529129 0.000156127633076172)
(2.03365846672006e-06 0.000969436965986997 0.000200615247883237)
(-3.12827544907022e-06 0.00108839376240456 0.000246163135664973)
(-1.88727771376481e-06 0.00116407607360222 0.000294121033630588)
(0.000213863055725132 -0.000108058079736421 6.63809529385457e-05)
(0.000106707004254786 0.000251145197885302 0.000103396908717538)
(3.78326771081858e-05 0.000677580090621524 0.00014455282337065)
(8.63168870084162e-06 0.000900607948611449 0.00018693004758187)
(-1.55242774152903e-06 0.00100947332166159 0.00022812552307279)
(-3.62863010167243e-06 0.00108036757315718 0.000270362087431777)
(-1.85036272496956e-06 0.00113567479785429 0.00031500866612307)
(0.000250785403709115 -0.000204141859305519 5.88536375660841e-05)
(0.000131886313765522 0.000200347604778704 9.34463803170862e-05)
(5.41835606250155e-05 0.000622972113796402 0.000132975358750252)
(1.78322654995094e-05 0.000845085601786349 0.000173734518206453)
(2.37263368561085e-06 0.000952401467245135 0.000213052965510343)
(-3.19995706979755e-06 0.00101480525324659 0.000250947036838835)
(-3.79116977901453e-06 0.00106462661519835 0.000289990985589955)
(-1.76646985551115e-06 0.00110863576175658 0.000331301907776738)
(0.000284571075195788 -0.000304584237982121 5.15314344271661e-05)
(0.000155102463875492 0.000152875824245141 8.30250776433286e-05)
(7.06203861089963e-05 0.000574203950768941 0.000120876649738113)
(2.8492933738392e-05 0.000796893684072061 0.000160244659585577)
(8.36722006462208e-06 0.000904384629339377 0.000198384834848679)
(-8.69016265265682e-07 0.000965544407788949 0.000234663455929739)
(-4.04589865411934e-06 0.0010080444848517 0.000269571325269041)
(-3.78206725741283e-06 0.00104671314171031 0.000305578662190003)
(-1.67384495139788e-06 0.00108337972617929 0.000343648356855343)
(0.000313837995082567 -0.000411111365354519 4.37551411989813e-05)
(0.000175219798287541 0.000107171937465968 7.16443049838014e-05)
(8.59687571451203e-05 0.000528705773872274 0.000107676133803113)
(3.94459287601542e-05 0.00075285632669162 0.000145958332230351)
(1.5591767103482e-05 0.000861321439593947 0.000183391174382051)
(3.0777218992485e-06 0.000922872264576206 0.000218960943292812)
(-2.80433954391984e-06 0.000964381110469594 0.00025252672989381)
(-4.51628402698584e-06 0.000996867653828814 0.000284683943214759)
(-3.71531316734614e-06 0.00102864890257959 0.000317791568852321)
(-1.56087579136801e-06 0.00106006979080225 0.000352761540164658)
(0.000337279626603676 -0.000517306864022742 3.36679459973154e-05)
(0.000190960628457138 6.31057808212447e-05 5.85103591501969e-05)
(9.92149495225739e-05 0.000484910259298207 9.26794066271498e-05)
(4.97167250187973e-05 0.000710992915487114 0.000130422398190155)
(2.31389387835546e-05 0.000820971231939525 0.000167779213751713)
(8.02231310408605e-06 0.0008837223252826 0.000203257940416562)
(-2.83718802158507e-07 0.000925897076235863 0.000236448064538666)
(-4.04248993308982e-06 0.000957739929315308 0.000267454771967539)
(-4.74606429803513e-06 0.00098433934705711 0.000296960377919962)
(-3.58556488401651e-06 0.00101136649190913 0.000327248054803714)
(-1.43588981477958e-06 0.00103880207325197 0.00035924701540777)
(0.00034776082514595 -0.000675236034148525 7.53019492092521e-06)
(0.000199667955955208 1.4009672454988e-05 3.55145922047114e-05)
(0.000108775433100378 0.00044185329777746 7.41591502817667e-05)
(5.82278577324365e-05 0.000670889538985354 0.000113370236675771)
(3.01049203117726e-05 0.00078276156221387 0.00015173093072503)
(1.31954781439028e-05 0.000847216655384152 0.000187750081734787)
(2.98951830621238e-06 0.000890835599993615 0.000221114682335407)
(-2.5915442243592e-06 0.00092353052927817 0.00025185957588831)
(-4.84627808008485e-06 0.000949720572506944 0.000280284503767033)
(-4.81230769269404e-06 0.000972249726200791 0.000307118750278428)
(-3.40651905344737e-06 0.000995589260774553 0.000334583439164997)
(-1.30490087223613e-06 0.0010197404341446 0.000363636774149209)
(0.000341182683061159 -0.000818498781838771 -1.76809018880539e-05)
(0.000198182062936554 -4.65834433941892e-05 7.10592732854497e-06)
(0.000113166355722084 0.000395169153783045 5.28090777722259e-05)
(6.40339134724608e-05 0.000630708454116858 9.58198039628322e-05)
(3.57222027471214e-05 0.000745725146662469 0.000136052420582759)
(1.78943814279254e-05 0.00081254009839694 0.000172968765059446)