/*--------------------------------*- C++ -*----------------------------------*\
  =========                 |
  \\      /  F ield         | OpenFOAM: The Open Source CFD Toolbox
   \\    /   O peration     | Website:  https://openfoam.org
    \\  /    A nd           | Version:  12
     \\/     M anipulation  |
\*---------------------------------------------------------------------------*/
/*   Windows 32 and 64 bit porting by blueCAPE: http://www.bluecape.com.pt   *\
|  Based on Windows porting (2.0.x v4) by Symscape: http://www.symscape.com   |
\*---------------------------------------------------------------------------*/
FoamFile
{
    format      ascii;
    class       volScalarField;
    location    "400";
    object      k;
}
// * * * * * * * * * * * * * * * * * * * * * * * * * * * * * * * * * * * * * //

dimensions      [0 2 -2 0 0 0 0];

internalField   nonuniform List<scalar> 
10123
(
3.08272286234954e-05
3.27045229786627e-05
0.000149552723867457
3.16231532160827e-05
3.44256279449498e-05
0.000155550570066446
3.35606481716646e-05
0.000237873901009812
0.000149937641373884
3.27183313332647e-05
3.60061711684004e-05
0.000161022566077807
3.53314453828114e-05
0.000246711633955505
0.000155947140256724
3.47282780623009e-05
0.000306356579868595
0.000237789541803802
0.000150198395960972
3.30667434357413e-05
3.74672936108131e-05
0.000166019054221497
3.69530117542793e-05
0.000254804992666885
0.000161427174616316
3.65630155037439e-05
0.000317508014766533
0.000246621683564843
0.000156213643839556
3.5102621380955e-05
0.000364429859533392
0.000306020747386586
0.00023671938362032
0.000149190695507231
3.22145371335076e-05
3.88655293774888e-05
0.000170588271406979
3.84515970098938e-05
0.00026221510936925
0.000166428657007028
3.82374465459341e-05
0.000327751288301729
0.00025470789686477
0.0001616978932844
3.69595403271234e-05
0.00037761637228457
0.000317160307842785
0.000245514562748471
0.000155164385135803
3.42046955339622e-05
0.000415913714818908
0.000363819096202727
0.000304080598451096
0.00023404802895514
0.000146213262401313
3.04788456312502e-05
4.01694676967305e-05
0.00017475947896133
3.9889726265548e-05
0.000268996088684973
0.000171002280214808
3.97839448243948e-05
0.000337149984110209
0.000262110170172984
0.000166700723284284
3.86505087501965e-05
0.00038975265998284
0.000327389598971394
0.000253566993147465
0.000160610833880195
3.60197794333765e-05
0.000430971268688858
0.000376986062559357
0.000315158432252452
0.000242748030558204
0.00015207126698185
3.23692206116605e-05
0.000462617844500994
0.000414982341180771
0.000361160089554974
0.000300110973596797
0.000229327455616064
0.000141440294327646
2.83508799311779e-05
4.13756000058827e-05
0.000178556753539024
4.1226766809674e-05
0.000275186053932106
0.000175177124843641
4.12694999283682e-05
0.000345760611397885
0.000268883335283633
0.000171273868219027
4.02132006646077e-05
0.00040090246705366
0.000336774305986691
0.000260937199205061
0.000165577545012362
3.76718448844387e-05
0.000444842741211061
0.000389100054970957
0.000325330576487936
0.000250714464388967
0.000157412867011054
3.40927464417773e-05
0.000479448474426106
0.000430010127504415
0.000374244343451496
0.000311053187309216
0.000237854006118669
0.000147112086831523
3.01132979276174e-05
0.000505566663070532
0.000461413639789003
0.000411644357077786
0.000356091433935965
0.00029389042248601
0.000222627817153664
0.000135403214546734
2.60624914967257e-05
4.24909131990885e-05
0.000182023953183739
4.2462485810392e-05
0.000280830419502672
0.000178980576516739
4.26473999610582e-05
0.000353630087999488
0.000275066950725077
0.000175447819976258
4.17117040526212e-05
0.000411123664564254
0.000345371589673282
0.000267679807122671
0.00017011495827217
3.91977732958064e-05
0.000457592676488202
0.000400227967563443
0.000334661826810683
0.000258005359781564
0.00016228309502914
3.56594960649598e-05
0.0004949548668088
0.000443848939470688
0.000386281092383202
0.000321102029948405
0.000245662810392821
0.000152284016435651
3.17213969797475e-05
0.000524116768326482
0.000478204964641065
0.000426568063923172
0.000369004949021837
0.000304608784539585
0.000230902511372812
0.000140835361808465
2.76861119546761e-05
0.000545426899032116
0.000504180804152733
0.000457496814961348
0.000405600857944935
0.000348543119344873
0.000285538357456655
0.000214276136412115
0.000128453143710778
2.36390116830334e-05
4.352079822173e-05
0.000185191055075334
4.36054048838886e-05
0.000285972245601846
0.000182453216047516
4.39202393054542e-05
0.000360807750531191
0.000280705877708526
0.000179252604791908
4.31007848975028e-05
0.000420468275625098
0.000353229004243362
0.000273835678988646
0.000174256621890432
4.06573770985459e-05
0.000469281142561106
0.000410428584415179
0.000343209213067759
0.000264673988985831
0.000166730098458323
3.71080533958617e-05
0.000509204113346375
0.000456567176713434
0.000397336852109061
0.000330319793013233
0.000252809103312978
0.000156998367448635
3.31809035899991e-05
0.000541196308150805
0.000493669265003598
0.000440309583896424
0.000380885888717043
0.000314453535044206
0.000238481397644405
0.000145788679427617
2.91645323183595e-05
0.000565675400494619
0.000522684433618846
0.000474164397668956
0.000420320936749638
0.000361186938923005
0.000295946295906327
0.000222231876778278
0.000133605472106692
2.51129343703707e-05
0.000582640897556749
0.000543930647392749
0.000499823501604429
0.000450632897153353
0.000396884293384792
0.000338714887812628
0.0002753059286498
0.000204520277611791
0.000120691775994265
2.1070953824099e-05
4.44686815896873e-05
0.000188079949293378
4.46601836248639e-05
0.00029064884102118
0.000185624803200285
4.50966901960442e-05
0.000367340470602209
0.000285842580281785
0.00018272585884429
4.43833105342857e-05
0.000428990208258338
0.000360395697793835
0.000279449126749478
0.00017803131915586
4.20099258548937e-05
0.000479964932114478
0.000419754253331974
0.000351020470048588
0.000270761617454978
0.000170787225242789
3.84900203839708e-05
0.000522260496364962
0.00046822607786692
0.000407470458012906
0.000338762314856622
0.000259344118739335
0.000161301051710652
3.45300086809723e-05
0.000556877556751824
0.000507878063657383
0.000452937155378728
0.000391798289617667
0.000323484147895233
0.000245416812094783
0.000150302234374424
3.05054261126473e-05
0.000584294224564042
0.000539714910286439
0.00048951344616728
0.000433876633238027
0.000372821654024994
0.000305507038562723
0.000229518942636125
0.000138302835206778
2.64537233303047e-05
0.00060458952429703
0.000564127385937131
0.000518186883062727
0.000467067028360693
0.000411292251448978
0.000350994367289655
0.000285326817174297
0.000212100422916426
0.000125529551032169
2.23855648912261e-05
0.000617489967475416
0.000581072413897949
0.000539245352097613
0.000492302591971486
0.000440922255600614
0.000385754868668966
0.000326844702456393
0.000263370711735605
0.000193468142582571
0.000112120377473436
1.83800164745796e-05
4.53359424141762e-05
0.000190706379590205
4.56309582896281e-05
0.00029489125137905
0.000188517424044122
4.61818180461631e-05
0.000373270903515847
0.00029051424216603
0.000185896845133102
4.55677032295049e-05
0.000436741420755811
0.000366918347151451
0.000284561894953553
0.0001814757371285
4.32580722871176e-05
0.000489703645287716
0.000428258880047042
0.000358144556849003
0.000276311861041554
0.000174482783457132
3.97690477567243e-05
0.00053418672827573
0.000478882640640989
0.000416734088733596
0.000346476782256897
0.000265308066566796
0.000165224314514834
3.58146360875455e-05
0.000571231582995233
0.000520896925120043
0.000464512175426761
0.000401799845144765
0.000331754556409278
0.000251757643494572
0.000154419745674173
3.17451968431704e-05
0.000601364124802272
0.000555349358629421
0.000503615317366003
0.000446333524731613
0.000383508412079668
0.000314277263745657
0.000236186561800464
0.000142581404421573
2.76670304991351e-05
0.000624732724114945
0.000582692083016168
0.000535087548767878
0.000482203683741539
0.000424563245029342
0.00036229550755698
0.000294532652273974
0.000219043275414952
0.000129938987288574
2.35799796578929e-05
0.000641152862545908
0.000602964703934301
0.000559287582354786
0.000510405900398707
0.000457005204373943
0.000399748416798991
0.000338675573824308
0.000272937105607963
0.000200622586329036
0.000116611186385536
1.95287111570914e-05
0.000650150618117845
0.000615865493096693
0.000576128705800543
0.000531196300570645
0.000481761915323346
0.000428665618380686
0.000372453473422047
0.000313076738011397
0.000249821103957383
0.000181156601722849
0.000102737520349967
1.56133919222542e-05
4.61225753018641e-05
0.000193081989165186
4.65180565369567e-05
0.000298724632482915
0.000191147047719064
4.71801100883778e-05
0.000378636462367047
0.000294751998530795
0.000188787933759936
4.66597726905823e-05
0.000443770065971669
0.000372839529529244
0.000289210980206368
0.000184619296317537
4.44102710014945e-05
0.000498555432119746
0.000435994320203653
0.000364627765401215
0.000281366026078628
0.000177853599998925
4.09488554076274e-05
0.000545049771980868
0.000488596533729605
0.000425181560329213
0.000353511543755743
0.000270744030705262
0.000168794215943345
3.70023584645432e-05
0.000584329135772997
0.000532788726633738
0.000475091316763506
0.000410941836049334
0.000339310536901985
0.000257542302836888
0.000158171091314822
3.2923265894507e-05
0.000616965973960856
0.000569660203301361
0.000516535686539183
0.000457751775593826
0.000393302982164864
0.000322308677446335
0.000242281110293239
0.000146482442836562
2.87880574398023e-05
0.000643164098847455
0.000599710720110899
0.000550602286152846
0.000496111161304987
0.000436759691936852
0.000372676658094202
0.000302977279164022
0.000225394838299148
0.000133952918931542
2.46577742540408e-05
0.000662815103404198
0.000623049549521148
0.000577710450616759
0.000527071234806972
0.000471822475436658
0.00041264035766073
0.000349565045306294
0.000281725491692141
0.000207174734169376
0.000120702667222267
2.05698200425206e-05
0.000675542986439641
0.000639467343423411
0.000597852722832782
0.000550953470186205
0.000499477416415584
0.000444287065984995
0.000385941489605366
0.000324383756045231
0.000258872206003422
0.000187839464457001
0.000106851641794683
1.65927327091635e-05
0.000680747228564538
0.000648476544528732
0.000610702008569556
0.000567638301612755
0.000519955690541486
0.000468534096353071
0.000414114804741729
0.00035710957778522
0.00029748244502904
0.000234703608876798
0.000167602066348177
9.2560331428093e-05
1.28340215547619e-05
4.68281175985732e-05
0.000195213612515424
4.73225439269431e-05
0.000302167943220907
0.000193524359037437
4.80919633108675e-05
0.000383468967971263
0.000298580848616894
0.000191415502005322
4.76637733392658e-05
0.000450119307970135
0.000378196652122823
0.00029342760321735
0.000187484279736472
4.54723208052335e-05
0.000506574652257347
0.000443008640300959
0.000370512541402135
0.000285960826784143
0.00018092891533029
4.20376565068448e-05
0.000554915178465481
0.000497425782749358
0.000432864406967265
0.000359912565206314
0.000275692906100464
0.000172049018379304
3.809690813267e-05
0.000596246578027747
0.000543620434154283
0.000484734068472572
0.000419277417146683
0.000346199626296301
0.000262812995374394
0.000161581438269092
3.40114088096044e-05
0.000631181572883618
0.000582718297155607
0.000528336936021864
0.000468186893485844
0.000402254949970661
0.000329645049302338
0.000247839048820866
0.000150034351830632
2.98517275717234e-05
0.000659976966017791
0.000615265504979903
0.000564803432734905
0.00050885362814264
0.000447939633451833
0.000382191338238951
0.000310710042235044
0.00023119889140425
0.000137609668288128
2.56498690980221e-05
0.000682588826837697
0.000641426172672726
0.000594599302223617
0.000542371722723285
0.000485438716722099
0.000424490111329608
0.000359568747461508
0.000289786816062687
0.000213167237370499
0.000124424132980369
2.1505238583535e-05
0.00069871863254357
0.000661067035131853
0.000617784714029031
0.000569120337666071
0.000515791775573918
0.000458683310882048
0.000398369854711554
0.000334791620347662
0.000267186596079268
0.000193958337924311
0.000110597138675178
1.74772574973263e-05
0.000707872424716602
0.000673802559050648
0.000634120865473627
0.000589051892906316
0.000539288991084132
0.000485742506797676
0.000429176666909588
0.000370010377768228
0.000308197237233557
0.000243183933859592
0.000173771391604526
9.62714809804467e-05
1.36435582503509e-05
0.000709392384785832
0.000679026768048777
0.000643116029280783
0.00060182696532475
0.000555793295427374
0.000505884863821779
0.000452888646368559
0.00039739683117956
0.000339783868943221
0.000280106930337251
0.00021804812948889
0.000152815675598551
8.16187929301723e-05
1.01088343024058e-05
4.74531281173643e-05
0.000197106009038449
4.80444291050299e-05
0.000305237457591835
0.000195656980491207
4.89186465547863e-05
0.000387795020606355
0.000302020297185331
0.000193790180065548
4.85815555844462e-05
0.000455826872646549
0.000383021502139683
0.000297236892061193
0.000190087331503932
4.64482689368353e-05
0.000513810407348043
0.000449344937133682
0.000375836270029415
0.000290127306821125
0.000183730748786129
4.30411141194093e-05
0.000563844386951505
0.000505424591541499
0.000439830537418238
0.00036572193905398
0.000280191017559095
0.000175017661156028
3.91066605071689e-05
0.000607058553888803
0.000553457472317968
0.000493498112017496
0.000426857715895009
0.00035246711673316
0.000267610059839428
0.000164688792509259
3.50131866751099e-05
0.000644099270922851
0.000594599962608592
0.000539085669191341
0.000477697591855283
0.000410416436446844
0.000336332777418776
0.000252901193490944
0.000153259935012573
3.08342345091934e-05
0.00067526884243611
0.000629438320774216
0.000577761118987381
0.00052049197255949
0.000458156567671107
0.000390886873627576
0.000317772345945204
0.000236490277034865
0.000140938766861572
2.6591014888491e-05
0.000700582027675176
0.000658188862343023
0.000610035845694805
0.000556377681228531
0.000497915540669587
0.000435353232891088
0.000368737819001209
0.000297167991689743
0.00021864112996788
0.000127809832999312
2.23597949436083e-05
0.000719813711973623
0.000680782511791717
0.000636022914128658
0.000585777786913556
0.000530773739420462
0.000471915565123072
0.000409795162046235
0.000344353246033705
0.000274812222089194
0.000199552242618917
0.000113999596209272
1.82665641091455e-05
0.000732546002867787
0.000696911166984104
0.000655556375997397
0.000608707758143668
0.000557074818677268
0.000501596204592089
0.000443060868799684
0.00038189908882129
0.000318059718958013
0.000250972543968388
0.000179417543880641
9.96460765850298e-05
1.43717565980013e-05
0.000738226676072332
0.000706079638035778
0.000668242524494173
0.000624908039067639
0.000576745554873671
0.000524665130877498
0.000469484393667465
0.000411811349280704
0.000352023097511452
0.00029016702003827
0.000225906936786008
0.000158432687848402
8.49030528891965e-05
1.07533522276106e-05
0.000736210204338313
0.000707628017602537
0.000673485639271443
0.000633896040406742
0.000589448125989079
0.000540980951550758
0.000489273610738969
0.000434958225707397
0.000378567361044007
0.000320517733470626
0.000260985838691046
0.000199873195666744
0.000136801010874122
6.9930285407251e-05
7.48494061039135e-06
4.7996230050081e-05
0.000198765425193452
4.86839564752108e-05
0.000307946431866063
0.000197551090183036
4.96604861758212e-05
0.00039163677847855
0.000305086230349691
0.000195920062503435
4.94132094688749e-05
0.000460925196853754
0.0003873406334917
0.000300658521092896
0.000192439683696324
4.73402679459547e-05
0.000520306177665799
0.000455040869132608
0.000380630750684557
0.000293890738831479
0.00018627567429607
4.39628956526012e-05
0.000571893158964149
0.000512641985642928
0.000446122936557247
0.000370976806299792
0.000284268913037988
0.0001777216704084
4.00374453337227e-05
0.000616834766530348
0.000562361105102968
0.000501437398587886
0.000433730188131431
0.00035815452496338
0.000271969256509146
0.000167521968966026
3.59370728254298e-05
0.000655804713924119
0.000605379641902354
0.000548846899866969
0.000486340941887773
0.000417837675882425
0.000342416154030387
0.000257507000894378
0.000156196715315398
3.17377634241526e-05
0.000689142936984341
0.000642317389104979
0.00058955109598208
0.00053109181573526
0.000467467916522037
0.000398813950262105
0.000324209150981298
0.000241307499428786
0.000143958512234845
2.746235527394e-05
0.000716914193269551
0.000673435486691762
0.000624101009226462
0.000569157358352196
0.000509311425466761
0.000445280636164049
0.000377116975222674
0.00030390791072371
0.000223630475549178
0.00013089298307185
2.31719728026736e-05
0.000738957837535059
0.000698722848522079
0.000652660096415584
0.000601004598043067
0.000544490272357971
0.000484042434579423
0.00042027035191349
0.000353117327692381
0.000281793502408137
0.000204659326982776
0.000117089462998234
1.89835652161856e-05
0.000754933434615154
0.000717944399547203
0.000675124692514323
0.000626698761454134
0.000573388792818791
0.00051615983047078
0.000455825463478468
0.000392829569828798
0.000327120059638904
0.000258114205761311
0.000184575977632526
0.000102705534047798
1.50161744083667e-05
0.000764363432377855
0.000730681328734882
0.0006911746961884
0.000646046418969802
0.000595990143475981
0.000541951492282473
0.000484779494997749
0.000425101632330697
0.000363302596150469
0.000299425603987797
0.000233122232991132
0.000163570469084513
8.78850799428045e-05
1.13298883786249e-05
0.000766683700905772
0.000736383509088364
0.000700320414534959
0.000658654476722427
0.000612027518773098
0.00056133211436859
0.000507387271020639
0.000450847405238428
0.000392254849769143
0.000332027464773657
0.000270334114945122
0.000207063910208418
0.000141830032301235
7.27681574992864e-05
7.97415041561342e-06
0.000761325516655526
0.000734403593496655
0.000701920384750283
0.00066395190781191
0.000621038112674567
0.000573975136928715
0.000523510022821694
0.000470263065623095
0.000414797459261057
0.000357664346944949
0.000299347731316326
0.000240144323929149
0.00018018085148263
0.000119535847912671
5.74688771308074e-05
5.00643910114725e-06
4.84539756406807e-05
0.000200192161868224
4.92392748259169e-05
0.000310303114670537
0.00019921118148227
5.03175397904996e-05
0.000395012671249256
0.000307791415693827
0.000197811759251972
5.01595919948673e-05
0.000465441989098472
0.000391176214656671
0.000303708357745872
0.000194549417139428
4.81491646095266e-05
0.000526099819691868
0.000460128811000002
0.000384922511806056
0.00029727101581673
0.000188575560930528
4.48054647539148e-05
0.000579110940691829
0.000519121322830516
0.000451779172640442
0.000375708879476132
0.000287951935190663
0.000180177144181855
4.08927607229304e-05
0.000625638474338786
0.000570386914802829
0.000508600764337726
0.000439937479874847
0.000363298449657309
0.000275920762939113
0.000170102468062557
3.67887674833042e-05
0.000666377385992646
0.000615126855120783
0.000557681532230203
0.00049417031482439
0.00042456534666148
0.000347935833003915
0.000261691525755975
0.000158873519861265
3.25702924616677e-05
0.000701697916121089
0.000653988092568119
0.000600247248358276
0.000540717309763519
0.000475929611948121
0.000406021506031255
0.000330063438021933
0.000245688812359412
0.00014670536880797
2.82627637341104e-05
0.000731705922705831
0.000687268877974013
0.000636882176823076
0.000580785197424077
0.0005196903682085
0.000454327997844662
0.000384755169650003
0.000310049789123983
0.000228170395214192
0.000133687848537806
2.39262354598655e-05
0.000756294841417746
0.000715007583414426
0.000667793303103487
0.00061487947415297
0.000557006796653024
0.000495119423921223
0.000429843436573069
0.000361125799185057
0.000288166983964982
0.000209313300058313
0.000119901274085183
1.96595817002546e-05
0.000775192277929318
0.000737032899903468
0.000692933038879165
0.000643112940885035
0.000588304634678045
0.00052949624943884
0.000467525827412695
0.000402852097126648
0.000335424478799774
0.000264650693234641
0.00018928172501233
0.000105478778783201
1.55980017126847e-05
0.00078799722077127
0.000753003076508633
0.000712051690757792
0.000665351204453677
0.000613613335250864
0.000557814781551006
0.000498835044583298
0.00043732278921413
0.000373673556078124
0.000307930036203032
0.000239735408470403
0.000168259477057137
9.05810689454941e-05
1.18344037736169e-05
0.000794216267961784
0.000762443531684204
0.000724732333994997
0.000681267042303917
0.000632723000443485
0.000580037648113678
0.000524068813310985
0.000465496173193362
0.000404876448571255
0.00034263389229237
0.000278935101923253
0.00021366233969598
0.000146426261561476
7.53396587927478e-05
8.40717566335031e-06
0.000793317325452118
0.000764792008000463
0.000730437441623024
0.000690385205777959
0.000645250827534902
0.000595902000532734
0.000543138202698114
0.000487609919321906
0.000429895274792863
0.000370552189921677
0.000310065904791646
0.000248728395806751
0.000186660400063135
0.00012394532319897
5.98443404176449e-05
5.3380450403249e-06
0.000784747722596145
0.0007594760656164
0.000728541519808921
0.000692099454696684
0.000650659742595722
0.000604970528796395
0.000555732274639078
0.000503529106656535
0.000448908038188375
0.000392441047610914
0.000334722000932462
0.000276300206102242
0.000217586752191771
0.000158942115798346
0.00010096759874701
4.41750384417732e-05
2.79441608631507e-06
4.88256318769266e-05
0.000201383827692176
4.97066502810032e-05
0.000312315790876442
0.000200637750322305
5.08878162171863e-05
0.000397937751123794
0.000310145279960707
0.000199469263783371
5.08207574856886e-05
0.00046940057006227
0.000394546607492214
0.000306399085396663
0.000196423573721914
4.88757950298705e-05
0.000531223982792539
0.000464636353319424
0.000388733666022086
0.000300283887812642
0.00019063908257583
4.55705607517522e-05
0.000585540960445659
0.000524900347323266
0.000456831517123039
0.000379944606709588
0.000291260009455611
0.000182396516892706
4.16747431382993e-05
0.000633525516957766
0.00057758419400843
0.000515031396241086
0.000445516905093678
0.000367930286273616
0.000279489251284559
0.000172445910045916
3.75714243861167e-05
0.000675888801047877
0.000623904553627739
0.00056564484800044
0.000501234082625131
0.000430641424008566
0.000352927645455537
0.000265484496337636
0.000161311307776614
3.33377033919987e-05
0.00071302456535786
0.000664529624843237
0.000609918614386611
0.000549428612550977
0.000483594028875517
0.000412555071467521
0.000335374712376206
0.000249668701132357
0.000149207638108362
2.89991826869039e-05
0.000745071324255824
0.000699787423647481
0.000648463957190838
0.000591333926813892
0.000529115071240501
0.000462549644655394
0.000391699704141313
0.000315634998609088
0.000232297760745549
0.000136227351880467
2.46200535427907e-05
0.000771966349830013
0.000729756890826943
0.000681524034005072
0.000627488010481552
0.000568395666859221
0.000505208390576879
0.000438568031257537
0.000368425648721105
0.000293973724256389
0.000213545852639759
0.000122453591769941
2.02907927235165e-05
0.000793494312356385
0.000754320341474245
0.000709099285287412
0.000658045254291648
0.000601898258970369
0.000541667671522083
0.000478214306652212
0.000412011661257081
0.00034301214310984
0.000270617147335004
0.000193568612191512
0.000107993617506819
1.61377112699232e-05
0.000809323068523744
0.000773203445017325
0.000731001625255105
0.000682924347354517
0.000629696443858255
0.000572321988533851
0.000511708850585561
0.000448526856740356
0.000383183595865537
0.0003157240744775
0.000245785445459463
0.000172531496835602
9.30186281219185e-05
1.22863436949765e-05
0.000819031298539104
0.000786007413103583
0.000746888100594483
0.000701863633077909
0.000651634932846049
0.000597177256466575
0.00053938458544461
0.000478962520580412
0.000416484589601475
0.000352385579791044
0.000286833197742149
0.000219705986363272
0.000150615260659254
7.76549755356785e-05
8.78054073621942e-06
0.000822142862349544
0.00079224234523521
0.000756293567267981
0.000714453662798809
0.0006673870659354
0.000616017274655767
0.000561191726038
0.000503592821236188
0.000443817864367273
0.000382436542236845
0.000319940659216391
0.000256622468116609
0.000192601777462406
0.000127970576597557
6.19906650019426e-05
5.63331924486945e-06
0.000818170753411324
0.000791378881969291
0.000758670526085429
0.000720178851844421
0.000676499507568034
0.000628475266265182
0.00057687628664161
0.00052232778671797
0.000465398295555755
0.00040667056014596
0.000346743933192436
0.000286169831212908
0.000225358094905506
0.000164670711901757
0.000104728667218552
4.60761870376862e-05
2.99873091933383e-06
0.000746973916169947
0.000806640426951895
0.000782859952418826
0.000753468002756481
0.000718455743738053
0.000678410709340858
0.000634052630644949
0.000586029093536394
0.000534872876288143
0.000481092231651414
0.000425239233883246
0.000367918024273539
0.000309761711534913
0.000251374518406031
0.00019327491256268
0.000136091426566961
8.10700164583126e-05
3.00628612487367e-05
1.09772456348004e-06
4.91183462476664e-05
0.000202345249820954
5.00861301071212e-05
0.000313990457542284
0.000201829273012438
5.13673580643937e-05
0.000400424324690627
0.00031215527481167
0.000200892951626985
5.13943894902478e-05
0.000472820604167072
0.000397466812654954
0.000308740339293437
0.000198065592792883
4.95194296149127e-05
0.000535706544047643
0.000468586804694859
0.000392082485717131
0.00030294197113088
0.000192472477453873
4.62583323065414e-05
0.000591220649856598
0.00053001159206723
0.000461307438182859
0.000383705917853707
0.000294208710023531
0.000184388634780647
4.23852017445618e-05
0.000640544710537521
0.000583996025319148
0.000520766872752996
0.000450500495302716
0.000372076236052406
0.00028269452545634
0.000174564139512544
3.82875590776125e-05
0.000684401903382259
0.000631768423769425
0.000572785896715245
0.000507575045552747
0.000436102680683998
0.000357422266671158
0.000268909665748611
0.000163525164708697
3.4043096865704e-05
0.00072320375384158
0.000674013210598268
0.000618627723349555
0.00055728039036095
0.000490508685998461
0.000418455609859139
0.000340177789436974
0.000253275862375217
0.000151486013529695
2.96775912000066e-05
0.000757113911553222
0.000711081503242166
0.000658924897826312
0.000600871622150023
0.00053764443640819
0.000469996517603716
0.000397994630230228
0.000320701657190022
0.000236046264017181
0.000138538660913387
2.52574641801668e-05
0.000786104106885288
0.000743084422340707
0.00069394963571092
0.000638913281310668
0.000578727754687246
0.000514370051225412
0.000446496487187586
0.000375062268253878
0.000299253245716089
0.000217392570414229
0.000124770298939618
2.08743629885489e-05
0.000810004855756486
0.000769947760046289
0.000723741900590675
0.000671594586311852
0.000614252390652789
0.000552743726324959
0.000487950255753677
0.000420359593261432
0.000349927842787565
0.000276051461650447
0.000197466421990292
0.000110283893097104
1.66450295293221e-05
0.000828542387739922
0.000791453781059831
0.000748165720207122
0.000698880036290403
0.000644331096756277
0.00058554660955212
0.000523460485716297
0.000458763051228846
0.000391874706105673
0.000322844459782955
0.000251306980355031
0.000176421626155182
9.52175335846457e-05
1.26978092404323e-05
0.0008413622992397
0.000807271932626409
0.000766943137987583
0.000720565981355592
0.000668857817418591
0.000612825305526213
0.000553395168772722
0.000491298734122524
0.000427127792309269
0.000361327657194296
0.000294069642204866
0.000225230153035998
0.000154425796788203
7.9740399487269e-05
9.1113603493783e-06
0.000848052298775318
0.000816983951800368
0.000779681041245786
0.000736310969053995
0.000687565025788052
0.000634412498831366
0.000577744122942938
0.000518273882995164
0.000456620227539802
0.000393367220815766
0.00032901790034656
0.000263867698253787
0.000198038301639333
0.000131631502565934
6.39099635445314e-05
5.89156391019661e-06
0.000848177069491221
0.000820117203483697
0.000785901488563389
0.000745665438800999
0.00070005679535061
0.000649988320320322
0.000596290819236884
0.000539629480582796
0.000480597759808639
0.000419793992518492
0.000357828134568787
0.000295258954346589
0.000232499626550983
0.000169918027788897
0.000108156388494058
4.77864387567368e-05
3.1821945936448e-06
0.000841332341502782
0.000816186687801231
0.000785092309089391
0.000748110269038615
0.000705845479335777
0.000659124966831661
0.000608687135455635
0.000555121300504854
0.000498966776735435
0.000440791874950021
0.000381209139309464
0.000320856726142282
0.000260342443947044
0.000200187642364846
0.000141031038915489
8.41545708206922e-05
3.15074743346954e-05
1.18992685762783e-06
0.000767241547832205
0.000745238996477094
0.000827249234301828
0.000804716510034808
0.000776716777843196
0.000743133922948207
0.000704401302976564
0.000661309942366211
0.000614474322921817
0.000564368871216153
0.000511448269200152
0.000456224652315755
0.000399277966763591
0.000341239523332792
0.00028276870057568
0.000224510032242659
0.000167104390383145
0.000111564341102388
5.99202410150854e-05
1.58016164994061e-05
2.21471375582234e-07
0.000203094624525682
5.03850877533917e-05
0.000315333417181015
0.000202790393586193
5.1755511807784e-05
0.000402483098839864
0.000313827188101085
0.000202081700799389
5.18765564070718e-05
0.000475718848745157
0.000399949210408187
0.000310739255996784
0.000199474683084471
5.00777931954361e-05
0.000539571389539951
0.000471999819448711
0.000394983913954144
0.000305254759452713
0.000194077897390553
4.68678684248113e-05
0.000596182309096794
0.00053448289418079
0.000465230141153612
0.000387010883393677
0.000296810318275657
0.000186159077065326
4.30245117577414e-05
0.000646738270388942
0.000589659715762359
0.000525839555561636
0.000454915459036595
0.00037575787440557
0.000285552029682913
0.000176466087154371
3.8938461967029e-05
0.000691971289480919
0.000638767083078034
0.00057914754197098
0.000513230429948925
0.000440980674799699
0.000361445419938416
0.000271986263963829
0.000165526835292547
3.46890473797424e-05
0.000732306094364962
0.000682501539043469
0.000626429954839567
0.000564321185184934
0.000496715657403705
0.000423759004623907
0.000344502381583949
0.000256533239741426
0.000153555410350769
3.03013226901546e-05
0.000767924959648466
0.000721231653570427
0.000668335710189804
0.00060946002873902
0.000545332064956299