/*--------------------------------*- C++ -*----------------------------------*\
  =========                 |
  \\      /  F ield         | OpenFOAM: The Open Source CFD Toolbox
   \\    /   O peration     | Website:  https://openfoam.org
    \\  /    A nd           | Version:  12
     \\/     M anipulation  |
\*---------------------------------------------------------------------------*/
/*   Windows 32 and 64 bit porting by blueCAPE: http://www.bluecape.com.pt   *\
|  Based on Windows porting (2.0.x v4) by Symscape: http://www.symscape.com   |
\*---------------------------------------------------------------------------*/
FoamFile
{
    format      ascii;
    class       volScalarField;
    location    "400";
    object      nut;
}
// * * * * * * * * * * * * * * * * * * * * * * * * * * * * * * * * * * * * * //

dimensions      [0 2 -1 0 0 0 0];

internalField   nonuniform List<scalar> 
10123
(
1.24966213651557e-05
1.32576469749248e-05
0.000226309234163803
1.32776508671104e-05
1.39553588910188e-05
0.000233265795661654
1.40911708017842e-05
0.000648938417128638
0.000232153821084405
1.43062326762131e-05
1.45960748011191e-05
0.000239505232150222
1.48347032205582e-05
0.000664822913448279
0.000239264425235754
1.5185037933258e-05
0.00114370192965912
0.000656515897239609
0.000239548735717672
1.49210669542916e-05
1.51883602104335e-05
0.000245115735155932
1.55155454551753e-05
0.000678953352763782
0.000245635953565104
1.59873958549066e-05
0.00117021906942593
0.000672551996705916
0.000246862456282377
1.58396856609065e-05
0.00163808129674588
0.00114931906168901
0.000665403409183809
0.000243997995543707
1.4728530991392e-05
1.57551837701151e-05
0.000250167453858531
1.61447248481018e-05
0.000691539684352972
0.000251359970461448
1.67195329806575e-05
0.0011937208769724
0.000686812295696612
0.000253412703267321
1.66777333170908e-05
0.00167666408678356
0.00117594467435103
0.000681638484798808
0.000251439675040495
1.56384605901235e-05
0.00209878461847274
0.00164014080535728
0.00115401815388102
0.000669897245818967
0.000242839724591091
1.39415090668811e-05
1.62837761332166e-05
0.000254559100847089
1.67485672919521e-05
0.000702707301472304
0.000256512412623718
1.73957140024687e-05
0.00121455183164792
0.000699508554099851
0.00025929186335694
1.74407288610146e-05
0.00171081996589407
0.00119953973883472
0.00069607439896427
0.000258103112081726
1.64683650508942e-05
0.00215063661280938
0.00167875482285003
0.00118075437796895
0.000686240135198128
0.00025025823219817
1.48062121517748e-05
0.00251250044084364
0.00209717175723703
0.00163830309239831
0.00115317851877628
0.000666170887237389
0.000236986456497629
1.29341947189169e-05
1.67727199095738e-05
0.000258459206370383
1.73099665460517e-05
0.000712436999575174
0.000260981957618456
1.80452808862753e-05
0.00123295309393567
0.000710768819166389
0.000264577779756834
1.81458255258699e-05
0.00174102118903619
0.00122045014164641
0.000708923735505938
0.000264080120856837
1.72236450422316e-05
0.00219654140340817
0.00171293458054613
0.00120445126001647
0.000700774004058673
0.000256901167575561
1.55946113472019e-05
0.00257870921116262
0.00214894797926911
0.0016768767511868
0.00117989311744826
0.000682428283839938
0.000244247012398664
1.37382648365531e-05
0.00287596509793736
0.00250826243680073
0.0020886847622273
0.00162928318072217
0.00114340682578018
0.000654673486508268
0.000228657135343829
1.18743388951396e-05
1.72248409422258e-05
0.000262009032077597
1.78287321645743e-05
0.000721082542287009
0.000264972589350728
1.86477966831546e-05
0.00124911793520402
0.000720589791619863
0.000269155767651627
1.88220337495603e-05
0.00176764845023381
0.00123892034827044
0.000720317062652881
0.000269440864732161
1.79212572888012e-05
0.0022370671044437
0.00174315472245168
0.00122545216474606
0.000713709787994815
0.000262858260416051
1.63112374410584e-05
0.00263735551088764
0.00219477997329367
0.00171102862306183
0.00120358040262161
0.000696890690252285
0.000250749527167921
1.44719413352462e-05
0.00295759896732406
0.0025742803149371
0.00214021539828102
0.00166760816917772
0.00116986281627324
0.000670645852938839
0.000235680415252732
1.26141101207323e-05
0.00319061997822861
0.00287031782150439
0.00249454664926352
0.002071117504186
0.00161075683123872
0.00112452873236069
0.000637835282447208
0.000219097448323392
1.07688446480903e-05
1.76423167818807e-05
0.000265261438472145
1.83087050647159e-05
0.000728873674064622
0.000268604502037566
1.92042753759099e-05
0.00126344733807706
0.000729323315600729
0.000273260408029052
1.94488701381026e-05
0.00179106866752456
0.00125515078247487
0.000730257956847878
0.000274092562068645
1.85886014314852e-05
0.00227272107620542
0.00176979883330335
0.0012440048979021
0.000725174720147596
0.000268191931715822
1.69738187683874e-05
0.00268905774158499
0.00223523934229065
0.00174122752818877
0.00122457679930453
0.000709764029504377
0.00025657912500975
1.51377676532811e-05
0.00302995981346896
0.00263274972387404
0.00218584162967198
0.00170155721005104
0.00119333281237781
0.000684860598698879
0.000241971525651434
1.3287728087111e-05
0.00328877103823338
0.00295164979060399
0.00256007997313093
0.00212208924909687
0.00164852801705164
0.00115046877971203
0.00065337249696541
0.000225839367557174
1.14403167916509e-05
0.00345965993439936
0.00318432768660324
0.0028531437013756
0.00246975758601658
0.00204307499387969
0.00158234746872117
0.00109807389873037
0.000617297526086025
0.000208474353506509
9.60036388912549e-06
1.80265673492241e-05
0.000268245837374241
1.87515465158916e-05
0.000735944854297165
0.000271930271555018
1.97187840079355e-05
0.00127625207310035
0.000737191335361934
0.000276995299463637
2.00276230495713e-05
0.00181175385339846
0.00126953871632409
0.000739101391336135
0.000278263453978524
1.92070328084048e-05
0.00230401727546273
0.00179323407176244
0.00126030695262878
0.000735179643391931
0.000272821458920856
1.76059461093467e-05
0.00273442728056928
0.00227083607634935
0.00176785734630615
0.00124312774959026
0.000721168471015635
0.000261789203274827
1.5753234408941e-05
0.00309366743621776
0.00268429476121228
0.00222612717146441
0.00173158662902991
0.00121414309386419
0.000697515481794527
0.000247610125263574
1.38986245713723e-05
0.00337584155272316
0.00302373409843017
0.0026181371096655
0.00216724624663883
0.00168200688672361
0.00117349361742388
0.00066720617125615
0.000231878204558383
1.20511500743854e-05
0.00357542792913096
0.00328206599934701
0.00293373048034613
0.0025343582069714
0.00209308632196503
0.00161923907199267
0.00112327683181188
0.000632290934228632
0.000214898368061311
1.01993471538051e-05
0.00368682825660136
0.00345306796893258
0.00316500195807828
0.00282293134854552
0.0024330012774524
0.00200418398875895
0.00154463843981386
0.00106516851134452
0.000593466478063954
0.00019660109932165
8.37432919717727e-06
1.83781345875226e-05
0.000270980934926923
1.91592323677455e-05
0.000742382269345584
0.000274980410941578
2.01932219638963e-05
0.00128775915690959
0.000744328901491633
0.000280411639607009
2.05620899983746e-05
0.00183010919379247
0.00128239297805773
0.000747063880385177
0.000282055256733842
1.97776892810761e-05
0.00233153406314841
0.0018139316282915
0.0012747557021007
0.000744075725832019
0.000276968383292338
1.81910288574587e-05
0.00277411452635309
0.00230208163499964
0.00179127773658979
0.00125942512313454
0.000731115816655671
0.000266315827097703
1.63393265904447e-05
0.00314941086313902
0.00272952906306175
0.00226157916834024
0.0017580742033788
0.00123253082115635
0.000708720979987756
0.000252643250615331
1.44634450574848e-05
0.00345240110704733
0.00308719833467322
0.00266933359301025
0.00220713569816432
0.00171163448190509
0.00119391698777397
0.000679524292466132
0.000237289071717191
1.26038489751101e-05
0.00367820962764565
0.00336876097932547
0.00300517846818703
0.00259162473435092
0.00213742211367241
0.00165195825224327
0.0011456596972289
0.000645645935750019
0.000220651676900719
1.07435751678296e-05
0.00382125410026269
0.0035683024450109
0.00326170600567989
0.00290215566497873
0.00249613779584136
0.00205282071824014
0.00158035375932176
0.00108945162484486
0.0006078252307817
0.000202669039388044
8.89772411645263e-06
0.00387617530457371
0.00368008223312867
0.00343238023925631
0.00313087213702791
0.0027788942966768
0.0023839347391428
0.00195434887752921
0.00149793798912301
0.00102603505042206
0.000566134446459546
0.000183314148935452
7.11274183740457e-06
1.86970257113507e-05
0.000273477893301429
1.95316065562689e-05
0.000748243255512872
0.00027777492247524
2.0629801245218e-05
0.00129813305786394
0.000750824760133108
0.000283541809693277
2.10548099968505e-05
0.00184646365148877
0.0012939417243877
0.000754281246219453
0.000285520727205156
2.03044928169168e-05
0.00235579462986394
0.00183229614513563
0.00128765822289534
0.000752079813724953
0.000280735073735902
1.8730682523048e-05
0.00280883234542937
0.00232955405446648
0.00181195928125494
0.00127386247200729
0.000739952643421293
0.000270359413836084
1.68812127354356e-05
0.00319797274094223
0.0027690995597684
0.00229269902985635
0.00178136851990228
0.00124867941059007
0.000718489285610737
0.000257014192337227
1.50002213625957e-05
0.00351918760784936
0.0031427339759836
0.00271427739440981
0.00224225406721768
0.0017377764786808
0.00121196445133125
0.000690428331299453
0.000242113627127207
1.31145065216317e-05
0.0037684758163412
0.00344499243085419
0.00306810722067486
0.00264215404123585
0.00217661069426329
0.00168092948034986
0.00116552232601802
0.000657540280839641
0.000225804125655683
1.12346146827576e-05
0.00394068863096873
0.00367060136519622
0.00334751644372356
0.00297244342729622
0.00255214663897095
0.00209596583602714
0.00161204817250333
0.00111102907237823
0.000620618964869757
0.000208101780888009
9.37209988929302e-06
0.00403014771033378
0.0038138369363151
0.00354624911181823
0.00322571939395849
0.00285605740702646
0.00244507661183566
0.0020012277228484
0.00153221595784378
0.00104923862966601
0.000579772409678173
0.000188987380163429
7.55890536574845e-06
0.00403213195187905
0.00386936727661752
0.0036585335316571
0.00339544779196481
0.00308100913798534
0.00272068830657287
0.00232208089092568
0.00189312745027417
0.00144192791459885
0.000980270621825355
0.000534898095515767
0.00016851489775858
5.84732058447378e-06
1.8983025964135e-05
0.000275739026367294
1.98694124726732e-05
0.000753557409783801
0.000280321175993138
2.10284236126571e-05
0.00130749008865426
0.000756736265461657
0.000286407874972781
2.15077950285749e-05
0.00186107434981264
0.0013043513988623
0.000760845277906925
0.000288692932264655
2.07900094872901e-05
0.00237724676570039
0.00184865710915436
0.00129924438491236
0.000759329427446286
0.000284175164144844
1.92287077428952e-05
0.00283924714335549
0.00235377523821826
0.00183030455703532
0.00128674838175894
0.000747897254342487
0.000274029495314101
1.73805481949791e-05
0.00324022218575374
0.00280371723417668
0.00232006097711805
0.00180193373043065
0.00126297728501326
0.00072715524238491
0.000260912062016551
1.54960295883452e-05
0.0035771146720251
0.00319111946285197
0.00275360251344017
0.00227308723103413
0.00176076749963325
0.00122780863240997
0.00069992867817285
0.000246305427970532
1.35990992054701e-05
0.00384697785489885
0.00351150080759071
0.00312320009949216
0.00268653898708147
0.00221113180679853
0.0017065030287552
0.00118307831653266
0.000668069747170962
0.000230394014299273
1.16866055332737e-05
0.00404546488690289
0.0037604487737208
0.0034230072708403
0.00303439557553002
0.00260160441604306
0.00213412872190605
0.00164012879913175
0.00113018616263569
0.000632015398310818
0.000212964033907457
9.79827363622183e-06
0.00416702031718325
0.00393266664194121
0.00364737800690102
0.00330994322443712
0.00292456834675392
0.0024993523336985
0.0020428381214284
0.00156265157373144
0.00106986648497066
0.000591925999085303
0.000194063007315702
7.96187427975401e-06
0.0042062875316405
0.00402251158934697
0.00379053968658155
0.00350688795527552
0.00317309766016178
0.00279511229098708
0.00238074089550197
0.00193790276754818
0.0014745337104685
0.00100224646274235
0.000547730796489174
0.000173756463745906
6.21616543920072e-06
0.00415956141296674
0.00402535167035939
0.00384734784547187
0.00361966871948921
0.00334107484154386
0.00301500907334948
0.00264765550998024
0.00224645598248038
0.00181956216846805
0.0013757243802855
0.000927056354262035
0.000499236742199894
0.00015213136962186
4.61184115697506e-06
1.92364051470888e-05
0.000277763477920766
2.01725040854203e-05
0.000758349290486164
0.000282624704177032
2.13899268418379e-05
0.00131590981860567
0.000762096026502322
0.000289017040371764
2.19219772219757e-05
0.00187413582022163
0.00131373928327373
0.00076681620395881
0.000291595020498856
2.12361659956625e-05
0.00239625619741239
0.00186327242710467
0.00130968323949638
0.000765917634773079
0.000287321804112866
1.96876905387025e-05
0.00286594766078752
0.00237519199887706
0.00184664361244533
0.001298313500256
0.000755088707216682
0.000277379994084173
1.78412039691251e-05
0.00327699615940989
0.00283404605628196
0.00234418265251061
0.00182017118833371
0.00127573239240187
0.00073493968067639
0.000264445285237537
1.59524158427453e-05
0.00362722689356774
0.00323322041561344
0.00278801120203523
0.00230019870869115
0.00178106237051194
0.00124182878770522
0.000708344233405278
0.000250032833839616
1.40467202656535e-05
0.00391476604046054
0.00356919521599812
0.003171219109306
0.00272539277117277
0.00224145179223226
0.00172899673031099
0.0011984864444182
0.000677244310016841
0.000234386929559732
1.21154412166303e-05
0.00413631289469085
0.00383859668296152
0.00348890835067581
0.00308867616495506
0.00264508256244257
0.00216776926254844
0.00166492932857401
0.00114712688272847
0.000642109515403887
0.000217295318042062
1.01876031679176e-05
0.00428695857838352
0.00403691947379406
0.0037362501854335
0.00338410208591246
0.00298500934511137
0.00254731970348905
0.00207967048010784
0.0015896340503017
0.00108818935076541
0.000602753474383028
0.00019860098792764
8.3214266497999e-06
0.00436112426702585
0.00415864099448223
0.00390786706400054
0.00360593439622734
0.00325493579657774
0.00286123599950906
0.00243284385996268
0.00197766743279766
0.00150349893481538
0.00102178938057743
0.000559165258967825
0.000178439623422446
6.54795037543357e-06
0.00435419506632644
0.00419850455752743
0.00399830832489339
0.00374858941990069
0.00344894978586695
0.00310348573129491
0.00271872949212592
0.00230219454072161
0.0018619193455805
0.00140644016912037
0.000947661254840253
0.000511179190991589
0.000156905932030743
4.90588632700424e-06
0.00426370890649296
0.00415289752947754
0.00400320924025863
0.00380729737244731
0.00356198126555038
0.00326872847241112
0.00293210821965926
0.00255846558856293
0.00215553830141786
0.00173217421085274
0.00129790212819492
0.000865148125972348
0.000458408372583739
0.000134019184027398
3.42373042705082e-06
1.94565877302116e-05
0.000279558959441109
2.04410335289529e-05
0.000762636427223297
0.000284689581738836
2.171430102936e-05
0.00132344746034985
0.000766927554765676
0.000291376207967328
2.22972882024653e-05
0.00188579132433426
0.00132218549641166
0.000772227841833627
0.000294237722680677
2.16440247184082e-05
0.00241311212337736
0.00187633717929502
0.0013190945041016
0.000771907158445891
0.000290197708235139
2.01093215902425e-05
0.00288942988498502
0.00239416998436881
0.00186123542720265
0.00130872790070203
0.000761619143626505
0.000280443104804081
1.82658254528415e-05
0.00330905101045312
0.0028606724963887
0.00236550863140739
0.00183640918032734
0.00128717524955618
0.000741982836314729
0.00026766811263246
1.63733208719308e-05
0.00367055849440085
0.00326986933612824
0.00281815958003875
0.00232409927731239
0.00179905694862917
0.00125433051298064
0.000715895829536376
0.000253406316551404
1.44582932234892e-05
0.00397307631225129
0.00361911467728103
0.00321301547383513
0.00275940082188796
0.00226811846503547
0.00174885222912389
0.00121211251739761
0.000685355239278937
0.000237926388963125
1.25124744045608e-05
0.00421442858130469
0.00390609276593001
0.00354610879586018
0.003136020688207
0.00268316834172666
0.00219733111071295
0.00168674755450244
0.00116199393006878
0.000650912951920718
0.000221063997490203
1.05576751654681e-05
0.00439067704553152
0.00412732885263929
0.00381360215180231
0.00344890191966314
0.00303801802713974
0.0025895256797825
0.00211216329993351
0.00161348105200409
0.00110440627600478
0.000612356864219658
0.000202649215624488
8.64803872422583e-06
0.00449663881121046
0.00427793763267309
0.00401086821789656
0.00369306241615093
0.00332706956095823
0.00291962673340135
0.00247892998792873
0.00201289244967315
0.00152919455057934
0.0010391556027428
0.000569350597935851
0.000182618020835365
6.84154524612071e-06
0.00452716233429639
0.00435244524533565
0.0041325557051543
0.00386326104334498
0.00354490282052755
0.00318216671293514
0.00278191201619982
0.00235172741362106
0.00189955443756594
0.00143373721517789
0.0009659872724077
0.000521816115636329
0.000161163557593862
5.16891548494633e-06
0.00447869777589971
0.00434633984700674
0.00417369809312909
0.00395443359372776
0.00368641903136478
0.00337198764183825
0.00301622116291572
0.00262564581506137
0.00220795631369989
0.00177182200625764
0.00132651902155861
0.00088423770811039
0.000469372632937019
0.000138292519704589
3.64750803613735e-06
0.00435004784668821
0.00425723258762089
0.00413093480800686
0.00396263720087692
0.00374739447869497
0.00348474514262622
0.0031775332636963
0.00283074372056745
0.0024511644776259
0.00204729874700728
0.00162890501018373
0.00120639037336393
0.000792674492715108
0.000411162721075254
0.000113721627169472
2.28895162044223e-06
1.96421192779803e-05
0.000281115865381682
2.06742283901628e-05
0.000766417679080841
0.000286517861282633
2.20016053566421e-05
0.00133014136345974
0.000771246770466881
0.000293491373714473
2.26340903777191e-05
0.00189614525349739
0.00132974624137108
0.000777104290694059
0.000296626846930516
2.20138769706855e-05
0.00242803612334702
0.00188799505673059
0.00132755958478254
0.000777335258400846
0.000292817441696362
2.04947186765018e-05
0.00291009539756969
0.00241099793756839
0.00187427627437873
0.00131811358223307
0.000767552846106477
0.000283240424942703
1.8656060004695e-05
0.0033370376575242
0.00288409063530303
0.00238440346673554
0.0018509062029827
0.00129747481210452
0.000748376261060946
0.000270614355983447
1.67613650652294e-05
0.00370806333707477
0.00330181888816733
0.00284462810259361
0.00234522778345574
0.00181507553361503
0.00126554279391157
0.000722724641128372
0.0002564817178056
1.48375166069106e-05
0.00402316506630881
0.00366228689974711
0.00324940857226916
0.00278920514875408
0.00229163032290711
0.00176645655691038
0.00122425734836096
0.000692623266369957
0.000241122824917734
1.28771267493614e-05
0.00428124902410658
0.00396416410618079
0.00359562663565523
0.00317725543259281
0.00271652344791924
0.00222334193297652
0.00170600825762783
0.00117513276511175
0.000658678252698625
0.000224397477285373
1.09013615823397e-05
0.004479496439537
0.00420508532311663
0.00388046087453836
0.00350520034326119
0.0030842978709778
0.00262652855717158
0.00214073458859327
0.0016344672165391
0.00111864330377516
0.000620741697408632
0.000206159586983149
8.95602289481979e-06
0.00461353969716014
0.00438112099085809
0.0041002644342838
0.0037689771095015
0.00339016988692008
0.00297089149539378
0.00251951956218706
0.0020439943489706
0.00155192456372006
0.00105454383399882
0.000578400068326509
0.00018634571724393
7.10662310371329e-06
0.00467831964754996
0.00448718777735755
0.00425028394280152
0.00396403590474449
0.00362940600401357
0.00325159336121816
0.00283775971558442
0.00239557737208812
0.00193291845512106
0.00145796772248193
0.000982275470301663
0.000531281692218227
0.000164949935031503
5.39908376018357e-06
0.00466949223675107
0.00451824901438463
0.00432533678202173
0.00408537791382744
0.00379718834682391
0.00346389305709784
0.00309105921545183
0.00268539335201791
0.00225455809422987
0.00180706373095112
0.00135195693751123
0.000901213955516373
0.000479130727390408
0.000142093599913796
3.84558004662682e-06
0.00458482439211154
0.00447083366263409
0.00432120099367541
0.00412849306290173
0.00388902583582862
0.0036034354980823
0.00327527149173807
0.00290983684128244
0.00251396388249994
0.00209603050884554
0.00166556706325278
0.00123269881131358
0.000810094068012254
0.000421052447617815
0.000117456514717766
2.44056570673115e-06
0.00442445052227465
0.00434378689343059
0.0042356756595775
0.00409040633026137
0.0039015097483678
0.00366667006249765
0.00338693406832537
0.0030657375688557
0.00270864213237069
0.0023232866030844
0.00191914915180839
0.00150698436906077
0.00109824123641038
0.000706729724936028
0.000355242078914577
9.02163016194411e-05
1.26095667320528e-06
1.97927294296658e-05
0.000282415108248862
2.08703351346786e-05
0.000769694183645248
0.000288099596043378
2.22509970739799e-05
0.00133601412559395
0.000775058726368525
0.000295362535564982
2.29324410632751e-05
0.00190527057951069
0.00133646015410353
0.000781462631556834
0.00029877169616837
2.23460985542599e-05
0.00244119391873617
0.0018983503629613
0.00133513582882275
0.000782226556929603
0.000295190026302035
2.08447087067018e-05
0.0029282590319841
0.00242589711850395
0.00188591075958293
0.00132655428905004
0.000772932120967745
0.000285789312593636
1.901280902058e-05
0.00336149054417988
0.00290470058568159
0.00240115540333969
0.0018638590756918
0.00130675405830971
0.000754182896717499
0.000273305594621178
1.71179817166862e-05
0.00374057283495272
0.00332971583001475
0.00286790658747352
0.00236394513225546
0.00182937359442013
0.0012756324913601
0.000728923018999401
0.000259292464977167
1.51871468611762e-05
0.00406621305186258
0.00369965956161109
0.00328114027602276
0.0028153748137054
0.00231241652113414
0.00178212723536006
0.00123514700269947
0.000699191519507226
0.000244032806498657
1.32126196559477e-05
0.00433827791255198
0.00401405864189728
0.00363846961611036
0.00321317699526547
0.00274576899289558
0.00224628339218804
0.00172308646552979
0.00118683673911049
0.00066562279398906
0.000227399530526328
1.12174530781173e-05
0.00455507078691461
0.00427161545907083
0.003938023683974
0.00355398033037322
0.00312464153814629
0.002658961085033
0.00216588824614563
0.00165299607981737
0.00113121671072433
0.000628123899198279
0.000209272259941892
9.24359711021366e-06
0.00471327219471805
0.00446950494939884
0.00417721741094501
0.00383467283714887
0.00344506080244377
0.00301570058415157
0.00255514028222189
0.0020713625516672
0.00157193804026995
0.00106806876243045
0.000586314174024144
0.000189575192250853
7.35253228411414e-06
0.00480841557765486
0.00460344699350705
0.0043522028832863
0.00405161077463263
0.0037031276973114
0.00331239249809619
0.00288684122074918
0.00243423620935413
0.00196240626290555
0.00147942565144924
0.000996726699855637
0.000539691190024621
0.000168322153815506
5.60526693780682e-06
0.00483593361792668
0.00466849503542871
0.00445815871361903
0.00420033484725177
0.00389464874930404
0.00354492048374854
0.00315716182947957
0.00273825580719008
0.00229584882018937
0.00183832919696698
0.00137454784702481
0.000916297676971389
0.000487800397959461
0.000145458412181114
4.01636263333297e-06
0.00479259447975213
0.00466040113792531
0.00449036162115569
0.00427612063227661
0.00401516620480791
0.00370915147013794
0.00336230041480295
0.00298023280568941
0.00256983395414587
0.00213936983379546
0.00169816427887272
0.00125608635196178
0.000825580618951818
0.000429846190844204
0.00012076667260982
2.5755648160333e-06
0.0046776484783309
0.00457698929521075
0.00444557472266265
0.00427517932699318
0.00406075018243323
0.00380130567686194
0.00349881100426711
0.00315718231512965
0.0027821397990352
0.00238126728329493
0.00196385407172197
0.00154038772659315
0.00112201701711617
0.000722301819540791
0.000363940938760084
9.33671020078631e-05
1.35315264928616e-06
0.00414415132665345
0.0044926222450511
0.00441842431408047
0.00432274216375843
0.00419561568066238
0.00402889686733518
0.00381857949048281
0.00356390202087719
0.00326661168436229
0.00293082022810742
0.00256301684040803
0.00217186328137265
0.00176784801945082
0.00136276443168458
0.000969310551886659
0.000602879889512529
0.000286986499502442
6.18828858323757e-05
4.79985912058478e-07
1.99114302747272e-05
0.000283468836660094
2.10297487134504e-05
0.000772455184912348
0.000289419194768784
2.2460576510448e-05
0.00134107429703533
0.000778359255313124
0.00029697922741028
2.31913271239283e-05
0.00191321610457745
0.00134234998036778
0.000785308672498425
0.00030066873052881
2.26403776272875e-05
0.00245270549382116
0.00190747670326012
0.00134186275988512
0.000786599073834695
0.000297319352787431
2.11593086025661e-05
0.00294416078797286
0.00243903290915298
0.00189624393376232
0.00133410822265899
0.00077778219392094
0.000288099031725631
1.93369449771631e-05
0.00338283496923864
0.00292281602891893
0.00241598554550989
0.00187541322346856
0.00131509937174439
0.000759447838438152
0.000275756660936885
1.7444286240872e-05
0.00376877863572145
0.0033540922344528
0.0028883924206202
0.00238053746543987
0.00184214665225165
0.00128472074685275
0.000734552380156948
0.000261859172349154
1.55085085651915e-05
0.00410326109391611
0.00373205863129302
0.00330884901779139
0.00283839126165043
0.0023308307176098
0.0017961142744635
0.00124494575328919
0.000705152305057864
0.000246691299512772
1.35217468855639e-05
0.00438694990467142
0.00405694810059973
0.0036755685157856
0.00324450826658412
0.00277145666566593
0.00226657078896209
0.00173829034427101
0.00119732802186669
0.000671891600211655
0.000230127591513409
1.15078400342621e-05
0.00461917151536518
0.00432841116544656
0.00398751040555295
0.00359621618875926
0.00315981395780871
0.00268741771779205
0.00218808518180694
0.00166942735416438
0.0011424079882857
0.000634710587169336
0.000212065341613273
9.50942193895097e-06
0.00479771652800982
0.00454473049726148
0.00424311612176286
0.00389129870960124
0.00349267865452107
0.00305480675667166
0.00258639193560815
0.00209547373391508
0.00158961178034133
0.00108000598162017
0.000593279692315209
0.000192448575541111
7.58369049531993e-06
0.00491902837567692
0.00470265985095519
0.0044395916522239
0.00412710085802486
0.00376702190711952
0.00336535981529585
0.00292979893774045
0.0024681994313642
0.00198837579873531
0.00149833488491528
0.0010094528644248
0.000547089950557334
0.000171252332243911
5.79298965123416e-06
0.00497886068446681
0.00479783646505463
0.00457287295725857
0.00429999423289094
0.00397946974973577
0.00361570784463778
0.0032151176444641
0.00278475894640492
0.0023322889036981
0.00186599376741959
0.00139457711716393
0.000929681503340757
0.00049549961933722
0.000148447878154015
4.16768509963186e-06
0.00497344979977378
0.00482579243026912
0.00463831092300293
0.0044055711925525
0.00412603975942985
0.0038022697992628
0.00343910480385443
0.00304246886385281
0.00261931023405017
0.002177801373776
0.00172710275919412
0.00127686022268162
0.000839330321283821
0.000437640052113244
0.000123669957011942
2.69363409103418e-06
0.00490089516055362
0.0047833683863144
0.00463193497042485
0.00443957531631104
0.0042025980863789
0.00392128451461332
0.00359849511666826
0.0032386269893932
0.00284756936306944
0.00243286263107948
0.00200362215119216
0.00157009279916185
0.00114315284217531
0.000736143896620944
0.00037166909188038
9.61377601499212e-05
1.43593932233053e-06
0.00476195348771692
0.00466984886329842
0.00455173358545347
0.00439913672781118
0.00420587624867025
0.00396947713084014
0.00369031121742191
0.00337078584863618
0.00301531004116361
0.00263041498424281
0.00222462869920538
0.00180819897641296
0.00139262333800742
0.000990295517130337
0.000616387887573398
0.000294350755975853
6.45477359650954e-05
5.20301879720119e-07
0.00419281126469808
0.00414023868179051
0.00455909211949192
0.00448680635815421
0.00439789666377988
0.00428338593263397
0.00413436781520678
0.0039448583659105
0.00371238944134079
0.00343695627730035
0.00312104564002361
0.00276975964280311
0.00239065398630504
0.00199340340971192
0.00158945686083184
0.0011916385312213
0.000814211956194699
0.000475557932407648
0.000202420102912898
3.0342189350498e-05
9.29896636912003e-08
0.000284348902574667
2.11552653538215e-05
0.000774704633794076
0.000290492885437442
2.26303737671584e-05
0.00134532220951888
0.000781137546708036
0.000298328758509361
2.3408946910481e-05
0.00192001210779435
0.00134742470729838
0.000788635816639098
0.000302299499258102
2.28956937416077e-05
0.0024626559404938
0.00191542339124038
0.00134776354255322
0.000790456617528333
0.000299194576680033
2.14381281493459e-05
0.00295797956295724
0.00245052558775422
0.0019053502020821
0.00134081552125675
0.000782118373251811
0.000290171402604997
1.96286035402578e-05
0.00340139878181596
0.00293867617870876
0.00242905931816016
0.00188567419634515
0.00132256925965334
0.00076419838002987
0.00027797818829391
1.77408208057981e-05
0.00379323448733717
0.00337537111518071
0.0029063976074337
0.00239522473353528
0.00185353996392966
0.00129289500019284
0.000739656055064996
0.000264197867845219
1.58028127618797e-05
0.00413518216828056
0.00376017146746189
0.00333306134123946
0.00285864613978146
0.00234715411964279
0.00180860925538752
0.00125377196680712
0.0007105661529189
0.000249120087722161
1.3805948065047e-05
0.00442854302234933
0.00409386581964174
0.00370773622337555
0.00327187302487411
0.00279405435004202
0.00228454679950136
0.00175186240965966
0.0012067677388763
0.00067757779346519
0.000232618297560042
1.17749606503276e-05
0.00467351201364874
0.00437689568679778
0.0040300683920357
0.00363281006237088
0.00319051072138731
0.00271242715276613
0.00220772314407933
0.00168405759715096
0.00115243421099012
0.00064064496259608
0.000214596854319226
9.7539262903075e-06
0.00486892736302635
0.00460855409814202
0.00429941484755195
0.00394002826371295
0.0035339527522303
0.00308893611466186
0.00261383761909579
0.00211676447028057
0.00160528619530935
0.00109061971853298
0.000599477643048303
0.000195014754180708
7.79816581266027e-06
0.00501227222499717
0.0047866908722788
0.0045140442962264
0.00419183531224313
0.00382217712387092
0.00341137631679342
0.00296733969014624
0.00249803038575882
0.00201127273952896
0.00151503840096253
0.00102068350570716