/*--------------------------------*- C++ -*----------------------------------*\
  =========                 |
  \\      /  F ield         | OpenFOAM: The Open Source CFD Toolbox
   \\    /   O peration     | Website:  https://openfoam.org
    \\  /    A nd           | Version:  12
     \\/     M anipulation  |
\*---------------------------------------------------------------------------*/
/*   Windows 32 and 64 bit porting by blueCAPE: http://www.bluecape.com.pt   *\
|  Based on Windows porting (2.0.x v4) by Symscape: http://www.symscape.com   |
\*---------------------------------------------------------------------------*/
FoamFile
{
    format      ascii;
    class       volScalarField;
    location    "400";
    object      omega;
}
// * * * * * * * * * * * * * * * * * * * * * * * * * * * * * * * * * * * * * //

dimensions      [0 0 -1 0 0 0 0];

internalField   nonuniform List<scalar> 
10123
(
2.4668450553724
2.46684219609402
0.660833502530485
2.38168283927508
2.46683931339845
0.666838314744044
2.3816791836357
0.366558512689592
0.645854721122039
2.28699840648233
2.46683931529591
0.67231335462772
2.38167524199934
0.371093758901705
0.651777380206293
2.28700634235754
0.26786400540559
0.362199213764074
0.627005588282434
2.2161111894368
2.46684257495257
0.677308839907335
2.3816766133706
0.375290867376474
0.657180564462974
2.28699006614779
0.271323569288861
0.366695340691527
0.632796279321101
2.21611856020545
0.222473609983428
0.266262657244077
0.355753187244235
0.611442299658182
2.18721997138311
2.46684075188066
0.681896340934286
2.38168177975574
0.379175794682828
0.662112812559206
2.2869925009371
0.274562751330106
0.370855179006991
0.638081245334523
2.21610093076907
0.225218858840696
0.269706827846997
0.360182953609107
0.617103824648253
2.18721627597823
0.1981688407463
0.221821867375268
0.263497239994414
0.349378998668684
0.602097793709479
2.18619415481029
2.46683983912002
0.686518291350761
2.38167991149401
0.382799621010591
0.666643295993843
2.28699694756701
0.277592092263991
0.374706168547539
0.642907652889995
2.21610627962873
0.227816291458322
0.272929348126001
0.364281452564212
0.622273914424319
2.18721040747276
0.200392416888076
0.224562906642524
0.266912778925762
0.353736277007638
0.607657401101717
2.18619186864619
0.184126472967168
0.197877136075635
0.220447663946159
0.260246760332708
0.34424718943676
0.59682859695006
2.19193235816322
2.46683902366161
0.690850815672412
2.38167801768962
0.386260194369747
0.671223123782919
2.28699681586872
0.280432899757926
0.378299283864179
0.647347892844366
2.21611304524432
0.230268574316201
0.275942698922856
0.36807513437089
0.626997384260229
2.18721674721401
0.202519624952591
0.22715406612137
0.270106883763388
0.357767929370815
0.612737063426365
2.18618763127396
0.185925761753472
0.20010262307544
0.223179397762314
0.263628275060987
0.348540662441912
0.602308643969837
2.19192876872599
0.175790263738988
0.183957481090987
0.197083046959572
0.218557116497163
0.257030495060654
0.340059314668539
0.592167020474256
2.19485831816654
2.46683922026381
0.69472396329387
2.38168846883936
0.389456689121859
0.675468269964458
2.28699404469502
0.283103843146506
0.381724739822827
0.651844920534428
2.21611036339766
0.232582256109734
0.278768195352856
0.37161386422921
0.631362872299545
2.18722228380152
0.204550268330906
0.229599795364428
0.273092525712771
0.361498979166919
0.617378714948043
2.18619195470714
0.187670894107945
0.202229355503281
0.225759573613657
0.266789014883416
0.352512687899285
0.607315268569459
2.19192409953256
0.177210221573983
0.185762584543071
0.199310809681018
0.221277969154942
0.260379918313807
0.344298723925561
0.597569219561328
2.19485256507884
0.170946995491117
0.175653302353982
0.18339878113581
0.195836719609178
0.216384691087625
0.253918240805847
0.335942746205561
0.586283157078027
2.19512978926904
2.46684144490748
0.698145407572236
2.38167607866074
0.392348160974313
0.67926343253174
2.2870032034923
0.285574031981684
0.384885374845468
0.655977227307845
2.21610739294635
0.234758322363055
0.281423562153127
0.374984861747544
0.635758302141706
2.18722087556737
0.206484265699964
0.231906913199343
0.275890564134073
0.364979613370914
0.621682007328213
2.18619356682262
0.189361539349556
0.204258742263166
0.228193527655959
0.26974199837922
0.356187539525654
0.611890649493285
2.19192845008472
0.178615011903804
0.187510898026863
0.201437093117537
0.223845478992515
0.263508663955727
0.348218890234714
0.602503451739316
2.19484716477973
0.1720020621437
0.177082130570744
0.185214681824593
0.198069396434915
0.21909663359497
0.257239745332684
0.340130442910337
0.591595139287965
2.19512578434
0.168409875133552
0.170814910061272
0.175183430600936
0.182460375748929
0.19425830895768
0.214058476098409
0.250717122925988
0.331315563353302
0.578928649803906
2.19480782889558
2.46684134190426
0.70114769024721
2.38168001700634
0.394932907437409
0.682619121949168
2.28699143810773
0.287827521180704
0.387745442153693
0.659671334488755
2.21610474814862
0.236781728077268
0.283879249336602
0.378093087126103
0.639794110978007
2.18721581172656
0.208316550933015
0.234076666254411
0.278519823536974
0.368293137451077
0.626003635924891
2.18619437688367
0.190994472618132
0.206191051279955
0.23048831336097
0.272508046713847
0.359616551697131
0.616148602359731
2.19193137006673
0.180005630286056
0.189203537180848
0.203464187124931
0.22626548568186
0.266430002797854
0.351844250773315
0.607011664868032
2.19485215648466
0.173081057104921
0.178492847822381
0.186970133978132
0.20019720136137
0.221652870132544
0.260339753047306
0.344000029562091
0.596446032822181
2.19512023060204
0.169095710018683
0.171881792154505
0.176630705013362
0.184294006694044
0.196500377042668
0.216765006082588
0.25401291034736
0.335447515430819
0.584134501181298
2.19480370200702
0.167485416867407
0.168277143434733
0.170377572981039
0.17439410711321
0.181225657251732
0.19247477818034
0.211599487641768
0.247257320255517
0.325996749157114
0.57029374637423
2.19480462754855
2.46684135423385
0.703763088136196
2.38166944341922
0.397222918105249
0.685566740549291
2.28699600929124
0.289860803173503
0.390303589695147
0.662942684524908
2.21610270323235
0.238642274590604
0.286120053236078
0.380907044798948
0.643404910193704
2.18721568896869
0.210034952106356
0.236094279060787
0.280951523698861
0.371349113334647
0.629973650360542
2.18619013076977
0.192561166167131
0.208021572024341
0.232646272669568
0.275107091237439
0.36288103816491
0.620407417446572
2.19192852834522
0.181377282234267
0.190837654806191
0.205392843164391
0.228545441581792
0.269165322858238
0.355228151280242
0.611216588205198
2.19485722225925
0.174187212364959
0.179887813617975
0.18866705858149
0.202222964860217
0.224059760500276
0.263232089805188
0.347576333059845
0.600876405262803
2.19512551711557
0.169846960167636
0.172969256825351
0.178055165253026
0.186062309619957
0.198633317356243
0.219312750225378
0.257085636324978
0.339262222971324
0.588887377216895
2.19479822028894
0.167785979608587
0.168978026169656
0.171470874867585
0.175871303720177
0.183084926295066
0.194731285224795
0.214303646779477
0.25052705359619
0.330066236426256
0.575377407114781
2.19479845649307
0.167729931448327
0.167351013940008
0.167851072911832
0.169664003294271
0.17336460616709
0.179814326014152
0.190576758174785
0.209005139254591
0.243482036851098
0.319988657916427
0.560445120829941
2.19512984994708
2.46684023512167
0.706024120759075
2.3816810154834
0.399234647665695
0.688136445204489
2.28698810655358
0.291677698270845
0.39257096220234
0.665820444484566
2.2161098911632
0.240335121470637
0.288142442972594
0.383425919252173
0.646605583155725
2.18721400243467
0.211629411918874
0.23794970117747
0.28317123202253
0.374117242537143
0.633528250076221
2.18619131242228
0.194048524422539
0.209738225559872
0.234652933279349
0.277511545809728
0.365893727270751
0.624332674599164
2.19192536960754
0.182718610541012
0.192405045443111
0.207219225278458
0.230688839203174
0.271735510351405
0.358449747260976
0.615417731902082
2.1948520024247
0.175314885908539
0.181262622816514
0.190303204677242
0.204148041154779
0.226325414683615
0.265939052166343
0.350914206891312
0.605015275573892
2.19513081886213
0.170669557187686
0.174081868726254
0.179459923187344
0.187767690135483
0.200660454847522
0.221708681090318
0.259949785946303
0.342784837472362
0.593226180179721
2.1948037338463
0.168197786091326
0.169740455999597
0.172578823832199
0.177319181238852
0.184872792272979
0.196873608609424
0.216845284941739
0.253571664951206
0.333819534845916
0.580017464085151
2.19479308644803
0.167622388804129
0.167670341994553
0.168587345102288
0.17080018529141
0.174883535319273
0.181706807808956
0.192852360178204
0.211708900683766
0.246723861173339
0.323988277678252
0.565390354119314
2.19512375222342
0.168830593018489
0.167592399007315
0.166925355005
0.167176271405512
0.168761489257213
0.172211603667037
0.178337803114449
0.18863472595757
0.206308818920258
0.239427361843976
0.313334572983606
0.549270911113735
2.19485512541243
2.46684157136204
0.707965118638639
2.38167806884209
0.400988616524387
0.690366535285134
2.2869980268954
0.293286328744526
0.394563948160645
0.668331839770515
2.21611621628068
0.241859927850518
0.289949972417477
0.385660017532823
0.649424557316833
2.1872198198386
0.213093003034583
0.239638080045903
0.285175403261125
0.376596529053092
0.636680956531693
2.18619249244023
0.19544447892256
0.211331045833371
0.236498568122678
0.279707027658605
0.368624038261564
0.627848539377471
2.19192787852776
0.184014102690013
0.193892746218367
0.208931607079872
0.232681929455019
0.274113897695845
0.361426254058796
0.619294627547125
2.19484666157227
0.176449913059759
0.182606230803662
0.191871170019305
0.205969611325846
0.228454324636527
0.268482433337598
0.354091861856332
0.60913944555287
2.19512536240018
0.171557256347956
0.175214399395808
0.180841257281832
0.189408614797522
0.202583867716325
0.22396171105406
0.262628464990944
0.346069991020092
0.597279702368387
2.19480917919174
0.168729391039226
0.170571708662863
0.173706701498666
0.178741271275598
0.186592055936172
0.198905580048837
0.219232018638937
0.256406267961094
0.337281714876297
0.584249512452594
2.19479873516039
0.167678239931376
0.168096382256683
0.169377759272593
0.171942628340054
0.17636509543243
0.18352086846567
0.195008038342757
0.214245853634676
0.24973826157999
0.327673287242042
0.569903250521407
2.19511849637825
0.168289119417503
0.167507922372459
0.167290390790104
0.167969978059945
0.16995663192309
0.173782823811396
0.180270212403394
0.190933406961569
0.209013354557784
0.242638854712632
0.317256931175605
0.554059854263781
2.19485121234245
0.170544996060022
0.168687564132292
0.167158275027743
0.166265758544245
0.166351644840901
0.167788836290225
0.171052708579879
0.176899451526659
0.186739356770259
0.203606866572446
0.235204827070586
0.306098615508879
0.536502058274011
2.19193028517839
2.46683971118927
0.709618163316184
2.38167898747652
0.402502463470564
0.692285485307931
2.28699457069218
0.294697262018502
0.396302154429892
0.670514720572443
2.21611194521933
0.243219764399276
0.291550619682487
0.387624688323826
0.651888126137183
2.18722480066893
0.21442215064603
0.241159011745758
0.286967305295849
0.378797005904012
0.639459818768071
2.18619416202211
0.19673924777697
0.212793151787499
0.238178354748058
0.281690007060596
0.37107033237446
0.630967138541786
2.19192945581725
0.185248478899078
0.195288806648421
0.210520332743253
0.234515148152509
0.276286091685386
0.36412520221134
0.622770764702149
2.19485167765564
0.177573471365977
0.183903318108852
0.193358501858892
0.207676662911919
0.23043350038824
0.270836673097495
0.357031484925278
0.612959236829198
2.19511985189796
0.172492771076728
0.1763530103237
0.182188962374732
0.190978701515935
0.204401704849887
0.226077277518777
0.265144714339648
0.349194926464549
0.601308132353238
2.194803673513
0.169373556960453
0.171466011332877
0.174850063222967
0.180134676319045
0.188241965577737
0.200830060842954
0.22147355606801
0.259054160585028
0.340504422879256
0.588184937213289
2.19480427094206
0.167907783294944
0.168639111136862
0.170230279708869
0.173096961037927
0.177813091369286
0.185259653304095
0.197048121789461
0.216624226165984
0.252540811850344
0.331067760037677
0.574013238296719
2.19512409084142
0.167971825156764
0.167581469020476
0.167752987822031
0.168807219227427
0.17114771334752
0.175307526075498
0.182116442444638
0.193105818747819
0.211546354701654
0.2456206227418
0.320866758088354
0.558430211148358
2.19484812406656
0.16954377670892
0.168174079213481
0.167131314094441
0.166704850563281
0.16722352909777
0.169056724052856
0.172685217498542
0.178877736870849
0.189064632873075
0.206313092024205
0.23838363722498
0.309935714599558
0.54110798610572
2.191928534589
0.172668965092148
0.170393806391741
0.168236432035197
0.166495016909928
0.16548321904158
0.165501954694852
0.166867514458872
0.170007455895356
0.175625439267303
0.185037816324974
0.201082834384451
0.231027716140638
0.29842607390233
0.521793099359229
2.18619449453526
2.46683697653489
0.71099644093261
2.38167783474619
0.40379192610465
0.693917525806275
2.28699446087051
0.295921666867698
0.39780319334452
0.672395539327643
2.21610848010708
0.244420043143679
0.292954834660434
0.389339136463914
0.654027913019062
2.18722111815423
0.215616246184858
0.242515510620313
0.288554572474543
0.38073327292777
0.641892299663291
2.18619486765446
0.197925951391312
0.214120964254791
0.239691835883303
0.283463664296293
0.373242867405382
0.633717382827286
2.19193189144893
0.186408358342558
0.196583532652861
0.211978680580653
0.236183848772809
0.278248455357476
0.366543864895797
0.62585702614511
2.19485546680011
0.178666193421109
0.185138786805214
0.194753662551438
0.209259968640489
0.232253723930643
0.272987183590641
0.359698981709591
0.616388405155297
2.19512517373702
0.173453234426763
0.177479147907946
0.183488408562931
0.192466354116649
0.206103836165686
0.228043252380389
0.267474468193243
0.352091128219383
0.605054835918836
2.19479811794301
0.170109465480042
0.172406424283019
0.175996012856417
0.181490307284168
0.189817171567779
0.202646125562557
0.223576417357793
0.261540015708792
0.343564335122366
0.59210447905544
2.19479880177259
0.168301569409918
0.169291780100166
0.17114005877806
0.174259695416844
0.179225490926597
0.186923203101844
0.198976259045274
0.21885433811186
0.25515384014978
0.334215779949783
0.577793813005439
2.19512953416903
0.167888386483933
0.167824886941746
0.168323828118288
0.169696227909223
0.172340488322598
0.176789664434075
0.183879926298093
0.195156760557468
0.21391657426125
0.248388407934319
0.324186851303389
0.562406347292473
2.19485128990139
0.168839413287055
0.167878350570389
0.167251150499033
0.167228259162737
0.168125946929989
0.170308956497943
0.174261260663439
0.180761439386442
0.191256743668794
0.208842736882327
0.241330543010241
0.313463812601968
0.54531608295889
2.19192757390239
0.171184513728827
0.169426122900974
0.167793740445159
0.166561015910632
0.166022232840555
0.166469208666073
0.168219518269727
0.171709147765572
0.177655167964731
0.187393239050546
0.20379211345759
0.234172223497358
0.302169368959067
0.526190119716735
2.18619132202322
0.175015435114154
0.172507275179689
0.169918049393995
0.167553039593173
0.165725310267
0.164710793311028
0.164753593236256
0.166127036582748
0.169224653444233
0.174700613414519
0.183772368213517
0.19906021237514
0.227307492720581
0.290726376165784
0.505346947288796
2.18721927385254
2.46684051526965
0.712133986448667
2.38167412571227
0.404874682748291
0.695283639876677
2.28699401588481
0.296970443969817
0.399082923235455
0.673995139102164
2.21610814297376
0.2454674757854
0.294173581760483
0.390820590470064
0.655872585885663
2.18721875631647
0.216677097442292
0.243712932064981
0.289947446591717
0.382423172761112
0.644003853862202
2.18619564684664
0.19900067234066
0.215313880921058
0.241041931126292
0.28503528416696
0.375155843211762
0.636127926366101
2.19192909503075
0.187483192743757
0.197770107437313
0.213303147488729
0.237687614405256
0.280004240751336
0.368692564550284
0.628578877289722
2.19485509325376
0.179710356975277
0.186299393139098
0.196047255429184
0.210713141943176
0.233910566694646
0.274930120638992
0.362090222006824
0.619434091523369
2.19513098617177
0.174414398752196
0.178573691922738
0.18472507688964
0.193860716916092
0.207681669766164
0.229850830150846
0.269602987038486
0.354722147361679
0.608425887752529
2.1948035679242
0.170909451560932
0.173370440669307
0.17712689368456
0.182794619364338
0.191307153489348
0.204344635931203
0.225529488459216
0.26384234899152
0.346406450007072
0.595763598392824
2.19479330899603
0.168834790165815
0.170034025108554
0.172091234699778
0.175419209727937
0.180594358895835
0.188507154269969
0.200792493783889
0.220944045576957
0.25760399493966
0.337198710723186
0.581594462036748
2.19512410041133
0.168025492098071
0.168229295981874
0.168997158594285
0.170633283832837
0.173532493739572
0.178228067319119
0.185561499275227
0.197090611982138
0.216134525247632
0.250962249934255
0.32725052325803
0.566038116374457
2.19485422049954
0.168435951396341
0.167811804156783
0.167530381579272
0.167846916738905
0.169067151641977
0.171551211847114
0.175784807235015
0.182554232774763
0.193320910713081
0.211204974880263
0.244061279873739
0.316704828195028
0.549142798560026
2.19192816768127
0.170086216593516
0.168747567753976
0.167555122414363
0.166757410617532
0.166629343254125
0.167452527705821
0.169543440219854
0.173343757198017
0.17958128894858
0.189608084332493
0.206319516682783
0.237082813008102
0.30560816326473
0.530211486220733
2.18619182578834
0.173031125645089
0.171062505499225
0.169035747860862
0.167224504258393
0.16591579865332
0.165370519563862
0.165829979001188
0.167572941686656
0.171002963799689
0.176787593671894
0.18616236573873
0.201775481183196
0.230418179114862
0.294370271210188
0.509502095830477
2.18721627760417
0.177366142675882
0.174841925777945
0.172001252778073
0.169200660965254
0.166771271779579
0.164991809594208
0.164081220191526
0.164244034379133
0.165731763832336
0.168916330464743
0.174411666032866
0.183346431306681
0.198122912323851
0.224898019978901
0.28422195663169
0.489656942800832
2.21610793272684
2.46684683132917
0.713077387894977
2.38168912766569
0.405766078934524
0.696418020288011
2.28699037836349
0.297854448916761
0.400157135722951
0.675337051132153
2.21610762436778
0.246369505260939
0.295217636141849
0.392084116403946
0.657437020443934
2.18721827039258
0.217608268935701
0.244757955320019
0.29115664311462
0.383883524731398
0.645818169956629
2.18619321540822
0.199962146125069
0.216373704935587
0.242233899351668
0.286414668322147
0.376824822716567
0.638220216275394
2.19192982442465
0.188465654932351
0.198844657812778
0.214493154222649
0.23902928655071
0.281560469572625
0.370585507177379
0.63096370304801
2.19485129777261
0.18069125528909
0.187374714683978
0.19723266108843
0.212032874953785
0.235403760785707
0.276668748911562
0.36421472421336
0.622121077798458
2.19512616140045
0.175353469251015
0.179619128132388
0.185886174645945
0.195152918849855
0.209129291568258
0.231495856907304
0.271526151659057
0.357081992796934
0.611424505783338
2.19480946564975
0.171743567211336
0.174334130633607
0.178224370575909
0.184034034752896
0.192701961676141
0.205917760093858
0.227324462223594
0.265946434086336
0.3489930976573
0.599066108734532
2.19479888806657
0.169474062191887
0.170838620147161
0.173062451802555
0.17655922434879
0.1819074796005
0.190002175443876
0.20248876276881
0.22288355866023
0.259873922891534
0.339974092551363
0.585140103155295
2.19511868394786
0.168353169427732
0.168770445499944
0.169753981066308
0.171604014798017
0.174713392153604
0.179615865835194
0.187157750194587
0.198908520831112
0.218209709493979
0.253370528990288
0.330144862204101
0.569661126145231
2.19485078695816
0.168313877087651
0.167961843833087
0.167961293363037
0.168556257089241
0.17004448545359
0.17278205673476
0.177255626983449
0.18425773760853
0.19526211422613
0.213409896041898
0.246592617108643
0.319685590620317
0.552622610948016
2.19192838294759
0.169363635493874
0.168364195985785
0.167532864703279
0.167097066924826
0.167315456358547
0.168459986395829
0.170844769630806
0.174915184813179
0.181407671942058
0.191687963381334
0.20867458223662
0.23977577580406
0.308764120097686
0.533863764709519
2.18619221863761
0.171544424595687
0.169994453650806
0.1684259823763
0.167079866130539
0.166216547931751
0.166080377039134
0.16690707456338
0.168977678614504
0.172702934230933
0.178761304471777
0.188403833007708
0.204303205520712
0.233292513221712
0.297712482565511
0.513309373043881
2.18721703674516
0.174910696518022
0.17290380879793
0.170657468024973
0.168455822963323
0.166594712103828
0.165331420225064
0.164877807328849
0.165441122679202
0.167280700889706
0.170779048197922
0.17656298305729
0.185777792352205
0.200850870769078
0.227980474985439
0.287762810018992
0.493494882531599
2.21610689741159
0.180247741284379
0.179547797022209
0.177180799481851
0.17430324877424
0.171239645959333
0.168386218778933
0.166044109393355
0.164434681454052
0.163739350731111
0.164149348717332
0.16591355436258
0.169402018731588
0.175219650177361
0.184459259840891
0.199394210850683
0.225735555181647
0.282487213157644
0.485802509762861
2.28699329689139
2.46684168690837
0.713818323753114
2.38167991399186
0.406483720577154
0.697359666050067
2.28700087197223
0.298584743273234
0.401042671081355
0.676454556700186
2.21610385708458
0.247133924409182
0.296097752797712
0.393145205325689
0.658750221363324
2.18721747623277
0.218414540758029
0.245657943760982
0.292192687239266
0.385128817472449
0.647359398738776
2.18619299786248
0.200811264205332
0.217303993758449
0.243274311901203
0.287612287621575
0.378266193701829
0.640018238437706
2.19192854893152
0.189351451182878
0.199805947258047
0.215550491897951
0.240213991063537
0.282926327885681
0.372236921547789
0.633036891727155
2.19484813244492
0.181597798526908
0.188357498723494
0.198306120950233
0.213218675581297
0.236736136154497
0.278210083823084
0.366086439868528
0.624477513014736
2.19512383944597
0.176250971431935
0.180600916863074
0.186961605084804
0.19633670589759
0.210443719611463
0.232978277500818
0.273247078066022
0.359178946957329
0.614071164361645
2.19480452127757
0.172583213395488
0.175274981490902
0.179271558942896
0.185196514472941
0.193993448668628
0.20736017595062
0.22895751077599
0.267847783842921
0.351315991958857
0.602008042591949
2.19480494210627
0.170182922255733
0.171676024743838
0.174030802463747
0.177662645340324
0.183152477460599
0.191399367437382
0.204058091933545
0.224665222669491
0.261949538855336
0.342506608222418
0.588357805148338
2.19512428016752
0.168831328618011
0.169415493506213
0.170568487833415
0.172588802975928
0.175868567197751
0.18094228877744
0.18866060052068
0.200603608844122
0.220134152951752
0.255601789571876
0.33283866707067
0.573056427084573
2.19484557546146
0.168436187893692
0.168299176666812
0.168521291779695
0.169339219062572
0.171045221568401
0.173992274731148
0.178667716399681
0.185869523102225
0.197082818225268
0.21546882678448
0.248953655204325
0.322472796247596
0.556007222424448
2.19192679512677
0.168986913384543
0.168257492414806
0.16771582004486
0.167573708784057
0.168077120692525
0.169489718710281
0.172122836539302
0.176424151453677
0.183136742464456
0.193638190814518
0.210866533363818
0.242265928951632
0.311656741522351
0.537160924621221
2.18619212621969
0.170515906044511
0.169295294732518
0.168095898310544
0.167131783115594
0.1666404266262
0.166850994885836
0.167992589901716
0.170346487075911
0.174328424943288
0.180625848414138
0.190502793533885
0.20665355029983
0.235947989268895
0.300775721806818
0.516778408343425
2.18721760680369
0.173065744461958
0.171451817474506
0.169670233624049
0.167958731561872
0.166577146080082
0.165759030720171
0.165705607456534
0.166622918400338
0.168774733301174
0.172551457347276
0.178590626159667
0.188051912921455
0.203384550143407
0.230821757225532
0.291001837002007
0.49706211879928
2.21610658901665
0.176677983872151
0.174777966416827
0.172482043236978
0.170058426306482
0.167823644254616
0.166048309413527
0.164941951936745
0.164686018463456
0.165477768429705
0.167575031921021
0.171358546010679
0.177445474932624
0.186943904243013
0.202149397732252
0.228802417696268
0.285898945772016
0.488126715269042
2.2869931937742
0.182989764956056
0.179999042024989
0.181450431932492
0.17935173613462
0.176610965928342
0.173492170594872
0.170377028474747
0.167638450110382
0.165519898338007
0.164206008363729
0.163870807476011
0.164716333238951
0.167016209393275
0.171184378269979
0.177902721076489
0.188404475317327
0.205234508179079
0.234596741006004
0.296019220190148
0.52078036679798
2.3816773476856
0.714244446476636
2.38168072632047
0.407036957603682
0.698090740779481
2.28699323927617
0.29917226965561
0.40175662970453
0.677379216838216
2.216099536876
0.247768671256791
0.296824904754861
0.394021231905305
0.659857801862119
2.18721449372076
0.219101410256992
0.246420619904331
0.293066180738115
0.386175221617107
0.64866783196443
2.18619219450096
0.201550516630602
0.218109493266143
0.244170410586582
0.288638427328862
0.379495391524444
0.6415486688009
2.19192932749898
0.190138913980459
0.200654879919928
0.216478680298315
0.241248175277744
0.284112058149649
0.373662176137762
0.634819905250232
2.19485120746516
0.182422492411398
0.189243511685333
0.199266452907094
0.214272348963018
0.23791268781968
0.279562856909885
0.367719918063713
0.62652600735416
2.19511854645403
0.177091616418306
0.181508089444697
0.187944322262793
0.197408548519431
0.211624645031532
0.234301026250754
0.274772758288148
0.361026540157627
0.616391121867405
2.19480201920139
0.173403522506841
0.176173740260384
0.180254384326549
0.186272518556086
0.195175897329305
0.208669341716323
0.23042881820785
0.269549219803921
0.353381057229067
0.604605353323975
2.19480002580432
0.170926251582455
0.172517995594739
0.174974610950544
0.178713609658719
0.184318315376957
0.19269145828353
0.205495846516265
0.226285577801724
0.263825931541182
0.344784951538366
0.591230119696148
2.19513035328083
0.169416200525798
0.170128481360214
0.171412432623833
0.173566332999724
0.176982473815701
0.182196319676143
0.190062298995139
0.202169864041614
0.221901137194101
0.25764365018258
0.335303722432088
0.576169825514786
2.19485095472063
0.168754948597578
0.16878437218153
0.169179272353114
0.170172116324553
0.172051778257302
0.175169042473142
0.180011830832481
0.187382820675417
0.198777490242589
0.217376230553278
0.251139646091679
0.325069466378522
0.559246679624067
2.19192216402112
0.168909575201372
0.168391267397634
0.168076679175446
0.168167105489545
0.168899425424882
0.170530703015782
0.173369609000378
0.177865447104925
0.184767107309197
0.195462819784394
0.212907964161318
0.244573805614685
0.314326864453254
0.540229379011463
2.18619187020659
0.169898976786174
0.168936415445422
0.168028902917607
0.167371030289477
0.167182592312589
0.167679820115181
0.169085224790339
0.171679198355414
0.175880847216612
0.182384231736802
0.192464606538521
0.208835047974671
0.238397216780161
0.303574644523978
0.519907897032814
2.18721789611615
0.171760710637075
0.170449978330241
0.16903359821476
0.167717413916414
0.16673138495313
0.166287247445931
0.16657472942463
0.167796631372111
0.170218814690685
0.174237417770349
0.180499023572765
0.190175404707123
0.205735516676301
0.233442486952871
0.29396928723766
0.500601403906871
2.21610750088685
0.174525107654264
0.172972093593511
0.171122685481971
0.169203148068704
0.167477898939734
0.166183918375172
0.165513934177185
0.165644381634861
0.166774277947253
0.169167116210815
0.173211899866789
0.179536158457307
0.189261105065406
0.204700593318363
0.231618918028932
0.289030038686536
0.491243742852988
2.28700518891891
0.178221423695968
0.176540924695196
0.174340294004743
0.171859363999666
0.169410916968057
0.167291461900024
0.165725797308383
0.164895639245258
0.164979451603719
0.16618703805405
0.168801611416614
0.17324785185998
0.180219587731278
0.190964582919516
0.208045107643863
0.237652397248054
0.299197241997652
0.521884073665575
2.38167783015298
0.185453335089432
0.182722574790473
0.17926739227282
0.18294301214528
0.181246628983939
0.178755703172374
0.175751527880367
0.172572225388982
0.169588033027586
0.167114449124747
0.165357955424482
0.164499687598161
0.164734129130068
0.166307048470762
0.169572789873672
0.175096744456473
0.183865864389253
0.197797768943917
0.221122536138949
0.264338965522773
0.362837329304379
0.798562980673506
3.68516784033527
0.40741961956099
0.698505215522439
2.28699720412472
0.299626833043033
0.402306841575006
0.67811155553065
2.216105981041
0.248281872272495
0.297410085444355
0.394728661947193
0.660788715871846
2.1872105355144
0.219674837381524
0.247053940442834
0.293788155031117
0.387041172514058
0.649766003370175
2.18618859941252
0.202183551763675
0.218795697419447
0.244929834767836
0.289503730409868
0.380529673610795
0.642838839262812
2.19192917620613
0.190828428724459
0.201393962774547
0.217282410736077
0.24213896002436
0.28512794399907
0.374877506313351
0.636334990575358
2.19485327382979
0.183161005963877
0.190031116927854
0.200114574808391
0.215197388137672
0.238939757183574
0.280736888666577
0.369129547539686
0.628287742490974
2.19512410109662
0.177864388246951
0.182333231833242
0.188830214330589
0.198367389766101
0.212673947758892
0.235469036013394
0.276111878289662
0.362639038845974
0.618406540672631
2.19479656489602
0.174184521775662
0.177015281037313
0.181162191142251
0.18725537856122
0.196246143512014
0.209845238928579
0.231741484683818
0.271057594022791
0.355200653510108
0.606880321037103
2.19479736944691
0.17167320186993
0.173339949144611
0.175875252433623
0.179698818815181
0.185396228890384
0.193873413662282
0.206800012556921
0.227745058628213
0.265505373116407
0.346812527457507
0.59376831109722
2.19512552214989
0.170065526008983
0.170874730680138
0.172258645095706
0.174516262882778
0.178040572534694
0.183368099143468
0.191356560856348
0.203603419636026
0.223507640356533
0.259490963290319
0.337527234894072
0.578959439134048
2.19485489174755
0.169218375744085
0.169374274832918
0.169900879134067
0.171028696222099
0.173044788920808