/*--------------------------------*- C++ -*----------------------------------*\
  =========                 |
  \\      /  F ield         | OpenFOAM: The Open Source CFD Toolbox
   \\    /   O peration     | Website:  https://openfoam.org
    \\  /    A nd           | Version:  12
     \\/     M anipulation  |
\*---------------------------------------------------------------------------*/
/*   Windows 32 and 64 bit porting by blueCAPE: http://www.bluecape.com.pt   *\
|  Based on Windows porting (2.0.x v4) by Symscape: http://www.symscape.com   |
\*---------------------------------------------------------------------------*/
FoamFile
{
    format      ascii;
    class       volScalarField;
    location    "400";
    object      p;
}
// * * * * * * * * * * * * * * * * * * * * * * * * * * * * * * * * * * * * * //

dimensions      [0 2 -2 0 0 0 0];

internalField   nonuniform List<scalar> 
10123
(
83333.3284920825
83333.3284844127
83333.3284919476
83333.3284919754
83333.3284766525
83333.3284843356
83333.3284843075
83333.3284918094
83333.3284918269
83333.328491765
83333.3284688553
83333.3284766176
83333.3284765483
83333.3284842853
83333.3284842143
83333.3284841045
83333.3284919775
83333.3284916742
83333.3284916032
83333.3284914257
83333.3284610549
83333.3284688552
83333.3284687575
83333.3284765915
83333.3284764948
83333.3284763519
83333.3284844039
83333.3284841404
83333.3284839992
83333.3284837816
83333.3284925995
83333.3284918308
83333.328491431
83333.3284912569
83333.3284909391
83333.3284532863
83333.3284610987
83333.3284609629
83333.3284688541
83333.3284687392
83333.3284685708
83333.3284766393
83333.3284764421
83333.3284762834
83333.3284760422
83333.328484788
83333.3284842491
83333.3284839017
83333.3284836701
83333.3284833196
83333.3284937151
83333.3284924262
83333.3284915669
83333.3284910718
83333.3284907699
83333.3284902984
83333.3284455725
83333.3284533744
83333.3284531996
83333.3284611515
83333.3284609887
83333.3284607852
83333.3284688396
83333.3284687119
83333.3284685356
83333.3284682753
83333.3284768101
83333.3284764776
83333.3284762017
83333.3284759656
83333.3284756011
83333.3284855082
83333.3284846146
83333.3284839835
83333.3284835572
83333.3284832062
83333.328482711
83333.3284952902
83333.3284935081
83333.3284921181
83333.3284911681
83333.3284905693
83333.3284901323
83333.3284895088
83333.3284379364
83333.3284457005
83333.3284454907
83333.3284534897
83333.32845327
83333.3284530303
83333.3284611016
83333.3284610106
83333.3284607941
83333.3284605032
83333.3284688358
83333.3284686785
83333.3284684728
83333.32846823
83333.3284678548
83333.3284771712
83333.3284766358
83333.3284762012
83333.328475862
83333.3284755211
83333.3284750213
83333.3284865495
83333.3284853082
83333.3284843123
83333.3284835979
83333.3284830769
83333.3284825972
83333.3284819603
83333.328497283
83333.3284950372
83333.3284931245
83333.328491648
83333.328490611
83333.32848991
83333.3284893463
83333.3284885863
83333.3284303984
83333.3284380982
83333.3284378593
83333.3284458717
83333.3284456021
83333.3284453295
83333.3284534219
83333.3284533475
83333.3284530854
83333.3284527614
83333.3284609462
83333.3284609372
83333.328460776
83333.3284605013
83333.3284601018
83333.3284688778
83333.328468656
83333.3284683991
83333.3284681368
83333.3284678032
83333.3284673024
83333.3284777193
83333.3284769734
83333.3284763216
83333.3284758189
83333.3284753965
83333.3284749392
83333.3284743068
83333.3284878709
83333.3284863041
83333.3284849367
83333.3284838593
83333.3284830648
83333.3284824453
83333.3284818461
83333.3284810802
83333.3284996091
83333.3284969493
83333.3284945528
83333.3284925427
83333.3284909933
83333.3284898803
83333.3284890977
83333.328488425
83333.3284875507
83333.3284229758
83333.3284305877
83333.3284303257
83333.3284383171
83333.3284380052
83333.3284377058
83333.3284457911
83333.3284457311
83333.3284454268
83333.328445073
83333.3284531318
83333.3284532489
83333.3284531199
83333.3284528056
83333.328452378
83333.3284607044
83333.3284607582
83333.3284606582
83333.3284604478
83333.328460092
83333.3284595747
83333.3284689736
83333.3284686731
83333.3284683331
83333.3284680173
83333.3284676822
83333.3284672467
83333.3284666222
83333.3284784124
83333.3284774762
83333.3284765986
83333.3284758726
83333.3284752984
83333.3284747886
83333.3284742215
83333.3284734686
83333.3284894041
83333.3284875569
83333.3284858464
83333.3284843834
83333.3284832328
83333.3284823649
83333.3284816651
83333.3284809634
83333.3284800885
83333.3285022061
83333.3284991903
83333.3284963455
83333.3284938184
83333.3284917334
83333.3284901345
83333.3284889816
83333.3284881448
83333.3284873872
83333.3284864217
83333.3284156821
83333.3284231867
83333.328422907
83333.3284308456
83333.3284304994
83333.3284301794
83333.3284382222
83333.3284381798
83333.3284378385
83333.3284374607
83333.3284453861
83333.3284456143
83333.3284455118
83333.3284451597
83333.3284447069
83333.3284526427
83333.3284529363
83333.3284529729
83333.3284528033
83333.3284524143
83333.3284518746
83333.3284603977
83333.3284604943
83333.3284604344
83333.3284602808
83333.3284600061
83333.3284595586
83333.3284589256
83333.3284690926
83333.3284687308
83333.3284682977
83333.3284678865
83333.3284675065
83333.3284670955
83333.3284665606
83333.3284658244
83333.3284791987
83333.3284781121
83333.3284770283
83333.3284760575
83333.3284752619
83333.3284746215
83333.3284740386
83333.328473379
83333.328472522
83333.3284910945
83333.3284890195
83333.3284869966
83333.3284851573
83333.3284836144
83333.3284824108
83333.328481501
83333.3284807473
83333.3284799674
83333.3284790056
83333.3285050015
83333.3285016894
83333.3284984396
83333.3284954219
83333.3284927997
83333.328490679
83333.3284890781
83333.3284879262
83333.3284870668
83333.3284862512
83333.3284852186
83333.3284085272
83333.3284159088
83333.3284156169
83333.328423473
83333.3284231029
83333.3284227675
83333.3284307374
83333.3284307122
83333.328430341
83333.328429945
83333.3284377181
83333.3284380472
83333.3284379678
83333.3284375836
83333.3284371108
83333.3284446812
83333.3284451842
83333.3284453451
83333.3284452062
83333.3284447854
83333.3284442258
83333.3284519774
83333.3284524271
83333.3284526184
83333.3284526053
83333.3284523777
83333.3284519031
83333.3284512549
83333.3284600041
83333.3284601551
83333.3284601236
83333.328459994
83333.3284597819
83333.3284594396
83333.3284589021
83333.3284581649
83333.3284691969
83333.3284688062
83333.3284682929
83333.3284677661
83333.3284672885
83333.3284668502
83333.3284663741
83333.3284657555
83333.328464923
83333.3284800304
83333.3284788403
83333.3284775763
83333.3284763661
83333.3284753154
83333.3284744686
83333.3284737881
83333.3284731557
83333.3284724259
83333.3284714855
83333.328492873
83333.3284906285
83333.3284883335
83333.3284861402
83333.3284841983
83333.3284826105
83333.3284813975
83333.3284804836
83333.3284797069
83333.328478876
83333.3284778505
83333.3285079075
83333.3285043716
83333.3285007675
83333.3284972923
83333.3284941448
83333.3284914839
83333.3284893884
83333.3284878381
83333.3284867292
83333.3284858807
83333.3284850347
83333.3284839615
83333.3284015191
83333.3284087649
83333.3284084654
83333.328416214
83333.3284158295
83333.3284154835
83333.3284233496
83333.3284233442
83333.3284229522
83333.328422543
83333.3284301465
83333.3284305664
83333.3284305069
83333.3284300975
83333.3284296101
83333.3284368278
83333.3284375179
83333.3284377846
83333.3284376728
83333.3284372253
83333.3284366506
83333.328443705
83333.3284444649
83333.3284448746
83333.328444986
83333.3284447974
83333.3284442959
83333.3284436337
83333.3284511333
83333.32845174
83333.3284520689
83333.3284521878
83333.3284521218
83333.3284518315
83333.3284512741
83333.3284505286
83333.3284594995
83333.3284597307
83333.3284597317
83333.3284596053
83333.3284594116
83333.3284591464
83333.3284587451
83333.3284581311
83333.3284573054
83333.3284692437
83333.3284688633
83333.3284682921
83333.3284676534
83333.3284670474
83333.3284665208
83333.3284660462
83333.3284655258
83333.3284648439
83333.3284639338
83333.3284808427
83333.3284796042
83333.3284781966
83333.3284767665
83333.3284754534
83333.3284743538
83333.3284734937
83333.328472807
83333.328472154
83333.3284713792
83333.3284703782
83333.3284946539
83333.3284923136
83333.3284897967
83333.3284872802
83333.3284849487
83333.3284829548
83333.3284813792
83333.3284802059
83333.3284793271
83333.3284785602
83333.3284777054
83333.3284766415
83333.3285108132
83333.3285071488
83333.3285032543
83333.3284993626
83333.3284957111
83333.3284925066
83333.3284898844
83333.3284878797
83333.3284864324
83333.3284854073
83333.3284846039
83333.3284837566
83333.3284826704
83333.3283946653
83333.3284017643
83333.3284014603
83333.3284090803
83333.3284086901
83333.328408338
83333.3284160726
83333.3284160891
83333.3284156861
83333.3284152684
83333.3284226833
83333.3284231826
83333.328423147
83333.3284227195
83333.328422222
83333.3284290964
83333.3284299484
83333.328430312
83333.3284302227
83333.3284297545
83333.3284291693
83333.3284355839
83333.3284366136
83333.3284372156
83333.3284374368
83333.3284372795
83333.3284367559
83333.328436084
83333.328442466
83333.3284434753
83333.3284441154
83333.3284444582
83333.3284445193
83333.3284442719
83333.3284436926
83333.3284429398
83333.3284500906
83333.3284508744
83333.3284513342
83333.3284515662
83333.3284516246
83333.3284515086
83333.3284511626
83333.3284505352
83333.328449708
83333.3284588465
83333.3284591881
83333.3284592412
83333.3284591181
83333.3284589123
83333.3284586705
83333.3284583707
83333.3284579285
83333.328457258
83333.328456361
83333.3284691747
83333.328468854
83333.3284682568
83333.3284675224
83333.3284667809
83333.3284661245
83333.3284655825
83333.3284651009
83333.328464562
83333.3284638405
83333.3284628746
83333.3284815541
83333.328480339
83333.3284788359
83333.3284772141
83333.3284756457
83333.3284742737
83333.3284731772
83333.328472348
83333.3284716912
83333.3284710475
83333.3284702545
83333.328469217
83333.3284963271
83333.3284939892
83333.3284913166
83333.328488518
83333.3284858165
83333.3284834122
83333.3284814396
83333.3284799377
83333.3284788527
83333.3284780478
83333.3284773229
83333.3284764724
83333.3284753976
83333.3285135799
83333.3285099113
83333.3285058117
83333.3285015577
83333.3284974327
83333.3284936937
83333.3284905283
83333.3284880258
83333.3284861759
83333.3284848815
83333.3284839792
83333.3284832558
83333.3284824394
83333.3284813666
83333.3283879711
83333.3283949148
83333.328394609
83333.3284020812
83333.3284016945
83333.3284013386
83333.3284089189
83333.3284089593
83333.3284085532
83333.3284081315
83333.3284153409
83333.3284159092
83333.3284158994
83333.3284154635
83333.3284149603
83333.3284214963
83333.3284224882
83333.3284229367
83333.3284228735
83333.3284223909
83333.3284217992
83333.328427622
83333.3284288855
83333.3284296548
83333.3284299745
83333.3284298443
83333.3284293042
83333.3284286266
83333.3284340032
83333.3284353618
83333.3284362757
83333.3284368121
83333.3284369863
83333.3284367745
83333.3284361774
83333.3284354202
83333.3284409536
83333.3284422203
83333.3284430862
83333.3284436342
83333.3284439157
83333.328443929
83333.328443628
83333.3284429843
83333.3284421559
83333.3284488208
83333.3284498011
83333.3284504111
83333.3284507495
83333.3284509016
83333.3284509117
83333.3284507613
83333.3284503762
83333.3284496984
83333.3284488063
83333.3284579942
83333.328458489
83333.3284586202
83333.3284585132
83333.3284582871
83333.3284580285
83333.3284577679
83333.3284574591
83333.3284570003
83333.3284562961
83333.3284553478
83333.328468915
83333.3284687205
83333.328468141
83333.328467336
83333.328466465
83333.3284656607
83333.3284649999
83333.328464481
83333.3284640246
83333.3284634955
83333.328462761
83333.3284617618
83333.3284820588
83333.3284809633
83333.3284794299
83333.3284776567
83333.3284758518
83333.3284742026
83333.3284728381
83333.3284718004
83333.3284710461
83333.3284704555
83333.3284698514
83333.3284690681
83333.3284680201
83333.3284977517
83333.3284955464
83333.3284928079
83333.3284897843
83333.3284867439
83333.3284839375
83333.3284815515
83333.3284796766
83333.3284783082
83333.3284773575
83333.3284766625
83333.3284760127
83333.3284751976
83333.3284741387
83333.3285160463
83333.3285125256
83333.3285083326
83333.3285037906
83333.3284992362
83333.3284949827
83333.3284912716
83333.3284882439
83333.3284859396
83333.3284843053
83333.3284832098
83333.3284824669
83333.3284818593
83333.3284811046
83333.3284800783
83333.3283814381
83333.3283882207
83333.3283879166
83333.3283952263
83333.3283948484
83333.3283944924
83333.3284018986
83333.3284019644
83333.328401564
83333.3284011403
83333.3284081301
83333.3284087593
83333.3284087764
83333.3284083403
83333.3284078352
83333.3284140374
83333.3284151482
83333.3284156706
83333.328415637
83333.3284151485
83333.3284145541
83333.3284198263
83333.3284212897
83333.3284222034
83333.3284226114
83333.3284225091
83333.3284219588
83333.3284212788
83333.3284257487
83333.3284274074
83333.3284285591
83333.328429265
83333.3284295397
83333.3284293581
83333.3284287491
83333.3284279909
83333.328432085
83333.3284337703
83333.3284349893
83333.328435814
83333.3284362911
83333.3284364182
83333.328436155
83333.3284354979
83333.3284346704
83333.3284391471
83333.3284406849
83333.3284417844
83333.328442531
83333.3284429995
83333.3284432315
83333.3284432101
83333.3284428706
83333.3284421818
83333.3284412946
83333.3284472816
83333.3284484942
83333.3284492728
83333.3284497266
83333.3284499617
83333.3284500576
83333.3284500449
83333.328449883
83333.3284494821
83333.328448776
83333.3284478375
83333.3284568763
83333.3284575834
83333.3284578309
83333.3284577608
83333.3284575184
83333.3284572252
83333.3284569544
83333.3284567092
83333.3284564208
83333.3284559723
83333.3284552597
83333.3284542817
83333.3284683689
83333.3284683885
83333.3284678875
83333.3284670491
83333.3284660653
83333.3284651089
83333.3284643009
83333.3284636851
83333.3284632288
83333.3284628303
83333.328462341
83333.3284616206
83333.3284606131
83333.3284822238
83333.3284813729
83333.3284798981
83333.328478031
83333.3284760207
83333.3284741027
83333.3284724552
83333.328471168
83333.3284702431
83333.3284696057
83333.328469114
83333.3284685814
83333.3284678371
83333.3284668075
83333.3284987509
83333.3284968475
83333.3284941639
83333.3284909955
83333.3284876634
83333.3284844761
83333.3284816745
83333.3284794002
83333.3284776962
83333.3284765171
83333.3284757426
83333.3284751909
83333.3284746513
83333.3284739029
83333.3284728912
83333.3285179998
83333.3285148372
83333.3285106897
83333.3285059576
83333.3285010365
83333.3284963029
83333.3284920568
83333.3284884916
83333.3284856969
83333.3284836656
83333.3284823028
83333.3284814469
83333.3284808973
83333.3284804364
83333.3284797759
83333.3284788291
83333.3283750696
83333.3283816816
83333.3283813842
83333.3283885216
83333.3283881559
83333.3283878038
83333.3283950216
83333.3283951132
83333.3283947237
83333.328394302
83333.3284010604
83333.328401743
83333.3284017883
83333.3284013601
83333.3284008558
83333.3284067283
83333.3284079397
83333.328408528
83333.3284085237
83333.3284080394
83333.328407445
83333.3284122025
83333.3284138348
83333.3284148726
83333.3284153571
83333.3284152874
83333.3284147337
83333.3284140545
83333.3284177054
83333.3284196189
83333.3284209749
83333.3284218278
83333.3284221938
83333.3284220404
83333.3284214251
83333.3284206692
83333.3284234843
83333.3284255279
83333.3284270512
83333.3284281161
83333.3284287642
83333.3284289922
83333.3284287616
83333.3284280962
83333.3284272728
83333.3284298173
83333.3284318354
83333.3284333598
83333.3284344625
83333.3284352084
83333.3284356348
83333.3284357261
83333.3284354254
83333.3284347274
83333.3284338464
83333.3284370131
83333.3284388489
83333.3284401948
83333.3284411431
83333.3284417861
83333.3284421949
83333.3284423998
83333.3284423645
83333.3284420087
83333.3284412967
83333.328440368
83333.3284454159
83333.3284469113
83333.3284478902
83333.3284484751
83333.3284487942
83333.3284489572
83333.3284490327
83333.3284490279
83333.3284488819
83333.3284484911
83333.3284477808
83333.3284468161
83333.3284554085
83333.3284564058
83333.3284568237
83333.3284568236
83333.3284565787
83333.3284562459
83333.3284559379
83333.328455699
83333.3284555048
83333.3284552672
83333.3284548577
83333.3284541631
83333.3284531789
83333.328467418
83333.3284677636
83333.3284674231
83333.3284666056
83333.3284655387
83333.3284644379
83333.3284634691
83333.3284627196
83333.3284621972
83333.3284618413
83333.3284615321
83333.3284611128
83333.3284604354
83333.3284594484
83333.3284818836
83333.3284814367
83333.3284801385
83333.3284782582
83333.3284760914
83333.3284739267
83333.328471995
83333.3284704344
83333.328469291
83333.3284685294
83333.3284680467
83333.3284676843
83333.3284672571
83333.3284665845
83333.328465604
83333.3284990812
83333.3284977193
83333.3284952515
83333.3284920482
83333.328488494
83333.3284849634
83333.3284817584
83333.3284790738
83333.3284770005
83333.3284755361
83333.3284745968
83333.3284740349
83333.3284736583
83333.3284732617
83333.3284726105
83333.3284716932
83333.3285190916
83333.3285166312
83333.3285127379
83333.328507938
83333.328502734
83333.3284975728
83333.3284928171
83333.3284887167
83333.3284854118
83333.3284829423
83333.3284812539
83333.3284802123
83333.328479631
83333.3284793017
83333.3284790132
83333.328478484
83333.3284777236
83333.3283688878
83333.328375297
83333.3283750157
83333.3283819633
83333.3283816176
83333.3283812742
83333.3283882927
83333.328388411
83333.3283880356
83333.3283876204
83333.3283941392
83333.328394869
83333.3283949435
83333.3283945274
83333.3283940284
83333.3283995753
83333.3284008728
83333.3284015191
83333.328401545
83333.3284010704
83333.3284004808
83333.3284047556
83333.3284065293
83333.3284076734
83333.3284082248
83333.328408188
83333.3284076404
83333.328406965
83333.3284098746
83333.3284120022
83333.3284135318
83333.3284145107
83333.328414957
83333.3284148358
83333.3284142201
83333.3284134691
83333.3284151494
83333.3284174958
83333.3284192787
83333.3284205504
83333.3284213474
83333.3284216658
83333.3284214649
83333.3284207973
83333.3284199803
83333.3284208252
83333.3284232519
83333.3284251409
83333.3284265513
83333.3284275382
83333.3284281345
83333.3284283249
83333.3284280585
83333.3284273561
83333.3284264831
83333.3284271752
83333.3284295445
83333.3284313804
83333.328432759
83333.3284337585
83333.3284344416
83333.3284348367
83333.3284349112
83333.3284345945
83333.3284338776
83333.3284329596
83333.3284345044
83333.3284366795
83333.3284382959
83333.3284394561
83333.3284402707
83333.3284408368
83333.3284412177
83333.328441423
83333.3284413992
83333.3284410531
83333.3284403412
83333.3284393896
83333.3284431514
83333.3284449968
83333.3284462223
83333.3284469656
83333.3284473788
83333.3284476023
83333.3284477394
83333.3284478344
83333.3284478699
83333.3284477686
83333.3284474153
83333.3284467259
83333.3284457574
83333.3284534881
83333.3284548733
83333.3284555346
83333.3284556534
83333.3284554326
83333.3284550666
83333.3284547082
83333.3284544406
83333.3284542771
83333.3284541688
83333.3284540117
83333.3284536699
83333.3284530217
83333.3284520592
83333.328465919
83333.3284667288
83333.3284666552
83333.3284659343
83333.3284648311
83333.3284636077
83333.3284624779
83333.3284615731
83333.3284609414
83333.3284605578
83333.328460337
83333.3284601466
83333.3284598288
83333.3284592257
83333.3284582901
83333.3284808287
83333.3284809916
83333.3284800232
83333.3284782395
83333.3284759878
83333.3284736166
83333.3284714148
83333.3284695719
83333.3284681793
83333.3284672416
83333.3284666885
83333.3284663933
83333.3284661905
83333.3284659025
83333.3284653312
83333.3284644509
83333.3284984184
83333.3284979184
83333.3284959027
83333.328492815
83333.3284891366
83333.3284853222
83333.328481743
83333.3284786526
83333.3284761924
83333.3284744046
83333.3284732427
83333.3284725872
83333.3284722695
83333.3284720948
83333.3284718632
83333.3284713493
83333.3284705835
83333.3285401307
83333.3285188914
83333.3285175569
83333.3285142602
83333.3285095956
83333.3285042146
83333.3284986972
83333.3284934754
83333.3284888577
83333.3284850384
83333.3284821062
83333.3284800497
83333.3284787679
83333.3284780905
83333.3284778113
83333.3284777201
83333.3284776302
83333.3284772954
83333.3284768205
83333.3283629151
83333.3283690952
83333.328368837
83333.3283755403
83333.3283752327
83333.3283749076
83333.3283817057
83333.3283818538
83333.3283814997
83333.3283810962
83333.3283873678
83333.3283881425
83333.3283882466
83333.3283878457
83333.3283873563
83333.3283925833
83333.3283939551
83333.328394653
83333.3283947091
83333.3283942479
83333.3283936673
83333.3283974904
83333.3283993814
83333.3284006155
83333.3284012264
83333.3284012219
83333.3284006866
83333.3284000189
83333.3284022566
83333.328404562
83333.3284062381
83333.3284073245
83333.3284078394
83333.3284077546
83333.3284071454
83333.3284064021
83333.3284070762
83333.3284096754
83333.3284116773
83333.3284131252
83333.3284140501
83333.3284144506
83333.3284142798
83333.3284136159
83333.3284128071
83333.3284121624
83333.3284149323
83333.3284171305
83333.3284188043
83333.328419999
83333.3284207432
83333.3284210216
83333.3284207864
83333.3284200854
83333.3284192221
83333.3284177548
83333.3284205748
83333.3284228289
83333.3284245775
83333.3284258856
83333.3284268072
83333.328427368
83333.3284275386
83333.3284272571
83333.3284265392
83333.3284256324
83333.3284241212
83333.3284268738
83333.3284290377
83333.3284306963
83333.3284319429
83333.3284328615
83333.3284335095
83333.3284338983
83333.3284339801
83333.3284336724
83333.3284329595
83333.3284320218
83333.3284315607
83333.3284341311
83333.3284360557
83333.3284374489
83333.3284384409
83333.3284391551
83333.3284396851
83333.3284400736
83333.3284403094
83333.3284403245
83333.3284400148
83333.3284393269
83333.3284383742
83333.3284404008
83333.3284426796
83333.3284442146
83333.3284451587
83333.3284456883
83333.3284459762
83333.3284461611
83333.3284463218
83333.3284464755
83333.3284465836
83333.3284465551
83333.3284462668
83333.3284456267
83333.328444681
83333.3284509933
83333.3284528844
83333.3284538825
83333.3284541879
83333.3284540341
83333.3284536551
83333.3284532457
83333.3284529293
83333.3284527554
83333.3284527083
83333.3284527176
83333.3284526691
83333.3284524254
83333.3284518538
83333.3284509441
83333.3284637006
83333.3284651426
83333.3284654696
83333.3284649454
83333.3284638743
83333.3284625679
83333.3284612917
83333.3284602244
83333.3284594558
83333.3284589974
83333.3284587932
83333.328458738
83333.3284586942
83333.3284585116
83333.3284580131
83333.3284571746
83333.3284788154
83333.32847983
83333.3284793925
83333.3284778514
83333.3284756153
83333.3284731004
83333.3284706608
83333.3284685427
83333.3284668863
83333.328465738
83333.3284650622
83333.3284647568
83333.328464678
83333.3284646616
83333.328464535
83333.3284641036
83333.3284633557
83333.3284965643
83333.3284971269
83333.3284958756
83333.3284931344
83333.3284894702
83333.3284854586
83333.3284815557
83333.3284780813
83333.3284752328
83333.3284731002
83333.3284716771
83333.3284708743
83333.3284705405
83333.3284704923
83333.3284705357
83333.3284704934
83333.3284701571
83333.3284696877
83333.3285418333
83333.3285382883
83333.3285171268
83333.3285172042
83333.3285149057
83333.3285107147
83333.3285053504
83333.3284995685
83333.3284939418
83333.3284888422
83333.3284845203
83333.3284811172
83333.3284786671
83333.328477106
83333.3284762879
83333.3284760109
83333.3284760541
83333.3284762159
83333.3284763646
83333.3284763107
83333.3284761801
83333.3283631244
83333.3283628702
83333.3283692947
83333.328369032
83333.3283687329
83333.3283752466
83333.3283754311
83333.3283751148
83333.3283747342
83333.3283807421
83333.328381557
83333.3283816921
83333.3283813154
83333.3283808405
83333.3283857545
83333.3283871911
83333.3283879335
83333.3283880199
83333.3283875771
83333.328387008
83333.3283904087
83333.3283923972
83333.3283937066
83333.3283943705
83333.328394398
83333.3283938784
83333.3283932221
83333.3283948513
83333.3283973021
83333.3283991009
83333.3284002792
83333.3284008551
83333.3284008053
83333.3284002091
83333.3283994766
83333.3283992596
83333.3284020671
83333.3284042518
83333.3284058484
83333.3284068823
83333.3284073545
83333.3284072183
83333.3284065627
83333.3284057646
83333.3284038184
83333.3284068727
83333.3284093302
83333.3284112267
83333.3284125991
83333.3284134714
83333.3284138292
83333.3284136244
83333.3284129299
83333.3284120774
83333.3284087359
83333.3284119317
83333.3284145381
83333.3284166014
83333.3284181743
83333.3284193018
83333.3284200069
83333.3284202622
83333.3284200129
83333.3284192991
83333.3284184042
83333.3284142449
83333.3284174815
83333.3284201094
83333.3284221944
83333.3284238132
83333.3284250373
83333.3284259175
83333.3284264657
83333.3284266396
83333.328426367
83333.3284256559
83333.3284247322
83333.3284206067
83333.3284237877
83333.3284263084
83333.3284282615
83333.328429756
83333.3284308983
83333.3284317716
83333.3284324166
83333.3284328268
83333.3284329422
83333.3284326697
83333.3284319844
83333.3284310483
83333.3284281095
83333.3284311448
83333.32843343
83333.3284350909
83333.3284362775
83333.3284371406
83333.3284378044
83333.3284383424
83333.3284387743
83333.3284390706
83333.3284391514
83333.328438905
83333.3284382688
83333.3284373395
83333.3284370623
83333.3284398738
83333.3284417982
83333.3284430018
83333.3284436855
83333.328444055
83333.3284442856
83333.328444492
83333.328444724
83333.3284449737
83333.3284451839
83333.3284452543
83333.328445061
83333.3284445005
83333.328443609
83333.3284477838
83333.3284503191
83333.3284517682
83333.3284523487
83333.328452324
83333.3284519689
83333.3284515227
83333.3284511508
83333.3284509409
83333.3284509104
83333.3284510164
83333.3284511712
83333.3284512578
83333.3284511443
83333.3284506803
83333.3284498659
83333.3284605756
83333.3284628362
83333.3284637279
83333.3284635286
83333.3284625826
83333.3284612541
83333.3284598643
83333.328458643
83333.3284577253
83333.3284571612
83333.3284569263
83333.3284569369
83333.3284570733
83333.328457202
83333.3284571798
83333.3284568215
83333.3284561177
83333.328475673
83333.3284777075
83333.3284780418
83333.3284769397
83333.3284748564
83333.3284722887
83333.3284696658
83333.3284672981
83333.3284653798
83333.3284640031
83333.3284631699
83333.3284628061
83333.3284627823
83333.3284629441
83333.3284631311
83333.3284631901
83333.3284629275
83333.3284624759
83333.3284932813
83333.3284951474
83333.3284948561
83333.3284927698
83333.3284893416
83333.3284852587
83333.3284811083
83333.3284772925
83333.3284740719
83333.3284715898
83333.3284698835
83333.3284688982
83333.3284685048
83333.3284685251
83333.3284687658
83333.3284690401
83333.3284692138
83333.3284691586
83333.32846905
83333.3285419224
83333.3285397944
83333.3285351617
83333.3285134868
83333.3285153154
83333.3285142822
83333.3285109492
83333.3285059324
83333.3285000676
83333.3284941153
83333.3284885861
83333.3284837905
83333.3284799241
83333.3284770708
83333.3284752075
83333.3284742178
83333.3284739141
83333.3284740678
83333.3284744545
83333.3284749117
83333.3284753556
83333.3284756747
83333.3284758386
83333.328363323
83333.3283630673
83333.3283627745
83333.3283689669
83333.3283691874
83333.3283689179
83333.3283685662
83333.3283742502
83333.3283751001
83333.328375269
83333.3283749355
83333.3283744863
83333.3283790825
83333.3283805718
83333.3283813521
83333.3283814706
83333.3283810555
83333.3283805037
83333.3283835094
83333.3283855773
83333.3283869493
83333.3283876598
83333.3283877201
83333.3283872203
83333.3283865781
83333.3283876578
83333.328390226
83333.3283921261
83333.3283933822
83333.3283940128
83333.3283939971
83333.3283934179
83333.3283926986
83333.3283916943
83333.3283946707
83333.3283970061
83333.3283987273
83333.3283998543
83333.3284003884
83333.3284002894
83333.3283996463
83333.3283988614
83333.3283957816
83333.3283990684
83333.3284017403
83333.3284038234
83333.3284053459
83333.3284063278
83333.3284067578
83333.3284065846
83333.3284059005
83333.3284050609
83333.3284001002
83333.328403605
83333.3284065046
83333.3284088326
83333.32841063
83333.328411934
83333.3284127643
83333.3284130952
83333.3284128772
83333.3284121714
83333.3284112897
83333.3284048504
83333.328408487
83333.3284115031
83333.3284139487
83333.3284158848
83333.3284173712
83333.328418452
83333.3284191387
83333.3284193934
83333.3284191533
83333.3284184481
83333.3284175387
83333.3284102577
83333.3284139456
83333.3284169677
83333.3284193969
83333.3284213223
83333.328422834
83333.328424005
83333.3284248726
83333.3284254341
83333.3284256366
83333.3284253981
83333.3284247174
83333.3284237974
83333.328416573
83333.3284202389
83333.3284231584
83333.3284254328
83333.3284271868
83333.3284285498
83333.3284296314
83333.3284304989
83333.3284311734
83333.3284316328
83333.3284318076
83333.328431597
83333.328430966
83333.3284300541
83333.3284240671
83333.3284276493
83333.3284303619
83333.3284323397
83333.3284337522
83333.3284347773
83333.3284355708
83333.3284362375
83333.3284368264
83333.3284373357
83333.3284377199
83333.3284378915
83333.3284377376
83333.3284371836
83333.3284363098
83333.328433021
83333.3284364789
83333.3284388892
83333.3284404284
83333.3284413206
83333.3284418044
83333.3284420931
83333.3284423381
83333.3284426235
83333.3284429715
83333.3284433506
83333.3284436884
83333.3284438826
83333.3284438161
83333.3284433674
83333.3284425716
83333.3284437086
83333.3284470393
83333.3284490748
83333.3284500404
83333.3284502276
83333.3284499523
83333.3284495004
83333.3284490821
83333.3284488254
83333.3284487829
83333.3284489408
83333.3284492317
83333.3284495561
83333.3284498021
83333.3284498473
83333.3284495233
83333.3284488542
83333.3284563712
83333.3284596251
83333.328461265
83333.3284615502
83333.3284608507
83333.3284595854
83333.3284581358
83333.3284567876
83333.3284557249
83333.3284550401
83333.3284547436
83333.328454777
83333.3284550326
83333.3284553837
83333.3284557023
83333.3284558629
83333.3284556789
83333.3284552638
83333.3284711823
83333.3284744665
83333.3284757278
83333.3284753048
83333.3284735638
83333.3284710708
83333.3284683463