/*--------------------------------*- C++ -*----------------------------------*\
  =========                 |
  \\      /  F ield         | OpenFOAM: The Open Source CFD Toolbox
   \\    /   O peration     | Website:  https://openfoam.org
    \\  /    A nd           | Version:  12
     \\/     M anipulation  |
\*---------------------------------------------------------------------------*/
/*   Windows 32 and 64 bit porting by blueCAPE: http://www.bluecape.com.pt   *\
|  Based on Windows porting (2.0.x v4) by Symscape: http://www.symscape.com   |
\*---------------------------------------------------------------------------*/
FoamFile
{
    format      ascii;
    class       volVectorField;
    location    "400";
    object      U;
}
// * * * * * * * * * * * * * * * * * * * * * * * * * * * * * * * * * * * * * //

dimensions      [0 1 -1 0 0 0 0];

internalField   nonuniform List<vector> 
10123
(
(-2.25039145530143e-06 -0.000152410728082796 -1.86672482819634e-05)
(-2.1500467810053e-06 -0.000193413134091436 -1.53970978155852e-05)
(-2.53182148367953e-06 -0.000172340144628562 -3.99747538753276e-05)
(-6.57832851004656e-06 -0.000155334588218085 -1.558987861194e-05)
(-1.74455203284872e-06 -0.000222833586495482 -1.13130019833003e-05)
(-2.22114741339358e-06 -0.000199683140067778 -2.99523441567498e-05)
(-6.43163089235511e-06 -0.000196273925078396 -1.38208196106729e-05)
(8.88580001197576e-08 -0.000335558170878685 -6.31891719795824e-05)
(-8.26839796812525e-06 -7.70109500929694e-05 -3.29939628487766e-05)
(-1.38005933015452e-05 -0.000105512794396644 -1.06516333388874e-05)
(-2.03875378707711e-06 -0.000242048800989892 -5.4960759620891e-06)
(-1.87363017257504e-06 -0.000218077049960649 -1.91836201689502e-05)
(-5.51203418682452e-06 -0.000227103697336382 -1.05757784105365e-05)
(2.57294843895945e-07 -0.000352450580339627 -4.54091373829822e-05)
(-7.44982229729192e-06 -0.000107272035776359 -2.50658917105071e-05)
(-1.29202650103677e-05 -0.000146976535707258 -1.06478012090392e-05)
(1.77122026908458e-06 -0.000410634428849853 -8.56311584193056e-05)
(-4.55125707384062e-08 -0.000273483128279857 -5.65197552228577e-05)
(-1.52093243373724e-05 -4.66812901276037e-06 -2.92501035542548e-05)
(-2.14725501577192e-05 -8.87482115053995e-05 -8.8987524709342e-06)
(-2.5280248798715e-06 -0.000252772141799516 5.63771168482876e-08)
(-1.81675772185269e-06 -0.000228881613517157 -7.49211818475259e-06)
(-5.82362334274867e-06 -0.000246336008776482 -5.11806566832947e-06)
(3.9172286706946e-07 -0.000362353585125778 -2.73089731133586e-05)
(-6.50276261756157e-06 -0.000128407896559879 -1.57846035280729e-05)
(-1.16653297359903e-05 -0.000177897431571172 -8.93282162264784e-06)
(1.87302878972778e-06 -0.000421346151046118 -6.03849371584871e-05)
(5.45951030854414e-07 -0.00029157721225037 -4.06333353311696e-05)
(-1.35610578176534e-05 -3.63788465481161e-05 -2.27584368933958e-05)
(-2.01360710223761e-05 -0.000129624427172504 -9.60346177036702e-06)
(3.35585934030119e-06 -0.000460614632860829 -0.000107311160782944)
(5.56560026228774e-06 -0.000373980053789097 -7.90373539157934e-05)
(-7.05967343732016e-07 -0.000223237299894347 -5.29518620416783e-05)
(-2.32524028622224e-05 3.49658168100487e-05 -2.73862270501857e-05)
(-2.96241899759477e-05 -7.99545409369942e-05 -7.81749199027297e-06)
(-3.03721202525147e-06 -0.000254717953636435 4.78349531848841e-06)
(-1.94393540947493e-06 -0.000232411089038508 3.65923346038605e-06)
(-6.64035658797621e-06 -0.000257322001716251 2.23311852495869e-07)
(4.07238620628894e-07 -0.000365321787263047 -9.56992450171628e-06)
(-6.25790114961127e-06 -0.000141568412812753 -5.18448713960411e-06)
(-1.15664985871703e-05 -0.000197386930887405 -4.24113163958556e-06)
(1.86367349752387e-06 -0.000425691327841555 -3.50698774465538e-05)
(9.27908659973759e-07 -0.00030306267026783 -2.39797689044746e-05)
(-1.21110640838274e-05 -5.88348234926109e-05 -1.45713528367625e-05)
(-1.87545256381039e-05 -0.000160375363804797 -8.59614117372429e-06)
(3.28501484609141e-06 -0.000466063152331173 -7.45476836190172e-05)
(5.8402391573529e-06 -0.000385296505253591 -5.54296244883041e-05)
(3.37199213624272e-07 -0.000242013551403465 -3.84115743519291e-05)
(-2.06359048517211e-05 2.82863168704536e-06 -2.17262677629191e-05)
(-2.78379158982846e-05 -0.000120389945149623 -8.87244031608225e-06)
(5.17177265203854e-06 -0.000506379319520878 -0.00012887837106057)
(1.06059576463883e-05 -0.000434587324562622 -0.000100251729273995)
(9.57949730340888e-06 -0.000340322606900565 -7.52921702235276e-05)
(-2.03744776218256e-06 -0.000189364908640538 -5.09810885546964e-05)
(-3.27406818530278e-05 6.54146344272138e-05 -2.63456245864647e-05)
(-3.83267048035771e-05 -7.13282255390711e-05 -7.22373251817707e-06)
(-3.47877600992857e-06 -0.000250007532186876 8.7423722187584e-06)
(-2.15947955227063e-06 -0.000229503144672521 1.36259688530272e-05)
(-7.5960374317412e-06 -0.000259713360675156 4.75351898648262e-06)
(2.61151987634129e-07 -0.000361867174879335 7.20279585560632e-06)
(-6.49076886898929e-06 -0.000147328011524189 5.01740598562954e-06)
(-1.22137060429614e-05 -0.000208961410617395 4.49979453604903e-07)
(1.70890693540127e-06 -0.000423691226495495 -1.07247500300541e-05)
(8.25506914903407e-07 -0.000307677445544459 -7.15101450088314e-06)
(-1.15461220852437e-05 -7.35336088530249e-05 -4.66653618512526e-06)
(-1.84994493853014e-05 -0.000179813987257636 -4.20327532322732e-06)
(3.11310860745742e-06 -0.000465503441213862 -4.21094518665193e-05)
(5.82645867686136e-06 -0.000390667378435805 -3.15353031035796e-05)
(9.39191746898587e-07 -0.000254381891836556 -2.2822365659446e-05)
(-1.87374504081552e-05 -2.01874212866644e-05 -1.41917801767401e-05)
(-2.64962815824606e-05 -0.000151016612079417 -8.60758446163679e-06)
(4.87380709060004e-06 -0.000506590021674809 -8.83621127198241e-05)
(1.03507829321603e-05 -0.000440487775216374 -6.92410386426925e-05)
(9.9897860182491e-06 -0.000352015900502294 -5.30093957319634e-05)
(-4.24459901950038e-07 -0.000208439075684408 -3.73418107252514e-05)
(-2.91203620053737e-05 3.28855985660782e-05 -2.12680541887173e-05)
(-3.63322193509897e-05 -0.000111287644045481 -8.75679818300581e-06)
(7.28660148841886e-06 -0.000554688259541899 -0.000150600739583155)
(1.60943817429316e-05 -0.0004847680875011 -0.000120926991011748)
(1.8554421484971e-05 -0.000408868852097735 -9.58905725986787e-05)
(1.33484409048216e-05 -0.000314101043908927 -7.28899041832922e-05)
(-4.5001484397278e-06 -0.000161143381529586 -4.94793599417706e-05)
(-4.35809912388649e-05 9.43737363303657e-05 -2.58551825916202e-05)
(-4.72366250174606e-05 -6.07158917187523e-05 -7.86395857102532e-06)
(-3.86637668336724e-06 -0.000240049415105783 1.20468047737775e-05)
(-2.38889819802428e-06 -0.000221352217935459 2.21181562292366e-05)
(-8.53500772070349e-06 -0.000255575486095948 8.46176364966068e-06)
(3.96988260851075e-08 -0.000353242282951269 2.23101673046811e-05)
(-6.99760602024599e-06 -0.00014651550341974 1.41119225161851e-05)
(-1.31431149291172e-05 -0.000212157773554821 4.63727844110997e-06)
(1.48969547740006e-06 -0.000415981543562848 1.18018705563039e-05)
(4.17454346951888e-07 -0.000305886250233871 8.7434999410246e-06)
(-1.16792324785289e-05 -8.0976458345813e-05 4.99686909482221e-06)
(-1.89970509444836e-05 -0.000191698152268192 3.76460982872035e-07)
(2.84638394033893e-06 -0.000459189909377256 -1.13615367897134e-05)
(5.39944296733841e-06 -0.000389710052599581 -8.28211440631118e-06)
(8.93366299530476e-07 -0.00026022069981307 -6.71410378239118e-06)
(-1.78836949967641e-05 -3.56981707144552e-05 -4.67231552681412e-06)
(-2.62321936926531e-05 -0.000170381267297989 -4.42528791655536e-06)
(4.49405825010711e-06 -0.000501068697565816 -4.86999272894887e-05)
(9.83933376378344e-06 -0.000440745858210129 -3.83339910944197e-05)
(9.87512328034106e-06 -0.000358048649884795 -3.0248025693741e-05)
(3.68236111157661e-07 -0.000221369411169101 -2.2490800168486e-05)
(-2.67415197894329e-05 9.40327495601239e-06 -1.42530685295255e-05)
(-3.50750055844172e-05 -0.00014176361099292 -8.96688747376998e-06)
(6.7031847677067e-06 -0.000549024203135995 -0.000101815932899393)
(1.51650284552093e-05 -0.000485356137872334 -8.24903712922532e-05)
(1.80882406795617e-05 -0.000415108783161332 -6.64185933707512e-05)
(1.39541289052327e-05 -0.00032602438140677 -5.16844540567196e-05)
(-2.2110246218679e-06 -0.000180577456808433 -3.66002136457145e-05)
(-3.90320398152843e-05 6.14817797223633e-05 -2.13304560046274e-05)
(-4.5156468365519e-05 -0.000100127120077298 -9.69900485797568e-06)
(9.70048020688669e-06 -0.000609163952275657 -0.000172253766665248)
(2.23271261740383e-05 -0.000535062806707017 -0.000141376765211418)
(2.79975938645878e-05 -0.000462804181204379 -0.000115568384282332)
(2.65407363177593e-05 -0.000386993767950396 -9.26958617105633e-05)
(1.60514821137479e-05 -0.000290181256433166 -7.0644667123891e-05)
(-8.380144103597e-06 -0.000134146680799473 -4.82810343652585e-05)
(-5.54129954289577e-05 0.000123860557202096 -2.61120796263094e-05)
(-5.59898013238635e-05 -4.68614348924518e-05 -9.65259520695058e-06)
(-4.18149682086448e-06 -0.000225876869086614 1.47053644716995e-05)
(-2.59589673223323e-06 -0.000208933754332366 2.91501423223556e-05)
(-9.41582791699122e-06 -0.000246305256084116 1.15513970332437e-05)
(-1.91628245448786e-07 -0.000340382060328355 3.52769433038007e-05)
(-7.59875849771849e-06 -0.000140400043975081 2.1834098439766e-05)
(-1.42020286913585e-05 -0.00020891823050512 8.00785036631638e-06)
(1.26491261763709e-06 -0.000403779063014972 3.18558350813033e-05)
(-1.53856055848244e-07 -0.000298812469838029 2.29893599490565e-05)
(-1.22518811846175e-05 -8.18657137245181e-05 1.36227404503044e-05)
(-1.9906450046632e-05 -0.000195351706015606 4.48081240265579e-06)
(2.53305313214537e-06 -0.000447848530606543 1.67692165196194e-05)
(4.75676381949189e-06 -0.000383040989086432 1.33389546287376e-05)
(3.16817537801575e-07 -0.000259778124404871 8.60642871379556e-06)
(-1.79042197059353e-05 -4.41617233357437e-05 4.73591010644344e-06)
(-2.67122517531895e-05 -0.000182601357350215 3.33471039172642e-07)
(4.05453839742239e-06 -0.000490280239693817 -1.15015316994372e-05)
(9.0477169503128e-06 -0.000435245222438003 -8.82868849102107e-06)
(9.20029097542387e-06 -0.000358001892960537 -7.87682367258953e-06)
(3.45273941667433e-07 -0.000228083610300459 -6.92023542594709e-06)
(-2.55809380403098e-05 -6.78728475315616e-06 -5.05334055672876e-06)
(-3.48377817546388e-05 -0.000161076899583311 -4.69860708789321e-06)
(6.06149351148681e-06 -0.000537907831679627 -5.46706646955968e-05)
(1.40148813452206e-05 -0.00048055956819213 -4.46069041320798e-05)
(1.71392394576245e-05 -0.000415989060012117 -3.68271134601033e-05)
(1.370066212782e-05 -0.000332605697800487 -2.98422471208265e-05)
(-1.16779631319893e-06 -0.00019411446258098 -2.24292096024514e-05)
(-3.61348757128114e-05 3.75247847315931e-05 -1.47992123962048e-05)
(-4.4080971742518e-05 -0.000130209317776523 -9.97603579374162e-06)
(8.76320762548363e-06 -0.000596315117157427 -0.000114556858001583)
(2.0556793576803e-05 -0.000529745726377558 -9.51495538665645e-05)
(2.64148257164581e-05 -0.000463721825443961 -7.90153549596271e-05)
(2.59242940506266e-05 -0.000393531167998161 -6.45952824733822e-05)
(1.70050474588849e-05 -0.000302488467474842 -5.04920108159349e-05)
(-5.35097072848083e-06 -0.000154007747319588 -3.61582513628758e-05)
(-5.00262624079802e-05 9.07459393573153e-05 -2.20891438361263e-05)
(-5.38431175160071e-05 -8.63838033821801e-05 -1.16360461663219e-05)
(1.23895407758771e-05 -0.00067253291570297 -0.0001930384521135)
(2.94068712911691e-05 -0.000590285329954965 -0.000161469527755148)
(3.85532409301307e-05 -0.000514926014093218 -0.000134652489286278)
(4.01075184218933e-05 -0.000443068714089727 -0.000111142299717355)
(3.34360848009403e-05 -0.000365498530924348 -8.93674824310523e-05)
(1.71332292812454e-05 -0.000266239630021441 -6.84750477194186e-05)
(-1.36728425968956e-05 -0.000106643298575338 -4.76131034515576e-05)
(-6.78516459572869e-05 0.000155322632653127 -2.7339300624336e-05)
(-6.38812696187043e-05 -2.99476256309202e-05 -1.24211335960711e-05)
(-4.44063248159595e-06 -0.000208374563504696 1.68219279058371e-05)
(-2.77407336229268e-06 -0.000193089326030314 3.48113100714839e-05)
(-1.01884457394605e-05 -0.000232870773288862 1.40791533350123e-05)
(-4.21000052706509e-07 -0.000324009506422376 4.60340071108154e-05)
(-8.18070876437273e-06 -0.000129964259156769 2.82096101958548e-05)
(-1.52250295559374e-05 -0.000200660762328249 1.0828893978361e-05)
(1.02378747816157e-06 -0.000387992211801311 4.90817236092921e-05)
(-8.09141918859804e-07 -0.000287421787226826 3.52153527692494e-05)
(-1.30310292711353e-05 -7.7473445263897e-05 2.09291109051281e-05)
(-2.10369396191297e-05 -0.000192663286370506 7.76119483199526e-06)
(2.21431693248204e-06 -0.000432560579284301 4.16394162504865e-05)
(4.03328908725177e-06 -0.000371839869903051 3.26300347184095e-05)
(-5.97066589979483e-07 -0.000254049830669835 2.23472905426747e-05)
(-1.85182247375301e-05 -4.61521871171828e-05 1.31608111385858e-05)
(-2.77244681507243e-05 -0.000186755409006605 4.42924926098057e-06)
(3.58987176974164e-06 -0.000475045623246668 2.21703493225009e-05)
(8.08609339293921e-06 -0.000424682587003078 1.83040987626085e-05)
(8.13353149608779e-06 -0.000352333642257058 1.3074292093892e-05)
(-3.8738219402631e-07 -0.000228642374124471 8.02194692799192e-06)
(-2.54688447531924e-05 -1.61099130631383e-05 4.16884505067021e-06)
(-3.5388320430592e-05 -0.000173644484784754 1.77976940396758e-07)
(5.38768365221166e-06 -0.000522015259638216 -1.09542102013692e-05)
(1.26789511242545e-05 -0.000470505054202736 -8.88301161677304e-06)
(1.57571145501345e-05 -0.000411270257710733 -8.37439776145275e-06)
(1.27438844079619e-05 -0.000333368389946107 -8.18765061497533e-06)
(-1.15627022648311e-06 -0.000201674633687745 -7.39289845228787e-06)
(-3.46503372253516e-05 2.0648800146622e-05 -5.88114489462644e-06)
(-4.40623555547792e-05 -0.000149535467104702 -5.67706691239198e-06)
(7.79712219308194e-06 -0.000578434458733556 -5.95863978879432e-05)
(1.86229393685117e-05 -0.000519328577816971 -5.01501890645263e-05)
(2.440479104034e-05 -0.000459525070193044 -4.2730136958229e-05)
(2.44979601537965e-05 -0.0003949993388582 -3.61577543942448e-05)
(1.67368304433913e-05 -0.000309746900040329 -2.95739145400818e-05)
(-3.95920134903738e-06 -0.000168224490902785 -2.26902422750921e-05)
(-4.66153920311691e-05 6.63372492477198e-05 -1.59971883848051e-05)
(-5.29657985073424e-05 -0.000116271461687231 -1.15135098482994e-05)
(1.10337678689589e-05 -0.000650489763380235 -0.000125772493449771)
(2.66078846287933e-05 -0.000577824441880106 -0.000106907079336447)
(3.55699283790246e-05 -0.000509962160084687 -9.07780474176755e-05)
(3.79396297396547e-05 -0.000444364251632161 -7.6356862508227e-05)
(3.28401674979062e-05 -0.000372545022183074 -6.26676690502043e-05)
(1.85814980480048e-05 -0.00027908654361276 -4.93882258977771e-05)
(-9.88527459279692e-06 -0.000126948954794733 -3.62376513930148e-05)
(-6.17982405093313e-05 0.000122059876953502 -2.37800206979404e-05)
(-6.1996877295729e-05 -6.97926425366584e-05 -1.40154178687974e-05)
(1.53848769094478e-05 -0.000747016014655816 -0.000211462446408491)
(3.73676201844011e-05 -0.000653543659667613 -0.000180440080205213)
(5.04960812567269e-05 -0.000570846634643766 -0.000153011024305956)
(5.51253476504013e-05 -0.000496108192789894 -0.000128566540890901)
(5.10535289644307e-05 -0.000422591282164481 -0.000106292166401837)
(3.84171667227719e-05 -0.000342934250758662 -8.5897153537406e-05)
(1.63666311703098e-05 -0.000241165836320051 -6.67091317174288e-05)
(-2.02684010784441e-05 -7.73077917971431e-05 -4.78675348272911e-05)
(-8.0460633609816e-05 0.000190395325974755 -2.97905881420257e-05)
(-6.966549849679e-05 -1.09912470529736e-05 -1.53931221828957e-05)
(-4.64187781166633e-06 -0.000188393255929954 1.83467503680247e-05)
(-2.93815699590373e-06 -0.000174593153012789 3.91759583354414e-05)
(-1.0812966435011e-05 -0.000216121989603614 1.60297632840916e-05)
(-6.34291007397262e-07 -0.000304852471967387 5.46933021442947e-05)
(-8.70826668749413e-06 -0.000116023084426931 3.33484442226803e-05)
(-1.61580753294459e-05 -0.000188286057314049 1.31851203678488e-05)
(7.66758695101917e-07 -0.000369288082827288 6.34273990819283e-05)
(-1.4990834632796e-06 -0.000272479521116089 4.54153116299195e-05)
(-1.38650591918854e-05 -6.87594885255943e-05 2.69891988021217e-05)
(-2.21808187408148e-05 -0.000185022180155214 1.04824993479731e-05)
(1.90058624149924e-06 -0.000414201954999905 6.29336870712361e-05)
(3.24715810573556e-06 -0.000357003458399046 4.92419106044305e-05)
(-1.66949599716593e-06 -0.000243987338917575 3.41616772370954e-05)
(-1.94463618023284e-05 -4.28910702881226e-05 2.03114769930494e-05)
(-2.90056563616723e-05 -0.000184657257727392 7.75216800413739e-06)
(3.13910549914746e-06 -0.000456421315589613 5.16983553324155e-05)
(7.06316865608437e-06 -0.000410164917985757 4.2373537579306e-05)
(6.84384780419466e-06 -0.000342128400159394 3.18500187331362e-05)
(-1.61265016790603e-06 -0.000223969295645043 2.14911092702708e-05)
(-2.61075726448217e-05 -1.90619343143109e-05 1.24571171740038e-05)
(-3.65656675699633e-05 -0.000178392883434702 4.28127295357082e-06)
(4.72373966743346e-06 -0.000502284349609105 2.8210474852366e-05)
(1.12481490064896e-05 -0.000455975023408831 2.3623666449111e-05)
(1.40836145203182e-05 -0.00040152748523549 1.79594877836476e-05)
(1.12452275080652e-05 -0.000328593393149975 1.22579489738887e-05)
(-2.01999139789158e-06 -0.000203172048014207 7.17936041445716e-06)
(-3.43802990655836e-05 1.04597557769256e-05 3.15212200079905e-06)
(-4.4800770309271e-05 -0.000162535337701568 -7.78722850082554e-07)
(6.83258052698125e-06 -0.000556406800234652 -9.24686383118639e-06)
(1.65883566829041e-05 -0.000504171628759744 -8.20559953119053e-06)
(2.20854248506082e-05 -0.00045021820330336 -8.30345608752404e-06)
(2.24900254645143e-05 -0.000391061709569588 -8.62031130796318e-06)
(1.55577238296359e-05 -0.000311384080552156 -8.661976896322e-06)
(-3.8372826001321e-06 -0.000176671926712132 -8.1972830070059e-06)
(-4.48043750823604e-05 4.87445814244022e-05 -7.35655833710863e-06)
(-5.33063678352013e-05 -0.000135592299223544 -7.21241309491476e-06)
(9.68756601581758e-06 -0.000624137736243911 -6.26651177336154e-05)
(2.37240733060427e-05 -0.000560695299253068 -5.45259209510333e-05)
(3.22507625081581e-05 -0.000500174549103903 -4.77455704617995e-05)
(3.50539694031591e-05 -0.000440812605075855 -4.15535192151156e-05)
(3.10913707969512e-05 -0.000374783893185261 -3.54475834751612e-05)
(1.84543135852437e-05 -0.000287159724321272 -2.94412661200034e-05)
(-8.05754076972463e-06 -0.000141887321086841 -2.34839752317968e-05)
(-5.7899091352646e-05 9.72036976587823e-05 -1.80514703239945e-05)
(-6.13412898734277e-05 -0.000100054866063645 -1.38156816729565e-05)
(1.35370650278527e-05 -0.000713059209653563 -0.000134104618625718)
(3.33443915274137e-05 -0.000632038383379551 -0.000116962001554536)
(4.58094146334732e-05 -0.000558836542681435 -0.000101371455082061)
(5.10228920433719e-05 -0.000491628836216729 -8.69609827213543e-05)
(4.85124555428292e-05 -0.000424545953269064 -7.33464072139827e-05)
(3.80471800127447e-05 -0.000350706625441462 -6.06270253247295e-05)
(1.84246651783123e-05 -0.000254665168941197 -4.86723445552451e-05)
(-1.57582027386817e-05 -9.80953335890273e-05 -3.72034738942538e-05)
(-7.39954533613023e-05 0.00015689991081039 -2.66584459352247e-05)
(-6.88435897346494e-05 -5.07527010126936e-05 -1.68942604181368e-05)
(1.86919606923306e-05 -0.000834237313933359 -0.000225230270914718)
(4.6277928036928e-05 -0.00072712541705943 -0.000196831062542301)
(6.40004772608126e-05 -0.000633894737162687 -0.000169909956804067)
(7.20914241034587e-05 -0.000552066452605361 -0.000144855763341665)
(7.03959898427115e-05 -0.000475739495227709 -0.000121771055651843)
(5.97176274727201e-05 -0.000400283094892212 -0.000101109692102538)
(4.10577129181152e-05 -0.000318667040817915 -8.27248203340046e-05)
(1.37152054865814e-05 -0.000214077765431117 -6.58486018357453e-05)
(-2.80148085643746e-05 -4.48119628407262e-05 -4.95014038180035e-05)
(-9.27196523417106e-05 0.000230638961819381 -3.3782784466501e-05)
(-7.21458387044202e-05 9.90811928366377e-06 -1.86795164718084e-05)
(-4.79849173196401e-06 -0.000166719675825246 1.9342396895334e-05)
(-3.09259606958253e-06 -0.000154148912884944 4.2339702625744e-05)
(-1.13481199937543e-05 -0.000196881615687308 1.73809442811564e-05)
(-8.27445771609852e-07 -0.0002835767581102 6.13888488664106e-05)
(-9.18555154191338e-06 -9.93545564470051e-05 3.72849502163043e-05)
(-1.69252209471499e-05 -0.000172588089951485 1.49962270492843e-05)
(5.15003804627451e-07 -0.000348310984940037 7.49908644371971e-05)
(-2.1734438508106e-06 -0.000254707697232836 5.36516252945462e-05)
(-1.46743616547323e-05 -5.64883896651909e-05 3.18999154975067e-05)
(-2.32620181836764e-05 -0.000173306075138038 1.2785662866009e-05)
(1.58480601884811e-06 -0.00039345126143994 8.06227374208725e-05)
(2.43450816159427e-06 -0.000339227891974869 6.3097920151162e-05)
(-2.7906254359334e-06 -0.00023035320755021 4.40636707501486e-05)
(-2.05113996588992e-05 -3.53138012453606e-05 2.62658821635322e-05)
(-3.03421280795902e-05 -0.000177678232123083 1.05182697768333e-05)
(2.70944049820298e-06 -0.000435269091949067 7.68299894901139e-05)
(6.03843163816327e-06 -0.000392553473923497 6.30349670172704e-05)
(5.45870089739559e-06 -0.0003282652479354 4.80794686692478e-05)
(-3.09020568055402e-06 -0.000214981450416108 3.31330520100828e-05)
(-2.71822753360038e-05 -1.68212987182793e-05 1.95281578820294e-05)
(-3.80605105599353e-05 -0.000176990861336255 7.59703957846269e-06)
(4.09424435077059e-06 -0.00047978525200303 6.22493877852479e-05)
(9.82320155072128e-06 -0.000438051303010034 5.22377666793903e-05)
(1.22773878495068e-05 -0.000387835099116106 4.14320418178707e-05)
(9.40030088895173e-06 -0.000319308984457732 3.06978204659078e-05)
(-3.50947090446134e-06 -0.000199492054527472 2.04029263916034e-05)
(-3.50025930961797e-05 6.5385678133765e-06 1.13086392421592e-05)
(-4.62045484585162e-05 -0.000167932873818745 3.35888551995905e-06)
(5.91771001911592e-06 -0.000531276503407589 3.5354767458204e-05)
(1.45587982546502e-05 -0.000485155131472617 2.95731825194741e-05)
(1.9608047278063e-05 -0.000436463861532427 2.32225864380809e-05)
(2.00883674662821e-05 -0.00038215616755164 1.7046994271812e-05)
(1.36785217642738e-05 -0.000307547327188184 1.12454354952636e-05)
(-4.76315777539414e-06 -0.000179157191965013 5.97175335170605e-06)
(-4.43659217857649e-05 3.76382872413166e-05 1.48754865506332e-06)
(-5.44432323933272e-05 -0.00014901355135258 -2.4097218485417e-06)
(8.38843563668106e-06 -0.000594550917267237 -5.64831986239194e-06)
(2.08447151473146e-05 -0.000539469184795453 -6.2917383931256e-06)
(2.87679516955929e-05 -0.000485795485358893 -7.39002221490938e-06)
(3.17362517936422e-05 -0.00043231067431778 -8.31073629688681e-06)
(2.85700805081628e-05 -0.000371766355914835 -8.89423765349455e-06)
(1.71874021309893e-05 -0.000289770851518065 -9.32129306244816e-06)
(-7.71974757844468e-06 -0.000151263293855529 -9.54111773981241e-06)
(-5.57681697524207e-05 7.88452605323543e-05 -9.64887371104086e-06)
(-6.21617052764424e-05 -0.000119776578753954 -9.45627510922699e-06)
(1.17496527916279e-05 -0.000676011312968609 -6.27093943676147e-05)
(2.93439336764617e-05 -0.00060658738876926 -5.69406791259334e-05)
(4.09141345681965e-05 -0.000542436536020453 -5.14065876576181e-05)
(4.63299996575961e-05 -0.000482580104168509 -4.58203259885317e-05)
(4.49317652396917e-05 -0.000421883905651441 -4.01296570277724e-05)
(3.61905822683292e-05 -0.000353908000778821 -3.469753398103e-05)
(1.85991272835496e-05 -0.000263648187695901 -2.97127849599992e-05)
(-1.34383312942204e-05 -0.00011379748014679 -2.51225921359166e-05)
(-6.97028373552894e-05 0.000131511005390139 -2.12732013878373e-05)
(-6.8815454860484e-05 -8.12879370788414e-05 -1.69236661368748e-05)
(1.62710795087548e-05 -0.000784974449257063 -0.000137583492843745)
(4.08086012232337e-05 -0.000694014069091302 -0.000123984992056708)
(5.72677940440464e-05 -0.000613062074346791 -0.000110021311492586)
(6.56213219559663e-05 -0.000540728216873906 -9.60890985923054e-05)
(6.54305701254411e-05 -0.000472115700219525 -8.25363135254126e-05)
(5.70762260049634e-05 -0.000403182242286106 -7.00426197694438e-05)
(4.111297858117e-05 -0.00032733154068277 -5.88634420327142e-05)
(1.64593622850672e-05 -0.000228325987523179 -4.88064384207953e-05)
(-2.28645874216998e-05 -6.61730426386191e-05 -3.94959677449199e-05)
(-8.6156460439172e-05 0.000196732137983815 -3.10726389072658e-05)
(-7.30933586909174e-05 -2.99443628126479e-05 -2.06429513986364e-05)
(2.22912540435931e-05 -0.000934893304793585 -0.000231236440794001)
(5.61402894670127e-05 -0.000812576870518926 -0.000208470358830283)
(7.91459693240311e-05 -0.000706367960039221 -0.000183972798015197)
(9.126637474779e-05 -0.000614305248442605 -0.000159311038019797)
(9.21706836361982e-05 -0.000531020029979912 -0.000135701384942025)
(8.29356640261667e-05 -0.000452906368538855 -0.000114472904647673)
(6.54895376484504e-05 -0.000375811276908711 -9.61585345690772e-05)
(4.12186339387116e-05 -0.000292199170387549 -8.04754387361806e-05)
(9.2178687694775e-06 -0.00018414702759462 -6.65120002903639e-05)
(-3.67020371594693e-05 -7.85646127195477e-06 -5.30885263297492e-05)
(-0.000104043186928262 0.000277781828249762 -3.97016913811288e-05)
(-6.99329688935672e-05 3.24735196244972e-05 -2.31548784707092e-05)
(-4.89395494956992e-06 -0.000143932218095795 1.98328757963111e-05)
(-3.22387813050646e-06 -0.000132352464323625 4.44482887006545e-05)
(-1.17348745475187e-05 -0.000175957337953105 1.83004601616768e-05)
(-1.00827119193862e-06 -0.000260766622740356 6.63131962735574e-05)
(-9.63217809542154e-06 -8.06964949174975e-05 4.01023942611419e-05)
(-1.75560304448839e-05 -0.00015440413871231 1.62361952007114e-05)
(2.81636352804464e-07 -0.000325658025031021 8.3964280953731e-05)
(-2.77865692132445e-06 -0.000234776072914496 5.99776510023685e-05)
(-1.54079314015123e-05 -4.14182027427136e-05 3.56842541756683e-05)
(-2.41648942934919e-05 -0.000158255625668477 1.45984114652855e-05)
(1.28993592811089e-06 -0.00037090684319541 9.48619797975275e-05)
(1.64166700869333e-06 -0.000319162779662632 7.42765626383791e-05)
(-3.91399980781286e-06 -0.000213831349861718 5.21371625690642e-05)
(-2.16059486222209e-05 -2.41596135504884e-05 3.11120273362485e-05)
(-3.16182705736832e-05 -0.000166637058674918 1.28397511788679e-05)
(2.30881964935934e-06 -0.000412252806389467 9.76046412665272e-05)
(5.03611475659933e-06 -0.000372531520532405 8.02310349281464e-05)
(4.06075847750418e-06 -0.000311441954661895 6.16628066763233e-05)
(-4.66410168959908e-06 -0.000202404032722846 4.29299646798948e-05)
(-2.84644513515327e-05 -1.02540627530716e-05 2.54516617060545e-05)
(-3.95951794008861e-05 -0.000170808837782977 1.03649046282561e-05)
(3.51685274722433e-06 -0.000455362830546794 9.10012370830102e-05)
(8.46670822222823e-06 -0.000417586742763035 7.66579770945577e-05)
(1.04576890627683e-05 -0.000371040358000838 6.16734799472685e-05)
(7.40880268606138e-06 -0.000306360119306586 4.67125820082528e-05)
(-5.36516001436713e-06 -0.000191533210778038 3.19098395095625e-05)
(-3.61767533476551e-05 7.741584033783e-06 1.8304648366891e-05)
(-4.79586595581001e-05 -0.000167346465544728 6.66446723644347e-06)
(5.07925246062333e-06 -0.000504143209050277 7.37336826764987e-05)
(1.26216723266818e-05 -0.000463364000702502 6.25462132793313e-05)
(1.71234387602797e-05 -0.000419320462395327 5.11236534475391e-05)
(1.74920677116317e-05 -0.000369304559318818 4.00686938618188e-05)
(1.13383646297479e-05 -0.000299220905682945 2.9327258738528e-05)
(-6.43808126175373e-06 -0.000176514261695778 1.89095889927567e-05)
(-4.49498240927247e-05 3.26796587768379e-05 9.51724267668721e-06)
(-5.61962571526587e-05 -0.000155177508834567 1.69665232072668e-06)
(7.18705556319931e-06 -0.000562858580446627 4.42679051067002e-05)
(1.80872826630219e-05 -0.000515125321590962 3.66819330475679e-05)
(2.52841315645712e-05 -0.000467582386107196 2.91880567664921e-05)
(2.81964269769661e-05 -0.000419400904728262 2.23395755494194e-05)
(2.5524124021268e-05 -0.000363818725653902 1.60374298607293e-05)
(1.50508547715106e-05 -0.000286965589722199 9.98127255892729e-06)
(-8.60192168711692e-06 -0.000154801547424106 4.20179697706719e-06)
(-5.51585800292876e-05 6.67473123712492e-05 -9.86858697196908e-07)
(-6.38609197542397e-05 -0.000133725012145814 -4.68117094914305e-06)
(1.00659443881925e-05 -0.00063708007453799 8.76574176440193e-07)
(2.54803720689865e-05 -0.000577942116903385 -2.39277591263242e-06)
(3.60308137707868e-05 -0.000522083127356645 -5.10847210136651e-06)
(4.13927497676266e-05 -0.000469083028963562 -6.97577924037545e-06)
(4.07542002270819e-05 -0.000414390240715549 -8.17240749171123e-06)
(3.33487886210544e-05 -0.000351970347213142 -9.21178257188561e-06)
(1.74134093409098e-05 -0.000267318250926885 -1.04082920042694e-05)
(-1.27861358536696e-05 -0.000124161304150267 -1.17012673312528e-05)
(-6.73117120638015e-05 0.000112296201647155 -1.30594313908398e-05)
(-7.02146600505647e-05 -0.000101640755541443 -1.26036125729452e-05)
(1.39782241910118e-05 -0.000734541110105838 -5.80786843684168e-05)
(3.55076847831647e-05 -0.000658140178442818 -5.62190499872269e-05)
(5.05010275193776e-05 -0.000588542682419026 -5.29374387540062e-05)
(5.87353094289475e-05 -0.000525237061632661 -4.85049378003092e-05)
(5.95821607160892e-05 -0.000464128780708407 -4.34242849488663e-05)
(5.30784437405283e-05 -0.00040166449561094 -3.8501104135626e-05)
(3.93833243489232e-05 -0.000331643836666091 -3.42460814425335e-05)
(1.70731682518014e-05 -0.00023830541165778 -3.08041501511031e-05)
(-2.00303798402419e-05 -8.27373297334219e-05 -2.80311492590379e-05)
(-8.1675456382811e-05 0.000170668694135039 -2.6024093267738e-05)
(-7.43337023736207e-05 -6.0271752641671e-05 -2.10054843759945e-05)
(1.92123778441905e-05 -0.000866389514449695 -0.00013365550369154)
(4.89816919517117e-05 -0.000764687787668981 -0.000126101864127801)
(6.99870124513489e-05 -0.000674335680700706 -0.000115460840005651)
(8.19436163344927e-05 -0.000594476134556233 -0.000102998473444265)
(8.42338923786293e-05 -0.000520837463804076 -8.99347124372652e-05)