/*--------------------------------*- C++ -*----------------------------------*\
  =========                 |
  \\      /  F ield         | OpenFOAM: The Open Source CFD Toolbox
   \\    /   O peration     | Website:  https://openfoam.org
    \\  /    A nd           | Version:  12
     \\/     M anipulation  |
\*---------------------------------------------------------------------------*/
/*   Windows 32 and 64 bit porting by blueCAPE: http://www.bluecape.com.pt   *\
|  Based on Windows porting (2.0.x v4) by Symscape: http://www.symscape.com   |
\*---------------------------------------------------------------------------*/
FoamFile
{
    format      ascii;
    class       volScalarField;
    location    "400";
    object      k;
}
// * * * * * * * * * * * * * * * * * * * * * * * * * * * * * * * * * * * * * //

dimensions      [0 2 -2 0 0 0 0];

internalField   nonuniform List<scalar> 
10123
(
3.11904510136457e-05
3.30167883582447e-05
0.000154039570206385
3.20074367750928e-05
3.47521751495339e-05
0.000159516652558803
3.38813286404201e-05
0.000247371121083215
0.00015435447392105
3.31189612388496e-05
3.63868901454899e-05
0.000164602966623794
3.56632850826706e-05
0.000255218283036887
0.000159855587219156
3.50540120750418e-05
0.000320552215371086
0.000247244223997347
0.000154572730755483
3.34458087365789e-05
3.79183358649398e-05
0.00016930718662839
3.73395837823975e-05
0.00026249330344008
0.000164959710666986
3.6894853907688e-05
0.000330294306660007
0.000255091487969107
0.000160084392065365
3.53999785838139e-05
0.00038312217166111
0.000320167512930025
0.000246107694493975
0.000153483678059678
3.25309741555415e-05
3.93489731863274e-05
0.000173647985399274
3.89084894549033e-05
0.000269221275319957
0.000169674067580209
3.8623701390887e-05
0.000339319244961879
0.00026236426014935
0.000165194978947077
3.72597084644082e-05
0.000394482307239584
0.000329902670651328
0.000253921329144024
0.000158960543546544
3.44392487978745e-05
0.000439053047279884
0.00038244248330166
0.000318123086334265
0.000243288066788965
0.000150324059778635
3.07116970944135e-05
4.06821340335206e-05
0.000177647438030517
4.03736307763454e-05
0.000275425163396859
0.000174022032083793
4.02398131811309e-05
0.000347663944786145
0.000269088410896854
0.000169908778287351
3.90048370435797e-05
0.000405005655423469
0.000338918248303297
0.000261162454101868
0.000164036420907683
3.62535826722075e-05
0.000451837437849785
0.000393789411671732
0.000327801622065926
0.000251015909936959
0.000155699344363726
3.25258457692054e-05
0.000490256846635263
0.000438022910575254
0.000379632635180668
0.000313926669018901
0.000238282411456764
0.000145254600633092
2.84888174311719e-05
4.19203230909856e-05
0.000181325534435507
4.17387905214171e-05
0.000281129427704822
0.000178027925186335
4.17482571003411e-05
0.000355356532853278
0.00027528811828591
0.00017425423209136
4.06350376740411e-05
0.000414735531402478
0.000347253152577602
0.000267855908275611
0.000168713901241976
3.7956682834609e-05
0.00046368331932957
0.000404296565540797
0.000336764464804958
0.00025817834535988
0.000160683145141179
3.4239490205376e-05
0.000504317740352796
0.000450786732766951
0.000390905568954514
0.000323484754155537
0.00024585932143697
0.000150466166220647
3.01819455240043e-05
0.000537829988641088
0.000488922595880593
0.000434480481228598
0.000374253682316735
0.00030730452951801
0.00023115000772022
0.000138836738101484
2.61012548346872e-05
4.30651542689732e-05
0.000184698313734171
4.30066059405198e-05
0.000286358082165855
0.000181712196063011
4.31535798747927e-05
0.000362424674238034
0.000280988373239184
0.000178257759945033
4.21562299581805e-05
0.000423704118291002
0.000354936336014179
0.00027402686862542
0.000173024215774501
3.95474268870356e-05
0.000474637690555101
0.0004140101435606
0.000345050104213815
0.000264798410726618
0.000165271139054155
3.58543136110271e-05
0.000517351385788031
0.000462608809702459
0.000401343399763844
0.000332337537133779
0.000252883634651576
0.000155310253979712
3.17793601300794e-05
0.000553048055721309
0.00050295663675283
0.000447154262259426
0.000385378596533788
0.000316671817174218
0.000238512676137958
0.000143840145675347
2.76615134823064e-05
0.000582488241033191
0.000536286185502295
0.000484747468396266
0.000428040306672049
0.000366182792538107
0.000298368785461144
0.000222241154193823
0.000131444907144187
2.35774706203686e-05
4.41174930684692e-05
0.000187778074298861
4.41794308900163e-05
0.000291132875447888
0.000185090919509431
4.44586828900406e-05
0.000368895506732878
0.000286213320309461
0.000181940255825904
4.35733578980259e-05
0.000431942062317723
0.00036199572410153
0.000279700741851992
0.000176995331118322
4.10315584614287e-05
0.000484735868443031
0.000422963313749404
0.000352687819013436
0.00027090147295838
0.000169497077108409
3.73638537347222e-05
0.000529406961688248
0.000473539498650605
0.000410992335485411
0.000340521795055213
0.000259375816414264
0.000159761032593346
3.32780561618998e-05
0.000567160919992912
0.00051596010181274
0.000458891723167113
0.000395680838302741
0.00032534987710732
0.000245341313129476
0.00014849869765307
2.91356935635292e-05
0.000598767605470117
0.000551474840172661
0.000498678529800586
0.000440542590936539
0.000377083332399356
0.000307478485758099
0.000229336049255893
0.000136206418210312
2.4995651386123e-05
0.000624701813797245
0.000580811673358898
0.000531621680973172
0.000477402611951356
0.000418679933222118
0.000355616598567003
0.000287394628712082
0.00021183026267593
0.000123190678977505
2.09132546523652e-05
4.50777034034688e-05
0.000190574386175893
4.52574582872571e-05
0.000295472675379721
0.00018817648333354
4.56660730731568e-05
0.00037479448371278
0.000290984722499549
0.000185317777753291
4.48897843419284e-05
0.000439479401255886
0.000368458439493057
0.000284901685692543
0.000180648501209538
4.2414419628795e-05
0.000494009876896063
0.000431187080808583
0.000359705593398414
0.000276513069621581
0.000173390108242711
3.87724508943418e-05
0.000540521311044169
0.000483614900490535
0.000419885890900116
0.000348066350595483
0.000265360804363821
0.000163856809400338
3.46845335278331e-05
0.000580219059360212
0.000527986182242771
0.000469743472516036
0.000405204954750993
0.000333373480939842
0.00025165254748784
0.000152782697988148
3.05041240050443e-05
0.000613871049332808
0.000565554463584973
0.000511585032007268
0.000452122597311047
0.000387179798921105
0.000315920000818299
0.000235919336562693
0.000140646235600661
2.6338613750232e-05
0.000641961784945197
0.000597060238411387
0.000546698476051031
0.00049114357945306
0.000430929574741654
0.000366222310490493
0.000296187547124502
0.000218611680128839
0.000127680937590948
2.21800811492149e-05
0.000664750282924002
0.000622931973666841
0.00057577495158021
0.0005235400503494
0.000466929123107715
0.000406658873464329
0.000342820410927584
0.000274588455967618
0.000200044207531302
0.000114084246427397
1.81397227883121e-05
4.59452460613851e-05
0.000193094394103488
4.62413525821845e-05
0.000299393655906158
0.000190978359190551
4.67758627334872e-05
0.000380144610918172
0.000295321467947145
0.000188402651592622
4.61072338213048e-05
0.00044634519239899
0.000374349914867574
0.000289651331663803
0.000183999699096329
4.36993735620847e-05
0.00050249258289878
0.000438711334372614
0.000366130363389167
0.000281657232362894
0.00017697200302289
4.00853545460753e-05
0.000550729324960171
0.000492868344182378
0.000428055157072669
0.0003549988626543
0.000270863970454504
0.000167628996265251
3.5998563672544e-05
0.00059226007450547
0.000539073073395845
0.00047974592147465
0.000413983865737437
0.000340770467942397
0.000257470384497815
0.00015671576015086
3.17968823705751e-05
0.000627850487655688
0.000578579606946921
0.00052352056159813
0.000462829311337849
0.000396514779729696
0.000323725978196227
0.000242004969224873
0.000144741515719961
2.75824331503188e-05
0.000657981052920682
0.000612128266909168
0.000560672671405798
0.0005038752622291
0.000442277550062311
0.000376047560999415
0.000304337599305528
0.00022490732300029
0.000131874219072278
2.33830215672406e-05
0.000682920216866334
0.00064016076010673
0.000591906248401685
0.00053841300972071
0.000480394752346345
0.000418582210407191
0.000353068023099704
0.000283011021207364
0.000206470489627857
0.000118273555677346
1.9247280254424e-05
0.000702773612088908
0.000662903093699354
0.000617593859052594
0.000567087185763321
0.000512119233434327
0.000453627685839201
0.000392248787552678
0.000327970437461858
0.000260062938589062
0.000186932876157492
0.000104152377102273
1.53120854127152e-05
4.6718277528044e-05
0.000195343695718002
4.71299076435248e-05
0.000302909536339368
0.000193503883889744
4.7788638662493e-05
0.000384966712788391
0.000299239679384628
0.000191204153220942
4.72263647459042e-05
0.000452564810300465
0.000379693293684907
0.000293968435343135
0.000187060951906274
4.48881877353161e-05
0.000510215200865922
0.000445564644947901
0.000371987364440911
0.000286355337273952
0.000180258646149754
4.13059020963387e-05
0.000560065284640605
0.00050133225729486
0.000435529748840864
0.000361345928376368
0.000275909096471405
0.000171100155944771
3.72240101790465e-05
0.000603320334023422
0.000549255743256775
0.000488932682880384
0.000422048239161304
0.000347567804769452
0.00026281986054302
0.000160335849466918
3.30072326996043e-05
0.000640744132713869
0.000590589569401345
0.000534523545387173
0.000472698456418583
0.000405120088433107
0.000330922957597059
0.000247614148738631
0.000148489333435231
2.87415441745376e-05
0.000672812876224786
0.000626072740490465
0.000573599335462385
0.000515649552846697
0.000452770837436411
0.000385133007666349
0.000311875334260445
0.000230729188265416
0.000135747039387316
2.44965003559937e-05
0.000699789393101262
0.000656143658506843
0.000606863193760183
0.000552199107892399
0.000492873283248619
0.000429629622702318
0.000362563202975557
0.000290819990237389
0.000212439996814855
0.000122193225052704
2.03022553540819e-05
0.000721788586306734
0.000681041875730639
0.000634701477325913
0.000583005081500542
0.000526699141209858
0.000466741109035885
0.000403779325174419
0.000337801199657659
0.00026806476101136
0.000192964777364895
0.000108010620479742
1.62545802165663e-05
0.000738821509938122
0.000700854210471374
0.000657300065799112
0.000608386122612566
0.000554847328432723
0.000497691690750075
0.000437784575089964
0.000375614992041284
0.000311166796660201
0.000243884979001062
0.000172518230633328
9.34059796780813e-05
1.25005568785337e-05
4.73937084797127e-05
0.000197323385893189
4.79222237047882e-05
0.000306030527861636
0.000195758056407085
4.87032942434927e-05
0.000389279225717125
0.000302752896916981
0.000193729495639962
4.82475301014685e-05
0.000458163055333736
0.000384509307273522
0.000297868986972299
0.00018984145512892
4.59815217772502e-05
0.000517206944071498
0.000451773298946128
0.00037729961183664
0.000290625856955702
0.000183261737490827
4.24358431041363e-05
0.000568562346411869
0.000509037892518891
0.000442337896668541
0.000367132368694761
0.000280517190963987
0.000174286172602254
3.83639301415496e-05
0.00061343564047011
0.000558568301547664
0.000497335839144446
0.000429427335149829
0.000353791542677119
0.000267724418033432
0.000163667134085931
3.41370803195049e-05
0.000652589301693044
0.000601621113695959
0.000544629834196507
0.000481763207105551
0.000413025516663916
0.000337536944042952
0.000252771535537507
0.000151934678543679
2.98375147542976e-05
0.000686496085628291
0.000638933462322949
0.000585518062057803
0.00052650412822049
0.00046244405621019
0.000393509151893469
0.000318825631222068
0.000236094556379457
0.000139301991044241
2.55275193455374e-05
0.000715412683108827
0.00067093944895194
0.000620703533029097
0.000564952752596688
0.000504414432755308
0.000439846133699463
0.000371344664836315
0.000298043726705866
0.000217962190998199
0.000125815628760522
2.12785477114296e-05
0.000739446846468866
0.00069787411774683
0.000650569339376792
0.000597764971331956
0.000540215470612873
0.000478894917765844
0.000414464176166438
0.000346911778103682
0.000275486057186258
0.000198572000906426
0.000111623588395397
1.71569822796361e-05
0.000758618423636897
0.000719838163131722
0.000675314784222928
0.000625272316213191
0.000570458275708012
0.000511898400265744
0.000450476328089784
0.000386690245107944
0.000320524426888574
0.000251417953140986
0.000178117556147887
9.69092600141397e-05
1.32778598754687e-05
0.000772892480245342
0.000736831741966318
0.000695004995042435
0.000647623797411947
0.000595418322372921
0.000539416780430539
0.000480565915995873
0.000419567349264328
0.000356851221249254
0.000292480558028264
0.000226102080309073
0.000156838729989063
8.1879233786088e-05
9.78486663324354e-06
4.79677985089912e-05
0.000199031821503478
4.86151551595678e-05
0.000308765634232172
0.000197742977537702
4.95189661415766e-05
0.000393098233215453
0.000305871924508222
0.000195983631262397
4.91703991265991e-05
0.000463162394235591
0.000388816320724632
0.00030136635197414
0.000192348229135447
4.69795838291441e-05
0.000523495173236726
0.000457361708112695
0.000382087703389965
0.000294484521117693
0.000185990158791499
4.34758607300801e-05
0.000576252138595658
0.00051601434537838
0.000448505896093664
0.000372380848251495
0.000284706319023813
0.000177198435897076
3.94200189951947e-05
0.000622640808361328
0.000567044045943826
0.00050498619811162
0.000436148815049414
0.000359465942547501
0.000272204639176336
0.000166725655039139
3.5188799104984e-05
0.000663422983304428
0.00061171008094989
0.000553872606351668
0.00049005528151219
0.000420259725832879
0.000343593225160451
0.000257500215376338
0.000155104435907423
3.08640405553212e-05
0.000699068728491745
0.000650748158945704
0.000596465914980752
0.000536474227790921
0.00047132940431007
0.000401204651730698
0.000325213353289674
0.00024102720775871
0.000142556561506805
2.64890456697973e-05
0.000729829602803903
0.000684588678118396
0.000633467844278162
0.000576712001885486
0.000515054836012413
0.000449265141078914
0.000379441405997162
0.000304705187741152
0.000223052561800716
0.000129148453881426
2.21816419149226e-05
0.000755805419535611
0.000713460652537352
0.000665257091345041
0.000611423013717355
0.000552720072936417
0.000490136763952026
0.000424346489607082
0.000355338798871066
0.000282352768499983
0.000203760942048145
0.00011496178573702
1.79939670314446e-05
0.000777007196804555
0.000737459045888023
0.000692028945797464
0.000640935810811727
0.000584935722891576
0.000525070251582589
0.000462240463966965
0.00039695441757801
0.000329198297194905
0.000258407170996028
0.000183330506816394
0.000100201076331709
1.40288227296766e-05
0.000793405759989924
0.000756597836734192
0.000713862498314901
0.000665410827690833
0.00061198642250778
0.000554636985540589
0.000494327045910366
0.000431771804906326
0.000367410708792867
0.000301310598730615
0.000233120048391447
0.000161962169088988
8.50048933856756e-05
1.04034663939096e-05
0.000804959004185486
0.000770833965190839
0.000730748207260816
0.000684893062142025
0.000633990704308559
0.000579078294659113
0.000521129622939841
0.0004609208558582
0.000399069542870284
0.000336029744821369
0.000271971237333901
0.000206748233404448
0.000139911137602647
6.96152512154124e-05
7.22240272516733e-06
4.84355729596286e-05
0.000200466738735086
4.92044508477843e-05
0.000311121331865831
0.00019945744209708
5.02321745257642e-05
0.000396437729766388
0.000308605299619944
0.000197968850408762
4.99932397575008e-05
0.000467583088712632
0.000392630372814988
0.000304471355065377
0.00019458607179863
4.7881905899665e-05
0.000529105569699818
0.000462352225820689
0.000386369775073674
0.000297944451311844
0.000188450615311665
4.4425952289839e-05
0.000583164696087719
0.000522288673646456
0.000454057893906445
0.000377111669934989
0.000288491808122338
0.000179845406481558
4.03928469267401e-05
0.000630969340209134
0.000574714556301298
0.000511913094523191
0.000442238581121941
0.000364613127902392
0.000276278085388551
0.000169522519595054
3.61639614603838e-05
0.000673281354707864
0.000620891255394438
0.000562285028045109
0.000497604828667799
0.000426849693933151
0.000349115411611004
0.000261820276239652
0.000158015352422899
3.18211119366783e-05
0.000710568798105394
0.000661553889715984
0.00060647854891551
0.000545593572395965
0.000479457927256647
0.000408247254127065
0.00033106285277077
0.000245549846341636
0.000145546867584435
2.74019443036131e-05
0.000743078815522087
0.000697129855392795
0.000645194016062222
0.000587513607838279
0.00052482857175484
0.000457917631849407
0.000386880848833799
0.0003108278544312
0.000227731346841266
0.000132208630964974
2.30217560521314e-05
0.000770904549068766
0.000727842846457242
0.000678806207382379
0.000624019331268397
0.000564251088019166
0.00050050200088979
0.000433458194552572
0.000363109596211585
0.000288685925339377
0.000208545155070728
0.000118041698687711
1.87663738407192e-05
0.000794047424095315
0.000753780255999021
0.000707504385904223
0.000655434262581937
0.000598332904171118
0.000537256892465841
0.00047312281355147
0.000406448657298462
0.000337222714395739
0.000264875831446289
0.000188158145808104
0.000103244673501386
1.47267123694521e-05
0.000812466576416624
0.000774948825829599
0.000731362729567254
0.000681914660031899
0.000627356642226178
0.000568753957107866
0.000507086582564164
0.000443085063048316
0.000377198098091103
0.000309497470054007
0.000239635017397273
0.000166740706234109
8.79573398238389e-05
1.10084184250237e-05
0.000826114414985978
0.000791316758294087
0.000750385834454576
0.000703517580613649
0.000651450227253848
0.000595241872546312
0.000535884162759089
0.000474167851625089
0.000410722785712679
0.000346014423146898
0.000280221045238969
0.000213207424307497
0.000144528096277011
7.23454675405806e-05
7.69193614379923e-06
0.00083496353737219
0.000802833521694378
0.000764526487892044
0.000720224853296037
0.000670640441141035
0.00061681253287732
0.000559725374222747
0.000500179922297063
0.000438854509847616
0.000376364857661979
0.000313216148282031
0.000249686027716213
0.00018585076588238
0.000121728832401391
5.66247436766217e-05
4.8483501823973e-06
4.8794537208114e-05
0.000201621701843958
4.968497907566e-05
0.000313099601090572
0.000200897250492176
5.08384149199806e-05
0.000399308799927335
0.000310958934311882
0.000199683892043988
5.07127704322434e-05
0.000471443344221173
0.000395965239111732
0.000307192302100468
0.000196556943571054
4.86865680633068e-05
0.000534061824802765
0.000466765092889997
0.000390161680275727
0.000301016200936561
0.000190647503378789
4.52852593329415e-05
0.000589328356210354
0.000527886634014149
0.000459015978096719
0.000381342685968008
0.000291886393241371
0.000182233323081773
4.12823912243645e-05
0.000638453529202505
0.000581609765936666
0.000518143091084281
0.000447720489521087
0.000369252914859752
0.000279959558707261
0.000172065854364994
3.70631263548398e-05
0.000682199579255288
0.000629198118061746
0.000569898496047307
0.000504440500129213
0.000432820667418449
0.00035412493706828
0.000265748719702351
0.000160678412058651
3.27095540540703e-05
0.000721033475045031
0.000671386805640276
0.00061559051295345
0.000553893839249606
0.000486859093233794
0.000414663224291245
0.000336396937987786
0.000249682114890559
0.00014829292025894
2.82568141818479e-05
0.000755198972378184
0.000708600999821989
0.00065591897675665
0.000597392945276792
0.000533768878305323
0.000465833646475274
0.000393689603363039
0.000316435001499013
0.000232020711962654
0.000135006271544287
2.38066586059742e-05
0.000784783332128936
0.00074105986390849
0.000691255395365112
0.000635591443092714
0.000574843253843235
0.000510023600868866
0.000441829109625539
0.000370250183073443
0.000294507239359542
0.000212943254941038
0.000120873902730241
1.94832174504495e-05
0.000809779834352884
0.000768844021929343
0.000721783517986933
0.00066880878499478
0.000610689147813412
0.000548495270691211
0.000483157249026051
0.000415203319203529
0.000344623187552271
0.000270842890326264
0.00019260674977798
0.000106042953709013
1.53690184926662e-05
0.000830136383398772
0.000791951140203081
0.00074757022370465
0.000697195063554382
0.000641584202689213
0.000581818268168715
0.000518892454347441
0.000453551100172445
0.000386252329171308
0.000317072872356079
0.000245666766710851
0.000171172675095415
9.06917561575028e-05
1.15712556411935e-05
0.000845788750598778
0.000810339520872672
0.000768613922043981
0.000720802397065252
0.000667651870411766
0.000610237923308727
0.00054956936578943
0.000486451122245743
0.000421525792233791
0.000355270440955779
0.000287872524358367
0.000219208197293922
0.000148842501841515
7.49420993376703e-05
8.15957631746137e-06
0.000856682771930598
0.000823959436024185
0.000784879204694928
0.000739624918151931
0.00068892938353887
0.000633855333507525
0.000575406873533832
0.00051439750801379
0.000451520358179876
0.000387404146547484
0.000322568402339514
0.000257304768976157
0.000191701396597079
0.000125806985279155
5.89425678180627e-05
5.17837106256706e-06
0.000862722133858531
0.0008327719345286
0.000796312574366708
0.000753613030609817
0.000705389383610908
0.000652680001211115
0.00059647183586605
0.000537569430487617
0.000476671809599085
0.000414442464047608
0.000351521342162536
0.000288463570195234
0.000225648511530831
0.000163403245984695
0.000102259144785167
4.29167636317637e-05
2.74433764045118e-06
4.90497299775956e-05
0.000202494927412759
5.00530894604347e-05
0.000314704489037166
0.000202055982754876
5.13319011390197e-05
0.000401720939855522
0.000312936007643031
0.000201123600264582
5.13238931602178e-05
0.000474758793917282
0.000398832254652869
0.000309534873687167
0.000198258937901394
4.93900521761355e-05
0.000538385536314794
0.00047061861761603
0.000393476965290994
0.000303707755238482
0.00019258215778134
4.60518213346449e-05
0.000594769618783898
0.000532831879503001
0.000463400145341601
0.000385089339405389
0.000294900186223846
0.00018436595786249
4.20874749505352e-05
0.000645123942082727
0.000587757953782644
0.000523701573415674
0.000452616174777472
0.000373402723930258
0.000283261254232732
0.000174361369354075
3.78860709620052e-05
0.000690211657227826
0.000636662794605072
0.000576742657866052
0.000510589328174458
0.000438195944173421
0.000358640969717066
0.000269299756271883
0.00016310136924362
3.35297377236796e-05
0.000730499299734399
0.000680282002050114
0.000623835033673943
0.000561406144296831
0.000493560758366798
0.000420476960315806
0.000341236288188559
0.000253440409279308
0.000150806163872913
2.90521650425427e-05
0.000766228236582973
0.000719039361552674
0.000665678658837459
0.000606384021069052
0.000541907073670825
0.000473041871109422
0.000399893010080181
0.000321548504839089
0.000235940064783066
0.000137572905475616
2.45405702218991e-05
0.000797480893404273
0.000753150442030534
0.000702642556154757
0.000646175873025432
0.000584531477589552
0.000518733540784537
0.000449488031526241
0.000376785923297989
0.000299838697330079
0.000216974164990599
0.000123474787821011
2.01522200727649e-05
0.000824243558634138
0.000782689985223464
0.000734905762133328
0.000681097762203157
0.00062204109583952
0.000558819673359579
0.000492375569939238
0.000423246854112873
0.000351424114629582
0.000276328256734547
0.000196696496355484
0.000108613946359999
1.59631054099668e-05
0.000846454877155867
0.000807647593724387
0.000762528373689416
0.000711294146961737
0.000654709171405439
0.000593867851879148
0.000529779962270157
0.000463202296935976
0.000394602052983563
0.000324060297137798
0.00025123159444732
0.000175261037862595
9.32039798608376e-05
1.2086236355767e-05
0.000864037845433801
0.000827970879416473
0.000785500187856043
0.000736809920594514
0.000682652925565057
0.000624119661965725
0.000562235307095916
0.000497816706158805
0.000431520435261075
0.000363834246364069
0.000294954292228267
0.000224765425329341
0.000152845223544598
7.73509687399674e-05
8.59489041115223e-06
0.000876918610978111
0.00084359559618778
0.000803777141509183
0.000757633163296718
0.000705904370757965
0.000649671241897428
0.000589955581070856
0.000527584734411853
0.000463265026296676
0.000397638773321803
0.000331239961495633
0.000264374158764694
0.000197145502672734
0.000129629575281036
6.11676534633038e-05
5.51425355749469e-06
0.000885021253390138
0.000854464774941241
0.000817307662919454
0.000773724295548684
0.000724446871308242
0.000670541706024606
0.000613017523650122
0.000552693960754344
0.0004902826892811
0.000426461119148078
0.000361884990565828
0.000297127112513222
0.000232587346843217
0.000168605175673191
0.000105768002620622
4.48030315656828e-05
2.94423444687265e-06
0.00083821971524408
0.000888203452262561
0.000860471497070405
0.000826047773162803
0.000785029809851263
0.000738227253140512
0.000686693484523001
0.000631413963584975
0.000573190090485165
0.00051271997686462
0.000450682289835076
0.000387752331309952
0.00032459145704151
0.000261795536533852
0.000199850215275276
0.000139358624429461
8.14826501241222e-05
2.8723445617729e-05
1.11735417075643e-06
4.92317008298016e-05
0.000203103812022705
5.03099723587555e-05
0.000315942053394616
0.00020292796501244
5.17075922157748e-05
0.000403682822423057
0.000314539544419792
0.00020227985936708
5.18200921693894e-05
0.000477543150910708
0.000401240923693486
0.00031150236232667
0.000199685767384521
4.99865633270093e-05
0.000542095892535308
0.000473928147178292
0.000396326925070832
0.000306024451979816
0.000194251745263463
4.67217292246744e-05
0.000599512894116866
0.000537145956532072
0.000467228290874731
0.000388364825514449
0.000297540642747181
0.000186243812118725
4.28058857454544e-05
0.000651009465029172
0.000593185556139058
0.000528612002376348
0.000456945201234884
0.000377077505750989
0.000286192705712091
0.000176412106674731
3.863150680162e-05
0.000697350171459888
0.000643315825509619
0.000582845505740257
0.000516075554389547
0.000442996699414794
0.00036268030736428
0.000272484929097849
0.000165289355894116
3.42810877279282e-05
0.000739001764551634
0.000688273384894803
0.000631243921798618
0.000568159776836762
0.000499589162252531
0.000425711010691307
0.000345599292599339
0.000256838284352333
0.000153094048017454
2.97876119405464e-05
0.000776204132694928
0.000728481368838697
0.00067450788350486
0.000614519583852983
0.000549272980836334
0.000479569282145707
0.000405514618604777
0.000326188186730114
0.000239505255878677
0.000139921434501829
2.52329773746284e-05
0.000809036050565184
0.000764152738465288
0.00071300475579635
0.000655808094180195
0.00059334914314036
0.000526662837314747
0.000456462603335461
0.000382741015476951
0.000304701141258872
0.000220657075501187
0.000125859799735688
2.077793390372e-05
0.000837477850038822
0.000795357371857891
0.000746909774248009
0.00069233870296167
0.000632424574820313
0.000568263224435246
0.000500808557680295
0.000430606807875115
0.000357649450317186
0.000281352235995321
0.000200445457184515
0.000110977910115244
1.65162213653914e-05
0.000861460489458545
0.000822077911708012
0.000776277135296584
0.000724251054595431
0.000666769160598744
0.000604938492824703
0.000539782636174105
0.000472069040809598
0.000402274141386161
0.000330482300308292
0.00025634765682416
0.000179019487926765
9.55090441295863e-05
1.25593500428901e-05
0.000880897123146015
0.000844252882462907
0.000801088727672871
0.000751583291970264
0.000696494450996535
0.000636925908742824
0.000573917603296715
0.000508298586118802
0.00044073754866411
0.000371732559027793
0.000301487476637485
0.000229893775525346
0.000156537846622453
7.95606642155283e-05
8.98841220185998e-06
0.000895701323242679
0.000861805815611684
0.000821290361042774
0.000774315113413654
0.00072162524231415
0.00066431549446861
0.000603423366568246
0.000539789448510312
0.000474132529832425
0.00040710827378832
0.000339264407139248
0.000270919202564056
0.000202193350039544
0.000133179252143916
6.32340056833326e-05
5.82608140917729e-06
0.000905792698639081
0.000874662655654249
0.000836817452745729
0.000792398535798742
0.000742138639471952
0.000687120976934415
0.000628372116946242
0.000566726616841495
0.000502906859280988
0.00043760583773682
0.00037149429125734
0.000305162532758998
0.000239029998248709
0.000173453425839159
0.000109071091713209
4.66345110678716e-05
3.15210294688681e-06
0.000911085097374192
0.00088274462727654
0.000847610993730543
0.000805780488248256
0.000757989909779887
0.000705314591158616
0.000648765778745628
0.000589162415045979
0.000527215489579238
0.000463617274537179
0.000399058416362016
0.000334218588008122
0.000269715068401145
0.00020605352531088
0.000143871045204146
8.43977327410247e-05
3.0150617520419e-05
1.20399221039659e-06
0.000862998358320218
0.000836027842455868
0.000911489333433211
0.000885901652747352
0.000853560622807606
0.000814416733034137
0.000769124819119823
0.000718837845248425
0.000664556088066735
0.000607073887036041
0.000547080721446679
0.000485254038885394
0.000422276014436745
0.000358830305463367
0.000295587976182011
0.00023317339601491
0.000172210018852991
0.00011366639021469
5.94833593226841e-05
1.48954716663595e-05
2.40060220054221e-07
0.00020353210794808
5.04904345546021e-05
0.000316827713905714
0.000203520711149552
5.19649707204445e-05
0.00040520400115825
0.000315774518782642
0.000203143582312871
5.21960772385167e-05
0.000479808485881503
0.00040319992039713
0.000313097136052462
0.000200827660221952
5.04692744130012e-05
0.000545209716384819
0.000476707508229061
0.000398720974627191
0.000307969280178542
0.000195648591459196
4.72887852582948e-05
0.000603580237205222
0.000540848051757236
0.000470516204304918
0.000391180163106476
0.000299812551949702
0.000187863009573654
4.34334124595608e-05
0.000656136844018865
0.000597916933299817
0.000532895682116277
0.000460725023335521
0.000380289906103854
0.000288760694167552
0.000178217631551995
3.92967722038102e-05
0.000703645928454231
0.000649186005573977
0.000588233204742019
0.000520922231787623
0.000447241864723091
0.000366257331374375
0.000275313072813125
0.000167244613942474
3.49622886245585e-05
0.000746575107235784
0.00069539344530528
0.000637847435771543
0.000574182203242179
0.000504968768589736
0.000430385859373169
0.000349501989768321
0.000259886533092834
0.000155161149773343
3.04622851277869e-05
0.000785163427849589
0.000736962431871713
0.000682440248038655
0.000621830952198258
0.000555895370083265