/*--------------------------------*- C++ -*----------------------------------*\
  =========                 |
  \\      /  F ield         | OpenFOAM: The Open Source CFD Toolbox
   \\    /   O peration     | Website:  https://openfoam.org
    \\  /    A nd           | Version:  12
     \\/     M anipulation  |
\*---------------------------------------------------------------------------*/
/*   Windows 32 and 64 bit porting by blueCAPE: http://www.bluecape.com.pt   *\
|  Based on Windows porting (2.0.x v4) by Symscape: http://www.symscape.com   |
\*---------------------------------------------------------------------------*/
FoamFile
{
    format      ascii;
    class       volScalarField;
    location    "400";
    object      nut;
}
// * * * * * * * * * * * * * * * * * * * * * * * * * * * * * * * * * * * * * //

dimensions      [0 2 -1 0 0 0 0];

internalField   nonuniform List<scalar> 
10123
(
1.26438630370066e-05
1.33842320398618e-05
0.000229006947115438
1.34390004610501e-05
1.40877336277155e-05
0.00023531805787296
1.42258154974085e-05
0.000656491914575262
0.000234743962011141
1.44814098448763e-05
1.47504095300691e-05
0.000241065360875503
1.49740335935694e-05
0.000670308331984341
0.000241249796967681
1.5327466052808e-05
0.00116298279922092
0.000663983634217309
0.000242142177217657
1.50921167204967e-05
1.53712021391024e-05
0.000246298784595766
1.56778563356483e-05
0.000682912772958563
0.000247147419865729
1.61324941694363e-05
0.00118485785448768
0.000677948201335959
0.000248880060691274
1.59738649454441e-05
0.00167728618407419
0.00116855330327269
0.000672950075923126
0.00024662828375818
1.48732064360999e-05
1.59511606723412e-05
0.000251085603170435
1.63365609065094e-05
0.000694408079609874
0.000252484024976747
1.68884250276557e-05
0.00120485097647479
0.000690685131402228
0.000254959839269761
1.68131820834882e-05
0.0017074910927538
0.00119051294578692
0.000687106662479433
0.000253515195923059
1.57456988484011e-05
0.00216571251048652
0.00167920437706412
0.00117338146739115
0.000677529020039876
0.000245415550950165
1.4048019031996e-05
1.64915992470889e-05
0.000255481640670307
1.69517451029007e-05
0.000704900435107994
0.000257356177993743
1.7595044551301e-05
0.00122310820180589
0.000702283487248752
0.000260425189666703
1.76006166320301e-05
0.00173502251416185
0.00121058744845927
0.000699998413181676
0.000259703387817592
1.65752606828975e-05
0.00220428426754597
0.00170943312200194
0.00119542255440265
0.000691794920243396
0.000252298449851804
1.48778550664664e-05
0.00261478149078987
0.00216370591044477
0.00167738703368545
0.00117258088241362
0.000673700151144296
0.000239324712801562
1.29971243524343e-05
1.6993538163168e-05
0.000259526298320359
1.7524950984729e-05
0.000714490019914979
0.000261831440507291
1.82546196875587e-05
0.00123975872791196
0.000712863195323302
0.000265407131636967
1.8336175476807e-05
0.00176010595585821
0.00122891344744947
0.000711711973450563
0.000265240526984924
1.73538735394911e-05
0.00223929476471098
0.00173698592556424
0.00121556289008865
0.000704765885329603
0.000258488732433786
1.56617344804131e-05
0.00266152051724107
0.00220223675958394
0.00170756712119634
0.00119460306934697
0.000687910977209365
0.000246069383530452
1.37695831883929e-05
0.0030213250686022
0.00260979547434447
0.0021549074797759
0.00166815605279387
0.00116250460912001
0.000661833113749626
0.000230640028090948
1.18919998701742e-05
1.7457625091743e-05
0.000263245190719953
1.80571919892939e-05
0.000723260306311404
0.00026595130175506
1.88691264740689e-05
0.0012549355346396
0.000722532006308833
0.00026998391799988
1.90226220924973e-05
0.00178293347424798
0.00124562330230762
0.000722388226514782
0.000270280468173201
1.80811192259343e-05
0.00227108245578315
0.00176208576650076
0.00123393895478997
0.000716528529708293
0.000263995281898568
1.64003501768581e-05
0.00270379190303468
0.00223720676617753
0.00173507670240081
0.00121471737271203
0.000700826874026461
0.000252219844057313
1.44983852939326e-05
0.00307588889961703
0.0026564386611552
0.00219325937422069
0.00169814482533429
0.00118433680413004
0.000675823636394354
0.000237184409025375
1.26029027746166e-05
0.00338699182539701
0.00301452593897841
0.00259522650207702
0.00213656675833032
0.00164885588809238
0.0011428958664203
0.000644410416912692
0.000220641484670787
1.07408093752032e-05
1.78842029590288e-05
0.000266653911334931
1.85497227292383e-05
0.000731275263702959
0.000269741093666429
1.94397116812741e-05
0.00126876147646904
0.000731375529223191
0.000274199741079282
1.96621147678653e-05
0.00180368768524329
0.00126085304131226
0.000732144996341173
0.000274911438583865
1.87596775980775e-05
0.0022999300021654
0.0017849260555215
0.00125069003586382
0.000727240379022607
0.000268996649904641
1.70908259459506e-05
0.00274204614898717
0.00226895441520407
0.00176013522587188
0.00123306068086832
0.000712517369731555
0.000257623584867365
1.5182090528828e-05
0.00312510023332592
0.00269861813111357
0.00222807197349363
0.00172548406847575
0.00120427587574633
0.000688565267534033
0.000243193311825141
1.32745887873487e-05
0.00344896611573026
0.00306895778868298
0.00264157671363947
0.00217454767277364
0.0016784624505501
0.0011643554165728
0.000658065240062423
0.000226950136970726
1.13868879699021e-05
0.00371507827942876
0.00337910678468442
0.00299578352151032
0.00256877650510692
0.00210688287641912
0.00161901243729922
0.00111534469848792
0.000623131724876153
0.000209503307575742
9.5285128734431e-06
1.82734506016798e-05
0.000269762544812521
1.90023252343292e-05
0.000738581574954093
0.000273216920855899
1.99677499059381e-05
0.00128134012466428
0.000739458019793439
0.000278080062746221
2.02561654088916e-05
0.00182253604402779
0.00127472673754579
0.000741070908713232
0.000279179866403829
1.93919682737268e-05
0.00232608650888597
0.0018056909354722
0.00126595681684233
0.000737029027279776
0.000273591208975771
1.77351343065891e-05
0.00277666256372277
0.00229776360455696
0.00178293672238375
0.0012497773315897
0.000723152192340871
0.000262507408564367
1.58237315280438e-05
0.00316951284849869
0.0027367863142903
0.0022596777657145
0.00175038809114372
0.00122245281977982
0.000700072432889365
0.00024850582409496
1.38980313161049e-05
0.00350474003317136
0.00311804282441351
0.00268349705959418
0.00220903332894439
0.00170546073898221
0.00118396372894954
0.00067052283170811
0.000232764445278139
1.19987112245821e-05
0.00378400310502427
0.00344092247421075
0.00304983036147299
0.0026145873447107
0.00214426778483883
0.00164803483909713
0.00113627696187757
0.000636370697459837
0.000215546952465158
1.01057243200987e-05
0.00400905457088201
0.00370639053130091
0.00335731703236335
0.00296270245799789
0.00252906403323983
0.00206537799224343
0.00157928664907645
0.00108106059946863
0.000598431627609276
0.000197049170765837
8.2648462467354e-06
1.86251320874482e-05
0.000272577421921597
1.94155207852012e-05
0.000745213258839617
0.000276387809567576
2.04529708593516e-05
0.00129275386273862
0.000746826566441389
0.000281640984099046
2.08055491986242e-05
0.00183962387535638
0.00128734838460925
0.000749230606508423
0.000283111531346123
1.99794532301886e-05
0.00234977334272015
0.00182454827490043
0.00127986491817819
0.000745986385516841
0.000277828798593597
1.83357128832893e-05
0.00280796756264135
0.00232388529382404
0.00180366627529928
0.00126501204220097
0.00073286808946712
0.000266988661177234
1.64232378962286e-05
0.00320959858439047
0.00277132410680659
0.00228835856476482
0.00177304882118661
0.00123901311591476
0.000710522192391961
0.000253239358454308
1.44869935265517e-05
0.00355496281820801
0.003162336970262
0.00272143267021573
0.00224034738116783
0.0017300572968192
0.00120183531643427
0.000681780465726856
0.000238007787374276
1.25653102454763e-05
0.00384592866760038
0.00349654454959899
0.00309857437334446
0.002656031524463
0.00217822428696541
0.00167451214673663
0.00115541749880703
0.000648468073236399
0.000221132381357215
1.06538365810057e-05
0.00408443897478912
0.0037751350466893
0.00341867270787801
0.00301605872277401
0.00257406226703418
0.00210193403663481
0.00160753614742075
0.0011013377313836
0.000611188286615144
0.000202791755918137
8.7694978085496e-06
0.00427210641971506
0.00399962746894956
0.00368212071830495
0.00331875690550747
0.00291391653178977
0.00247564948665885
0.00201206651074889
0.00153010718526461
0.0010403234333753
0.000570099659441539
0.000183186601822065
6.97548047696784e-06
1.89385096216982e-05
0.000275102348113745
1.97885054031717e-05
0.000751195468694042
0.000279261202429341
2.08958842092577e-05
0.00130306691307378
0.000753515022281043
0.000284891065383999
2.13104796536583e-05
0.00185506973251642
0.00129880097837337
0.000756671116084291
0.000286721083456075
2.05229976057896e-05
0.00237118088001064
0.00184164318830499
0.0012925185542578
0.000754177574012378
0.000281735277084001
1.8894001573253e-05
0.00283624205007133
0.00234754053384201
0.00182249177787035
0.00127889203899734
0.000741760883678896
0.000271123513752908
1.69823346611986e-05
0.00324576110356158
0.00280255760256272
0.00231436454570847
0.00179365075447164
0.00125410398998773
0.000720063101495115
0.000257567746897063
1.50384776117663e-05
0.00360019308270342
0.00320231470119623
0.00275576104806198
0.00226876591189573
0.00175243909410468
0.00121811146257588
0.000691973668808709
0.000242589334626991
1.30933172308319e-05
0.0039015910797231
0.00354662612530809
0.00314256298523394
0.00269354308908414
0.00220906551462908
0.00169863946702467
0.00117286717213066
0.000659431585292302
0.000226201854849682
1.11611348104756e-05
0.004152082609743
0.00383688840353167
0.00347388652116459
0.00306419197966552
0.00261478513191143
0.00213515153355386
0.00163332326663818
0.0011198958188784
0.000622861319378151
0.000208114711355686
9.25019104508769e-06
0.00435344015700137
0.00407481091121168
0.00375033819896162
0.00337928620368993
0.00296624873724435
0.00251955661177557
0.00204756536551939
0.00155740879157155
0.00105983010694149
0.000582314236530558
0.000188587261691707
7.40485824550995e-06
0.00450709471967814
0.00426194231509397
0.00397311901836345
0.00363879322322032
0.00326182433000234
0.00284901471335429
0.00240822565173769
0.00194667882287827
0.00147125964262092
0.000992761047486436
0.000537640036535287
0.000167766274630378
5.69539043092184e-06
1.92123033071576e-05
0.000277330260833316
2.01212012369442e-05
0.000756537714842032
0.000281839119851283
2.12957307661552e-05
0.00131232758214727
0.000759547974628286
0.000287837441471218
2.17712093558173e-05
0.00186897099255244
0.00130914890011637
0.000763425958936005
0.000290017748594453
2.10228168930196e-05
0.00239046885603622
0.00185709556768884
0.00130400067299696
0.000761648884572695
0.000285324855302483
1.94108447681885e-05
0.00286172500076791
0.00236891947290646
0.00183955790791214
0.00129152153870113
0.000749896315056457
0.000274938986962818
1.75023688130274e-05
0.00327834379061124
0.00283076717431881
0.00233791554315847
0.00181236125985981
0.00126785400940212
0.00072879666318667
0.000261560904947871
1.55532871235073e-05
0.00364090872005822
0.00323837975053128
0.00278680719131944
0.00229453564550587
0.00177278805195662
0.00123294089926657
0.000701268089229842
0.000246749225192488
1.35926244875932e-05
0.00395162891547942
0.00359172818598042
0.00318226653509606
0.00272749171380605
0.00223705928249412
0.00172059585776343
0.00118875169862557
0.000669326743331835
0.000230732436574486
1.16308604809727e-05
0.00421279963131105
0.00389239103772617
0.00352360240765028
0.00310763848920029
0.00265165357021313
0.00216533105514497
0.00165682998431328
0.00113682546247724
0.000633456912949595
0.000212954245724231
9.6949881419877e-06
0.00442635459215639
0.00414226289337041
0.00381162415911302
0.00343376931603355
0.00301347334327407
0.00255930731513964
0.0020798382617988
0.00158234842581471
0.00107770100422174
0.000593506787827371
0.000193591491893116
7.81597089539521e-06
0.00459385980669031
0.00434305413072608
0.00404771243373199
0.00370605550038651
0.00332112538301985
0.00289998617631273
0.00245076484564322
0.00198089580810308
0.00149744416228092
0.00101138698380513
0.000549250765025227
0.000172799823007658
6.04954896295585e-06
0.00471660395647052
0.00449620221383377
0.00423331767403515
0.00392545170880624
0.00357445399980568
0.00318610981326945
0.00276760747916705
0.00232605836147557
0.00186842217275453
0.00140194364789146
0.000937560717809496
0.000500668116244866
0.000150696526303467
4.46404098679954e-06
1.94450406694101e-05
0.000279249778266269
2.04121358987499e-05
0.00076124597842358
0.000284118679340206
2.1652419632369e-05
0.00132056865770454
0.000764938702488292
0.000290482379392461
2.2187687419253e-05
0.00188140399749374
0.00131844053922713
0.000769519379837937
0.00029300793196106
2.14790833638938e-05
0.0024077683163897
0.00187100237900127
0.00131437543474485
0.000768433595187116
0.000288605955537289
1.98865505568212e-05
0.00288461770688773
0.00238818125852718
0.00185498448355501
0.00130298294390235
0.000757320047767836
0.000278448670545013
1.79841640845586e-05
0.00330763686865182
0.00285619167475979
0.00235920047693824
0.00182932395492956
0.00128036724943089
0.000736789922434035
0.000265248348815401
1.60324269121319e-05
0.00367751486729905
0.00327087490080964
0.00281484827361778
0.00231787415718536
0.00179127002367771
0.00124645335054509
0.000709774661375279
0.000250580802477786
1.40602985885419e-05
0.00399658947450108
0.00363232855066653
0.00321808605310182
0.00275819688764598
0.00226244639629247
0.00174055889695176
0.00120321994632543
0.000678328679822381
0.000234739433134709
1.20689818362656e-05
0.0042673009462109
0.00394228412381451
0.00356837740498809
0.00314685754603186
0.00268502679976694
0.00219273000002911
0.0016782238225019
0.00115223026091235
0.0006430451398895
0.000217341060294301
1.01064328189054e-05
0.00449173257834164
0.00420280240408329
0.00386670861714587
0.00348283552022171
0.00305611047566246
0.00259530746635055
0.00210917117887766
0.00160509362112584
0.00109401447976838
0.000603673672426451
0.000198133742300146
8.19724365766824e-06
0.0046715936178596
0.00441575730229743
0.00411464141979188
0.00376649828524838
0.00337452040441835
0.00294599970347684
0.00248929447483925
0.00201202228281699
0.00152138398375133
0.00102847074636949
0.000559943018480476
0.000177485130989169
6.39170545599497e-06
0.00480828710681549
0.00458272470873579
0.00431377868190897
0.0039989681954346
0.00364029076209395
0.00324377923424382
0.00281688466585171
0.00236695105653436
0.00190113124063642
0.00142684086020452
0.000955193702871174
0.000511545589197448
0.000155332961708073
4.74626167310713e-06
0.00490297935261135
0.00470501254839611
0.00446557021789322
0.00418162023333709
0.00385430072247315
0.00348866383108284
0.00309126005147706
0.00266872597887777
0.00222787139135168
0.00177596438548173
0.00132080554532808
0.000873483211200529
0.000458442621817801
0.000131845035177346
3.303641438683e-06
1.96346874237571e-05
0.000280847447599945
2.06595745780319e-05
0.000765316164899894
0.000286088397987289
2.19642746780611e-05
0.00132780914616
0.000769691912327651
0.000292823657049941
2.25590219099226e-05
0.00189242604579127
0.001326709027231
0.000774965671403454
0.00029569437072377
2.1891662211122e-05
0.00242318645486898
0.00188343992107732
0.00132369095676669
0.000774555341768329
0.000291584186353131
2.03211309966632e-05
0.00290508851310518
0.00240545681685529
0.00186886795367075
0.00131333985679726
0.000764064426440734
0.000281660078231148
1.84279662540241e-05
0.00333388441416743
0.00287903192550047
0.00237837817752644
0.00184465770353445
0.00129172524357831
0.000744087912565523
0.000268643684469769
1.64766937993905e-05
0.00371035297254615
0.00330008955952821
0.00284012180173586
0.00233896808298712
0.00180802701328
0.00125875271903461
0.000717562833649558
0.00025412064434234
1.44962630456765e-05
0.00403693735727217
0.00366883156536891
0.00325036162581321
0.00278593327898712
0.00228544047995265
0.00175869173439298
0.00121640301508272
0.000686561143487016
0.000238399885119413
1.24849497908694e-05
0.00431619747294461
0.0039871149308608
0.00360868566362115
0.0031822437221361
0.00271521569753234
0.002217581271724
0.00169767636094666
0.0011662549130108
0.000651732244479919
0.000221306972383919
1.04892330146792e-05
0.00455034914855941
0.00425714316031955
0.00391622838545982
0.00352703159432377
0.00309460860953879
0.00262790314901917
0.00213580851366665
0.00162579772393203
0.00110886349776082
0.000612892386483322
0.000202281183146733
8.54909632830539e-06
0.00474123686124375
0.00448093994848777
0.0041747134339338
0.00382083390323398
0.00342261891059821
0.00298755708282626
0.00252420293366323
0.00204032706784557
0.00154323023728541
0.0010440755276221
0.000569676385933587
0.000181738603074275
6.70966294491584e-06
0.00489039335399075
0.00466022761351087
0.00438590507392706
0.00406494713073465
0.00369947117220069
0.003295725264049
0.00286138790672821
0.00240401004044368
0.00193090852591086
0.00144962798890557
0.000971396509952367
0.000521609407868204
0.000159679992576681
5.02225463837974e-06
0.00499908046524185
0.00479643350482925
0.00455138368196747
0.00426088811567957
0.00392620192990462
0.00355260431597313
0.00314690293025435
0.00271597254470967
0.00226683258197047
0.00180693331389422
0.00134423868071054
0.000890011305326989
0.000468538589661295
0.000136060978781908
3.5184185694602e-06
0.00506831926737996
0.00489073263982319
0.00467250206018207
0.00441012592791136
0.00410418342705494
0.00375917792143547
0.00338114501664468
0.0029762252307133
0.00255077030632412
0.00211186199239433
0.00166738062932925
0.00122584901949726
0.00079878538896635
0.000409713755823594
0.000110788930322121
2.21667312480174e-06
1.97801750482359e-05
0.000282094804527296
2.08613674470688e-05
0.000768718662804499
0.000287727863282552
2.22293607096789e-05
0.00133405415567102
0.00077379968972849
0.000294848965593538
2.28837074549046e-05
0.00190207805118708
0.00133397369710212
0.000779769053753597
0.000298072948583497
2.22595787104993e-05
0.00243680851855427
0.00189446565079695
0.00133198049881485
0.000780028201955773
0.000294261404666145
2.07141842031662e-05
0.00292327706291548
0.00242085334237854
0.00188128415375982
0.00132263976056844
0.000770152028569455
0.000284577741946541
1.88338168957904e-05
0.00335729332073701
0.00289945580337205
0.00239557847482373
0.00185845816845875
0.00130199052176404
0.000750721827333735
0.000271754065161444
1.68863659695619e-05
0.00373971110123547
0.0033262674528357
0.00286282727376691
0.00235797427196834
0.00182317622767174
0.00126991937982784
0.000724677487444982
0.000257383494858098
1.49009577378863e-05
0.00407306282694387
0.00370157770353526
0.0032793804299009
0.00281093364831995
0.00230622502400405
0.00177513417615718
0.00122840463195354
0.000694099658885179
0.000241778051619139
1.28744160046052e-05
0.00436000806361729
0.00402734666401826
0.00364492824318114
0.00321413210356954
0.00274248926030081
0.00224009273575714
0.00171534690718233
0.00117903158165738
0.000659656987219989
0.000224814064929356
1.08468795254639e-05
0.00460287225808068
0.00430589594944455
0.00396072647076833
0.00356682362077048
0.00312934985067792
0.00265739470813039
0.00215997357303393
0.00164462397204372
0.00112237406966252
0.000621264840233076
0.000206061615937478
8.87567925968225e-06
0.00480362053758019
0.00453938010327003
0.004228637337195
0.00386968752220673
0.00346595321748259
0.00302509102407173
0.00255582035501561
0.00206603919053767
0.00156312200526157
0.00105828470517537
0.000578463012160468
0.00018558836449626
7.00229580129845e-06
0.00496391139856539
0.00472965784674817
0.00445057248437475
0.00412417615435508
0.00375268621740816
0.00334253441720624
0.00290159800361942
0.00243760288268718
0.00195800272306275
0.00147043701901881
0.00098620851135518
0.000530811763928314
0.000163634016278457
5.27903049552677e-06
0.0050851246528543
0.00487829034898659
0.0046282579995707
0.0043319622491862
0.00399075159202784
0.00361010106606307
0.00319704465610669
0.00275866523290194
0.00230216623441503
0.00183515340735338
0.00136571569099477
0.000905232436631308
0.00047791511795509
0.000140051607573254
3.73232404458333e-06
0.00516837705431446
0.00498655598264357
0.00476315920834642
0.0044946361864489
0.00418165514553953
0.00382892536511435
0.00344273111345086
0.00302944532363493
0.002595641524208
0.002148597181099
0.00169636638132138
0.00124762959955943
0.00081399328837223
0.000418953005792277
0.000114550195097148
2.36756241967956e-06
0.0052145495471211
0.00505546259522805
0.0048564900916643
0.00461360250482091
0.00432690698775862
0.00400046610835727
0.0036398882130433
0.00325085233156197
0.0028392274506728
0.00241160579538746
0.00197564977387384
0.00154003257732974
0.00111420418957409
0.000710677932130591
0.000352275822653482
8.66593731185174e-05
1.23835919718692e-06
1.98835733758009e-05
0.000282971420246142
2.10157945799972e-05
0.000771429372091217
0.00028900724361212
2.24451758191267e-05
0.00133929658322807
0.000777237429603173
0.000296533281538623
2.31594768213749e-05
0.00191038469199043
0.00134023950520372
0.000783919772705579
0.000300128267260659
2.25812178165788e-05
0.00244870055898934
0.00190412027440685
0.00133926305899538
0.000784854773008403
0.000296631314098909
2.10648450512394e-05
0.00293929817269078
0.00243445590055639
0.00189229009686235
0.00133091520752353
0.000775595592180125
0.000287201769356937
1.92011051090938e-05
0.00337803611740364
0.00291760260149568
0.00241090765696557
0.0018708000275452
0.00131120936427796
0.000756712747762279
0.00027458317929075
1.7261338387914e-05
0.00376583308150077
0.00334961412596547
0.00288313126803014
0.00237502217940187
0.00183681174659557
0.00128001441220992
0.000731148993478931
0.000260376420998991
1.52746290000426e-05
0.00410529679984723
0.00373085410121812
0.00330538431926311
0.00283339529098185
0.00232495397086826
0.00179000108621275
0.00123930399718907
0.000700990078510584
0.000244894285556472
1.32367594988215e-05
0.00439917043894385
0.00406336911806993
0.00367744288027374
0.00324280560863822
0.00276707584167247
0.00226044358345699
0.00173137225383933
0.00119066454447238
0.000666910485433336
0.000228028727969847
1.11812386799217e-05
0.00464987043432269
0.00434957842001436
0.00400066214600251
0.00360260624054551
0.00316066182978594
0.00268404244569001
0.00218186676249933
0.00166172668471237
0.0011346762759089
0.00062886597945612
0.00020950888068684
9.18046947535506e-06
0.00485946296716671
0.00459174552138887
0.00427701915722291
0.00391359283824348
0.00350497704334381
0.00305897124077515
0.00258443421343718
0.00208937013029641
0.00158121050619098
0.00107121493197618
0.000586450038528094
0.000189091542220048
7.27297978742781e-06
0.0050297186692758
0.0047918493452567
0.00450855363443473
0.00417735111044615
0.00380054367604771
0.00338471975268326
0.00293792784185758
0.00246804091362437
0.0019826251911468
0.00148939122093034
0.000999691471618326
0.000539162496685752
0.000167205815121656
5.51397411055651e-06
0.0051621362883833
0.00495157810747713
0.00469712697522373
0.00439569657167943
0.00404871332626433
0.00366182039162866
0.00324224890387495
0.00279725917003029
0.00233421490169562
0.00186084957031479
0.00138534473773099
0.000919148980531487
0.000486486852492382
0.000143687450998543
3.93144314478824e-06
0.00525794288688525
0.00507233385274635
0.00484433852246577
0.00457036118239231
0.00425114081872744
0.00389156478490181
0.00349813443700006
0.00307743058278562
0.00263621652422818
0.0021819424032282
0.00172281154037575
0.00126762599159097
0.000828067727457778
0.000427580774548515
0.000118158478128347
2.52112774583201e-06
0.00531811144444732
0.00515523731203059
0.00495150125286062
0.00470285351993871
0.00440945063566414
0.00407553867853627
0.00370696018938344
0.0033096258184776
0.00288962148522488
0.00245374660308202
0.00200985199793091
0.00156677539018551
0.00113412605299358
0.00072441712154378
0.00036055708091722
8.99032201402442e-05
1.3285615645669e-06
0.0050993715909533
0.00534344201131806
0.00520115577957721
0.00501963876720124
0.00479443674888644
0.00452510117388537
0.00421532742991055
0.00387035151721431
0.0034954268585196
0.00309593493535099
0.00267794563920868
0.00224856891472805
0.00181618918547497
0.00139041216065978
0.000981935406956443
0.00060482537732733
0.000282487530179041
5.87594188134647e-05
4.88569062390869e-07
1.99573815746167e-05
0.000283504956066984
2.11237337407076e-05
0.000773433330544449
0.000289880137070961
2.26093452125289e-05
0.00134352703695195
0.000779972779190679
0.000297835990641341
2.33834222181093e-05
0.00191736061255564
0.0013454989247965
0.000787391303307304
0.000301828875766028
2.28539520510349e-05
0.00245891152223075
0.00191242830731034
0.00134554302469443
0.000789022393647343
0.000298674533408454
2.13712738401211e-05
0.00295324494623707
0.00244633022064113
0.00190192579794939
0.00133818404490115
0.00078039519017521
0.000289523567799043
1.9528869116797e-05
0.00339625782491793
0.00293358676931143
0.00242445011926483
0.00188173924745085
0.00131941281063764
0.000762071282502015
0.000277129169141925
1.76009930849233e-05
0.00378892511070249
0.00337030195638598
0.00290117189612826
0.00239021548346158
0.0018490067276135
0.00128908233057345
0.000736996865546647
0.000263101873269034
1.56169265313889e-05
0.00413391958640646
0.00375690363130471
0.00332857688351805
0.00285348256354236
0.00234175417457837
0.00180338431610028
0.00124916055256292
0.000707262022908467
0.000247756333937052
1.35718746939738e-05
0.00443405507929812
0.00409551170627875
0.00370651424215032
0.00326850258108515
0.00278916779685718
0.00227878394442769
0.00174586448247558
0.00120123205533374
0.000673542842014912
0.000230986146716904
1.14966833227618e-05
0.00469182443316195
0.00438862706705066
0.00403642212413828
0.00363471197598885
0.00318882114968129
0.00270806901818562
0.00220166150180851
0.00167723890769565
0.00114587655046124
0.000635809676526935
0.000212658714969125
9.46549318024691e-06
0.00490937704526432
0.00463860336844371
0.00432037217620229
0.00395300156700406
0.00354007519332445
0.00308951314990364
0.00261029437154194
0.00211051132642769
0.00159764302881496
0.00108298022834488
0.000593727681696158
0.000192300874927153
7.52500383172466e-06
0.00508857822252005
0.00484752020640418
0.00456051104977197
0.00422506754440777
0.00384356294587212
0.00342271927254674
0.00297073160767694
0.00249559594670131
0.00200497304074118
0.00150662926486974
0.001011960386968
0.000546750851537224
0.000170447273374266
5.72982184934863e-06
0.00523103258916433
0.00501717808756728
0.00475881879548536
0.0044528495029474
0.00410076328636339
0.00370834785812305
0.00328300333220925
0.0028321444486859
0.00236326786707485
0.00188421255360853
0.00140322941817456
0.000931823503101156
0.000494262690322147
0.000146960498825412
4.11144660803556e-06
0.00533807886078738
0.00514909928286615
0.00491702131999687
0.00463821137902462
0.00431346782334611
0.00394783167467084
0.00354799281087791
0.00312071322611975
0.00267291964272794
0.00221221045468087
0.00174691245895389
0.00128591749619961
0.000840986795106852
0.000435474558693071
0.00012145091914446
2.66369536851493e-06
0.00541078955503069
0.0052445229341109
0.00503655656933563
0.00478279243962419
0.00448343691109181
0.00414289803203292
0.00376722445311908
0.00336253156124561
0.00293509141937522
0.00249188742701367
0.00204093406964968
0.00159121134388011
0.00115245167503069
0.000737173366932048
0.000368338510708245
9.30663146121865e-05
1.42236071248066e-06
0.00545000439242581
0.00530441951931447
0.00511856449123965
0.00488794807543789
0.0046122269943124
0.00429524137665268
0.00394244375677244
0.00355931039031327
0.00315143694850247
0.00272510155207671
0.00228761302118354
0.00184753478448789
0.00141462668118308
0.000999681995576183
0.000616894806780946
0.000289663098712034
6.1351276868952e-05
5.26452030410139e-07
0.00522507982296697
0.00508639732103046
0.00545636495327644
0.00532958390205406
0.00516392323532829
0.00495473297772757
0.00470114817600365
0.00440638072943356
0.00407534652632063
0.0037128980311736
0.00332393821007676
0.00291400254732973
0.00248959801951463
0.00205845036389938
0.00162973460977126
0.00121404930064412
0.000823765369135733
0.000475624198763192
0.000195913870373254
2.8206562456261e-05
1.00794601874809e-07
0.000284003672738742
2.1199497479499e-05
0.000774790338738634
0.000290320006942268
2.2721960794642e-05
0.0013467582128647
0.00078197500385639
0.00029868778828669
2.35531285350552e-05
0.00192302119720249
0.00134974167546709
0.000790142096707138
0.000303125711440836
2.30746799446934e-05
0.00246747963533121
0.00191940487001889
0.00135081189511623
0.000792499578691924
0.000300353093432392
2.16306623805732e-05
0.00296519252564582
0.00245652552283979
0.00191021633014369
0.00134444904785292
0.00078453409668511
0.000291519873188016
1.98151518457572e-05
0.00341207858547186
0.00294750115637354
0.00243627083070827
0.0018913146343297
0.00132661654278584
0.00076679437014309
0.000279380809107183
1.79040711598825e-05
0.00380916096511181
0.00338847530101461
0.002917062469158
0.00240363714881558
0.00185981513850519
0.00129715195803745
0.000742229179503427
0.000265556033598022
1.59272895220335e-05
0.00415916944597292
0.0037799317418316
0.00334912900648057
0.00287133136486114
0.00235672800001442
0.00181535472525902
0.00125801669220225
0.000712933088261444
0.000250365481145846
1.38792860865287e-05
0.00446497717610553
0.00412405373189891
0.00373238290066756
0.00329142342849607
0.00280892626582479
0.00229523719526539
0.00175891261137618
0.00121079176035426
0.000679583808171336
0.000233702941248695
1.17903243205759e-05
0.00472914176261275
0.0044234111292108
0.00406833281522837
0.00366342103780592
0.00321406072730433
0.00272966091987125
0.00221950331791144
0.0016912694637463
0.00115605299846244
0.000642153185420611
0.000215473997211423
9.73169389876428e-06
0.00495388283198034
0.00468043296309257
0.00435912921173895
0.00398829426773104
0.0035715721675417
0.003116985076846
0.00263361475865958
0.00212962907622437
0.00161254837314847
0.00109368717082287
0.000600366748873966
0.000195257694498429
7.76035708520839e-06
0.00514114221156171
0.00489728189817033
0.00460700706365748
0.00426783015394943
0.00388218409794751
0.00345690449765335
0.00300031141080536
0.00252050536764643
0.00202522684647146
0.00152228814832305