/*--------------------------------*- C++ -*----------------------------------*\
  =========                 |
  \\      /  F ield         | OpenFOAM: The Open Source CFD Toolbox
   \\    /   O peration     | Website:  https://openfoam.org
    \\  /    A nd           | Version:  12
     \\/     M anipulation  |
\*---------------------------------------------------------------------------*/
/*   Windows 32 and 64 bit porting by blueCAPE: http://www.bluecape.com.pt   *\
|  Based on Windows porting (2.0.x v4) by Symscape: http://www.symscape.com   |
\*---------------------------------------------------------------------------*/
FoamFile
{
    format      ascii;
    class       volScalarField;
    location    "400";
    object      omega;
}
// * * * * * * * * * * * * * * * * * * * * * * * * * * * * * * * * * * * * * //

dimensions      [0 0 -1 0 0 0 0];

internalField   nonuniform List<scalar> 
10123
(
2.4668450553724
2.46684219609402
0.672641472875215
2.38168283927508
2.46683931339845
0.67787680214886
2.3816791836357
0.376807566995338
0.657543958100716
2.28699840648233
2.46683931529591
0.682814677421873
2.38167524199934
0.380747591606618
0.662614390678932
2.28700634235754
0.275629369226977
0.372364936808712
0.638355252817192
2.2161111894368
2.46684257495257
0.687405692668208
2.3816766133706
0.384373105664561
0.667454714909044
2.28699006614779
0.2787628114284
0.376269879419145
0.643219033379871
2.21611856020545
0.228417890339078
0.273986228983611
0.365714639613309
0.622327965474429
2.18721997138311
2.46684075188066
0.691588777718185
2.38168177975574
0.387698938455913
0.672019022177091
2.2869925009371
0.281627563563649
0.379860877584984
0.647925490619298
2.21610093076907
0.231030374866185
0.277109687734866
0.36955154564758
0.62702570142891
2.18721627597823
0.202729145791032
0.227752195340458
0.27111650829254
0.359081396653159
0.612528664938435
2.18619415481029
2.46683983912002
0.695343264449156
2.38167991149401
0.390729172063374
0.676191391403178
2.28699694756701
0.284246270503974
0.383162093061633
0.652428355739332
2.21610627962873
0.233429625332048
0.279961805927068
0.373090065897173
0.631629884716395
2.18721040747276
0.204981473806378
0.230362572599833
0.274214018180146
0.36284728695123
0.617123666257882
2.18619186864619
0.187494384659717
0.202441056550617
0.226323816481736
0.267722827249852
0.353692085495358
0.606935234279507
2.19193235816322
2.46683902366161
0.698678845300212
2.38167801768962
0.393468655780909
0.679933337422776
2.28699681586872
0.286633620601148
0.38617243826294
0.656554445302965
2.21611304524432
0.235631002793952
0.282569251152963
0.37635436562487
0.636078894729254
2.18721674721401
0.207066674131852
0.232757536828898
0.277044048934726
0.366332069605123
0.621625335960586
2.18618763127396
0.189484821584457
0.204694945175703
0.228925448436043
0.270788484021198
0.357399910137126
0.611478616566804
2.19192876872599
0.178011295186423
0.187341345590846
0.201623728770843
0.224351721584996
0.264346934289261
0.349257241618867
0.601962891050016
2.19485831816654
2.46683922026381
0.701620847199664
2.38168846883936
0.395926721910495
0.683253644046334
2.28699404469502
0.288799435695411
0.388894015470204
0.660253252362655
2.21611036339766
0.23764437900282
0.284946769506182
0.379334627237052
0.640165443488962
2.18722228380152
0.208991835301474
0.234954592694295
0.279633042521578
0.369557386409193
0.62603823017434
2.18619195470714
0.191342900763689
0.206779639994058
0.231311618217517
0.273592478875797
0.360836098077523
0.615773332824758
2.19192409953256
0.179801050613424
0.189334933310341
0.203876599145191
0.226940948018332
0.267383244419928
0.352921477281363
0.606448569981506
2.19485256507884
0.171978047500872
0.177900670406584
0.186784262571422
0.200340244461425
0.222082957754275
0.261063841621613
0.344875173276309
0.595739769156795
2.19512978926904
2.46684144490748
0.704201462332957
2.38167607866074
0.398116673567869
0.68617991049714
2.2870032034923
0.290752449199129
0.391335652989995
0.663531829423929
2.21610739294635
0.239477192116805
0.287103819589295
0.382029165328959
0.643826724817517
2.18722087556737
0.210761139681055
0.236964053743856
0.281994586108495
0.372506093958183
0.630108505695128
2.18619356682262
0.193070040737204
0.208703839741097
0.233500431923819
0.27615980327539
0.364027359097204
0.62013356686888
2.19192845008472
0.181485673305686
0.191194187819316
0.205959111117748
0.229315845641088
0.270162247421664
0.356307999687698
0.610619990075395
2.19484716477973
0.17360785388387
0.179694501568665
0.188780635150862
0.202590449707008
0.22465997513127
0.264076141512821
0.348500475779785
0.600160105776366
2.19512578434
0.16815306887512
0.171883195876315
0.177456641027639
0.18584824760046
0.198720079748197
0.219650319153959
0.257673371381695
0.339944596333995
0.588013050500251
2.19480782889558
2.46684134190426
0.706452359086167
2.38168001700634
0.400054219329918
0.688743884324753
2.28699143810773
0.292501948934892
0.393510807524723
0.666418785738028
2.21610474814862
0.241136191899196
0.289048961350293
0.384445917850474
0.647068513702322
2.18721581172656
0.212378118788307
0.238793401649228
0.284137332816475
0.375172563612772
0.633756138919166
2.18619437688367
0.194665825839303
0.210471999613635
0.235502407701119
0.278502691477647
0.366950148494797
0.624198799936573
2.19193137006673
0.18306253581999
0.192921960872816
0.207880733989302
0.231494350767794
0.272708668625663
0.359466443278177
0.614805301020898
2.19485215648466
0.175154517459981
0.181381236702979
0.190641174797722
0.204669884961445
0.227023577893777
0.266832499251134
0.351843852895664
0.604242780432367
2.19512023060204
0.169651495288897
0.173517492151094
0.179255372022393
0.187847455334258
0.200968170947941
0.222217578052614
0.260664923308035
0.343528828403724
0.592357888296228
2.19480370200702
0.165812231081144
0.168069707821155
0.171498534701949
0.176710303438028
0.184625267281019
0.196893195817688
0.217072949440851
0.253999133908485
0.334280807200106
0.578963341911085
2.19480462754855
2.46684135423385
0.708402011957647
2.38166944341922
0.401755675110167
0.690979676308255
2.28699600929124
0.294057996556946
0.395435140121414
0.668946148570357
2.21610270323235
0.242628505956154
0.29079145889572
0.38659837057864
0.649919479512042
2.18721568896869
0.21384725656862
0.240449288411706
0.286069536080677
0.377563502271899
0.636982213214555
2.18619013076977
0.196130942638853
0.212088068844115
0.237325032315994
0.280628840526011
0.369594439091288
0.627850619296431
2.19192852834522
0.184527771599184
0.194518234829279
0.209646306685314
0.233487008812526
0.275033785813322
0.362367829259556
0.618844405180153
2.19485722225925
0.176612392242171
0.182959505071019
0.192369470436551
0.206588190397772
0.22919170391565
0.269359681621515
0.354960256842894
0.608137730772437
2.19512551711557
0.17108509017959
0.175066628846291
0.180945365142432
0.18970981992805
0.203044999869352
0.224571414266701
0.263400545361098
0.346828675585852
0.596358698182922
2.19479822028894
0.167200494628909
0.169572943004551
0.173139197279018
0.17851542665771
0.186629033220651
0.19914145882396
0.219633022664027
0.25697024004782
0.337818139106237
0.583226646181272
2.19479845649307
0.164502833741623
0.165741209361545
0.167727759707156
0.170873372744548
0.175749451930861
0.183235828934499
0.194948221372007
0.214344746969566
0.249982774823495
0.327895084765721
0.568558923340035
2.19512984994708
2.46684023512167
0.71007643903219
2.3816810154834
0.40323663941421
0.692913595610203
2.28698810655358
0.295431269818908
0.397125034718975
0.671148296501408
2.2161098911632
0.243961077240238
0.292341397956473
0.388502255596059
0.65241435910984
2.18721400243467
0.215173462795311
0.241938638156063
0.287800405816624
0.37969219337892
0.639815673832032
2.18619131242228
0.197467379283273
0.213556379567332
0.238974877214424
0.2825460768836
0.371965012637205
0.631078262362389
2.19192536960754
0.185879463944958
0.195983748114409
0.211260012510567
0.235301235822594
0.277144325785019
0.364995595521157
0.622499716670646
2.1948520024247
0.177974935786702
0.184425837092378
0.193965854101567
0.208350475445749
0.231174989074346
0.271668864273941
0.357837530385974
0.612101655926261
2.19513081886213
0.172445769553209
0.176526286777995
0.182525963093683
0.191439132693448
0.204960348363609
0.22673028334903
0.265908486204695
0.349891017372397
0.600114616555747
2.1948037338463
0.168539371413079
0.171009315231294
0.174692866350953
0.180210349598486
0.188494755164959
0.201217391810697
0.221978839327876
0.259684861158471
0.341071102355417
0.587143620250207
2.19479308644803
0.1657972914009
0.167134596075803
0.169238464280807
0.17252314434449
0.177564050713819
0.185247319649216
0.197199724108439
0.216899507364916
0.252931822992795
0.331375682165326
0.572735504566115
2.19512375222342
0.163924114288612
0.164444790345766
0.165436792293692
0.167194475006235
0.170103375380833
0.174689055980381
0.181787190404717
0.192951701958681
0.211496861360164
0.245663324138828
0.320880550014628
0.556762554833343
2.19485512541243
2.46684157136204
0.711510475994491
2.38167806884209
0.404514569277669
0.694573757221423
2.2869980268954
0.296632663225881
0.398596148011776
0.673051756747685
2.21611621628068
0.245141876015971
0.293709376557046
0.390174035197129
0.654585645357815
2.1872198198386
0.216362134468094
0.243268740072629
0.289340043797293
0.381574584880737
0.642291528708723
2.18619249244023
0.198678191041872
0.214881889545339
0.240458805219449
0.284263450274303
0.374074635828645
0.633908542864547
2.19192787852776
0.187117544604966
0.197320467262404
0.212726178496832
0.236943563438918
0.279047540216366
0.367351322470117
0.62573240491942
2.19484666157227
0.17923802870911
0.185778432439018
0.195431472938983
0.209961090841689
0.23298076507683
0.273765712731032
0.360449219663068
0.615745311561383
2.19512536240018
0.173724836089525
0.177890260409152
0.183994035571923
0.193036013842104
0.206719625102919
0.228705160551174
0.268202040502395
0.352734383814105
0.603738222125827
2.19480917919174
0.169818824942829
0.172372056776671
0.176155950989662
0.181794875613756
0.190226369847689
0.203131125217255
0.224129613993091
0.262171930998451
0.34408368831795
0.590810614423951
2.19479873516039
0.167055492521811
0.168476539445085
0.170680348381511
0.174084196204086
0.17926671620262
0.187118957904324
0.199277118696709
0.219238552296133
0.255623828972118
0.334574102569798
0.576593461333651
2.19511849637825
0.165137478190361
0.165744690594353
0.166838626824161
0.168716392981158
0.171766557994057
0.176517531168584
0.183810506703899
0.195209785151821
0.214047665323525
0.248587293653987
0.324291867194225
0.560818051357871
2.19485121234245
0.16386630876333
0.163878692933173
0.164175015568809
0.16498070679588
0.166576020395084
0.169302633005299
0.173639477278948
0.18037696569151
0.190990679972056
0.208625045998217
0.241159933446588
0.313258873293934
0.543338561243293
2.19193028517839
2.46683971118927
0.712737616979227
2.38167898747652
0.405605603160725
0.695987247290146
2.28699457069218
0.297673453721635
0.399864621195453
0.674683372094009
2.21611194521933
0.246179127317992
0.294906223797211
0.391629320677549
0.656460826326739
2.18722480066893
0.217419246558437
0.244447422005328
0.290699060017154
0.383227025682011
0.644443245965755
2.18619416202211
0.199767247222991
0.216070008729828
0.241784176670911
0.285791038166806
0.375939234492697
0.636377381692081
2.19192945581725
0.188243399468187
0.198531509966506
0.214049718558462
0.23842076406101
0.28075221598122
0.369446745793006
0.6285643465218
2.19485167765564
0.180399809992251
0.187017265869286
0.196768192283346
0.211424455461928
0.234615507588315
0.275656706294056
0.362791501851303
0.618979723800561
2.19511985189796
0.1749163212664
0.179154542291141
0.185348031450506
0.19450178853939
0.20832732438764
0.230503347191139
0.27028587273911
0.355325102606339
0.607297034005344
2.194803673513
0.171028388202137
0.173652800411553
0.177522658727931
0.183266002178176
0.191824839907416
0.20488849109236
0.226097020498428
0.264448173319007
0.346869213316883
0.594220225605533
2.19480427094206
0.168265898815966
0.169758314557967
0.172047381174557
0.175553226722126
0.180857360143896
0.188854989363262
0.201191109501547
0.221381976848071
0.25808869418233
0.337534915559814
0.580223158369807
2.19512409084142
0.166325939361258
0.167006245
0.168186939077784
0.17016755677866
0.173338920139793
0.178231603676981
0.185691354975918
0.197291263107803
0.216380808994183
0.251253788120088
0.327409219805794
0.564560398796582
2.19484812406656
0.165007983584282
0.165097815125559
0.165484265873138
0.16639562886509
0.168114709099708
0.170984812926051
0.175487144327545
0.182416870730955
0.193258992824648
0.211173233914415
0.244055260928461
0.316613362541325
0.547243112156907
2.191928534589
0.164177522745789
0.16383249933172
0.163640514336279
0.163786528647881
0.164489164172367
0.16598856258368
0.168581618583282
0.172711945514924
0.17912593357921
0.189209731663747
0.205913155267943
0.236693997953653
0.30518789253904
0.528008135625073
2.18619449453526
2.46683697653489
0.713792275657929
2.38167783474619
0.406526539141541
0.69718815408216
2.28699446087051
0.298565295255632
0.400946527665441
0.676068499393814
2.21610848010708
0.247081300615435
0.295943092838114
0.392883667368108
0.658064850278829
2.18722111815423
0.218351158507292
0.245482863905861
0.291888203283824
0.384665155922403
0.646299162065793
2.18619486765446
0.200739045800842
0.217126605635455
0.242958788508629
0.287139439181128
0.377575238604196
0.638519337248659
2.19193189144893
0.189259512875675
0.19962076530339
0.215236205646484
0.239740186092299
0.282268330448004
0.371297639328636
0.631031099538582
2.19485546680011
0.181460189822814
0.188143759190342
0.197979195012497
0.212745454838487
0.236085905131909
0.277350274070316
0.364874355194823
0.621812339693379
2.19512517373702
0.176016800663347
0.180317323902402
0.186588022729248
0.19583870744899
0.209787973680496
0.232131217849826
0.272165432562872
0.357651825581765
0.610515678359206
2.19479811794301
0.17216052328003
0.174845688544596
0.178789198118963
0.184622442257159
0.19329166822062
0.206494182507868
0.227888458444497
0.266517937856973
0.349424704347711
0.597399302610409
2.19479880177259
0.16941657088288
0.17096978397189
0.173331619244335
0.176924792018496
0.182333586961506
0.190456791026182
0.202948060080739
0.223342418842484
0.260343970130079
0.340263902228134
0.583552542314745
2.19512953416903
0.167476851997438
0.168219227363983
0.169473760798366
0.171542202351998
0.174817272912964
0.179831507004241
0.187434539133846
0.199207599459846
0.218517435861628
0.253694128862063
0.33028953008075
0.568094349548793
2.19485128990139
0.166135220135947
0.166289909012787
0.166752977376322
0.167754865709325
0.169580086727094
0.172573230940105
0.177217000663144
0.184310820501624
0.195347471425747
0.213501306833672
0.246691248055877
0.319665833704134
0.550835069594586
2.19192757390239
0.165253274223105
0.164980241568523
0.164869825725217
0.165110550081047
0.165923770321633
0.167550849913119
0.170289384399848
0.17458492080441
0.181187966407141
0.191492635885485
0.208460781005683
0.239555860730517
0.308465726124053
0.531713560994906
2.18619132202322
0.164741701010446
0.164154040062881
0.163622504184033
0.163311629887434
0.16340411023546
0.164081760897815
0.165543143363368
0.168058491385474
0.172047835416448
0.178214702957589
0.187849218572265
0.203684159912787
0.232666706789512
0.297107018427281
0.511104706146941
2.18721927385254
2.46684051526965
0.71473029140616
2.38167412571227
0.407300637073513
0.698219658674117
2.28699401588481
0.299319782656413
0.401859729901147
0.677241283997793
2.21610814297376
0.247856991949908
0.296831369293047
0.393952928269886
0.659425635587304
2.18721875631647
0.219164460701909
0.246383508032274
0.29291846286254
0.385904253438299
0.647884841014366
2.18619564684664
0.201598529159804
0.218058080914347
0.243990774694699
0.288319387740254
0.378998408643479
0.640363936530237
2.19192909503075
0.190169123817382
0.200592733733088
0.216291428784193
0.240909640647111
0.283606453877604
0.372920499330046
0.633167545305249
2.19485509325376
0.182420395797395
0.189160410875964
0.199068417878189
0.213929603102975
0.237399249095725
0.278856235044061
0.366713088658666
0.624276285265445
2.19513098617177
0.177024884142541
0.1813785524478
0.187715492640191
0.19704977368664
0.211106500088405
0.233595426115287
0.273848640128303
0.359720843677669
0.613343185065194
2.1948035679242
0.173210453136555
0.175947356643738
0.179953879197411
0.185864465437914
0.19462934131847
0.207952840094285
0.229510195118329
0.268385517760428
0.351729332755899
0.60052413351767
2.19479330899603
0.170498612198327
0.172103523310656
0.174527425831307
0.178195366709896
0.183694147753631
0.191926174650846
0.204553016361649
0.225127560686924
0.262396688697643
0.342757615031216
0.586591064911943
2.19512410041133
0.168576978139245
0.169372029756991
0.170689387722646
0.17283276263438
0.176196592825615
0.181315294755311
0.189041944234418
0.200965848617555
0.220471074165834
0.25592630130791
0.332962947896399
0.571387942325179
2.19485422049954
0.167234327276407
0.167443643042293
0.16797169944524
0.169050747945903
0.170966653090524
0.17406500443906
0.178829890873987
0.186064392766248
0.197268535238359
0.215631725980113
0.249102257668891
0.322473401547543
0.554235349226975
2.19192816768127
0.166326060487826
0.166111375687388
0.166069809011355
0.166391661700344
0.167299781761788
0.169036243623564
0.171899183434831
0.176335684534665
0.183099632829468
0.193591685322995
0.210785104291132
0.242156807935068
0.311441292082127
0.53510345676305
2.18619182578834
0.16575469686668
0.165236174805236
0.164781224049701
0.164557238332629
0.164750406133738
0.165543925008994
0.167136745383832
0.169799238164358
0.173953280516133
0.180305619850682
0.190152555421577
0.206234902624158
0.235507343040175
0.300289014614521
0.51455667769116
2.18721627760417
0.165445188709508
0.164727147880526
0.163968742720901
0.163345895061905
0.163023930397983
0.163150988792935
0.163870921565292
0.165362611296874
0.167887856073711
0.171853320654764
0.177926951836851
0.187310044242961
0.202519891454623
0.229925875839169
0.29028147323569
0.495235103686589
2.21610793272684
2.46684683132917
0.715602046442072
2.38168912766569
0.40794984015718
0.699138126191945
2.28699037836349
0.299949200861293
0.402626013267019
0.67824966972008
2.21610762436778
0.248514760355744
0.297582822401767
0.394855295738816
0.66058069008611
2.18721827039258
0.219865811823477
0.247158030898354
0.293801104008762
0.38696044884119
0.649230707035621
2.18619321540822
0.202350895975762
0.218871033721015
0.244888532741346
0.289341753124855
0.380224164754354
0.641938795416536
2.19192982442465
0.190976034495028
0.201452368283924
0.217221747130214
0.241937229053486
0.28477734685481
0.374331283661312
0.635003825815009
2.19485129777261
0.183282594392835
0.190070488916858
0.200040374249107
0.214982972623458
0.238563339430725
0.280185102836365
0.368324047046155
0.626406064795909
2.19512616140045
0.177940678920361
0.182339481414726
0.188732980318917
0.198139012259842
0.212288399921516
0.234903187240765
0.275345104157282
0.3615463571436
0.615801073227318
2.19480946564975
0.174175619521332
0.176956446894052
0.181016722899556
0.186993638919878
0.195841062796199
0.209269487887851
0.230968822096702
0.270058016199328
0.353780709610166
0.603313918822579
2.19479888806657
0.171506046172324
0.173154813938968
0.175631565603919
0.179363446871615
0.184939581982784
0.193265774025858
0.206010760717282
0.226743619612275
0.264250433093704
0.345024491829326
0.589353479509888
2.19511868394786
0.169616182735252
0.170455871645675
0.171826623898151
0.174033884043198
0.177473657643727
0.182682225288909
0.190515807049467
0.202571506108795
0.222250050359289
0.257957808919612
0.335401966805499
0.574398754618035
2.19485078695816
0.168290700298302
0.168546115608549
0.169129267502885
0.170273967439086
0.172267240482364
0.17545554588629
0.18032436151842
0.187680153266079
0.199030081301103
0.21757902999816
0.251309130446637
0.325061626021709
0.55742068416116
2.19192838294759
0.167379898004282
0.167213535047785
0.167229924164149
0.167620741918728
0.168609844796032
0.170439725387005
0.173409051483976
0.177965885854407
0.184867483686961
0.19552050427296
0.212910392767191
0.244536446310775
0.314181612024123
0.538327934711234
2.18619221863761
0.166779790089654
0.166313105698085
0.165920927652277
0.165770960556807
0.166050573448017
0.166943447637817
0.168648630204387
0.171436762006276
0.175731022865168
0.18224072859737
0.192267090005323
0.208558486902658
0.238078959166762
0.30316979386623
0.517674689385061
2.18721703674516
0.166416454907916
0.165746933307456
0.165062598428562
0.164522303803068
0.164294133479766
0.164528362730551
0.165369330214491
0.166995905600162
0.169670211751954
0.173799983507842
0.180055541869939
0.189642442927344
0.205080684134971
0.232745983852345
0.293346069786118
0.49834735058202
2.21610689741159
0.164377061034569
0.16622309185376
0.165438516656071
0.164563190993
0.163737650733133
0.163140496703337
0.162903948967393
0.163141244607011
0.163982859228794
0.165610708096645
0.168294039743185
0.172444050422554
0.178721170480168
0.188286282255777
0.203526844901867
0.230411337972084
0.288446892053884
0.488831343089238
2.28699329689139
2.46684168690837
0.716403038734596
2.38167991399186
0.408492937810441
0.700040944725938
2.28700087197223
0.300464978612481
0.403269899683123
0.67916526451858
2.21610385708458
0.249062772951299
0.298209769104179
0.395613160849322
0.661586029095884
2.18721747623277
0.220461731800546
0.247814856832374
0.294547939231328
0.387852682564793
0.650379337825273
2.18619299786248
0.20300141201655
0.219572137890402
0.245660630597937
0.290217797016954
0.381269190908748
0.643276861827001
2.19192854893152
0.191684347475858
0.202204878459515
0.21803377111204
0.242831307182383
0.285791908878584
0.375545847591146
0.636569969234765
2.19484813244492
0.184049605385469
0.190877800812677
0.200900024751408
0.215911727607985
0.239586310205895
0.28134766784286
0.369723321544578
0.628233291691923
2.19512383944597
0.178765394223364
0.183202299670321
0.189643785884688
0.199111003549094
0.213339712458282
0.236062278511928
0.276665230814622
0.363144458536228
0.61792183305534
2.19480452127757
0.175055140004665
0.177873101356755
0.181979034596545
0.188012574139979
0.196930776791289
0.210449649392342
0.232271532341256
0.271544690538158
0.355590232630479
0.605756823474426
2.19480494210627
0.172435278022531
0.174121137838862
0.176642762790467
0.180429178023598
0.186071628131187
0.194479104401706
0.207326422776848
0.228197076588688
0.26591096670599
0.347048941920027
0.591839369263379
2.19512428016752
0.170587396795418
0.171464837297512
0.172880887059263
0.175142531877716
0.178647215181441
0.183932935987979
0.191859034421646
0.204029612389701
0.223860677176722
0.259794434497952
0.337605039084389
0.577105591211085
2.19484557546146
0.16929296392577
0.169587309944979
0.170217137251624
0.171417627525041
0.17347684166714
0.176742071041832
0.181700236661974
0.189160846103145
0.200638179771959
0.219352104737501
0.253317876989453
0.327424250777918
0.560343631428287
2.19192679512677
0.168398324447591
0.168272456693334
0.168337724569983
0.168787041078478
0.169845075747885
0.171754628505967
0.174814809862074
0.179474809752253
0.18649496098368
0.197288017382048
0.214852591267425
0.246713862400174
0.316709817850961
0.541374483969642
2.18619212621969
0.167794696669311
0.167370207538895
0.167030058971413
0.166942610014571
0.167295844519447
0.168273510426201
0.170074574198175
0.172969898032405
0.177383757541073
0.184027822907586
0.194208018495908
0.210681636547234
0.240423929621694
0.305825563136475
0.520654813720421
2.18721760680369
0.167404902635128
0.166776400187967
0.166148725071525
0.165676965036978
0.165528957848372
0.165855150578554
0.16679975530154
0.168541649801365
0.171342826312388
0.175612201816538
0.18202170113271
0.19178001334183
0.207409996816
0.235295296357537
0.296116448707702
0.501089048837925
2.21610658901665
0.167171442768079
0.166416819797583
0.165595450673957
0.164850459909206
0.164343582983797
0.164208371383373
0.16455929843797
0.165527124762537
0.167293681642517
0.170128439501226
0.17444314779934
0.180899753993408
0.190661657940437
0.206119072087637
0.233218116966956
0.291365151848106
0.491442379998407
2.2869931937742
0.16516462667745
0.164365422063901
0.167050653913074
0.166223418005657
0.165293050246775
0.164371467987294
0.163603611357267
0.163135663799263
0.163067381822551
0.163504055845065
0.16458811411962
0.166524919248976
0.169616143299741
0.174320601437105
0.18137184693126
0.192062543004802
0.209052268164257
0.238983614606377
0.303619948956942
0.528085323741858
2.3816773476856
0.716653084044133
2.38168072632047
0.408920578980776
0.701021997392082
2.28699323927617
0.300873606923352
0.403816640206358
0.680120146451678
2.216099536876
0.249507642754798
0.298723768944602
0.396254214725772
0.662522684952609
2.18721449372076
0.220958142299575
0.248362143743217
0.295171352923927
0.388604976531177
0.651395293530532
2.18619219450096
0.203555159398549
0.22016789434046
0.246315664294172
0.29095945564556
0.382153628779806
0.644426081553937
2.19192932749898
0.192298280236745
0.202855538158792
0.218734171668983
0.243600411572349
0.286661513586482
0.376581656583716
0.637902195650176
2.19485120746516
0.184724650624886
0.191586465269377
0.201652590906567
0.2167224915975
0.240476515898541
0.282354992493331
0.370927309806545
0.629790299532924
2.19511854645403
0.179501007817474
0.183969841997285
0.190451736716414
0.199970720993377
0.214266885523763
0.23708085994695
0.277819834931198
0.364531450948072
0.619738588016279
2.19480201920139
0.175849370978068
0.178698552390679
0.182843043224905
0.188924629634294
0.197903154969444
0.211499368228077
0.233426060988006
0.272855821428293
0.357173231173327
0.607866656203362
2.19480002580432
0.1732845389404
0.17500164724332
0.17756122171169
0.18139395763051
0.187092997557615
0.195570172588023
0.208505622446205
0.229495090381839
0.267386897047283
0.348837903309714
0.5941919469898
2.19513035328083
0.17148608922716
0.172395374723394
0.173849750423933
0.176157573957771
0.179717601060084
0.185069431488851
0.193075273650266
0.205345412312561
0.22530929568695
0.261440816611526
0.339576354326766
0.57950183438152
2.19485095472063
0.170233017078376
0.170560220431934
0.171229536537542
0.172477361837211
0.174592698310985
0.177923640488197
0.18295856002727
0.190509760912882
0.202098211547074
0.220957649772459
0.255133623915794
0.329563303298967
0.562982948141344
2.19192216402112
0.16936863046897
0.169276887773488
0.169383437936803
0.169882329553383
0.170998950931864
0.172976390508334
0.176114208799819
0.180862798035279
0.187985451857719
0.198900978141506
0.216621063777731
0.248696959648419
0.319020563293181
0.544188464465476
2.18619187020659
0.168780504348784
0.168391367431403
0.16809482434365
0.168060173148453
0.168475920758683
0.169525771845308
0.171408566194766
0.174395513034261
0.178911669998457
0.185671403859342
0.195985536033251
0.212621597067373
0.242570081278051
0.308284091620258
0.52351242428646
2.18721789611615
0.168387961774387
0.167794761338366
0.167213337491474
0.16679869740571
0.16671860107859
0.16712316492361
0.168156173765263
0.169996323673347
0.172905693977564
0.177294022578184
0.1838348181248
0.193740054195188
0.209537775640137
0.237621089452126
0.29868011457152
0.503725211448492
2.21610750088685
0.168133037597022
0.167409831263243
0.166634680056431
0.165952646512574
0.165521185378857
0.165472593553993
0.165920914693519
0.166996688298724
0.168881581913876
0.171845183350389
0.176299634943426
0.182907881724773
0.19283488430367
0.20847203967647
0.235756410956147
0.294004447062182
0.493644750259813
2.28700518891891
0.167975307374173
0.167178843422958
0.166284416039752
0.165423843122133
0.16474495859221
0.164375769881166
0.164416441994681
0.16497334637371
0.166189335952958
0.168269477012179
0.171515824558527
0.176387445058573
0.183619088217013
0.1945047013688
0.21170178770503
0.241788885536736
0.306384837819358
0.529031147543894
2.38167783015298
0.16601847637693
0.16516147775952
0.16420793611255
0.167889189581568
0.167056899439021
0.166094027211618
0.165135301981189
0.164299110560868
0.163698335383467
0.163448495368606
0.16364591185057
0.164415344465147
0.165934292975237
0.168461745116508
0.172385709820213
0.178315256541606
0.187278383580416
0.2012373364845
0.224605049460435
0.269728405741432
0.38646049680802
0.850529809874691
3.68516784033527
0.40911769887965
0.701375833892083
2.28699720412472
0.301169287453913
0.404264493738295
0.681248819471923
2.216105981041
0.249852767258422
0.299132242997691
0.396809413179544
0.663533210515258
2.1872105355144
0.221359753690136
0.248806570139163
0.295683390776469
0.389247561457921
0.652365794508182
2.18618859941252
0.204016771535624
0.220664234983378
0.246861603790581
0.291579430376861
0.382903555014982
0.645458174572358
2.19192917620613
0.192821920392721
0.203409448340371
0.219329449137598
0.244253097929345
0.287398389083095
0.377460228863224
0.639053106966318
2.19485327382979
0.185311103171896
0.1922007053667
0.202303358055001
0.217421956648072
0.241242533738763
0.283218696951299
0.371954394493163
0.631116919481292
2.19512410109662
0.180149984285625
0.184645338024985
0.191160970382569
0.200723408771193
0.215076362549912
0.237967382318941
0.278820155927501
0.3657242278755
0.621284621142794
2.19479656489602
0.17655955052217
0.179434793452913
0.183611612279981
0.189733674598628
0.198763251292438
0.212425114057616
0.234440594099714
0.274002250327704
0.358546061277674
0.609670314242887
2.19479736944691
0.174053425680279
0.175796724039801
0.178388221423531
0.182260086023763
0.188007139385655
0.196543666479521
0.209554436445666
0.230645387841031
0.268688268105905
0.350403027371664
0.596267625703423
2.19512552214989
0.172309700379042
0.173245751880313
0.174732435554132
0.177079323651592
0.180686355754115
0.186094588334621
0.194168886574292
0.206524619726873
0.226602957032646
0.262904745970498
0.341332287446172
0.581638100764526
2.19485489174755
0.171105477167019
0.171460361989858
0.172163011939386
0.173450902408924
0.175613893482459
0.179000850219107