/*--------------------------------*- C++ -*----------------------------------*\
  =========                 |
  \\      /  F ield         | OpenFOAM: The Open Source CFD Toolbox
   \\    /   O peration     | Website:  https://openfoam.org
    \\  /    A nd           | Version:  12
     \\/     M anipulation  |
\*---------------------------------------------------------------------------*/
/*   Windows 32 and 64 bit porting by blueCAPE: http://www.bluecape.com.pt   *\
|  Based on Windows porting (2.0.x v4) by Symscape: http://www.symscape.com   |
\*---------------------------------------------------------------------------*/
FoamFile
{
    format      ascii;
    class       volScalarField;
    location    "400";
    object      p;
}
// * * * * * * * * * * * * * * * * * * * * * * * * * * * * * * * * * * * * * //

dimensions      [0 2 -2 0 0 0 0];

internalField   nonuniform List<scalar> 
10123
(
83333.3370625763
83333.3370175586
83333.3370633533
83333.3370628121
83333.3369709702
83333.3370183321
83333.3370177796
83333.3370658933
83333.3370636694
83333.3370632259
83333.3369229252
83333.3369717274
83333.3369711678
83333.3370208688
83333.3370186436
83333.3370181843
83333.3370713675
83333.3370663119
83333.3370641471
83333.3370638464
83333.3368734611
83333.3369236581
83333.3369231161
83333.3369741924
83333.3369720204
83333.336971558
83333.3370262194
83333.3370213004
83333.3370191219
83333.3370188084
83333.3370804497
83333.3370718064
83333.3370668889
83333.3370648082
83333.3370647001
83333.3368226315
83333.3368741685
83333.3368736522
83333.3369260318
83333.3369239408
83333.3369235017
83333.3369793643
83333.3369746045
83333.3369724823
83333.3369721782
83333.3370349829
83333.3370266902
83333.3370218929
83333.337019795
83333.3370196763
83333.337093139
83333.3370808316
83333.3370724977
83333.3370676149
83333.337065676
83333.3370658067
83333.3367704947
83333.3368233142
83333.3368228239
83333.336876446
83333.3368744452
83333.3368740366
83333.3369309874
83333.3369264236
83333.3369243927
83333.3369241218
83333.336987788
83333.3369798195
83333.3369751792
83333.3369731508
83333.3369730511
83333.3370471635
83333.3370354041
83333.3370274117
83333.337022642
83333.3370206828
83333.337020805
83333.3371091739
83333.3370934177
83333.3370814824
83333.3370732884
83333.3370684998
83333.3370667772
83333.3370671722
83333.3367171072
83333.3367711534
83333.3367706875
83333.3368254981
83333.3368235864
83333.3368232075
83333.3368811772
83333.3368768229
83333.3368748906
83333.3368746572
83333.3369390515
83333.3369314207
83333.3369269793
83333.3369250565
83333.3369249998
83333.3369994715
83333.3369882003
83333.3369805232
83333.3369759226
83333.3369740451
83333.3369741917
83333.3370625412
83333.3370474901
83333.3370361088
83333.3370282342
83333.3370235558
83333.3370218096
83333.3370221985
83333.3371282569
83333.3371093522
83333.3370939572
83333.3370823198
83333.337074192
83333.3370695824
83333.3370681283
83333.3370687935
83333.336662523
83333.3367177435
83333.3367172997
83333.3367732502
83333.3367714221
83333.3367710703
83333.3368300126
83333.3368258635
83333.3368240266
83333.3368238278
83333.3368888836
83333.3368815968
83333.3368773639
83333.3368755507
83333.3368755392
83333.3369502434
83333.3369394464
83333.3369320984
83333.3369277106
83333.3369259539
83333.3369261502
83333.337014219
83333.3369997981
83333.336988901
83333.3369813413
83333.3369768442
83333.3369751864
83333.3369756025
83333.3370808533
83333.3370627718
83333.3370480995
83333.3370369818
83333.337029177
83333.3370246709
83333.3370231913
83333.3370238523
83333.3371501397
83333.3371283686
83333.3371097705
83333.3370947471
83333.3370832173
83333.3370752577
83333.3370708983
83333.3370697335
83333.3370706635
83333.3366067934
83333.3366631383
83333.3366627147
83333.3367197586
83333.3367180092
83333.3367176812
83333.3367775617
83333.3367736063
83333.3367718582
83333.3367716894
83333.3368373761
83333.3368304236
83333.3368263927
83333.3368246832
83333.3368247116
83333.3368995973
83333.3368892686
83333.336882252
83333.3368780847
83333.3368764494
83333.3368766968
83333.3369643795
83333.3369505601
83333.33694013
83333.3369329008
83333.3369286319
83333.3369271045
83333.3369275742
83333.3370317889
83333.3370144553
83333.3370004165
83333.3369897699
83333.3369822953
83333.3369779768
83333.3369765878
83333.3369772769
83333.3371018728
83333.3370810172
83333.3370632742
83333.337048938
83333.3370379254
83333.3370302865
83333.3370260224
83333.3370248314
83333.3370257584
83333.3371746185
83333.3371502125
83333.3371286811
83333.3371104347
83333.3370955847
83333.3370842505
83333.3370765376
83333.3370724643
83333.3370715916
83333.337072773
83333.3365499683
83333.336607388
83333.3366069842
83333.3366650739
83333.3366634004
83333.3366630944
83333.3367238799
83333.3367201076
83333.3367184414
83333.3367182982
83333.3367846009
83333.336777967
83333.3367741259
83333.3367725111
83333.3367725728
83333.3368476302
83333.3368377559
83333.3368310607
83333.3368271046
83333.3368255817
83333.3368258731
83333.336913144
83333.3368999115
83333.3368899392
83333.3368830399
83333.3368790037
83333.3368776058
83333.3368781303
83333.3369812347
83333.3369646143
83333.3369511722
83333.33694098
83333.3369338539
83333.336929774
83333.3369285192
83333.336929264
83333.3370519737
83333.3370319632
83333.3370149796
83333.3370012582
83333.3369907299
83333.3369834284
83333.3369793518
83333.336978251
83333.3369792051
83333.337125415
83333.3371020013
83333.3370814256
83333.337064
83333.3370498307
83333.3370390153
83333.3370316135
83333.3370276273
83333.3370267263
83333.3370279067
83333.3372015206
83333.3371746665
83333.3371504347
83333.3371291861
83333.3371111636
83333.337096554
83333.3370854848
83333.3370780627
83333.3370742858
83333.3370736966
83333.3370751113
83333.3364920961
83333.3365505415
83333.3365501579
83333.3366092455
83333.3366076461
83333.3366073613
83333.3366690155
83333.3366654173
83333.3366638284
83333.3366637084
83333.3367306127
83333.3367242815
83333.3367206186
83333.3367190903
83333.3367191795
83333.3367944155
83333.3367849776
83333.3367785896
83333.33677483
83333.3367734079
83333.3367737353
83333.336860611
83333.3368479464
83333.3368384172
83333.3368318364
83333.3368280203
83333.3368267409
83333.3368273119
83333.3369293126
83333.3369133844
83333.3369005208
83333.3368907707
83333.3368839887
83333.3368801509
83333.3368790293
83333.3368798307
83333.3370006143
83333.336981412
83333.3369651426
83333.3369519997
83333.3369419419
83333.3369349986
83333.3369311648
83333.3369301976
83333.336931208
83333.337074602
83333.3370521148
83333.3370324019
83333.3370157192
83333.3370021755
83333.3369918519
83333.336984786
83333.3369809831
83333.3369801703
83333.3369813764
83333.3371513159
83333.3371255167
83333.3371023208
83333.3370820034
83333.3370647962
83333.3370508688
83333.3370403115
83333.3370331887
83333.3370294902
83333.3370288702
83333.3370302847
83333.337230685
83333.3372015414
83333.337174798
83333.3371507761
83333.3371297693
83333.3371120265
83333.3370977171
83333.337086963
83333.3370798513
83333.3370763657
83333.3370760417
83333.3370776622
83333.3364332241
83333.3364926476
83333.3364922834
83333.3365523218
83333.336550795
83333.3365505314
83333.3366130158
83333.3366095833
83333.3366080694
83333.3366079711
83333.3366754576
83333.336669414
83333.3366659204
83333.3366644729
83333.3366645859
83333.3367400082
83333.3367309873
83333.3367248916
83333.3367213156
83333.336719984
83333.33672034
83333.336806854
83333.336794735
83333.3367856327
83333.3367793549
83333.336775742
83333.3367745671
83333.3367751752
83333.3368761204
83333.3368608602
83333.3368485567
83333.3368392344
83333.33683278
83333.3368291696
83333.3368281688
83333.3368290176
83333.3369479178
83333.3369294996
83333.3369139188
83333.336901333
83333.3368917301
83333.3368851393
83333.3368815519
83333.3368807173
83333.3368817844
83333.3370223555
83333.3370007589
83333.3369818628
83333.3369658774
83333.3369529258
83333.3369430809
83333.3369363766
83333.3369328144
83333.336932133
83333.3369333933
83333.3370995118
83333.3370747184
83333.3370524689
83333.3370330058
83333.3370165514
83333.3370032564
83333.33699319
83333.3369863964
83333.3369828742
83333.3369823396
83333.3369837754
83333.3371794143
83333.3371513863
83333.3371257461
83333.3371027471
83333.3370826688
83333.3370657421
83333.3370521086
83333.3370418542
83333.3370350299
83333.3370316121
83333.3370312549
83333.337032875
83333.3372619894
83333.3372306707
83333.3372015776
83333.3371749811
83333.3371511863
83333.3371304796
83333.337113074
83333.3370991174
83333.3370887114
83333.3370819166
83333.3370787049
83333.3370786182
83333.3370804002
83333.3363734017
83333.3364337541
83333.3364334073
83333.3364943506
83333.3364928956
83333.3364926518
83333.3365559272
83333.3365526535
83333.3365512131
83333.3365511354
83333.3366191799
83333.3366134106
83333.3366100787
83333.3366087086
83333.3366088433
83333.3366844535
83333.3366758304
83333.3366700129
83333.3366666105
83333.3366653624
83333.3366657419
83333.3367519282
83333.3367403308
83333.3367316375
83333.3367256481
83333.3367222233
83333.3367211409
83333.3367217775
83333.336821731
83333.3368071124
83333.3367953478
83333.336786438
83333.3367802932
83333.3367768911
83333.3367759956
83333.3367768813
83333.3368939815
83333.3368763201
83333.3368614034
83333.3368493563
83333.3368401896
83333.3368339329
83333.336830576
83333.3368298612
83333.3368309752
83333.3369688011
83333.336948075
83333.3369299615
83333.3369146468
83333.3369022628
83333.3368928785
83333.3368865304
83333.3368832139
83333.3368826617
83333.3368839764
83333.3370462997
83333.3370224783
83333.3370011308
83333.3369824726
83333.3369667284
83333.3369540323
83333.336944447
83333.3369380119
83333.3369347249
83333.3369343172
83333.3369358037
83333.3371265466
83333.3370995973
83333.3370749784
83333.3370529324
83333.3370337206
83333.3370175532
83333.3370045511
83333.3369947806
83333.336988276
83333.3369850263
83333.3369847498
83333.3369863833
83333.3372095653
83333.3371794452
83333.3371515121
83333.337126024
83333.3371032558
83333.3370834782
83333.3370668832
83333.3370535909
83333.3370436693
83333.3370371474
83333.3370339932
83333.3370338694
83333.3370356491
83333.3372953161
83333.3372619303
83333.3372306163
83333.3372016019
83333.3371751956
83333.3371516976
83333.3371313546
83333.3371143446
83333.3371007859
83333.3370907502
83333.3370842659
83333.3370813039
83333.3370814122
83333.3370832838
83333.3363126878
83333.3363739076
83333.3363735772
83333.3364353786
83333.3364339946
83333.3364337682
83333.3364977958
83333.3364946755
83333.3364933073
83333.3364932486
83333.3365618237
83333.3365563172
83333.3365531409
83333.336551846
83333.3365520009
83333.3366277937
83333.3366195502
83333.3366139982
83333.3366107614
83333.3366095926
83333.3366099929
83333.3366958784
83333.3366847784
83333.3366764761
83333.3366707614
83333.3366675132
83333.3366665148
83333.3366671741
83333.3367661992
83333.3367521946
83333.3367409463
83333.3367324327
83333.3367265815
83333.3367233703
83333.3367225668
83333.3367234799
83333.3368388771
83333.3368219431
83333.3368076644
83333.3367961386
83333.336787389
83333.3367814465
83333.3367782989
83333.3367776878
83333.3367788375
83333.3369140386
83333.3368941549
83333.336876794
83333.3368621271
83333.3368502879
83333.3368413434
83333.3368353317
83333.3368322445
83333.3368318085
83333.336833168
83333.3369918121
83333.3369689367
83333.3369484571
83333.3369305762
83333.3369155108
83333.3369033859
83333.3368942635
83333.3368881831
83333.3368851364
83333.336884852
83333.3368863903
83333.3370722946
83333.3370463907
83333.3370227523
83333.3370016109
83333.3369832188
83333.3369677676
83333.336955366
83333.3369460727
83333.3369399193
83333.3369368966
83333.3369367394
83333.3369384165
83333.3371555631
83333.337126589
83333.3370997543
83333.3370753054
83333.3370535053
83333.3370346014
83333.3370187647
83333.3370060968
83333.3369966472
83333.3369904331
83333.3369874374
83333.3369873864
83333.3369891671
83333.3372416608
83333.337209552
83333.3371794673
83333.3371516444
83333.3371263536
83333.337103885
83333.3370844665
83333.3370682559
83333.3370553458
83333.337045776
83333.3370395481
83333.3370366306
83333.3370366938
83333.3370385552
83333.337330566
83333.3372952083
83333.3372617744
83333.3372304737
83333.3372015996
83333.337175465
83333.3371523392
83333.3371324273
83333.33711587
83333.3371027488
83333.3370930964
83333.3370869105
83333.3370841622
83333.3370843962
83333.3370862268
83333.3362511635
83333.3363131608
83333.3363128498
83333.3363754505
83333.3363741375
83333.3363739272
83333.3364386665
83333.3364356955
83333.336434398
83333.3364343561
83333.3365034336
83333.3364981792
83333.3364951541
83333.3364939326
83333.3364941059
83333.3365700709
83333.3365621907
83333.3365568932
83333.3365538155
83333.3365527232
83333.3365531426
83333.3366387453
83333.3366281201
83333.3366201909
83333.3366147385
83333.3366116583
83333.336610739
83333.3366114173
83333.3367095694
83333.3366961512
83333.3366853959
83333.3366772616
83333.3366716897
83333.3366686565
83333.3366679355
83333.3366688692
83333.3367826583
83333.3367664227
83333.3367527544
83333.3367417302
83333.3367333797
83333.3367277335
83333.3367247767
83333.3367242548
83333.3367254299
83333.3368581412
83333.3368390658
83333.336822429
83333.336808387
83333.336797071
83333.3367885459
83333.3367828489
83333.336779969
83333.336779633
83333.3367810256
83333.3369361488
83333.3369141907
83333.3368945456
83333.3368774154
83333.3368630013
83333.3368514226
83333.3368427408
83333.3368369951
83333.3368341727
83333.3368339986
83333.336835578
83333.3370167965
83333.3369919118
83333.3369692238
83333.3369489543
83333.3369313463
83333.336916577
83333.3369047474
83333.336895914
83333.3368901091
83333.3368873177
83333.3368872762
83333.3368889993
83333.3371001987
83333.3370723422
83333.3370465656
83333.3370231084
83333.3370022283
83333.3369841515
83333.3369690318
83333.3369569597
83333.3369479781
83333.3369421045
83333.3369393238
83333.3369393823
83333.3369411976
83333.3371864456
83333.337155561
83333.3371266496
83333.3370999461
83333.3370757152
83333.3370542237
83333.3370356784
83333.337020219
83333.3370079204
83333.3369988062
83333.336992871
83333.3369901001
83333.3369902241
83333.3369920679
83333.3372755939
83333.3372415994
83333.3372094805
83333.3371794455
83333.3371517743
83333.3371267614
83333.3371046619
83333.3370856644
83333.3370698905
83333.3370573978
83333.3370481903
83333.3370422403
83333.3370395174
83333.3370396915
83333.3370414947
83333.3373676386
83333.3373304081
83333.3372949453
83333.3372614556
83333.3372302308
83333.3372015874
83333.3371758142
83333.3371531398
83333.337133728
83333.3371176782
83333.3371050291
83333.337095768
83333.3370898646
83333.3370872674
83333.3370874979
83333.337089075
83333.3361889506
83333.3362515967
83333.336251306
83333.3363146132
83333.3363133757
83333.3363131856
83333.3363785825
83333.3363757566
83333.3363745293
83333.3363745044
83333.3364440528
83333.3364390416
83333.3364361636
83333.336435014
83333.3364352041
83333.3365113277
83333.3365037968
83333.3364987434
83333.3364958194
83333.3364948019
83333.3364952384
83333.3365805694
83333.3365703979
83333.3365628251
83333.336557624
83333.3365547053
83333.3365538621
83333.3365545572
83333.3366518812
83333.3366390231
83333.3366287383
83333.3366209667
83333.336615661
83333.3366127965
83333.3366121523
83333.3366131024
83333.3367253689
83333.3367098035
83333.3366967168
83333.3366861733
83333.3366782045
83333.3366728393
83333.3366700591
83333.3366696164
83333.3366708092
83333.3368011602
83333.3367828604
83333.3367669174
83333.3367534765
83333.336742663
83333.3367345381
83333.3367291369
83333.3367264444
83333.3367261936
83333.3367276084
83333.3368793814
83333.3368583061
83333.3368394654
83333.3368230578
83333.3368092697
83333.3367982145
83333.3367899514
83333.3367845174
83333.3367818976
83333.3367818176
83333.3367834255
83333.3369601572
83333.336936261
83333.3369144882
83333.3368950608
83333.3368782056
83333.3368640886
83333.3368528042
83333.3368444081
83333.3368389318
83333.3368363564
83333.3368364172
83333.3368381767
83333.3370436201
83333.3370168538
83333.3369921053
83333.3369696066
83333.3369496081
83333.3369323195
83333.3369178813
83333.3369063769
83333.336897847
83333.3368923113
83333.33688975
83333.3368899141
83333.3368917689
83333.3371298964
83333.3371002019
83333.3370724233
83333.3370467956
83333.3370235771
83333.3370030152
83333.3369852981
83333.3369705502
83333.3369588366
83333.3369501762
83333.3369445669
83333.3369419969
83333.3369422197
83333.3369440834
83333.3372190894
83333.3371863959
83333.337155526
83333.3371266951
83333.3371001715
83333.3370762317
83333.3370551107
83333.3370369792
83333.3370219427
83333.3370100431
83333.3370012697
83333.3369955957
83333.3369930037
83333.3369932215
83333.3369949802
83333.3373112623
83333.3372754809
83333.3372414248
83333.3372092894
83333.3371793538
83333.3371519226
83333.3371272708
83333.3371056139
83333.3370871007
83333.3370718129
83333.337059767
83333.337050925
83333.3370452305
83333.3370426334
83333.3370427818
83333.3370443045
83333.337406479
83333.3373674247
83333.3373300333
83333.3372944394
83333.3372609514
83333.3372299006
83333.3372015906
83333.337176271
83333.3371541284
83333.3371352838
83333.3371197917
83333.3371076432
83333.3370987775
83333.3370931237
83333.3370905664
83333.3370905578
83333.337091611
83333.3361262613
83333.3361893517
83333.3361890876
83333.3362529477
83333.3362517892
83333.3362516284
83333.3363175896
83333.336314905
83333.3363137507
83333.3363137522
83333.3363837244
83333.3363789466
83333.3363762111
83333.3363751337
83333.3363753429
83333.3364516067
83333.3364444113
83333.336439592
83333.3364368179
83333.3364358739
83333.3364363265
83333.3365213922
83333.3365116541
83333.3365044209
83333.3364994632
83333.336496701
83333.3364959319
83333.3364966419
83333.3365931741
83333.3365808513
83333.336571015
83333.3365635904
83333.3365585395
83333.336555837
83333.3365552662
83333.33655623
83333.3366670487
83333.3366521246
83333.336639593
83333.3366295087
83333.3366219046
83333.3366168069
83333.3366141933
83333.3366138235
83333.3366150293
83333.3367431389
83333.3367255825
83333.3367103022
83333.3366974381
83333.3366871059
83333.3366793629
83333.3366742413
83333.3366717215
83333.336671545
83333.3366729743
83333.3368215626
83333.3368013356
83333.3367832677
83333.3367675538
83333.3367543667
83333.3367438132
83333.3367359484
83333.336730806
83333.3367283683
83333.3367283681
83333.336729994
83333.3369024485
83333.3368795057
83333.336858615
83333.3368399983
83333.3368238662
83333.3368103745
83333.3367996112
83333.3367916293
83333.3367864584
83333.3367840778
83333.336784225
83333.3367860092
83333.3369859361
83333.3369602275
83333.3369364709
83333.3369148987
83333.336895747
83333.3368792123
83333.3368654243
83333.3368544599
83333.3368463591
83333.336841142
83333.3368387852
83333.3368390428
83333.3368409285
83333.3370721696
83333.3370436361
83333.3370169597
83333.3369923716
83333.3369701252
83333.3369504513
83333.3369335222
83333.3369194498
83333.3369082937
83333.3369000719
83333.3368947863
83333.3368924215
83333.3368927389
83333.3368946339
83333.3371612861
83333.3371298551
83333.3371001928
83333.3370725192
83333.3370470948
83333.3370241806
83333.337003992
83333.3369866826
83333.3369723454
83333.3369610139
83333.3369526757
83333.3369473095
83333.336944903
83333.3369452063
83333.3369469671
83333.3372534022
83333.3372189892
83333.3371862614
83333.3371554144
83333.3371267146
83333.3371004491
83333.3370768748
83333.3370561901
83333.3370385286
83333.3370239579
83333.3370124807
83333.3370040491
83333.3369986084
83333.3369961246
83333.3369962925
83333.3369977434
83333.3373485927
83333.3373110898
83333.337275196
83333.3372410555
83333.3372089531
83333.3371792073
83333.3371521126
83333.337127908
83333.3371067679
83333.3370887999
83333.337074042
83333.337062465
83333.3370539853
83333.3370485043
83333.3370459138
83333.3370457913
83333.3370467718
83333.3374627506
83333.3374470743
83333.3374062
83333.337366927
83333.3373293286
83333.3372936538
83333.3372602711
83333.33722951
83333.3372016389
83333.3371768648
83333.3371553317
83333.3371371151
83333.3371222218
83333.3371105914
83333.3371021088
83333.3370966234
83333.3370938971
83333.3370933062
83333.337093642
83333.33606304
83333.336126624
83333.3361264554
83333.3361905955
83333.3361895216
83333.336189414
83333.3362557684
83333.3362532172
83333.3362521432
83333.3362521898
83333.3363224986
83333.3363179394
83333.3363153409
83333.3363143415
83333.3363145835
83333.3363909518
83333.3363840763
83333.3363794801
83333.3363768516
83333.3363759831
83333.3363764561
83333.3364612558
83333.3364519313
83333.336445021
83333.3364402991
83333.3364376896
83333.3364369942
83333.3364377185
83333.3365334883
83333.3365216771
83333.3365122676
83333.3365051752
83333.33650037
83333.3364978247
83333.3364973255
83333.3364983011
83333.3366077369
83333.3365934257
83333.3365814235
83333.3365717775
83333.3365645221
83333.3365596804
83333.3365572263
83333.3365569259
83333.3365581416
83333.3366841171
83333.3366672726
83333.3366526256
83333.3366403125
83333.33663044
83333.3366230615
83333.3366182056
83333.3366158478
83333.3366157393
83333.3366171776
83333.3367627373
83333.3367433232
83333.336725996
83333.336710946
83333.3366983346
83333.336688261
83333.3366807755
83333.3366759078
83333.3366736368
83333.3366737058
83333.336675342
83333.3368437245
83333.3368216975
83333.3368016558
83333.3367838173
83333.3367683788
83333.3367554863
83333.336745221
83333.3367376323
83333.3367327453
83333.3367305405
83333.3367307602
83333.3367325585
83333.3369272204
83333.3369025319
83333.3368797327
83333.3368590525
83333.3368407141
83333.3368249017
83333.3368117355
83333.3368012858
83333.3367935908
83333.3367886695
83333.3367864968
83333.3367868331
83333.3367887384
83333.3370133757
83333.3369859666
83333.3369603566
83333.336936774
83333.3369154624
83333.3368966383
83333.3368804609
83333.3368670318
83333.3368564056
83333.3368486002
83333.3368436195
83333.3368414463
83333.3368418472
83333.3368437689
83333.3371023454
83333.3370721432
83333.337043655
83333.3370171008
83333.3369927346
83333.3369708023
83333.3369515027
83333.3369349747
83333.336921301
83333.3369105111
83333.3369025945
83333.3368975338
83333.3368953172
83333.3368957038
83333.3368974899
83333.3371942799
83333.3371611973
83333.3371297509
83333.3371001413
83333.3370726268
83333.337047479
83333.3370249357
83333.3370051783
83333.3369883255
83333.3369744348
83333.3369635033
83333.336955484
83333.3369503308
83333.3369480169
83333.3369482562
83333.3369496965
83333.3372893137
83333.3372532462
83333.3372187482
83333.3371859811
83333.3371552055
83333.3371267189
83333.3371007981
83333.3370776667
83333.337057485
83333.3370403472
83333.337026279
83333.3370152408
83333.337007143
83333.3370018901
83333.3369993903
83333.3369992659
83333.337000164
83333.3373876047
83333.3373483552
83333.3373106823
83333.3372746361
83333.3372404542
83333.3372084796
83333.3371790315
83333.3371523721
83333.3371286997
83333.3371081474
83333.3370907779
83333.3370765833
83333.3370654845
83333.3370573426
83333.3370519829
83333.3370491794
83333.337048447
83333.3370487361
83333.337504929
83333.3374623894
83333.3374894267
83333.3374467253
83333.3374055645
83333.3373660066
83333.3373282417
83333.3372925941
83333.3372594453
83333.3372290933
83333.3372017646
83333.3371776234
83333.3371567682
83333.3371392271
83333.3371249549
83333.3371138314
83333.3371056614
83333.3371001512
83333.3370969425
83333.337095409
83333.3370950045
83333.3360634247
83333.3360632989
83333.3361277667
83333.3361268158
83333.3361268342
83333.3361932571
83333.3361908317
83333.3361898624
83333.3361899874
83333.3362604592
83333.3362560958
83333.3362536284
83333.3362527212
83333.3362530208
83333.3363294183
83333.3363228414
83333.3363184517
83333.336315964
83333.3363151813
83333.336315691
83333.3364002047
83333.3363912731
83333.3363846676
83333.3363801713
83333.3363777117
83333.3363770935
83333.3363778377
83333.3364728652
83333.336461544
83333.3364525374
83333.3364457628
83333.3364411957
83333.3364388041
83333.3364383765
83333.3364393635
83333.3365474728
83333.3365337475
83333.3365222488
83333.3365130208
83333.3365060994
83333.3365015041
83333.3364992052
83333.3364989721
83333.3365001953
83333.3366241334
83333.3366079704
83333.3365939275
83333.33658214
83333.3365727059
83333.3365656758
83333.3365610741
83333.336558871
83333.3365588266
83333.3365602701
83333.336702945
83333.3366843088
83333.3366676904
83333.336653275
83333.3366412135
83333.336631598
83333.3366244739
83333.3366198669
83333.3366177518
83333.336617883
83333.336619524
83333.3367840298
83333.3367628807
83333.3367436535
83333.3367265602
83333.3367117858
83333.3366994664
83333.3366896767
83333.3366824614
83333.3366778407
83333.3366757965
83333.3366760793
83333.3366778836
83333.3368675274
83333.3368438199
83333.3368219424
83333.3368021183
83333.33678456
83333.3367694395
83333.3367568679
83333.3367469091
83333.3367395984
83333.3367349521
83333.3367329456
83333.3367333472
83333.3367352619
83333.3369535899
83333.336927266
83333.3369026853
83333.3368800713
83333.3368596576
83333.3368416478
83333.3368261889
83333.3368133736
83333.3368032516
83333.3367958398
83333.3367911423
83333.3367891415
83333.3367896127
83333.336791552
83333.3370423781
83333.3370133667
83333.3369860161
83333.3369605434
83333.3369371953
83333.3369162039
83333.336897753
83333.3368819694
83333.3368689266
83333.3368586511
83333.3368511344
83333.3368463619
83333.336844323
83333.336844784
83333.336846598
83333.3371340608
83333.3371022744
83333.3370720734
83333.3370436599
83333.3370172868
83333.3369932109
83333.3369716529
83333.3369527786
83333.336936694
83333.3369234486
83333.3369130373
83333.3369054173
83333.3369005505
83333.3368984112
83333.3368987258
83333.3369001937
83333.337228809
83333.3371941398
83333.3371609925
83333.3371295407
83333.337100036
83333.337072758
83333.337047964
83333.3370258604
83333.3370065925
83333.3369902427
83333.3369768288
83333.3369663082
83333.3369585963
83333.3369536111
83333.3369512667
83333.3369512095
83333.3369520984
83333.3373268079
83333.3372890947
83333.3372528896
83333.3372182865
83333.3371855231
83333.3371549048
83333.3371267287
83333.3371012419
83333.3370786303
83333.3370590143
83333.3370424458
83333.3370289067
83333.3370183105
83333.3370105168
83333.3370053555
83333.3370026201
83333.33700187
83333.3370021084
83333.3374282758
83333.337387296
83333.337347812
83333.3373099147
83333.3372737495
83333.3372396245
83333.3372078971
83333.3371788582
83333.3371527303
83333.3371296699
83333.3371097658
83333.3370930338
83333.3370794151
83333.337068771
83333.337060881
83333.337055434
83333.3370521059
83333.3370504414
83333.3370500876
83333.3375489762
83333.3375045005
83333.3374616051
83333.3375335068
83333.3374890072
83333.3374459424
83333.3374044086
83333.3373645957
83333.3373267751
83333.337291296
83333.3372585146
83333.337228688
83333.337201999
83333.3371785666
83333.337158441
83333.337141597
83333.3371279267
83333.337117227
83333.3371091644
83333.3371032907
83333.337099257
83333.3370968102
83333.3370954289
83333.3360645486
83333.3360636815
83333.3360637423
83333.3361302369
83333.3361280006
83333.336127184
83333.3361274509
83333.3361977383
83333.3361935495
83333.3361912174
83333.3361904399
83333.3361908328
83333.3362670923
83333.3362607847
83333.3362565805
83333.3362542319
83333.3362535561
83333.3362541301
83333.3363382957
83333.3363297332
83333.3363234081
83333.3363191231
83333.3363168114
83333.3363162842
83333.3363170663
83333.3364113503
83333.3364004945
83333.3363918673
83333.3363853944
83333.3363810557
83333.3363788162
83333.3363784652
83333.3363794697
83333.3364862973
83333.3364731311
83333.3364621082
83333.3364532794
83333.3364466777
83333.3364423213
83333.3364401748
83333.3364400093
83333.3364412396
83333.3365632271
83333.3365477149
83333.3365342474
83333.3365229606
83333.3365139446
83333.3365072481
83333.3365028914
83333.3365008387
83333.336500856
83333.3365023019
83333.3366422239
83333.3366243315
83333.3366083906
83333.3365945808
83333.3365830436
83333.3365738647
83333.3365670858
83333.3365627282
83333.3365607616
83333.3365609507
83333.3365625921
83333.3367234036
83333.3367030955
83333.3366846485
83333.3366682675
83333.3366541273
83333.3366423548
83333.3366330189
83333.3366261588
83333.3366217904
83333.3366198956
83333.3366202349
83333.3366220395
83333.3368069014
83333.3367841352
83333.3367631425
83333.3367441388
83333.3367273272
83333.3367128682
83333.3367008645
83333.3366913738
83333.3366844274
83333.3366800384
83333.3366781844
83333.336678642
83333.336680559
83333.3368928666
83333.3368675873
83333.336843997
83333.3368223137
83333.3368027614
83333.3367855313
83333.3367707594
83333.3367585304
83333.3367488885
83333.3367418492
83333.3367374156
83333.3367355696
83333.336736099
83333.3367380469
83333.3369814601
83333.3369535984
83333.3369273459
83333.3369029159
83333.3368805464
83333.3368604565
83333.336842817
83333.3368277436
83333.336815302
83333.3368055161
83333.3367983771
83333.3367938726
83333.3367919942
83333.3367925187
83333.3367943544
83333.3370728564
83333.3370423274
83333.3370133332
83333.336986076
83333.3369608014
83333.3369377534
83333.3369171373
83333.3368991048
83333.336883751
83333.3368711188
83333.3368612018
83333.3368539609
83333.3368493643
83333.3368473893
83333.3368477742
83333.3368492787
83333.3371672443
83333.3371339424
83333.3371021104
83333.3370719301
83333.337043648
83333.3370175295
83333.3369938141
83333.3369726915
83333.3369542935
83333.3369386917
83333.3369258988
83333.3369158721
83333.3369085347
83333.3369038165
83333.3369016351
83333.3369016554
83333.3369025839
83333.3372648308
83333.3372286139
83333.3371938274
83333.3371606117
83333.3371292025
83333.3370998835
83333.3370729292
83333.3370485685
83333.3370269724
83333.3370082487
83333.3369924404
83333.3369795234
83333.3369694127
83333.3369619784
83333.3369570668
83333.3369544797
83333.3369538043
83333.3369540451
83333.3373658527
83333.3373265251
83333.337288611
83333.3372522324
83333.3372175598
83333.3371848889
83333.3371545355
83333.3371267708
83333.3371018051
83333.337079784
83333.337060786