/*--------------------------------*- C++ -*----------------------------------*\
  =========                 |
  \\      /  F ield         | OpenFOAM: The Open Source CFD Toolbox
   \\    /   O peration     | Website:  https://openfoam.org
    \\  /    A nd           | Version:  12
     \\/     M anipulation  |
\*---------------------------------------------------------------------------*/
/*   Windows 32 and 64 bit porting by blueCAPE: http://www.bluecape.com.pt   *\
|  Based on Windows porting (2.0.x v4) by Symscape: http://www.symscape.com   |
\*---------------------------------------------------------------------------*/
FoamFile
{
    format      ascii;
    class       surfaceScalarField;
    location    "400";
    object      phi;
}
// * * * * * * * * * * * * * * * * * * * * * * * * * * * * * * * * * * * * * //

dimensions      [0 3 -1 0 0 0 0];

internalField   nonuniform List<scalar> 
28900
(
1.33232340300082e-05
2.14212877112607e-08
-1.29120318084466e-07
1.34192285173795e-05
2.58495450092241e-08
-1.21839168388223e-07
2.59235841132211e-06
9.03019394731044e-08
-4.7407121216068e-08
1.53101239951762e-05
1.0384696844701e-08
-2.45432501386854e-07
1.34982652852787e-05
3.25576298572093e-08
-1.11588324257921e-07
2.56767010113673e-06
9.50823361785896e-08
-4.45410983258951e-08
1.54112624579373e-05
1.34479775498376e-08
-2.36433064903288e-07
9.14046177604949e-07
1.39054391509052e-07
-2.03230341665231e-08
3.8764753798514e-06
7.00764655214117e-08
-8.97273009895238e-08
1.68973935481922e-05
1.11511310903606e-08
-3.62171739349578e-07
1.3564197795393e-05
3.975472098979e-08
-1.05689505952809e-07
2.53998740334263e-06
1.00224953466842e-07
-3.99793481492765e-08
1.55030915565449e-05
2.1519897243835e-08
-2.24925916276031e-07
8.8055601353466e-07
1.48217906324255e-07
-1.9644152235929e-08
3.85503347536698e-06
7.62797690936148e-08
-8.59219515588488e-08
1.70038975216637e-05
1.21073581193706e-08
-3.55036577379548e-07
4.83579920191477e-07
1.87417840025715e-07
-1.35586115743944e-08
1.46246402122757e-06
1.20315065228216e-07
-4.43237249904426e-08
4.50039332662518e-06
7.74253541393512e-08
-1.34822430427098e-07
1.87623387849585e-05
6.73648169623801e-09
-4.84578443104344e-07
1.36209568413863e-05
4.63325444653347e-08
-1.03083819451864e-07
2.51101745958527e-06
1.0566665001098e-07
-3.69360693866826e-08
1.558329118997e-05
3.15721275831909e-08
-2.17437192409743e-07
8.43264174964589e-07
1.55213188091665e-07
-1.76966509017755e-08
3.83224260215801e-06
8.4106347773164e-08
-7.97682821450858e-08
1.71036882780596e-05
2.06944643766933e-08
-3.45399288924809e-07
4.45268567738089e-07
1.99810858376232e-07
-1.32814595552069e-08
1.42950456030868e-06
1.32816802837761e-07
-4.32199746197688e-08
4.47416980709301e-06
8.36489749228908e-08
-1.31232322204796e-07
1.88799386296385e-05
6.27947881036281e-09
-4.78907169433412e-07
2.69805037032818e-07
2.35652594762212e-07
-9.88462411937869e-09
8.18240430259176e-07
1.6831164047103e-07
-2.7285754435064e-08
1.74139788452192e-06
1.32391985424398e-07
-6.93671219552614e-08
5.20013838963912e-06
7.69074447246709e-08
-1.84466189816995e-07
2.03087100284091e-05
6.63223497304583e-10
-6.13255748196251e-07
1.36708649645439e-05
5.17756670777625e-08
-1.0168048846055e-07
2.48212287863864e-06
1.10452731983795e-07
-3.52213132066892e-08
1.56521047360278e-05
4.07532005876842e-08
-2.12641449046195e-07
8.04062433792637e-07
1.61121052354369e-07
-1.62528293821274e-08
3.80963549195686e-06
9.26782680689151e-08
-7.54288152572212e-08
1.71912709539519e-05
3.29434802649745e-08
-3.37948315855028e-07
4.03794710065501e-07
2.08822489873165e-07
-1.21353018484682e-08
1.39309396992366e-06
1.42988159472114e-07
-4.01647606552896e-08
4.44797439766176e-06
9.26835847822477e-08
-1.2555056803049e-07
1.89895902044898e-05
1.61220252029396e-08
-4.71156330522948e-07
2.29235047638167e-07
2.50155588399156e-07
-9.77427243726488e-09
7.79470923802324e-07
1.85573691986158e-07
-2.72681529573678e-08
1.70270621673322e-06
1.47158259660586e-07
-6.80335156041651e-08
5.17291726232962e-06
8.332816111503e-08
-1.81052278265773e-07
2.04389978004981e-05
-1.05548657714731e-09
-6.0812295403775e-07
1.24225363441069e-07
2.81701965489455e-07
-6.22352912182955e-09
5.05298500632019e-07
2.17103807937731e-07
-1.96792304437396e-08
9.83554662151156e-07
1.87923734216977e-07
-4.41831120120127e-08
2.03994754081547e-06
1.3502325580809e-07
-9.63842233538586e-08
5.76535090253764e-06
7.19515816695961e-08
-2.37916902460063e-07
2.13364508944386e-05
-5.82135029164642e-09
-7.47883025219086e-07
1.37154633301916e-05
5.58864181114365e-08
-1.00476155554573e-07
2.45379791582075e-06
1.14249985696115e-07
-3.41451162513604e-08
1.57110226739985e-05
4.8303892468034e-08
-2.08895140489592e-07
7.64138245515961e-07
1.65857510666793e-07
-1.54803778338036e-08
3.78770949222831e-06
1.0020407922862e-07
-7.27353538386723e-08
1.72666738837313e-05
4.38807378612075e-08
-3.3190856875582e-07
3.60391607122497e-07
2.1565258896157e-07
-1.1128094073777e-08
1.35534647077964e-06
1.51889475067588e-07
-3.77130865563845e-08
4.42340117956535e-06
1.03090729697411e-07
-1.2099505643088e-07
1.90850325630474e-05
3.06259486737618e-08
-4.63997107352455e-07
1.86258593354239e-07
2.60819621238304e-07
-9.02052964921889e-09
7.37404434053219e-07
1.98540814790218e-07
-2.56205001269658e-08
1.66087904561541e-06
1.59365686313844e-07
-6.50180347261338e-08
5.14587782348046e-06
9.37410155864342e-08
-1.76119783322178e-07
2.05596796237039e-05
9.47219088118409e-09
-6.01296654010878e-07
8.29119985879457e-08
2.97720296176308e-07
-6.25114688213185e-09
4.63571770471451e-07
2.37073777795994e-07
-1.95464032072673e-08
9.38887731135999e-07
2.08361953006566e-07
-4.38035724814038e-08
1.99823299944395e-06
1.51888421715606e-07
-9.48759812987212e-08
5.73930401936616e-06
7.82770208811408e-08
-2.34336440260048e-07
2.14792900182492e-05
-8.53072259247923e-09
-7.42416657325668e-07
1.04523534569543e-08
3.24993941125975e-07
-3.13067404878012e-09
3.02963967983738e-07
2.64922622051851e-07
-1.27147330429888e-08
6.11142676738592e-07
2.41402830565045e-07
-2.93079428152908e-08
1.15687414059613e-06
1.93719218054094e-07
-6.17404646316131e-08
2.24961792832144e-06
1.30779049033319e-07
-1.24662646925132e-07
6.18404390669571e-06
6.42139204582005e-08
-2.93970596543133e-07
2.19550169546911e-05
-1.33558883495504e-08
-8.87240122084215e-07
1.37559642487815e-05
5.87051785716389e-08
-9.92029644375269e-08
2.42618743332604e-06
1.1685608744323e-07
-3.33551233868606e-08
1.57619566120125e-05
5.40911508429525e-08
-2.05483224622307e-07
7.24129433739845e-07
1.6932343654918e-07
-1.5064086418171e-08
3.76654257359436e-06
1.06299687530793e-07
-7.09636767222876e-08
1.7331407453214e-05
5.28466204170612e-08
-3.26469947706062e-07
3.1606242162839e-07
2.20682136659443e-07
-1.04955958116408e-08
1.3170326408782e-06
1.5924230767506e-07
-3.62030880604108e-08
4.40025141276604e-06
1.12154951558521e-07
-1.17857117424751e-07
1.91668874600515e-05
4.35184727280108e-08
-4.57270684013015e-07
1.41577374011901e-07
2.68626219245601e-07
-8.29217138669044e-09
6.9352369424284e-07
2.08734044068586e-07
-2.40897759015371e-08
1.61846979837896e-06
1.70170265313696e-07
-6.23796411258711e-08
5.12125155339927e-06
1.0611840639605e-07
-1.71856128147913e-07
2.06640700994957e-05
2.57973496627293e-08
-5.94175547609817e-07
3.98084100043454e-08
3.09697094848462e-07
-5.77349386327686e-09
4.19324773118757e-07
2.52134967699254e-07
-1.83671469012356e-08
8.90881599524043e-07
2.23801650448329e-07
-4.20484498924309e-08
1.95301326898607e-06
1.66144680166783e-07
-9.22005669569931e-08
5.71302283282376e-06
8.94953710091765e-08
-2.29851186911985e-07
2.16113528795533e-05
2.19695052808418e-09
-7.35540584854791e-07
-3.07762142463569e-08
3.42187684005973e-07
-3.23883429498773e-09
2.59892119090614e-07
2.86699470762962e-07
-1.28048619355787e-08
5.6369359422606e-07
2.6546737942355e-07
-2.92027360250791e-08
1.10851195852525e-06
2.17502993961808e-07
-6.10546969935106e-08
2.20713807686578e-06
1.48767176790491e-07
-1.22884993379611e-07
6.16077600874449e-06
7.02785823601829e-08
-2.8987004057247e-07
2.21100696208708e-05
-1.68222815632931e-08
-8.8064603216069e-07
-8.49400350526277e-08
3.65869478071308e-07
-8.70171927683586e-10
1.52362471631575e-07
3.10993352044788e-07
-6.80622765815474e-09
3.74725397869579e-07
2.93555747532355e-07
-1.83983679767245e-08
7.25808817921692e-07
2.51664004414221e-07
-4.01691633033976e-08
1.27363619567204e-06
1.90381621331342e-07
-7.96893686475441e-08
2.38665780512012e-06
1.21409644558962e-07
-1.53060740763457e-07
6.52018215256358e-06
5.39850498153575e-08
-3.52049977879699e-07
2.23625497465668e-05
-2.35148313573768e-08
-1.02893665855599e-06
1.37933155802951e-05
6.04258712691683e-08
-9.77741635713771e-08
2.39936741718448e-06
1.18194787838519e-07
-3.26671379099708e-08
1.58066002654706e-05
5.82440704014868e-08
-2.02083374808743e-07
6.84377177586239e-07
1.71427761885782e-07
-1.48190070771251e-08
3.74611018823422e-06
1.10811814293436e-07
-6.9643082732264e-08
1.73874053582824e-05
5.9718046519375e-08
-3.21204980979985e-07
2.71455794388662e-07
2.24037347570868e-07
-1.01070136658447e-08
1.27862236610419e-06
1.64937182882514e-07
-3.52899145858606e-08
4.37823901604815e-06
1.19483432475815e-07
-1.15584649779916e-07
1.92370595340301e-05
5.40186344441557e-08
-4.50652375398926e-07
9.59624467591442e-08
2.7409432643741e-07
-7.79701785653064e-09
6.48712373499393e-07
2.16673311998403e-07
-2.31145393655682e-08
1.57589282106056e-06
1.79120499597196e-07
-6.05903996606432e-08
5.09859616020407e-06
1.16932044207624e-07
-1.68607567120174e-07
2.07532260346839e-05
4.038524312622e-08
-5.86804991843229e-07
-4.69141376066795e-09
3.18398200480264e-07
-5.27181223752988e-09
3.73365617759898e-07
2.63553116790484e-07
-1.7151204639242e-08
8.4135206433318e-07
2.3592842556126e-07
-4.03174411441671e-08
1.90760327394222e-06
1.78935444096481e-07
-8.97827265312547e-08
5.68956048678329e-06
1.03247734436693e-07
-2.25836837563267e-07
2.17253875561172e-05
1.96654900564126e-08
-7.27854984138307e-07
-7.33506901956426e-08
3.55202366189162e-07
-2.93051438610706e-09
2.14965081174503e-07
3.03332869662389e-07
-1.20435583745241e-08
5.13565121156261e-07
2.8360292516408e-07
-2.80387983951916e-08
1.05638241877465e-06
2.35630148954381e-07
-5.94016037030572e-08
2.16061911304661e-06
1.64243972580838e-07
-1.20429566655927e-07
6.13665951845567e-06
8.1809907332258e-08
-2.85338839518144e-07
2.22535477408727e-05
-6.11254515279936e-09
-8.72879120193345e-07
-1.25751856397639e-07
3.84005984759843e-07
-1.00649181348015e-09
1.08760923927575e-07
3.34057467827258e-07
-6.99473179644742e-09
3.25964290182628e-07
3.19875443309275e-07
-1.8451639980405e-08
6.74369220715863e-07
2.79556666007951e-07
-3.98158499044666e-08
1.22394140992385e-06
2.16096803857409e-07
-7.86877476809428e-08
2.3450181915764e-06
1.39914126432168e-07
-1.50880111790514e-07
6.50082054640535e-06
5.9766308499588e-08
-3.47087168241716e-07
2.25300615584377e-05
-2.76389949864725e-08
-1.02052058211319e-06
-1.69017487974028e-07
4.04936839537033e-07
6.60961948500466e-10
3.01959029074064e-08
3.55193794651807e-07
-2.23635039522341e-09
2.02448807009175e-07
3.44487321761796e-07
-9.94283263107382e-09
4.58275577574367e-07
3.08164338135507e-07
-2.4789115281549e-08
8.07095599427974e-07
2.49843565625778e-07
-5.14213181070277e-08
1.35057286600038e-06
1.79928744029566e-07
-9.74165936145688e-08
2.49998506753455e-06
1.08193836427784e-07
-1.81032048778106e-07
6.83932192550701e-06
4.05486718453662e-08
-4.12296659480781e-07
2.27004478728047e-05
-3.7812347132083e-08
-1.1701330141428e-06
1.38282349639441e-05
6.1247884667195e-08
-9.61567102777796e-08
2.37345551084402e-06
1.18338676471397e-07
-3.20003319573029e-08
1.58463260106428e-05
6.10357039640421e-08
-1.98520077327546e-07
6.45074724137802e-07
1.7213766065034e-07
-1.46396227553286e-08
3.7264486865899e-06
1.13739341042133e-07
-6.84992473316894e-08
1.74364914068005e-05
6.46792247985365e-08
-3.15848438904564e-07
2.26978031852377e-07
2.25765693879908e-07
-9.85985197980304e-09
1.24040177830204e-06
1.68922044196659e-07
-3.47076396552079e-08
4.35714086696555e-06
1.24939718445355e-07
-1.13764554874773e-07
1.92976805833634e-05
6.20720112391512e-08
-4.43886925367607e-07
4.99838055645341e-08
2.77484429074961e-07
-7.4680762668933e-09
6.03560134042061e-07
2.22526356573758e-07
-2.25421916646998e-08
1.53341073456327e-06
1.86092181894102e-07
-5.94130957042042e-08
5.07736623374163e-06
1.2569624296303e-07
-1.66030092740177e-07
2.08293838593793e-05
5.2219677054713e-08
-5.79021457081797e-07
-5.0022855607856e-08
3.24347616401378e-07
-4.9215674021782e-09
3.26409362984631e-07
2.72089513853712e-07
-1.62555607822575e-08
7.91068667105274e-07
2.45375256312848e-07
-3.90848414646306e-08
1.8623452114195e-06
1.89613314377791e-07
-8.80104382953355e-08
5.66841962013085e-06
1.15391596610543e-07
-2.2247400955137e-07
2.18225326332299e-05
3.5451754597249e-08
-7.19372574811164e-07
-1.17028658897293e-07
3.64659145850809e-07
-2.58287602913354e-09
1.68610668939e-07
3.15813310754411e-07
-1.11773482258746e-08
4.61807688357447e-07
2.97305753816948e-07
-2.67696427490037e-08
1.00280992146247e-06
2.49955386751816e-07
-5.77637273155187e-08
2.11400577390283e-06
1.78319911908337e-07
-1.1823868242043e-07
6.11539886111912e-06
9.63238561048697e-08
-2.81226540025772e-07
2.23775171259066e-05
1.21180259021614e-08
-8.63936013142187e-07
-1.67595576067968e-07
3.97832383261715e-07
-7.86197028840142e-10
6.37899341938079e-08
3.51850025076793e-07
-6.47649557944611e-09
2.75222930754691e-07
3.39949099423433e-07
-1.76476297277965e-08
6.1995281707081e-07
3.00689216941244e-07
-3.86806480269582e-08
1.17003392532121e-06
2.35828801074413e-07
-7.7077407370068e-08
2.29886124636232e-06
1.55951179912591e-07
-1.48409401806866e-07
6.47994399343182e-06
7.14141116931174e-08
-3.41979226954183e-07
2.26855014949636e-05
-1.72678480900261e-08
-1.01104351447502e-06
-2.09369408148968e-07
4.2382785298875e-07
5.30095165025226e-10
-1.35223216564366e-08
3.79237591951814e-07
-2.46795455669836e-09
1.53054719833934e-07
3.72345171651992e-07
-1.00699374065426e-08
4.05367278025771e-07
3.38604212107556e-07
-2.45899963640077e-08
7.54052038498293e-07
2.80068556793259e-07
-5.07435855768353e-08
1.30121729876524e-06
2.06622383385244e-07
-9.6037822624956e-08
2.46021590827195e-06
1.2697680474764e-07
-1.78318501898581e-07
6.82448413544197e-06
4.60870354385865e-08
-4.0595959464853e-07
2.28815933666416e-05
-4.24308161610306e-08
-1.15923661216111e-06
-2.46183921076007e-07
4.4275566080637e-07
1.66830917249759e-09
-7.47567725030283e-08
3.97753996097234e-07
1.09829680550137e-09
6.35050776973019e-08
3.94036080423518e-07
-3.30372009695669e-09
2.67076675306629e-07
3.63201522141269e-07
-1.31904705740329e-08
5.23587084279422e-07
3.08102968191037e-07
-3.14136247493343e-08
8.66855672912101e-07
2.38912074250128e-07
-6.25592416622201e-08
1.42094719979224e-06
1.64521562102831e-07
-1.14631809390947e-07
2.6212700551929e-06
9.11961645230101e-08
-2.08697884775366e-07
7.18495069574358e-06
2.29909069226538e-08
-4.75270640171526e-07
2.30321596413235e-05
-5.76485218643932e-08
-1.30761158855922e-06
1.38612071868673e-05
6.134585581726e-08
-9.43210474199836e-08
2.34858761004302e-06
1.17444088078005e-07
-3.13266180673082e-08
1.58821886786174e-05
6.27335135055746e-08
-1.94743397515413e-07
6.06363188549309e-07
1.71531238336847e-07
-1.44810530730133e-08
3.70767513053539e-06
1.15210148824117e-07
-6.73930996378181e-08
1.74802156345615e-05
6.80504849364235e-08
-3.10290490786854e-07
1.8288290928157e-07
2.25931004858865e-07
-9.69756999533361e-09
1.20256779760778e-06
1.71221161109398e-07
-3.42857504681533e-08
4.33690783759143e-06
1.2854788809117e-07
-1.12132382820903e-07
1.93507692082364e-05
6.79155330912672e-08
-4.36852177193798e-07
4.0347619746072e-09
2.78958719011968e-07
-7.24379103195224e-09
5.58464586003098e-07
2.26377670712211e-07
-2.22183172032409e-08
1.4912052492539e-06
1.91045781546519e-07
-5.86073872714443e-08
5.05720093238004e-06
1.32284997495615e-07
-1.63810213030116e-07
2.08950070155781e-05
6.12999138711726e-08
-5.70798672130144e-07
-9.57225381651014e-08
3.27871084043586e-07
-4.68653887720526e-09
2.79015826016276e-07
2.78094968196076e-07
-1.56421762337916e-08
7.40525602235662e-07
2.52369041584916e-07
-3.82757023395947e-08
1.81737162828182e-06
1.98011486569538e-07
-8.67533070857603e-08
5.64890249216708e-06
1.25293110135119e-07
-2.19579290396052e-07
2.19052920677617e-05
4.83034673262869e-08
-7.10074782086874e-07
-1.61394847589114e-07
3.71053686940762e-07
-2.33965791996057e-09
1.21351692779242e-07
3.24941107734562e-07
-1.05136696969486e-08
4.09127103032047e-07
3.07595766690896e-07
-2.57945373777902e-08
9.48618102500354e-07
2.61231866927829e-07
-5.65101971881855e-08
2.06773315886618e-06
1.90183839193407e-07
-1.16526902309774e-07
6.09663275673848e-06
1.09291782369943e-07
-2.77541746568892e-07
2.248307010897e-05
2.88021646611074e-08
-8.53702217480949e-07
-2.10304140730573e-07
4.078895955392e-07
-5.21851885329433e-10
1.7687441733634e-08
3.65170190775925e-07
-5.83710336784487e-09
2.23076127777796e-07
3.5496486188524e-07
-1.66898049156946e-08
5.63888673932034e-07
3.16704337812763e-07
-3.74531568241716e-08
1.11462718631934e-06
2.51512141506258e-07
-7.55478365168204e-08
2.25254409428692e-06
1.70687872177781e-07
-1.46282488113929e-07
6.46174556951668e-06
8.64159119671197e-08
-3.37318059566672e-07
2.28201424632823e-05
1.40778800994309e-09
-9.99958269658429e-07
-2.50525969071114e-07
4.38277786131519e-07
7.11366369023767e-10
-5.82650893221109e-08
3.97892190383338e-07
-2.08513924384528e-09
1.02201225661082e-07
3.9380802948921e-07
-9.48157266192938e-09
3.50258214900323e-07
3.61902990856224e-07
-2.3750691604794e-08
6.97727434555465e-07
3.03039859395593e-07
-4.95660881730512e-08
1.24730531824187e-06
2.27124328888056e-07
-9.43368144476325e-08
2.41548180750088e-06
1.43296891889289e-07
-1.75554716988411e-07
6.80738345778723e-06
5.76180120938001e-08
-3.99757762553452e-07
2.30502051401786e-05
-3.25419524047299e-08
-1.14709831980598e-06
-2.86155416562678e-07
4.62241903593286e-07
1.55751160321015e-09
-1.18415507270674e-07
4.22571773443754e-07
8.54715512943541e-10
1.38368563131589e-08
4.23037129266738e-07
-3.49102109305338e-09
2.13325868152984e-07
3.95380008405621e-07
-1.30949172183116e-08
4.68877166530124e-07
3.41088160325408e-07
-3.08985458587189e-08
8.13926406897654e-07
2.70328499124198e-07
-6.15195549774154e-08
1.37287170295959e-06
1.91821869817694e-07
-1.12804457069058e-07
2.58411805838558e-06
1.10200558153326e-07
-2.05276632098621e-07
7.17534117055791e-06
2.84190994949306e-08
-4.67188430224146e-07
2.3229005917606e-05
-6.27760150067277e-08
-1.29330867079716e-06
-3.19113623093602e-07
4.79765743710187e-07
2.30356243292329e-09
-1.68814778754082e-07
4.3905557317124e-07
3.43368077479263e-09
-5.63358590411757e-08
4.42160361306924e-07
1.8249452543004e-09
1.13642867279638e-07
4.16810428621114e-07
-4.13453667463697e-09
3.23337313995601e-07
3.64979086616288e-07
-1.64474511641182e-08
5.77537719721258e-07
2.97053899114631e-07
-3.79736827236724e-08
9.26838762843138e-07
2.22031339023409e-07
-7.33812898156952e-08
1.50291976635182e-06
1.44889621151107e-07
-1.31469956903183e-07
2.76278964177118e-06
6.99095738816729e-08
-2.36676572086696e-07
7.58671983818876e-06
2.7826560022714e-10
-5.4251556072068e-07
2.33647949719393e-05
-8.50557445166898e-08
-1.43698033314823e-06
1.38923416503901e-05
6.10028351242761e-08
-9.21355386940496e-08
2.32486651857871e-06
1.15681867551787e-07
-3.06129217896793e-08
1.59149661053257e-05
6.35553252167476e-08
-1.90638368843255e-07
5.68381381448102e-07
1.69769069999898e-07
-1.43426692554269e-08
3.68993447309714e-06
1.15414047962153e-07
-6.62644823592798e-08
1.75198379935888e-05
7.01316733989535e-08
-3.04487619724848e-07
1.39345526951181e-07
2.24650780004499e-07
-9.58160829289158e-09
1.16528222284614e-06
1.71941706873183e-07
-3.39283767303402e-08
4.31764089873578e-06
1.30462054512002e-07
-1.10536278960538e-07
1.93981026418058e-05
7.19326996974806e-08
-4.29552937747396e-07
-4.16129140215878e-08
2.7866630958454e-07
-7.08772856424828e-09
5.13698321635274e-07
2.28330833733091e-07
-2.2039544390024e-08
1.44943529928013e-06
1.94031719600425e-07
-5.79984857793679e-08
5.03799253986884e-06
1.36743900504827e-07
-1.61737650311596e-07
2.09523699794234e-05
6.79176669999859e-08
-5.62131863787076e-07
-1.41440121258255e-07
3.2920409781964e-07
-4.52773527025908e-09
2.31595149456769e-07
2.81783031483827e-07
-1.52277770185296e-08
6.90077475457667e-07
2.57035363437881e-07
-3.77584543812964e-08
1.77278403493996e-06
2.04098860756106e-07
-8.58312331277873e-08
5.63055070030281e-06
1.32801504093901e-07
-2.16951675014019e-07
2.19763947120496e-05
5.81684332571851e-08
-7.00061073586618e-07
-2.06083221430422e-07
3.74737226292837e-07
-2.17747959069613e-09
7.36563313576484e-08
3.31154054515177e-07
-1.00499380750484e-08
3.5604374299309e-07
3.14926949681467e-07
-2.51153960174772e-08
8.9426215471309e-07
2.6972041053869e-07
-5.56274528987885e-08
2.02189237875869e-06
1.9960846307769e-07
-1.15224166521957e-07
6.07960070064231e-06
1.19951761251154e-07
-2.74185703739225e-07
2.25729000237886e-05
4.24238148650051e-08
-8.42325314647538e-07
-2.53556727622267e-07
4.14643231088675e-07
-3.36957719993168e-10
-2.91681955417202e-08
3.74790264245981e-07
-5.33294356401418e-09
1.7004986051772e-07
3.66022408042282e-07
-1.59139591481365e-08
5.06938197361303e-07
3.28844121398677e-07
-3.64550407909115e-08
1.05866314129607e-06
2.63963338511811e-07
-7.43230587192261e-08
2.20662845967107e-06
1.8322741002626e-07
-1.44543312058716e-07
6.44605117144478e-06
9.99598724222776e-08
-3.32996621158598e-07
2.29347580823599e-05
1.88666955210095e-08
-9.87182126398906e-07
-2.92359803676647e-07
4.48787652306066e-07
9.35844596770036e-10
-1.03887953226716e-07
4.11846813068386e-07
-1.57494614103012e-09
5.02218897526213e-08
4.09837179994097e-07
-8.72941323648651e-09
2.93692300228707e-07
3.79360075222303e-07
-2.27783533656865e-08
6.39662115806362e-07
3.20497532307868e-07
-4.8371015807248e-08
1.1917727601871e-06
2.43491459460028e-07
-9.28159596007958e-08
2.37043063072741e-06
1.58422772768494e-07
-1.73234055951503e-07
6.79279518389621e-06
7.28256593199387e-08
-3.94132148568161e-07
2.3196838165854e-05
-1.3641479831483e-08
-1.13292673298213e-06
-3.26749808102087e-07
4.77168615259726e-07
1.70363932922315e-09
-1.62844125173104e-07
4.41855701162995e-07
1.1766757149146e-09
-3.69140056634511e-08
4.45525108241355e-07
-3.05054906939978e-09
1.57950384899664e-07
4.20250275922149e-07
-1.2452285891588e-08
4.1174194128056e-07
3.66397879837002e-07
-2.99739152508021e-08
7.57473594183522e-07
2.94221780237128e-07
-6.02090878249618e-08
1.31992950151798e-06
2.12769285311947e-07
-1.10863895719952e-07
2.54150286998142e-06
1.26667542888012e-07
-2.01983566413774e-07
7.16274565832529e-06
3.96826986424558e-08
-4.59379023458897e-07
2.34127331822781e-05
-5.3257567003667e-08
-1.27755075157406e-06
-3.58786056390113e-07
4.99698143732345e-07
2.21622146122741e-09
-2.12390301161663e-07
4.64495862449534e-07
3.20931299830034e-09
-1.06077238694752e-07
4.72071072795089e-07
1.56243702666059e-09
5.94019327731852e-08
4.50282134800453e-07
-4.15258919630026e-09
2.67570605551497e-07
3.99840960472348e-07
-1.60806575161372e-08
5.22744000298735e-07
3.31362981425972e-07
-3.71389790473219e-08
8.74893109008298e-07
2.54202115195909e-07
-7.19525201371279e-08
1.45670801344524e-06
1.72738538724724e-07
-1.29128390724426e-07
2.7290020158067e-06
8.92130149507691e-08
-2.32277435242554e-07
7.58356778099746e-06
5.30457121931587e-09
-5.32109080759159e-07
2.35803997920574e-05
-9.06832792554638e-08
-1.41821079413217e-06
-3.89361976647145e-07
5.16218994949008e-07
2.84231297862678e-09
-2.55820661472404e-07
4.79480609681907e-07
4.95208469859004e-09
-1.64244395345266e-07
4.89007710666394e-07
5.67715935069459e-09
-1.9035067124459e-08
4.69062725585286e-07
2.93508409371837e-09
1.6264581238506e-07
4.20503393239251e-07
-4.81681743994696e-09
3.74504564443099e-07
3.54042826962076e-07
-1.96277767014199e-08
6.3451590337022e-07
2.79151415390865e-07
-4.43618585371016e-08
9.9837290376755e-07
2.0055117655102e-07
-8.39922548394417e-08
1.6012870872953e-06
1.20835940256413e-07
-1.48378482811125e-07
2.93028588249592e-06
4.35911814715861e-08
-2.65894200705326e-07
8.06964433330348e-06
-2.96691057165177e-08
-6.16277488454034e-07
2.36664943985957e-05
-1.2366963545622e-07
-1.55153529078275e-06
1.39211445446814e-05
6.0577648452683e-08
-8.93774951591142e-08
2.302383174995e-06
1.13275477164001e-07
-2.97882427661906e-08
1.59451472686335e-05
6.37361676162489e-08
-1.86048875282605e-07
5.31238519486363e-07
1.6703003942027e-07
-1.42041498539699e-08
3.67336894996503e-06
1.1457003402448e-07
-6.50599940463545e-08
1.75564434761233e-05
7.1178607668934e-08
-2.98418517109318e-07
9.65093905461797e-08
2.22090671712903e-07
-9.48537589775525e-09
1.12869011532389e-06
1.71258605414018e-07
-3.35938695047979e-08
4.2995106821697e-06
1.30899665858115e-07
-1.08900641750529e-07
1.94411651316226e-05
7.44494548493761e-08
-4.21990083908754e-07
-8.67614460101665e-08
2.76775055348575e-07
-6.97555033834009e-09
4.69461362803985e-07
2.28535074819488e-07
-2.19375740039172e-08
1.40826639510479e-06
1.95183267129994e-07
-5.74784099930658e-08
5.01982440163227e-06
1.39260528381548e-07
-1.59689825302177e-07
2.10034573495819e-05
7.24820634300375e-08
-5.53097292184526e-07
-1.86915118456745e-07
3.2856099978953e-07
-4.41954806091376e-09
1.84443203055531e-07
2.83342074002249e-07
-1.49461313328635e-08
6.39991320408061e-07
2.59508198421701e-07
-3.74285436889082e-08
1.72869278544064e-06
2.0794210525404e-07
-8.51048938767757e-08
5.6132034232087e-06
1.37968739293831e-07
-2.14437828757152e-07
2.20384126477195e-05
6.53481906053045e-08
-6.89480800437181e-07
-2.50799075607869e-07
3.75989541087988e-07
-2.0694718737046e-09
2.58972369582208e-08
3.34750586659627e-07
-9.73597577070206e-09
3.02950904188316e-07
3.19566253085471e-07
-2.46651944110291e-08
8.40062459226551e-07
2.755691291708e-07
-5.50284390973149e-08
1.97652894346082e-06
2.06547205428137e-07
-1.14212932610181e-07
6.06375947365945e-06
1.28102002957147e-07
-2.71043432649494e-07
2.26500005233157e-05
5.28675587379727e-08
-8.30021046909907e-07
-2.97063309129696e-07
4.18456068324148e-07
-2.12168708570325e-10
-7.64030902696927e-08
3.81184962890334e-07
-4.97327827671944e-09
1.16593903597998e-07
3.7368557390267e-07
-1.53520368937455e-08
4.49620811988039e-07
3.37649238697668e-07
-3.57261895062988e-08
1.00260491547323e-06
2.73454559094522e-07
-7.34130324267506e-08
2.16121677905628e-06
1.93286812988917e-07
-1.43144992888683e-07
6.4320767284997e-06
1.11174488328433e-07
-3.28952801411719e-07
2.30322698268966e-05
3.32179243824504e-08
-9.7304514147555e-07
-3.34603206643316e-07
4.55811798776968e-07
1.07487795631097e-09
-1.5010209250619e-07
4.2181895706276e-07
-1.15125958356504e-09
-2.50759204624947e-09
4.21517158051767e-07
-8.09795078222326e-09
2.36239643443573e-07
3.92330032088796e-07
-2.1946488339594e-08
5.8070867137481e-07
3.33830073320817e-07
-4.73669102238659e-08
1.13566801426112e-06
2.56585062272868e-07
-9.15744582404345e-08
2.32574079640642e-06
1.71412519767591e-07
-1.7130480968349e-07
6.78072940251089e-06
8.67999773122451e-08
-3.88852395885924e-07
2.33218395046561e-05
4.60550157930518e-09
-1.11678421158123e-06
-3.67857476303982e-07
4.87995443012662e-07
1.89996226561516e-09
-2.07968258661429e-07
4.56271401523033e-07
1.63531013849169e-09
-8.85308043854126e-08
4.62321650902609e-07
-2.44227560083179e-09
1.01392906390966e-07
4.38848482801894e-07
-1.16603465709181e-08
3.53050070310206e-07
3.85399912300867e-07
-2.89877292487894e-08
6.99145487225657e-07
3.12428224450896e-07
-5.89778709969896e-08
1.26519489848795e-06
2.29555408646687e-07
-1.09212448083087e-07
2.49832079640482e-06
1.4204859470883e-07
-1.99271497201775e-07
7.15236559177792e-06
5.48907501103732e-08
-4.5227137365378e-07
2.35732838097517e-05
-3.39660308432578e-08
-1.25948436882474e-06
-3.98940903477452e-07
5.14956264577457e-07
2.36740087212305e-09
-2.56498514698845e-07
4.84326320308257e-07
3.34161685839192e-09
-1.56619288892979e-07
4.95360776922966e-07
1.88336652795466e-09
3.95395434122587e-09
4.76321582580839e-07
-3.67346762249583e-09
2.10006070492787e-07
4.26859602860055e-07
-1.53485969317214e-08
4.65344275379451e-07
3.57720231029227e-07
-3.6071532661674e-08
8.19201140654888e-07
2.7867007299811e-07
-7.0416314669206e-08
1.40527347882115e-06
1.94066067475641e-07
-1.26825479709668e-07
2.68906675885566e-06
1.05850399394387e-07
-2.28211424708171e-07
7.5766804823992e-06
1.63997918988691e-08
-5.22138992296509e-07
2.37819725717414e-05
-8.15227508524102e-08
-1.39756650362248e-06
-4.28786823083462e-07
5.36547305787014e-07
2.57572705206791e-09
-2.99265347639665e-07
5.05413304393991e-07
4.74367140755504e-09
-2.13949718887181e-07
5.19668770258289e-07
5.31719720650311e-09
-7.3525367884104e-08
5.03555261306774e-07
2.77994563258553e-09
1.06198325032325e-07
4.56760739777223e-07
-4.62468769431332e-09
3.18464956122459e-07
3.90317363130493e-07
-1.89950020981298e-08
5.80472350786528e-07
3.14309817565089e-07
-4.32014088636622e-08
9.47868553211474e-07
2.33428670995239e-07
-8.21364812917785e-08
1.55744826267466e-06
1.49250238223539e-07
-1.4532432628355e-07
2.90052371828525e-06
6.29861903543907e-08
-2.60192219268937e-07
8.07457073105684e-06
-2.51910415127356e-08
-6.02517914370914e-07
2.39036996301553e-05
-1.28727176015228e-07
-1.52666107195244e-06
-4.57742657790538e-07
5.52441474574011e-07
3.06064381994747e-09
-3.38139784119016e-07
5.19233749572024e-07
6.27285921827485e-09
-2.64291904743943e-07
5.34837719546014e-07
8.38256096579059e-09
-1.38872560507684e-07
5.20130682419205e-07
8.33847861223288e-09
2.31305825283667e-08
4.74766614429283e-07
4.2738234146466e-09
2.11400367000496e-07
4.09837269475346e-07
-5.39819443254343e-09
4.30280393540052e-07
3.354270509138e-07
-2.27227473416569e-08
7.02358007951199e-07
2.56336580972699e-07
-5.06824967408757e-08
1.08408582380276e-06
1.745183845291e-07
-9.47350153543873e-08
1.71733403833155e-06
9.16648069960152e-08
-1.6597002690046e-07
3.13020888063879e-06
1.05260093955336e-08
-2.97913708199993e-07
8.65615588835239e-06
-7.0007155829502e-08
-6.99670768870325e-07
2.3862465748539e-05
-1.7621144705032e-07
-1.64220646196395e-06
1.39465296202439e-05
6.02968704214113e-08
-8.5680092684547e-08