/*--------------------------------*- C++ -*----------------------------------*\
  =========                 |
  \\      /  F ield         | OpenFOAM: The Open Source CFD Toolbox
   \\    /   O peration     | Website:  https://openfoam.org
    \\  /    A nd           | Version:  12
     \\/     M anipulation  |
\*---------------------------------------------------------------------------*/
/*   Windows 32 and 64 bit porting by blueCAPE: http://www.bluecape.com.pt   *\
|  Based on Windows porting (2.0.x v4) by Symscape: http://www.symscape.com   |
\*---------------------------------------------------------------------------*/
FoamFile
{
    format      ascii;
    class       volScalarField;
    location    "800";
    object      k;
}
// * * * * * * * * * * * * * * * * * * * * * * * * * * * * * * * * * * * * * //

dimensions      [0 2 -2 0 0 0 0];

internalField   nonuniform List<scalar> 
10116
(
7.5775863143434e-07
8.28030761422566e-07
7.84196324131455e-07
1.32270904024179e-05
8.98224525715987e-07
8.58103078661907e-07
1.40494988286201e-05
8.22196240235668e-07
1.33274373549469e-05
3.00232973794363e-05
9.66716450529558e-07
9.3081244046284e-07
1.48234420133918e-05
8.99642382651778e-07
1.41458239259172e-05
3.13932064248505e-05
8.37459211697286e-07
1.34918061038604e-05
3.00356716512077e-05
4.27572735614664e-05
1.03488459256172e-06
1.0019137919651e-06
1.55670051130584e-05
9.76102245595133e-07
1.49283799140166e-05
3.26798288470079e-05
9.16395627758027e-07
1.43108033507453e-05
3.13970429665382e-05
4.44844526085302e-05
8.14118705677199e-07
1.34925191835163e-05
2.99554617298083e-05
4.27101330973998e-05
5.30846029174675e-05
1.1030076212755e-06
1.07269943195342e-06
1.62807003337458e-05
1.05087493288137e-06
1.56769955535097e-05
3.38943548862431e-05
9.94689575431736e-07
1.51005569906164e-05
3.26796168864866e-05
4.61065458180984e-05
8.91167500744762e-07
1.43071892526372e-05
3.13042196880794e-05
4.4424828897126e-05
5.50986250942834e-05
7.62832767660423e-07
1.31956782545098e-05
2.96487733201266e-05
4.24519586945099e-05
5.29828516625178e-05
6.20057011702226e-05
1.17019139360544e-06
1.14343563310123e-06
1.6965482868702e-05
1.12537098634697e-06
1.63948504256646e-05
3.50458199639555e-05
1.07137159020981e-06
1.58545301027682e-05
3.38942168700398e-05
4.76366976264801e-05
9.67824658694081e-07
1.50967736767605e-05
3.25787809341055e-05
4.60412171095728e-05
5.69899168873633e-05
8.35459468976848e-07
1.39962703881931e-05
3.09782971999917e-05
4.41465532484899e-05
5.49807868665132e-05
6.42655995651964e-05
7.00119309619877e-07
1.26347999828622e-05
2.90142430393044e-05
4.18915785767171e-05
5.25919654360944e-05
6.18453658585648e-05
6.99945882335686e-05
1.23630154215298e-06
1.21333818489531e-06
1.76127227893119e-05
1.19987636906381e-06
1.7084020042739e-05
3.6134711839047e-05
1.1478024224495e-06
1.65772679033984e-05
3.50453908401207e-05
4.90816152812257e-05
1.04317367964441e-06
1.58495794387528e-05
3.37881450923176e-05
4.75683208660042e-05
5.87724920822801e-05
9.07869108198489e-07
1.47721589312378e-05
3.22374773472698e-05
4.57488100504941e-05
5.68644918996052e-05
6.63876077729842e-05
7.67306081048271e-07
1.34107130223419e-05
3.03142742244594e-05
4.35577647411493e-05
5.45639012254211e-05
6.40856672185296e-05
7.24713672801109e-05
6.33586124501963e-07
1.19085001565637e-05
2.80573031195828e-05
4.09707462657424e-05
5.18309926219358e-05
6.13366168429352e-05
6.97854962002715e-05
7.73069057782419e-05
1.30145625530016e-06
1.28227594157469e-06
1.82270423271046e-05
1.27355348271204e-06
1.77362241212443e-05
3.71620205573642e-05
1.22409815259991e-06
1.72714036942874e-05
3.61343585883425e-05
5.04437882251323e-05
1.1180481062437e-06
1.65716715333507e-05
3.49352224743858e-05
4.90109007857943e-05
6.04526875873667e-05
9.79332774657515e-07
1.5513070617972e-05
3.3433932478074e-05
4.7265133817526e-05
5.86420302851749e-05
6.83863591214278e-05
8.34366729108379e-07
1.41619905963545e-05
3.15486690373697e-05
4.51360378079711e-05
5.64288988395855e-05
6.61979562110636e-05
7.479703979104e-05
6.94987064462716e-07
1.26524406434707e-05
2.93176893623667e-05
4.25985108466536e-05
5.37672114266432e-05
6.35456883676167e-05
7.22396310457589e-05
7.99785134604658e-05
5.64169260687675e-07
1.10786146778476e-05
2.68387110361937e-05
3.96986554858123e-05
5.06677272526844e-05
6.04057672368474e-05
6.91788081163046e-05
7.70650517126431e-05
8.40987538011877e-05
1.36575954118616e-06
1.35033531496389e-06
1.88116067659374e-05
1.34636075982767e-06
1.83551833133601e-05
3.81297770220954e-05
1.29959728029041e-06
1.7928671462639e-05
3.71620155875823e-05
5.17256208352339e-05
1.19285341131407e-06
1.72649462352981e-05
3.60207152332559e-05
5.0371202802586e-05
6.20336999038215e-05
1.05037882266089e-06
1.622406218688e-05
3.45699171818884e-05
4.86987198129947e-05
6.03182594448598e-05
7.02681268991104e-05
9.00763540844914e-07
1.48809499317583e-05
3.27223919980025e-05
4.66319022177161e-05
5.81916948972304e-05
6.81898977009614e-05
7.69867484561117e-05
7.56315517597469e-07
1.33716245381587e-05
3.05173150074571e-05
4.41421380880133e-05
5.56017791139168e-05
6.56352815552856e-05
7.45537791811787e-05
8.24873075593905e-05
6.19400774353076e-07
1.17855273503614e-05
2.80510109753136e-05
4.12775695915129e-05
5.25576849589076e-05
6.25729930080426e-05
7.15973084688851e-05
7.97115694609595e-05
8.69478056445583e-05
4.91802836837422e-07
1.01633782006648e-05
2.54058714687572e-05
3.81168739263667e-05
4.9124010875264e-05
5.90358565902838e-05
6.8108171290449e-05
7.63845685884866e-05
8.3836236349044e-05
9.04680293598991e-05
1.4292963013204e-06
1.41757566018e-06
1.93685350816469e-05
1.41842187542868e-06
1.89440582216412e-05
3.90402061559028e-05
1.37465848909077e-06
1.85531798835246e-05
3.81303945229589e-05
5.29289926065184e-05
1.26728461603351e-06
1.79218912740227e-05
3.70458302389303e-05
5.16515299264965e-05
6.35181401106431e-05
1.12139838434828e-06
1.69069597434809e-05
3.56454887843696e-05
5.0051281102448e-05
6.18959151270646e-05
7.20363739734989e-05
9.6698724129344e-07
1.55717950513191e-05
3.38378749269756e-05
4.80476024663414e-05
5.98553941358002e-05
7.00661300044357e-05
7.9046703146281e-05
8.17153636389613e-07
1.40613494541963e-05
3.16586816983669e-05
4.5606909344765e-05
5.73383685473307e-05
6.76090051387994e-05
7.67352536298985e-05
8.48488993035038e-05
6.74673227249643e-07
1.24672981075873e-05
2.92068213210872e-05
4.27763205278511e-05
5.43502321555985e-05
6.46268175474987e-05
7.38854476226345e-05
8.22075276172892e-05
8.962353822158e-05
5.40445724703608e-07
1.08270234218156e-05
2.65626121482311e-05
3.96369987596739e-05
5.09570025194539e-05
6.11503299421889e-05
7.04798276483182e-05
7.89919418076705e-05
8.66582195544049e-05
9.34803283458163e-05
4.17399608008481e-07
9.16483880373257e-06
2.37788440843841e-05
3.62584321127519e-05
4.72376227006959e-05
5.72582573279371e-05
6.65653789168469e-05
7.52029143300116e-05
8.31007953016833e-05
9.01911713837002e-05
9.64727831604827e-05
1.49216536560976e-06
1.48413123298323e-06
1.98978786222341e-05
1.48974881088801e-06
1.95046965575669e-05
3.9895353075733e-05
1.44909046327534e-06
1.91479027224236e-05
3.90416314771754e-05
5.40557523866737e-05
1.34144482308448e-06
1.85473449577486e-05
3.80124713608998e-05
5.28537310356874e-05
6.49080729145291e-05
1.19232520990444e-06
1.75552010073201e-05
3.66621845362713e-05
5.13249477527792e-05
6.33774592133107e-05
7.36937716667616e-05
1.03327423945258e-06
1.62357855637096e-05
3.48948909760702e-05
4.93843296913385e-05
6.14220916493421e-05
7.18295937976334e-05
8.09803993271913e-05
8.7814860837243e-07
1.47256768559342e-05
3.27445458054586e-05
4.69946338659733e-05
5.89790052957643e-05
6.94696388992293e-05
7.87884120694678e-05
8.70693333428583e-05
7.29628031137926e-07
1.31225475579414e-05
3.03076606925879e-05
4.4199968283295e-05
5.60490237258088e-05
6.6569583697691e-05
7.60458969611268e-05
8.45598953047268e-05
9.21419196782715e-05
5.89303517352223e-07
1.14665737665021e-05
2.76669241751855e-05
4.10818971661082e-05
5.26968578024345e-05
6.31561256488558e-05
7.27278897875557e-05
8.14593443712522e-05
8.93201643726861e-05
9.6309705712965e-05
4.59174520306665e-07
9.77800651105341e-06
2.48733413423732e-05
3.77108835204332e-05
4.90034373114452e-05
5.93090480717614e-05
6.88790229132547e-05
7.77594646050466e-05
8.5880812057857e-05
9.3174699255566e-05
9.96362101633144e-05
3.42716552285678e-07
8.08557501148662e-06
2.19646263072e-05
3.41409940010922e-05
4.50350982645169e-05
5.51111676693609e-05
6.4587732102093e-05
7.35165056089076e-05
8.1829699575654e-05
8.94119856891103e-05
9.61841557370471e-05
0.000102143687637611
1.55436525693699e-06
1.55012917408947e-06
2.04013671445409e-05
1.56042557622443e-06
2.00384954273168e-05
4.06969033515238e-05
1.52282328770787e-06
1.97144958544298e-05
3.98977259194566e-05
5.51076527176887e-05
1.41509103622062e-06
1.91436894988833e-05
3.8922666378442e-05
5.39796082168318e-05
6.62052855638266e-05
1.26317575829127e-06
1.81732750533719e-05
3.76218169290555e-05
5.25214600102357e-05
6.47648957312248e-05
7.52424099091974e-05
1.09965130205381e-06
1.68670775386236e-05
3.58951107662059e-05
5.06439971057725e-05
6.28939688269673e-05
7.34827788855535e-05
8.27904470827524e-05
9.39333826653907e-07
1.53648987750916e-05
3.37744766709056e-05
4.83061347657237e-05
6.05251646197728e-05
7.12193562124125e-05
8.07161859147251e-05
8.91520242397839e-05
7.85015881270049e-07
1.37555945568291e-05
3.13562231892209e-05
4.55500878125432e-05
5.76555651515033e-05
6.84028645783928e-05
7.80809758168721e-05
8.67726847641218e-05
9.45087979038131e-05
6.38010012022598e-07
1.20827451120877e-05
2.87201969278691e-05
4.24555681096915e-05
5.43473161003615e-05
6.50555932769404e-05
7.4853579376217e-05
8.3788596357933e-05
9.18286535740577e-05
9.89724503704616e-05
5.0130731663522e-07
1.03703952794253e-05
2.59192924641003e-05
3.90932876922775e-05
5.06809137863471e-05
6.12557763782925e-05
7.10741982431633e-05
8.01834036952532e-05
8.8512221397213e-05
9.59895326500732e-05
0.000102607818181929
3.77544296957306e-07
8.64229760173779e-06
2.29904115088393e-05
3.55172902188459e-05
4.67238780276851e-05
5.70877532491505e-05
6.6832205739324e-05
7.60108022241896e-05
8.45556707973237e-05
9.23511587176781e-05
9.93172621009954e-05
0.000105447398979605
2.69886562966532e-07
6.93590844982856e-06
1.99684908129576e-05
3.17739656545008e-05
4.25314134052815e-05
5.26188684219931e-05
6.22154977961865e-05
7.13670063036108e-05
8.00215902141636e-05
8.80652536575609e-05
9.53670116114504e-05
0.000101844167766931
0.00010749379485471
1.6158171605171e-06
1.61560124106994e-06
2.08794714449798e-05
1.63063592931319e-06
2.05466236526963e-05
4.14462257409904e-05
1.59601518721283e-06
2.02545323677412e-05
4.07004439461979e-05
5.6086201014591e-05
1.48818802902308e-06
1.97124327311567e-05
3.97783289797626e-05
5.50308849526636e-05
6.74113319202132e-05
1.33373075587481e-06
1.87633986237801e-05
3.85262513327707e-05
5.36425399744456e-05
6.60599744744761e-05
7.6683981055325e-05
1.16612524274744e-06
1.74700244077817e-05
3.68402461720472e-05
5.18282038007017e-05
6.42728890270275e-05
7.50276953450345e-05
8.44788344681868e-05
1.00076420862376e-06
1.59735516761443e-05
3.47501968283184e-05
4.95431281251518e-05
6.19786913746691e-05
7.28603024726523e-05
8.2520979643414e-05
9.10994254455901e-05
8.40712722263437e-07
1.43657416934093e-05
3.23518627898701e-05
4.68273048164429e-05
5.91709248628936e-05
7.01281356838713e-05
7.99927590675775e-05
8.88486952584219e-05
9.67274376268946e-05
6.87355187020711e-07
1.26800541792953e-05
2.97248159374224e-05
4.37595564006489e-05
5.59095941143906e-05
6.6849730144118e-05
7.68578734659639e-05
8.59814708696752e-05
9.41873371704237e-05
0.000101474184495073
5.43439613511093e-07
1.09427683324202e-05
2.69184296874465e-05
4.04089017487036e-05
5.22736637810635e-05
6.3100984407371e-05
7.3152153889558e-05
8.24749451084461e-05
9.09960388661129e-05
9.86418907598414e-05
0.000105404189570696
4.12752811314779e-07
9.18217835329714e-06
2.39712540538441e-05
3.68288733304304e-05
4.83299227386557e-05
5.89653230739783e-05
6.89630966589352e-05
7.83779409845418e-05
8.71409056461366e-05
9.51338396475191e-05
0.00010227366632876
0.00010855097399581
2.9790121158776e-07
7.43026111235851e-06
2.09173996301998e-05
3.30656940712962e-05
4.4133814655819e-05
5.45110036986802e-05
6.43799940221737e-05
7.37876342498851e-05
8.26818208514564e-05
9.0947658127792e-05
9.84536324470754e-05
0.000105116111633529
0.000110927710618561
2.01391584046806e-07
5.73163172039548e-06
1.77926193116297e-05
2.9162452293835e-05
3.97362315808341e-05
4.9794933764908e-05
5.94731549518353e-05
6.87979196602892e-05
7.77219934194925e-05
8.61505738511445e-05
9.39529876016275e-05
0.000100992035607379
0.000107183757528043
0.000112525660563489
1.67589746153867e-06
1.68040614469235e-06
2.13318037374326e-05
1.70043050471739e-06
2.10295492704932e-05
4.21440143345145e-05
1.66887854335788e-06
2.07691064539941e-05
4.1451141751372e-05
5.69925346897995e-05
1.56090793163774e-06
2.02551549686733e-05
4.05812069430526e-05
5.60090614729712e-05
6.85274779644884e-05
1.40388536646039e-06
1.93270335741406e-05
3.93772863376002e-05
5.46898488813408e-05
6.72642270721199e-05
7.8019880990588e-05
1.23250314779258e-06
1.80466876406849e-05
3.77320023825506e-05
5.29385515257163e-05
6.55605170477245e-05
7.64660032424581e-05
8.604711641604e-05
1.06241548239661e-06
1.65559341109739e-05
3.56733107936626e-05
5.07070569284194e-05
6.33412533857153e-05
7.43943205322187e-05
8.42046909744452e-05
9.29133480956543e-05
8.96795939723496e-07
1.49477990925942e-05
3.32962870487382e-05
4.80331651267122e-05
6.05966505567529e-05
7.17471419464796e-05
8.17832603473437e-05
9.07901551779322e-05
9.88000690004822e-05
7.37105878958451e-07
1.3257020157366e-05
3.06799299444327e-05
4.49944417023003e-05
5.73845743528532e-05
6.8539588294217e-05
7.87420953975238e-05
8.80398447054072e-05
9.63988158773662e-05
0.000103817973280302
5.86305047405989e-07
1.14994652189111e-05
2.78728195012876e-05
4.16589738899198e-05
5.37825955939653e-05
6.48453511915544e-05
7.51132339145364e-05
8.46343936224562e-05
9.33334709228806e-05
0.000101135046288083
0.000108030746713153
4.48024780029516e-07
9.705454316083e-06
2.49097995321316e-05
3.80786444116986e-05
4.98561672253165e-05
6.07464328320176e-05
7.09818980245588e-05
8.06181658128706e-05
8.95846713129929e-05
9.77602770681096e-05
0.0001050592426372
0.000111471273604243
3.26198845515371e-07
7.91182728731016e-06
2.18261059413647e-05
3.42983818972172e-05
4.56593263402309e-05
5.6309832109245e-05
6.64361745592762e-05
7.60862016426041e-05
8.52070432085064e-05
9.36818991837339e-05
0.000101376472955023
0.000108203874991574
0.000114153666162521
2.22838107896875e-07
6.1585043620644e-06
1.86568492688063e-05
3.03616714970508e-05
4.12429257914301e-05
5.15926162358536e-05
6.15471085012932e-05
7.11337800250414e-05
8.03048044826482e-05
8.89642784866847e-05
9.69804384221818e-05
0.000104215528626389
0.000110584540117181
0.000116080136807923
1.39118355469954e-07
4.49569999713453e-06
1.54385272248393e-05
2.63100135709109e-05
3.66563238425859e-05
4.6648964752247e-05
5.63740959422795e-05
6.5835406186594e-05
7.49781226337015e-05
8.3717004749018e-05
9.19420948773539e-05
9.95159809955962e-05
0.000106298519871203
0.000112205460402727
0.000117235940017708
1.73325165578635e-06
1.74368436644619e-06
2.17568324731502e-05
1.76967039211965e-06
2.14867187394454e-05
4.27901827300506e-05
1.74151570438769e-06
2.12586620565331e-05
4.21505029013244e-05
5.78272686210135e-05
1.63346147161505e-06
2.07729306133129e-05
4.13326179665175e-05
5.69152701058294e-05
6.95546384874805e-05
1.47383350861395e-06
1.98656263071357e-05
4.01765982481419e-05
5.56648494308518e-05
6.83789045035603e-05
7.9251198538621e-05
1.29869782753209e-06
1.85983838246892e-05
3.85720600276414e-05
5.39766114551813e-05
6.6758326130838e-05
7.77990707891017e-05
8.74965125736886e-05
1.12414200076906e-06
1.71139872608263e-05
3.65453962320846e-05
5.17993900057808e-05
6.46143890377007e-05
7.58229804104651e-05
8.57688313844792e-05
9.45951557012747e-05
9.53211445524258e-07
1.55056762679622e-05
3.41909848501982e-05
4.91689638600516e-05
6.19342038303881e-05
7.32614970191547e-05
8.34541888090584e-05
9.25987762653825e-05
0.000100728277482425
7.87349338055047e-07
1.38088286845902e-05
3.15871776341355e-05
4.61616115965089e-05
5.87735688760545e-05
7.01265648814293e-05
8.05078091616613e-05
8.99655155791585e-05
9.84650751437261e-05
0.000106005785030615
6.29660960644589e-07
1.20387048868922e-05
2.87815111017669e-05
4.28441873361387e-05
5.52086074284651e-05
6.64897753426686e-05
7.69583270649577e-05
8.66628187485422e-05
9.55261191461553e-05
0.00010347134175682
0.000110490297507727
4.84075418312764e-07
1.02161382555315e-05
2.58076214265119e-05
3.92673761739046e-05
5.13033978164078e-05
6.24316019166237e-05
7.28887374392828e-05
8.27311740119734e-05
9.18866302071662e-05
0.000100231140089242
0.000107676906036187
0.000114213533850961
3.54501017233025e-07
8.37999905727228e-06
2.26973734133245e-05
3.5474578400455e-05
4.71105251081322e-05
5.80176089297185e-05
6.83856346020328e-05
7.82632594846435e-05
8.75965711046814e-05
9.62663538364794e-05
0.000104135058397781
0.000111113009648739
0.000117188792296779
2.44360854921589e-07
6.57588932833528e-06
1.9486319730586e-05
3.15074614126446e-05
4.2679041622015e-05
5.33032014213888e-05
6.3518581181285e-05
7.33530236298393e-05
8.27578721716949e-05
9.16357828434606e-05
9.98528564267689e-05
0.000107268440162503
0.000113794111783934
0.000119419272415485
1.54400298933655e-07
4.84995967668815e-06
1.62105671641458e-05
2.74078128033099e-05
3.80580990074756e-05
4.83422897774954e-05
5.8347021372894e-05
6.80756096496946e-05
7.74721329629412e-05
8.64500903616563e-05
9.48982540084377e-05
0.000102678120676668
0.00010964901115032
0.000115725514906806
0.000120901575261958
8.46788104502302e-08
3.25915288591954e-06
1.29052920126675e-05
2.32146439189335e-05
3.32949817066801e-05
4.31884411011303e-05
5.29280140381157e-05
6.24934685503181e-05
7.1818349325206e-05
8.08153459478011e-05
8.93865280841764e-05
9.74163107078004e-05
0.000104764264722409
0.000111288760772126
0.000116906039273447
0.000121618120646574
1.78681946324759e-06
1.80432098404869e-06
2.21519648657859e-05
1.8373309882173e-06
2.19165955516587e-05
4.33839598520368e-05
1.81358346031812e-06
2.17225237383703e-05
4.2798465806391e-05
5.85903989104943e-05
1.70594089470602e-06
2.12661306619516e-05
4.20332110451849e-05
5.77501155822282e-05
7.04932977477903e-05
1.54376061042475e-06
2.03802564885192e-05
4.09254432380503e-05
5.65686356957881e-05
6.94049139472522e-05
8.03786750712063e-05
1.36486239210209e-06
1.91264707270957e-05
3.93619975992682e-05
5.4943766326779e-05
6.78675329332073e-05
7.9027968877984e-05
8.88279353629476e-05
1.18592028009787e-06
1.76489133496321e-05
3.73679936334318e-05
5.28215834915348e-05
6.57994847613988e-05
7.71475918469583e-05
8.72145971357134e-05
9.6145879270082e-05
1.00988560203271e-06
1.60413555874219e-05
3.50374114116083e-05
5.02360328531697e-05
6.31849816893837e-05
7.46726358806979e-05
8.50069583116013e-05
9.42758750514671e-05
0.000102513204094094
8.38076124280051e-07
1.43385662074275e-05
3.24479260539384e-05
4.72622174383404e-05
6.00778564735765e-05
7.16120405338331e-05
8.21564724519148e-05
9.17599894203247e-05
0.000100387592501084
0.000108038949404067
6.73623296680057e-07
1.25563851434234e-05
2.96460312583093e-05
4.39657569537377e-05
5.65528106714948e-05
6.80353879619636e-05
7.86886150318482e-05
8.85615299429194e-05
9.75755090715253e-05
0.000105652485820661
0.00011278453066299
5.20761330413168e-07
1.07126120336877e-05
2.66639420046274e-05
4.03958944433566e-05
5.26724902611689e-05
6.40216192442881e-05
7.46842637085036e-05
8.47175138031161e-05
9.40474785204693e-05
0.000102547680724461
0.000110128695791066
0.000116780286379845
3.83555964500256e-07
8.83875977015191e-06
2.35322111169976e-05
3.65947077394957e-05
4.84879709613244e-05
5.96347639800752e-05
7.02284202164388e-05
8.03183365127016e-05
8.98494508106459e-05
9.8700057846158e-05
0.000106729540186961
0.000113846092120374
0.000120038151795601
2.65851721758246e-07
6.98253231122965e-06
2.02833122713075e-05
3.26023826511428e-05
4.40467895283128e-05
5.4928637716195e-05
6.53890999420997e-05
7.54563725688995e-05
8.5080879831194e-05
9.4163531185236e-05
0.000102567782236034
0.000110149616188362
0.000116817726936616
0.000122560455376134
1.69655244215231e-07
5.19702564694023e-06
1.69533214011849e-05
2.84585629338584e-05
3.93960482401151e-05
4.99552222651667e-05
6.02239441867337e-05
7.02051932869126e-05
7.98419764778854e-05
8.90463746748409e-05
9.77055503437825e-05
0.000105678815104837
0.000112822530577823
0.00011904772634247
0.000124344909831188
9.4402007935474e-08
3.53488278941311e-06
1.35774554738045e-05
2.42024391617957e-05
3.45828592711996e-05
4.47675558394343e-05
5.47895498155674e-05
6.4627168507022e-05
7.42123620003442e-05
8.34561712418189e-05
9.22592735437057e-05
0.000100504830972143
0.000108051383328861
0.000114756795027037
0.000120536042402452
0.000125385660814875
4.11954738357557e-08
2.07270124264398e-06
1.01902580810052e-05
1.98681432968229e-05
2.96508402149545e-05
3.94172081241784e-05
4.91425633304387e-05
5.8781937208556e-05
6.82575193909868e-05
7.74760611498825e-05
8.63402368965024e-05
9.47479596998055e-05
0.000102581661474308
0.000109699629147935
0.00011595959822628
0.0001212790940943
0.000125664048516296
1.83755242540615e-06
1.86117225924706e-06
2.25156470568195e-05
1.90212511157501e-06
2.2316841855727e-05
4.39241630244476e-05
1.88403750301093e-06
2.21592460984974e-05
4.33946692985168e-05
5.92812788177014e-05
1.77791806177599e-06
2.17339729627734e-05
4.26829289629182e-05
5.85135921835913e-05
7.13434223646679e-05
1.61374211352062e-06
2.08710838569309e-05
4.16244132492722e-05
5.74017908713384e-05
7.03427324252698e-05
8.14026842114254e-05
1.43112443139384e-06
1.9631841193899e-05
4.01029688166056e-05
5.58410741627351e-05
6.88890206651258e-05
8.01534373606562e-05
9.00420059884083e-05
1.24784480690282e-06
1.81618879441038e-05
3.81425738250708e-05
5.37749361511249e-05
6.68976987405664e-05
7.8369192910163e-05
8.85428937862602e-05
9.75662818942321e-05
1.06683002779674e-06
1.65559334806328e-05
3.58369933779375e-05
5.12357114419046e-05
6.43502676736486e-05
7.5981783186962e-05
8.64427088119508e-05
9.58224627215681e-05
0.000104155688459495
8.89233969907375e-07
1.48483376150217e-05
3.32635056383987e-05
4.82974653571225e-05
6.12986914816234e-05
7.29972983419855e-05
8.36893574899595e-05
9.34244802367601e-05
0.00010216746270368
0.000109918368451458
7.18232041988905e-07
1.30540669438102e-05
3.04675865718988e-05
4.50246973272357e-05
5.78163233144741e-05
6.94833686431664e-05
8.03053066828806e-05
9.03317641352106e-05
9.94829010034387e-05
0.000107679693784269
0.000114914501588105
5.58062308575492e-07
1.11918752599552e-05
2.7480132796698e-05
4.14652273214861e-05
5.39644025989591e-05
6.55174368794588e-05
7.6369399773279e-05
8.65781011950706e-05
9.60682297310131e-05
0.000104711123268727
0.000112416025186011
0.000119172935497835
4.13407901963829e-07
9.28707242810781e-06
2.43300148739023e-05
3.76595885660655e-05
4.97924649886064e-05
6.11619953236885e-05
7.19650452346799e-05
8.22517123420474e-05
9.19658099052953e-05
0.000100983287399892
0.000109160794013549
0.000116404843729046
0.000122704001675342
2.88031919760909e-07
7.38282208174904e-06
2.10485722786401e-05
3.36465782254883e-05
4.53464781751904e-05
5.64692189470238e-05
6.71586469532181e-05
7.74433328711472e-05
8.72727367855685e-05
9.65459271075796e-05
0.000105123646429862
0.000112858715321256
0.000119657642917164
0.000125508588661523
1.84798831674308e-07
5.53574172713702e-06
1.7668579115476e-05
2.94644233977214e-05
4.06719897773272e-05
5.1489416362657e-05
6.20061339467987e-05
7.22248991365623e-05
8.20875767515449e-05
9.15047333253758e-05
0.000100361614101411
0.000108514823172273
0.000115817290023386
0.000122177072214008
0.000127583557903488
1.04071000944367e-07
3.8056533784805e-06
1.42256707229439e-05
2.51498545843103e-05
3.58138788057135e-05
4.62735114102194e-05
5.65620690275618e-05
6.6656880660495e-05
7.6488331010538e-05
8.59658733027957e-05
9.49886674075763e-05
0.000103438262854984
0.000111171030900743
0.000118041829312908
0.000123961943765532
0.000128924350444586
4.62068058734371e-08
2.26524677040724e-06
1.07543316332158e-05
2.07371591075848e-05
3.08152032701649e-05
4.08723976214729e-05
5.08823246140939e-05
6.07983322387003e-05
7.05403426725681e-05
8.00131389231739e-05
8.91176954472464e-05
9.77505731606203e-05
0.000105793034042371
0.000113102409825922
0.000119535960881472
0.000125009870804664
0.000129524399427207
1.36485125690199e-08
1.0446056206669e-06
7.3053523341413e-06
1.62536704979067e-05
2.5711506951935e-05
3.53325641054334e-05
4.50211477788545e-05
5.4708062430998e-05
6.43054385265259e-05
7.37146771663521e-05
8.28353833587082e-05
9.15675138858174e-05
9.98080595232217e-05
0.000107439190812094
0.000114318844567351
0.000120304796164964
0.000125316579531917
0.000129364646093923
1.91583579162547e-06
2.28497804176504e-05
1.96295080129685e-06
2.26863387959967e-05
4.44091858559857e-05
1.95161854129652e-06
2.25664671583894e-05
4.39369166977693e-05
5.9898728139561e-05
1.84828013559854e-06
2.21749246417236e-05
4.32815802767411e-05
5.92050701401164e-05
7.2104384864382e-05
1.68336583399923e-06
2.13374248033844e-05
4.22735353091025e-05
5.81642892658451e-05
7.11923213977414e-05
8.23231196773563e-05
1.49755645515344e-06
2.01146431514735e-05
4.07954925613764e-05
5.66690676707928e-05
6.98232436045384e-05
8.11758420231389e-05
9.11389871453386e-05
1.31000087201633e-06
1.86536334056061e-05
3.8870154550785e-05
5.466043867471e-05
6.79098720291922e-05
7.94885040615536e-05
8.97543295656755e-05
9.88568394606098e-05
1.12410122243703e-06
1.70503526072317e-05
3.65910598879039e-05
5.21692128189413e-05
6.54311411973109e-05
7.71899213837212e-05
8.77623175671915e-05
9.72392832943628e-05
0.000105656297501574
9.40857570414742e-07
1.53392349172896e-05
3.40352298132841e-05
4.92685932260441e-05
6.24372579839478e-05
7.42834655264655e-05
8.51075160750981e-05
9.49599440141002e-05
0.000103805494318853
0.000111644642118761
7.63425424085709e-07
1.35342550389045e-05
3.12474006446011e-05
4.60220912477232e-05
5.90002713575397e-05
7.08348567972602e-05
8.18095164448669e-05
9.19745885317321e-05
0.000101249281112995
0.000109553817322295
0.000116880856537502
5.96187914960387e-07
1.16534763528741e-05
2.82572285550198e-05
4.24762655579839e-05
5.51801200866102e-05
6.6920080745348e-05
7.79451533657665e-05
8.83139179170647e-05
9.79498642829044e-05
0.000106722454393079
0.000114539831282283
0.000121392242990141
4.43921578207577e-07
9.72319092368264e-06
2.50920834495254e-05
3.86701020891808e-05
5.10248312075128e-05
6.26001223899704e-05
7.3596263964038e-05
8.40640425414567e-05
9.39462522652811e-05
0.000103116726663016
0.000111429722309562
0.000118790377084387
0.000125187461187425
3.11030496445134e-07
7.77679893836042e-06
2.17814594352675e-05
3.46408108804737e-05
4.65788000095491e-05
5.79255452167982e-05
6.88276448919972e-05
7.93140534995258e-05
8.9333292892366e-05
9.87826449315228e-05
0.000107520287794332
0.000115396229821636
0.000122315268514888
0.000128265669791718
2.00463644506453e-07
5.87077834251586e-06
1.83573659923332e-05
3.04252022754283e-05
4.18859676586113e-05
5.29449791011779e-05
6.36935083965209e-05
7.4134221475282e-05
8.42078662163634e-05
9.38234578615501e-05
0.000102864225696332
0.000111183994583292
0.000118632480225522
0.000125115511480386
0.000130622277342785
1.13622758112751e-07
4.07049855358341e-06
1.48511042800288e-05
2.60586778708797e-05
3.6989621538188e-05
4.7707615111736e-05
5.8246618976553e-05
6.85832044716787e-05
7.86462690152798e-05
8.8343633611908e-05
9.75728281909737e-05
0.000106213478408202
0.000114119236622157
0.000121141480244003
0.000127188447939504
0.000132251964273891
5.12190486940758e-08
2.45504529558487e-06
1.12995492627954e-05
2.15726998546799e-05
3.19303454131656e-05
4.22620509785349e-05
5.2540640155664e-05
6.27179327743938e-05
7.27118747964582e-05
8.2425311224099e-05
9.17575590109958e-05
0.000100603705830176
0.00010884346454591
0.000116332033719922
0.000122923629275041
0.000128530646784234
0.000133149732387734
1.54415574778363e-08
1.15324448231402e-06
7.75184031031792e-06
1.69947637580547e-05
2.6742739670705e-05
3.66536083276605e-05
4.66286741231656e-05
5.65962685520762e-05
6.64658469861767e-05
7.61364761004505e-05
8.55057949254291e-05
9.44721433383154e-05
0.000102931264665202
0.00011076426354129
0.00011782819999677
0.000123980418634272
0.000129139112581525
0.000133309131634433
2.41704674935261e-09
3.48238919152981e-07
4.33810740986076e-06
1.2349621081015e-05
2.14478378428728e-05
3.0916847738781e-05
4.05577985278483e-05
5.02735742206091e-05
5.9968404189224e-05
6.95406816583893e-05
7.88878514945536e-05
8.79083925501879e-05
9.65022242749544e-05
0.000104566958397008
0.000111985408506808
0.000118615792616149
0.000124316508095007
0.000129009581140229
0.000132709627843156
2.02185389050832e-06
2.30272633763476e-05
4.48396186073402e-05
2.01512078460761e-06
2.29435005328462e-05
4.44242342642572e-05
6.04416077656096e-05
1.91596484578022e-06
2.25867546317472e-05
4.38263791169223e-05
5.98233323082787e-05
7.27749759189842e-05
1.75139791855188e-06
2.17774010960526e-05
4.28722012934589e-05
5.88554961787442e-05
7.19530478516734e-05
8.31393199480136e-05
1.56378113447367e-06
2.05742158984431e-05
4.14397914470166e-05
5.74276813076882e-05
7.06701392712834e-05
8.20950783131297e-05
9.21187226188743e-05
1.37243898684569e-06
1.91243990132161e-05
3.95512869009511e-05
5.54785568815811e-05
6.88364192508933e-05
8.05058709942592e-05
9.08491675096233e-05
0.000100017714981649
1.18170297667205e-06
1.75253870351193e-05
3.73005225181446e-05
5.30374272679831e-05
6.64283846372686e-05
7.82977349581894e-05
8.8966371946557e-05
9.85268110064837e-05
0.000107015384050778
9.92976651555917e-07
1.58120922222261e-05
3.47642651283256e-05
5.01766860017089e-05
6.34945420352547e-05
7.54714483847961e-05
8.64117769292782e-05
9.63670952427592e-05
0.000105302254333061
0.000113218183445267
8.09225745311873e-07
1.39980282398287e-05
3.19866435727585e-05
4.69590691527141e-05
6.01057457115529e-05
7.20908874839552e-05
8.32022009500989e-05
9.34908717245202e-05
0.000102875405224283
0.00011127544184725
0.000118683970526397