/*--------------------------------*- C++ -*----------------------------------*\
  =========                 |
  \\      /  F ield         | OpenFOAM: The Open Source CFD Toolbox
   \\    /   O peration     | Website:  https://openfoam.org
    \\  /    A nd           | Version:  12
     \\/     M anipulation  |
\*---------------------------------------------------------------------------*/
/*   Windows 32 and 64 bit porting by blueCAPE: http://www.bluecape.com.pt   *\
|  Based on Windows porting (2.0.x v4) by Symscape: http://www.symscape.com   |
\*---------------------------------------------------------------------------*/
FoamFile
{
    format      ascii;
    class       volScalarField;
    location    "800";
    object      nut;
}
// * * * * * * * * * * * * * * * * * * * * * * * * * * * * * * * * * * * * * //

dimensions      [0 2 -1 0 0 0 0];

internalField   nonuniform List<scalar> 
10116
(
3.07177759726258e-07
3.35664644163223e-07
3.29261950408705e-07
2.96420050785456e-05
3.64119054223783e-07
3.60295363442945e-07
3.13862906854329e-05
3.59509262060667e-07
3.08149245413213e-05
0.000155545065836838
3.91884737087049e-07
3.90821600912068e-07
3.29772063662622e-05
3.93375007324791e-07
3.25654091470779e-05
0.000161545059874282
3.77895782865708e-07
3.23515614881646e-05
0.000158226670604959
0.000341547238430026
4.19518296848084e-07
4.20675784229584e-07
3.45080479578855e-05
4.26805533060166e-07
3.42289576346986e-05
0.000167054637932653
4.13515654824745e-07
3.41568993579244e-05
0.000164253527051742
0.000352081882940488
3.72216187756837e-07
3.32895872190439e-05
0.000161457994943982
0.000343791402211147
0.000545535849039082
4.47133766151655e-07
4.50396439094678e-07
3.59710418820316e-05
4.59497878068787e-07
3.58178208548002e-05
0.000172124381642497
4.48845307117756e-07
3.5896824466716e-05
0.000169794137364729
0.00036180478004863
4.07443605050362e-07
3.51326584332762e-05
0.00016753968860352
0.000354314750751797
0.000560325406920335
3.48932422052503e-07
3.30420917799071e-05
0.000163176815235859
0.000345983726067481
0.000546303284364673
0.000746750185412939
4.74368529714755e-07
4.8009648555763e-07
3.73646388179956e-05
4.9207411534945e-07
3.73331340073506e-05
0.000176866302510852
4.83444794984654e-07
3.75514257871324e-05
0.000174945681025254
0.000370788595398126
4.42491499693686e-07
3.6923602204788e-05
0.000173137013696934
0.00036405453175074
0.000574002571832176
3.82153417831823e-07
3.48837042256874e-05
0.000169286312693169
0.000356507048395086
0.000561020831120196
0.000765511612039813
3.19408632762533e-07
3.18118220910745e-05
0.000162100425011852
0.0003461091809248
0.000545887677300759
0.000745816277430499
0.000935977337738846
5.01168119947339e-07
5.09446598229234e-07
3.86725683119607e-05
5.24651860695709e-07
3.87779340849093e-05
0.000181272274340938
5.17936000957699e-07
3.91285795266098e-05
0.000179761078952552
0.000379123050140135
4.7694103026643e-07
3.86212548261797e-05
0.00017836608769001
0.000373076619770346
0.000586672896166475
4.15274387996629e-07
3.66724301955461e-05
0.000174915468966186
0.00036625749899331
0.000574683669944764
0.000782833792851602
3.50060469711095e-07
3.36150803983837e-05
0.000168159148172895
0.000356606520447634
0.000560521097632611
0.000764441590833032
0.000958428840208055
2.88670222267075e-07
3.00852646998401e-05
0.000158461488106536
0.000342785795229186
0.000542722118856096
0.00074242528039514
0.000933690266786913
0.0011098558439147
5.27580373557523e-07
5.38391726796215e-07
3.9909661310736e-05
5.56867540584219e-07
4.01334159472187e-05
0.000185364959796058
5.52363661601743e-07
4.06324604618446e-05
0.000184236718571988
0.000386843316422927
5.11173476688197e-07
4.02402415911359e-05
0.000183259423447848
0.000381458301725595
0.000598418294795964
4.47962736845938e-07
3.83706682733608e-05
0.000180189227556959
0.000375312766410745
0.000587351888530217
0.000798872278404477
3.80654321756349e-07
3.53625894782241e-05
0.000173774525572481
0.000366333099418099
0.000574134205179434
0.000781709807363106
0.000979099153417371
3.16644589977831e-07
3.18313949664138e-05
0.000164406667104169
0.000353191502720228
0.000557234787055782
0.000760874731110732
0.000955950873016562
0.00113571387040573
2.57011085126736e-07
2.81263446620413e-05
0.000153136092420963
0.000336014864679697
0.00053571938088251
0.000735414023496431
0.000927735783120374
0.00110669393129828
0.00126788329955192
5.53647416452835e-07
5.66968032065962e-07
4.10851299951357e-05
5.88703003882595e-07
4.14144877465005e-05
0.000189188984557592
5.86432015980014e-07
4.2044302120281e-05
0.000188392209443959
0.00039400785461787
5.45374490559895e-07
4.17826455663402e-05
0.000187808105057852
0.000389225918392843
0.000609304466955035
4.80460173144704e-07
3.9989982868136e-05
0.000185129760084006
0.000383735575465511
0.000599108924550624
0.000813726353349246
4.10945540666227e-07
3.70254420673377e-05
0.000179034520665696
0.000375384825735368
0.000586779084150101
0.000797712784532064
0.000998195815095823
3.44586226527547e-07
3.35175832004354e-05
0.000169949295980231
0.000362834670298066
0.000570746749974728
0.000778026903832558
0.000976533674482005
0.00115944724412903
2.82171492242833e-07
2.98067833990142e-05
0.00015892805379868
0.000346253496733882
0.000550044147351626
0.000753633106091085
0.000949737278114267
0.00113231774257862
0.00129686972341146
2.24077291609676e-07
2.5977529605836e-05
0.000146679770782133
0.000326472912058275
0.000524736417267931
0.000724020471738724
0.000917149575337739
0.00109880891588584
0.00126415374766059
0.00141071057974209
5.79403679946644e-07
5.9520037661281e-07
4.2204884092438e-05
6.20212194859799e-07
4.26315805401856e-05
0.000192776851849671
6.20302855101066e-07
4.33808436100759e-05
0.000192274645528363
0.000400676764970994
5.79404636777305e-07
4.3232309799234e-05
0.000192037575427685
0.000396436485545597
0.000619406616352791
5.12945747595931e-07
4.15331268048628e-05
0.000189723525970959
0.000391548284500576
0.000610010739008072
0.000827485775826074
4.41158032226919e-07
3.86126188623318e-05
0.000183964243417181
0.000383813650498593
0.000598525999677389
0.000812545877078002
0.00101584812398338
3.72304171370081e-07
3.51255504627464e-05
0.000175139756902368
0.000371821140218057
0.000583317228225562
0.000793946375283832
0.000995568821669121
0.00118131369637606
3.07350815156901e-07
3.14216673049652e-05
0.000164349619687343
0.000355745682482373
0.000563384731837155
0.0007705950983203
0.000970141964930201
0.00115593883254925
0.0013233967308818
2.46239565820509e-07
2.75780123384606e-05
0.000152288692111298
0.000336469110762593
0.000538789863232805
0.000741931151810146
0.0009388154689487
0.00112410441096747
0.00129287078617082
0.0014425575817085
1.90176930064811e-07
2.36138529329955e-05
0.000139202827089183
0.000314642043804701
0.000510093194345218
0.000708060152585939
0.000901339419961713
0.00108519040116524
0.0012547986372954
0.00140653777206219
0.00153932684118083
6.04889270182304e-07
6.23145145779706e-07
4.32703345531699e-05
6.51400293355873e-07
4.37904447543874e-05
0.000196150708663723
6.53889741594894e-07
4.46521442730192e-05
0.000195918211115124
0.000406899765081676
6.13310875551686e-07
4.46082135086662e-05
0.000195994001486188
0.000403149706202761
0.000628792342275353
5.45388950131905e-07
4.29869325665964e-05
0.000194002443693501
0.000398807572870997
0.000620130672009936
0.000840238714941471
4.71399249172121e-07
4.01259978086171e-05
0.000188552417396605
0.000391640052087551
0.000609427156557499
0.000826290746656907
0.00103216983563839
4.00094594505995e-07
3.66638941185421e-05
0.000180006663524861
0.000380196431753484
0.000595007280851165
0.000808715945731773
0.00101317522048894
0.00120147525110252
3.32384886161537e-07
3.29647812749434e-05
0.000169431835160363
0.000364602189130185
0.000575811172717664
0.000786361078851503
0.00098904061275871
0.0011777250359667
0.00134776790910849
2.68499995763095e-07
2.91122404141538e-05
0.0001575560098735
0.000345757314661919
0.000551881179422707
0.0007586177852547
0.000958943073325691
0.0011474955956968
0.00131926637618743
0.00147162488068918
2.09210030175436e-07
2.51149924929091e-05
0.000144611335820424
0.000324335980119568
0.000523788720384766
0.000725566417082139
0.000922573113987594
0.00111005645358762
0.00128312927502857
0.00143808453498533
0.00157377712591556
1.56126685449094e-07
2.10176927982312e-05
0.000130634187598044
0.000300628862531304
0.000491997362275126
0.000687567651406897
0.000880117858346491
0.0010652478895099
0.00123859235326666
0.00139594754547639
0.00153474182052602
0.00165476914319704
6.30103626993365e-07
6.50855771292148e-07
4.42860113257878e-05
6.82304046145166e-07
4.48953043022318e-05
0.00019932685637925
6.87161095367757e-07
4.58638165164509e-05
0.000199345876820816
0.000412715961629479
6.46982081396918e-07
4.59189271605915e-05
0.000199710980092994
0.000409415500123433
0.000637520474613397
5.77797106499514e-07
4.43692701915195e-05
0.000198011951169478
0.000405572148635074
0.000629535213432717
0.000852062166942516
5.01682767573968e-07
4.15547305063413e-05
0.000192833270763275
0.000398920836314409
0.000619553506088983
0.000839033456891743
0.00104726444981856
4.27971234199695e-07
3.81325378811426e-05
0.000184541396971157
0.000387982450189434
0.000605866679176609
0.000822411558180003
0.00102945945589154
0.00122007119214115
3.57617798697386e-07
3.44457643304362e-05
0.000174201189241108
0.000372862662196818
0.000587378350114815
0.000801003356576136
0.00100653660348772
0.00119782350236946
0.0013701781064944
2.90691008080743e-07
3.05818895749784e-05
0.000162502971203301
0.000354429492634636
0.000564089384856095
0.000774146860603826
0.000977612559079481
0.00116910247741558
0.00134354316155581
0.00149825846023196
2.28406404798146e-07
2.65569482974513e-05
0.000149698660167462
0.000333365092252695
0.000536554848556371
0.000741885783939111
0.00094231779245327
0.00113309215582352
0.00130925121762819
0.00146700371731112
0.00160514677052506
1.71992263395211e-07
2.24034396475837e-05
0.000135826148094919
0.000309965271741979
0.000505244405009814
0.000704565684601159
0.000900804010218931
0.00108956327404973
0.00126640994166474
0.00142705660282168
0.00156886338231939
0.00169157457861187
1.22963676927389e-07
1.82023626268756e-05
0.000120892506849593
0.000284305228133696
0.000470389523368953
0.000662464252692958
0.000853366217488432
0.00103879882515368
0.00121483613343613
0.00137743289947347
0.00152301913872225
0.00164977728681602
0.0017580517054159
6.55014812414565e-07
6.78345628662541e-07
4.5253770169479e-05
7.13003843838714e-07
4.59496792664114e-05
0.000202317821564738
7.20188324116995e-07
4.70205360254167e-05
0.000202574687038357
0.000418156516148909
6.80402198975414e-07
4.71697579450631e-05
0.000203211497237077
0.000415273343924631
0.000645641322865489
6.10070023626749e-07
4.56881669528112e-05
0.0002017842358834
0.000411891282935073
0.000638282752374607
0.000863023282725743
5.32008871428182e-07
4.29158822882221e-05
0.000196851044061158
0.000405713818283974
0.000628970266152084
0.000850849867069342
0.00106122116763461
4.55961045004705e-07
3.95214571576604e-05
0.000188778912256481
0.000395235102016164
0.000615963928366387
0.000835115930080526
0.00104452270307766
0.0012372224076179
3.82991109656435e-07
3.58624936910694e-05
0.000178650885310562
0.000380551818700985
0.000598136034749821
0.000814593846693403
0.00102272924446876
0.00121636641508044
0.00139079232803768
3.13174384259125e-07
3.19973438515418e-05
0.000167150572997351
0.000362523490840031
0.000575463011831468
0.000788583189848258
0.000994913977276601
0.0011890527428265
0.00136587773998444
0.00152268414100366
2.47602130685795e-07
2.79425861397913e-05
0.000154486148005171
0.000341805464717532
0.000548474083308391
0.00075709034005175
0.000960655020093028
0.00115440214343243
0.00133331337678539
0.00149353075557006
0.00163381979935844
1.88031492307702e-07
2.37391238412528e-05
0.000140705751030771
0.000318679973184174
0.000517613218080374
0.000720422468262794
0.000920054297247363
0.00111211219509723
0.00129210605315999
0.00145566360724647
0.00160006925515138
0.00172502178830193
1.35727186742623e-07
1.94549453929277e-05
0.000125819813439555
0.000293223953970325
0.000483101951815678
0.000678842972020259
0.000873379475193222
0.00106242312911888
0.00124199165271432
0.00140795265933221
0.00155665583886311
0.00168622751296274
0.00179697318836041
9.18787550958298e-08
1.51994837453723e-05
0.000109840878294476
0.000265393533680811
0.000444978723415487
0.000632456897114986
0.000820800719500201
0.00100567953144418
0.00118334674865286
0.00135013608067114
0.00150237160089555
0.00163697874135749
0.0017526623634781
0.00185015250599713
6.79370012479594e-07
7.0555540499367e-07
4.61735519548032e-05
7.43521864515686e-07
4.69554977956734e-05
0.000205131753373505
7.5306728625394e-07
4.81258617516433e-05
0.000205617446401514
0.000423245324232975
7.13649914354048e-07
4.83655487444774e-05
0.000206512758346437
0.000420754848040922
0.000653196973089509
6.42159927347523e-07
4.69487716328059e-05
0.000205341664228813
0.000417804175624699
0.000646423520048679
0.000873180658724729
5.62291024050166e-07
4.42169028372832e-05
0.000200636683025649
0.000412067067330885
0.000637735028030897
0.000861806749558481
0.00107411700778669
4.84049042446576e-07
4.08472544310454e-05
0.000192762157806195
0.000402010745594283
0.0006253626498915
0.000846903156405833
0.00105845303274418
0.00125303164334281
4.08541104256254e-07
3.72050244727071e-05
0.000182815134806619
0.000387723845375042
0.000608149990406293
0.000827211396770882
0.00103771556363887
0.00123347214961593
0.00140974936606685
3.35842228160228e-07
3.33549574990786e-05
0.000171493994953364
0.000370068441592011
0.000586054027204896
0.000801997353527836
0.00101094111522274
0.0012074703010456
0.00138642781741839
0.00154509115303839
2.67133043367527e-07
2.92817919186555e-05
0.00015898978440854
0.000349687543307416
0.000559586384055223
0.000771237328760364
0.00097766532520424
0.00117409816231022
0.00135546914963831
0.00151787046904149
0.00166005103292024
2.04099277579987e-07
2.50272860403464e-05
0.000145307887200547
0.000326840555903466
0.000529172469123217
0.000735212411660856
0.000937952009449082
0.00113299752848428
0.0013158105026042
0.00148194462510031
0.00162862443221811
0.00175552787722845
1.48619935672905e-07
2.06680220700579e-05
0.000130456334649621
0.000301567403285485
0.000494990228896738
0.0006941393943497
0.00089201914982031
0.00108434985432612
0.00126710305243222
0.00143606951938075
0.00158751400958206
0.00171949607403574
0.0018322848481462
1.01662952332806e-07
1.63024671708053e-05
0.000114456964215326
0.000273839697733795
0.000457060990086864
0.000648099031911457
0.000840007122948439
0.00102846217453773
0.00120967155049311
0.00137988912624814
0.00153534827560176
0.00167290024155222
0.00179120419355966
0.00189096080771269
6.36349786671326e-08
1.2059974352882e-05
9.73139434441638e-05
0.000243522057991884
0.000415263741425982
0.000597032000421626
0.000781918346573378
0.000965497470590998
0.00114397411513
0.00131386358775851
0.00147177270583869
0.00161433447923532
0.00173884294436198
0.00184438535882696
0.0019320011394122
7.02620118881824e-07
7.32124194959567e-07
4.70424304307864e-05
7.7379738019503e-07
4.79125539561324e-05
0.000207772035370126
7.85844196191028e-07
4.91817916465048e-05
0.000208482483217519
0.000427998713288003
7.4682153445464e-07
4.95099232344397e-05
0.00020962768219439
0.000425884261648211
0.000660220522981753
6.74155450906424e-07
4.81557616110573e-05
0.000208701252505364
0.00042334227908561
0.000653999725262259
0.000882583657167299
5.92490848217151e-07
4.54625518614415e-05
0.000204211785985982
0.000418018896011601
0.000645897449579664
0.00087196231229027
0.00108601783397937
5.12171070285365e-07
4.21169421346613e-05
0.000196520853190468
0.000408355983444152
0.000634119078443853
0.000857838953035982
0.00107132686047734
0.00126758602014717
4.34240528013653e-07
3.84886868490036e-05
0.000186735443936919
0.000394433167162684
0.00061748160895195
0.000838927596508538
0.00105158134118723
0.00124924221112168
0.00142716558508929
3.58735224107937e-07
3.46451065818242e-05
0.000175565487939494
0.000377115933447293
0.000595924992190931
0.000814464060170971
0.00102578590650428
0.00122446862667795
0.0014053294314595
0.00156563569610223
2.86887202587437e-07
3.05705147529869e-05
0.000163207420613708
0.000357047540259017
0.000569948510249177
0.000784398484970219
0.000993439525613829
0.00119229682322705
0.00137586653394133
0.00154020415832998
0.00168405100631219
2.20522721434665e-07
2.62769781625945e-05
0.000149642483704192
0.000334466765606042
0.000539959279720989
0.000748987549908331
0.000954571775181182
0.0011523216431456
0.00133765951864993
0.00150607885881447
0.00165475998185016
0.00178337330800036
1.61514506930201e-07
2.18419597987699e-05
0.000134841246739761
0.000309394482192544
0.000506114991762771
0.000708422311574178
0.000909368047273493
0.0011046811001083
0.00129029635099264
0.00146193755286242
0.00161579420601548
0.00174987341556107
0.00186443154257188
1.11482025192169e-07
1.73750070773717e-05
0.000118810381242147
0.000281748602221863
0.000468380382644286
0.000662728627925992
0.000857913498431906
0.00104962720493205
0.0012340364631663
0.00140732926349527
0.0015656565195244
0.00170578781097836
0.00182632324161085
0.00192793505041113
7.06251828727278e-08
1.29951415865419e-05
0.000101567862035666
0.000251408888734555
0.000426611146200392
0.000611811138431007
0.00080017228011754
0.000987279071106315
0.00116929060401641
0.00134265240923934
0.00150388462999586
0.00164953022487794
0.00177681550629132
0.00188479178568031
0.00197447862380174
3.87152232909762e-08
8.84186063859946e-06
8.30587848668536e-05
0.000218103414473726
0.000380496538858206
0.000555434113437677
0.000735999251976561
0.000917605086322213
0.00109628775345587
0.00126850224460537
0.00143101233794218
0.00158066162709435
0.00171433526172823
0.00182961187734194
0.00192588391591324
0.00200446316049262
7.24335303412132e-07
7.57583849542032e-07
4.78555747908824e-05
8.03382359633606e-07
4.88177664718659e-05
0.000210237522637239
8.18364196438621e-07
5.01879233041201e-05
0.000211173394795193
0.000432425318775474
7.79959261807982e-07
5.06048647992577e-05
0.000212564628423368
0.000430678112491668
0.000666735315638836
7.06141248338874e-07
4.9312739837353e-05
0.000211875793275715
0.000428529766539105
0.000661044607067018
0.000891271031058658
6.22677120580129e-07
4.66572469205124e-05
0.000207592889340637
0.000423600100121906
0.00065349928100765
0.000881365686662785
0.00109697809851389
5.40318862149792e-07
4.33349859857824e-05
0.000200075646780345
0.000414307846714521
0.000642281695941825
0.000867980683949541
0.00108320964933779
0.00128095852286496
4.60057880212638e-07
3.97205602354273e-05
0.000190440306709286
0.000400724631895675
0.000626185215359793
0.00084980634494978
0.00106440157160649
0.00126376304628407
0.00144313802767923
3.81846721623059e-07
3.58804831499756e-05
0.000179404134439812
0.000383717843905127
0.000605134454256325
0.000826051701968836
0.00103953078113009
0.0012401464902697
0.00142269758019376
0.00158444724347145
3.06918231518402e-07
3.18005048658304e-05
0.000167168980782366
0.000363933177037899
0.000579618985123896
0.000796644027180172
0.00100806413674679
0.00120910548586288
0.00139463619726502
0.00156068512656328
0.00170599222554485
2.37235378138059e-07
2.74845967213546e-05
0.000153712033111276
0.000341601835018872
0.000550032240127424
0.000761818303829639
0.000970000739354761
0.00117019440488043
0.00135779097829688
0.00152823614752032
0.00167867814193253
0.00180878729532771
1.74752444780101e-07
2.2986306830607e-05
0.000138978560508581
0.000316718774941511
0.0005165086330024
0.000721740221798089
0.000925495795310734
0.00112351280651834
0.00131169731752263
0.00148571704763787
0.00164169952747716
0.00177761383594522
0.00189371542925389
1.21286734281699e-07
1.84153293821386e-05
0.000122938493537098
0.000289181864067867
0.000478988762778926
0.000676405426750752
0.000874599457276434
0.00106927357294241
0.00125656489109918
0.00143260523926362
0.00159347248481146
0.00173586299572762
0.00185833083688701
0.00196154237922003
7.76029889553514e-08
1.39064001425658e-05
0.000105588433589752
0.000258807205828413
0.000437262934658467
0.000625655877674396
0.000817215145538878
0.00100753602419275
0.0011927450624671
0.00136922746079548
0.00153342998387063
0.0016818121675861
0.00181152257334041
0.00192156057826207
0.00201292521997172
4.31607399477853e-08
9.5855104669937e-06
8.68870549445418e-05
0.000225334157138703
0.000390997744704401
0.00056921058139167
0.000753146193126943
0.000938214996391174
0.00112041099357777
0.00129612228778254
0.00146203422854678
0.00161490154202161
0.00175152154851126
0.00186941210731598
0.00196793961768588
0.00204840580971005
1.85890637147887e-08
5.64407990846786e-06
6.66361705617788e-05
0.000188247831486477
0.000339636297125163
0.000506612827365445
0.000682083199381803
0.000861136698834729
0.0010395626658618
0.00121362594900151
0.00138002126804638
0.00153573332984142
0.00167782058583918
0.00180338349659656
0.00191023403737009
0.00199802796907952
0.00206832635368032
7.44901295091744e-07
7.81454131470672e-07
4.8610433097493e-05
8.31713951216244e-07
4.9666719784603e-05
0.000212525670274903
8.50156029361187e-07
5.11410540240436e-05
0.000213690456181385
0.000436526674105798
8.12867416897754e-07
5.16495894049889e-05
0.000215327288760542
0.000435145149924292
0.000672754704618981
7.38151897957048e-07
5.04214422081469e-05
0.000214873504648136
0.00043338303941574
0.000667581608937433
0.000899270727472145
6.52906547161101e-07
4.7804319820073e-05
0.000210792304912907
0.000428834321950141
0.00066057348077247
0.00089005575442153
0.00110704084817301
5.68533048400424e-07
4.45053828804628e-05
0.000203442314981224
0.000419896047479603
0.00064989130360999
0.000877376856473866
0.00109415575927896
0.00129320878530866
4.85998964985781e-07
4.0904948983277e-05
0.00019394951556967
0.000406633704172324
0.000634307596278672
0.000859903538362142
0.001076240700758
0.00127710724109997
0.00145774687409289
4.05155021695702e-07
3.7068693503487e-05
0.000183037379340255
0.000389917024916355
0.000613734351756149
0.00083682166980533
0.00105224841331174
0.00125458863866916
0.00143862859469811
0.00160163237829008
3.27242329367632e-07
3.29797611479995e-05
0.000170909405594633
0.000370392690615561
0.00058865288846702
0.000808038626941237
0.00102161751342402
0.00122461891474303
0.00141189009577398
0.00157944137095708
0.0017260163492077
2.54228711483327e-07
2.86447842513791e-05
0.00015754440826396
0.000348289109303509
0.000559446101966948
0.000773770741253805
0.000984320387835425
0.00118671702149759
0.00137632879137052
0.00154856402733132
0.0017005483206411
0.00183195703314232
1.88353454443404e-07
2.40985884188162e-05
0.000142873435325164
0.000323585128993858
0.000526229214641713
0.000734160667282655
0.000940484905760053
0.00114094843740479
0.00133143483465691
0.00150756591647894
0.00166541955900795
0.00180293791627938
0.00192038174763004
1.31405702135044e-07
1.94353897413922e-05
0.000126845527307799
0.000296149348083636
0.000488914168324959
0.000689174212242402
0.000890129071481124
0.00108749117484273
0.00127737496473465
0.00145586552257291
0.0016189786046111
0.00176334993928875
0.00188750088370669
0.00199210258129576
8.45300509162141e-08
1.47921424402308e-05
0.00010940959674105
0.000265774927513346
0.000447261948802555
0.000638616986557232
0.00083311560508273
0.00102636177580988
0.001214455543666
0.00139373339188498
0.00156057839322669
0.00171137545238329
0.0018432026558762
0.00195501919626106
0.00204782505379563
4.75814302226624e-08
1.03121115975447e-05
9.05107295299871e-05
0.000232129148249096
0.000400868453778491
0.000582139712211171
0.00076918098298442
0.000957409270288341
0.0011427855802097
0.0013216441416737
0.00149060297625679
0.00164634052078188
0.00178557154027561
0.00190574051729394
0.00200616917613013
0.002088146969716
2.08504146474711e-08
6.17049895145301e-06
6.9951024267139e-05
0.000194701372606887
0.00034914324655986
0.000519235959033711
0.000697954928802216
0.000880394923996435
0.00106229851979345
0.00123986780746127
0.0014097229675358
0.00156876639767194
0.00171396751471878
0.00184234253027299
0.00195165043400215
0.00204153119853181
0.00211354587716855
5.96787445139846e-09
2.7718949278887e-06
4.74100077831507e-05
0.000152583908992287
0.000291189590905009
0.00044918776980476
0.000618936539137543
0.000795012399071929
0.000972857811045298
0.00114848468940791
0.00131840130655374
0.00147952625680198
0.001629060100274
0.00176426646537025
0.00188243651214873
0.0019815854067153
0.00206160705197433
0.00212429155989083
8.04405824795437e-07
4.93115711155825e-05
8.58310306050502e-07
5.04581495126249e-05
0.000214632892058722
8.80651423144056e-07
5.20369535102621e-05
0.000216027873094507
0.000440299987919794
8.45037154483783e-07
5.26405868468737e-05
0.000217916463822725
0.000439287027003036
0.000678282549805751
7.6999903260233e-07
5.14808124529124e-05
0.000217698229001883
0.000437910678160578
0.000673624106295021
0.000906598811362591
6.83213415171652e-07
4.89053294448512e-05
0.000213817901402352
0.000433737601658352
0.000667143244095996
0.000898060352625045
0.00111623648063081
5.96851507372861e-07
4.56310575647828e-05
0.00020663248516568
0.000425143529574321
0.000656980125965626
0.000886065961665749
0.00110420795197143
0.00130438260142396
5.1208963237325e-07
4.20453356319027e-05
0.000197277947866705
0.000412188768836157
0.000641888111728338
0.000869266533848852
0.00108715240839698
0.00128933398381628
0.00147105572423134
4.28674401806362e-07
3.82139082000572e-05
0.000186484326192469
0.000395747291225135
0.000621769385667432
0.00084682780544764
0.00106400147958521
0.00126786649307191
0.00145320197030082
0.00161727729226569
3.47833141228508e-07
3.41168434357354e-05
0.000174455316742274
0.000376466729203203
0.000597099402246072
0.00081864065540422
0.00103416924511249
0.00123891912035938
0.00142772265007697
0.00159657863912455
0.00174423869241176
2.71596542306994e-07
2.975844746918e-05
0.000161168366459442
0.000354571922467179
0.000568252051277062
0.00078490560092964
0.000997604707956751
0.00120197953267735
0.0013933804426371
0.00156718718254895
0.00172051062326424
0.00185303492492672
2.02256161560383e-07
2.51769394721985e-05
0.000146553813984478
0.000330033696514824
0.000535327525292342
0.000745745358313946
0.000954411757549585
0.00115708311471732
0.00134962567244157
0.00152762416479341
0.00168711745809244
0.0018260295439109
0.00194463037634911
1.4189812077782e-07
2.04347069803702e-05
0.000130533616583421
0.000302694995466833
0.000498211827919791
0.000701098247276764
0.000904579176246439
0.0011043766580325
0.00129658727868769
0.00147725740398089
0.00164235115915012
0.00178845562253087
0.00191406970151989
0.00201987421787964
9.16953591481306e-08
1.56663079928033e-05
0.000113045341973803
0.000272318864857793
0.000456631961500221
0.000650734409386108
0.000847932632964598
0.00104383894387167
0.00123453255850283
0.00141630964772658
0.00158549911202225
0.00173842190121194
0.00187209754505581
0.0019854574026263
0.00207951162504678
5.19485370439466e-08
1.10201918331788e-05
9.3960216400869e-05
0.000238542484029607
0.000410149281229169
0.00059426195758543
0.000784161524508709
0.000975269900618423
0.00116352143559794
0.00134520523659332
0.00151688286413824
0.00167516629021605
0.0018166957088366
0.00193884830877068
0.00204091157171795
0.00212418274403869
2.31121552094089e-08
6.68715816825974e-06
7.30897868402544e-05
0.000200773807760952
0.000358096428894493
0.000531102718863548
0.000712824368186366
0.000898359499091514
0.00108341648091385
0.00126414532512352
0.00143710422896059
0.00159912531338469
0.00174710100753266
0.001877966998836
0.00198941398645944
0.00208104500193258
0.00215441714607067
6.75193013497318e-09
3.06271513186615e-06
5.00706531423655e-05
0.000158100708318502
0.00029953428138341
0.000460480257248082
0.000633351871688176
0.000812728205814887
0.00099400460673508
0.00117313276065946
0.00134655078312973
0.00151109882643878
0.00166389339901124
0.00180211068710544
0.00192296264435898
0.00202442003445338
0.00210637165178898
0.0021706186200588
1.01484962839052e-09
8.07406502020888e-07
2.54195883221896e-05
0.00010936291696297
0.000233260861505783
0.000381432919669727
0.000545059481941079
0.000717943649087252
0.00089505925558218
0.00107212188145009
0.00124541333113035
0.00141168306521991
0.00156807759545186
0.00171201675227759
0.00184096068545258
0.00195237432708229
0.00204445741258272
0.0021173227020618
0.00217296217389355
8.84065972272712e-07
5.11979070154189e-05
0.000216565919420468
9.09306274429207e-07
5.28753851968428e-05
0.000218185242383733
0.000443742852135497
8.7598271488734e-07
5.35739594624577e-05
0.000220324800137274
0.00044310113295419
0.000683315142808062
8.01118133496814e-07
5.24866729551825e-05
0.000220349182164119
0.000442114423217709
0.000679175935891715
0.000913260124232064
7.13427184324962e-07
4.99589298865267e-05
0.000216673409191224
0.000438318180054241
0.00067322171104877
0.000905395646487997
0.00112458270444843
6.25298387797827e-07
4.67133612449412e-05
0.000209653638596921
0.000430065634907168
0.000663570776699358
0.000894075481190341
0.00111339660757058
0.00131451183936592
5.38330387491458e-07
4.31443033280518e-05
0.000200436365804285
0.000417411686847111
0.000648957897750366
0.000877932955694169
0.00109717890819958
0.00130048896325224
0.00148311311118127
4.52421373351973e-07
3.93191528533311e-05
0.000189758856232579
0.000401235331993048
0.000629277006753227
0.000856115723334789
0.00107484237836033
0.00128003839880752
0.00146648122619497
0.00163145017394635
3.68700526512201e-07
3.52157763473475e-05
0.00017782504666271
0.000382187399886328
0.00060500085840769
0.000828501432696173
0.00104577959510526
0.00125207550385454
0.00144221203888049
0.00161218273577313
0.00176075131692554
2.892938913487e-07
3.08351924656062e-05
0.00016460931720496
0.000360488433539389
0.000576496218313781
0.000795277895139082
0.00100991969600533
0.00121606038886607
0.00140903724650087
0.00158420931549923
0.00173867946808915
0.00187214433012935
2.16530810681796e-07
2.62140190805996e-05
0.000150039495845385
0.000336101886906822
0.000543850268291385
0.000756550805484677
0.000967345746293826
0.00117200177823938