/*--------------------------------*- C++ -*----------------------------------*\
  =========                 |
  \\      /  F ield         | OpenFOAM: The Open Source CFD Toolbox
   \\    /   O peration     | Website:  https://openfoam.org
    \\  /    A nd           | Version:  12
     \\/     M anipulation  |
\*---------------------------------------------------------------------------*/
/*   Windows 32 and 64 bit porting by blueCAPE: http://www.bluecape.com.pt   *\
|  Based on Windows porting (2.0.x v4) by Symscape: http://www.symscape.com   |
\*---------------------------------------------------------------------------*/
FoamFile
{
    format      ascii;
    class       volScalarField;
    location    "800";
    object      omega;
}
// * * * * * * * * * * * * * * * * * * * * * * * * * * * * * * * * * * * * * //

dimensions      [0 0 -1 0 0 0 0];

internalField   nonuniform List<scalar> 
10116
(
2.46684080289412
2.46683937620765
2.38167915593664
0.446227924439276
2.46684296055528
2.38166561584907
0.447631705493022
2.28699598870675
0.432499431795637
0.193019927812623
2.46683873864376
2.38168115142711
0.449505693379689
2.28698408871966
0.43438188852562
0.194330959109993
2.21611155685982
0.417037245908397
0.18982685748471
0.125186998313928
2.46684018393712
2.3816768863936
0.451112306672831
2.28699529407819
0.436133056499605
0.195623595079009
2.21610866980698
0.418972553708251
0.191149885972602
0.126346894753597
2.18722004162014
0.405307494344589
0.185530990522961
0.124232696986321
0.097307267727633
2.46684036137273
2.38167831457462
0.452605748455633
2.28700715071431
0.437687027836276
0.196917801898872
2.21610777623832
0.420665538385377
0.192466108628289
0.127434871954708
2.18721680669061
0.407233323370884
0.186846591091382
0.125382386149218
0.098333262089822
2.18619056140802
0.399359651392714
0.181697217691568
0.122699293336791
0.0969843183793678
0.083034061968039
2.46684027355081
2.38167882394126
0.454051836318865
2.28699488805213
0.439150123920391
0.198148655037356
2.21611981621152
0.422208471993651
0.193741375445256
0.128474009766485
2.18721638577025
0.408865137074921
0.18816762654306
0.126467913716553
0.0992851246388242
2.18618866139388
0.401226609927698
0.182993513811951
0.123830800673444
0.0980013286792445
0.0839511753374344
2.19192356688865
0.397173099569394
0.178989308863213
0.121035733478041
0.0963421004411475
0.0829230572328559
0.0747823536012774
2.46683995439073
2.38167884349941
0.455431939436633
2.28699535625915
0.440560345616436
0.199339429984117
2.21610859319903
0.42366137753927
0.194955387697528
0.12946091054892
2.18721731502461
0.410384890653762
0.189431441424221
0.127502819381407
0.100179320480493
2.18619094853945
0.402813744616029
0.184303181061143
0.124908869241554
0.0989492043598015
0.0848042181867958
2.19192438861071
0.39894930678157
0.180271335540374
0.122145171901156
0.0973449553564969
0.0838333078511516
0.0756147605745867
2.19484406644401
0.395825008534061
0.177060707019988
0.119522882324658
0.0955018983401319
0.0826165520795441
0.0747415911707238
0.0696549071684514
2.46683978504417
2.38167839094607
0.4567075171395
2.28699536226502
0.441931585005622
0.200480288174478
2.21610912826935
0.425064185086844
0.196130059569116
0.130398500073821
2.18721854171178
0.411818390697761
0.190632611502937
0.128482983760177
0.101020787821968
2.18619249795843
0.404295033577563
0.185549008291882
0.125935321277611
0.0998413922391909
0.08560362021575
2.19192763990854
0.400479455982015
0.181549447097819
0.123210372962933
0.09828520636904
0.084683543160812
0.0763937334946867
2.19484900882524
0.397483071565688
0.178324212021103
0.120610236992018
0.0964893303067614
0.0835166233932518
0.0755683509318866
0.0704213583584165
2.19511644958611
0.39388746781586
0.175260519005641
0.118145533602076
0.0945788580006526
0.0821384489646471
0.0745673599908226
0.0696353793340463
0.0663300430180827
2.46683990677036
2.38167804636786
0.457868984914118
2.28699488697729
0.443206817520303
0.201543325110919
2.21610902010285
0.426423333448331
0.197258770398554
0.131280684455898
2.18721893297476
0.413208546306283
0.191795318003769
0.129413793949217
0.101810676382911
2.18619332334242
0.405703154221837
0.186733441269528
0.126906971692468
0.100679954801379
0.0863535101326033
2.19192922591298
0.401911472243721
0.182771411213504
0.12422426006796
0.0991713857379836
0.0854817661484031
0.0771258978367098
2.19485127197041
0.398943577112833
0.179567175206227
0.121659096281375
0.09741935300793
0.0843611978351474
0.0763453233916641
0.0711436488180665
2.19512173051142
0.395397490315953
0.176501318079732
0.119211993469736
0.0955517574579503
0.0830284557595854
0.0753864359320967
0.0703968210190129
0.0670443638824714
2.19479106206845
0.391237286796568
0.173206375584627
0.116753557549555
0.0936165458670295
0.0815389327991101
0.0742607019856802
0.0695157888547951
0.0663180697001365
0.0641294044710707
2.46684022002074
2.38167802958593
0.458916912062251
2.28699449508457
0.444366781188984
0.202515010393192
2.21610859564203
0.427681398966971
0.198312130120839
0.132098981607656
2.18721863028617
0.414548548464101
0.192909279115953
0.130289546521963
0.102546757547817
2.18619296407863
0.407071680947975
0.187881226653071
0.127829141599455
0.101466927004781
0.0870545163167129
2.19192935559213
0.403282541048001
0.18393723855478
0.125184715040555
0.100004668415512
0.0862303680087587
0.0778135050703446
2.19485490421041
0.400316842553385
0.180762393749439
0.122658193447577
0.0982970599406993
0.0851556317196228
0.0770767946521749
0.071825882967239
2.19512424883346
0.396773919938271
0.177711523620498
0.120244103117037
0.0964709000514915
0.0838661155363804
0.0761594182022117
0.0711175412595083
0.0677223512271052
2.1947964491521
0.392596220820315
0.174422747874269
0.117802786323649
0.0945767654456335
0.0824204911641678
0.0750731426775942
0.0702710006623719
0.0670277497808315
0.0648018003101841
2.19479622405428
0.388112809448669
0.170821560033042
0.115237085528397
0.0926058673676927
0.0808663743028352
0.0738516228655288
0.0692992807983384
0.0662263990665462
0.0641228221347136
0.0626720593571133
2.46684052630004
2.38167823826378
0.459850353081599
2.28699438130914
0.445409875760914
0.203391327757724
2.21610826886637
0.428823812028969
0.19927515290671
0.132847833853684
2.18721838558272
0.415783182039903
0.193947116098747
0.131101995666853
0.103226563923556
2.18619245882425
0.408384594088522
0.188977952227204
0.128696020948884
0.102200168567529
0.0877057559432915
2.19193017652708
0.404620107919732
0.185067322168941
0.126096218780756
0.100786600971805
0.0869301684525078
0.0784564676578689
2.19485246846861
0.401639738766509
0.181907409227304
0.123606193906744
0.0991231657054584
0.0859011612988157
0.0777638561190291
0.0724686865276334
2.19512998790003
0.398077798499329
0.178878194076706
0.121227928962086
0.0973392431085932
0.0846552372542615
0.0768885483367701
0.0717993527541156
0.0683663107390801
2.19479898194182
0.39387465902237
0.175600563871851
0.11881714550646
0.0954858758864687
0.0832515752681064
0.075841717627022
0.0709888078670903
0.0677044196569413
0.0654444668452889
2.19480165421141
0.389329461826998
0.172001324801125
0.116271045557545
0.0935557323102492
0.0817417216059591
0.0746596902391207
0.0700500090366878
0.0669307557151207
0.0647908359966589
0.0633102416616647
2.19511835084351
0.384703263536475
0.168138423111599
0.11356525688726
0.0915352433115956
0.0801538111291198
0.0733853216243518
0.0690135191375327
0.0660666920474978
0.0640511070626205
0.0626712287699834
0.061726850574617
2.46684067564232
2.38167846466504
0.460672942398431
2.28699446389101
0.446338336241562
0.204171701148448
2.21610812657094
0.429848568039653
0.200143221197993
0.13352440380574
2.18721828147891
0.416901933094656
0.194894974529282
0.131845541266898
0.103848093041991
2.1861925995857
0.409591480205266
0.189997708253756
0.129499671481371
0.102877320202751
0.0883062443427014
2.19192560145426
0.405900299029726
0.186145837925818
0.12695249908144
0.101514991374989
0.08758027261246
0.0790540031193611
2.1948527181049
0.402934072287119
0.183018429605713
0.124505978922856
0.0998984870764445
0.0865981946679117
0.0784063767181805
0.0730711656942964
2.19512531012005
0.399340668561524
0.180000052386677
0.122163178110066
0.0981574570125599
0.0853964768272367
0.077573905952666
0.0724419621024913
0.0689755568680148
2.19480477306468
0.395094785836046
0.176736441895197
0.119785652695265
0.0963452203842234
0.0840352090638173
0.0765677350204042
0.0716691632911055
0.0683481232323949
0.0660583290516771
2.19480411277543
0.390496496934499
0.173143115877626
0.117268690096215
0.0944561658937698
0.0825676643283947
0.0754248713251245
0.070765121162609
0.0676052236617811
0.0654323717911317
0.0639242591805886
2.19512371954644
0.385757621940428
0.169263516865493
0.114584740475092
0.0924777742502215
0.0810254522705953
0.0741917275913116
0.0697626324551763
0.0667680093273527
0.0647144328648734
0.0633052330880243
0.062336831206187
2.1948478584119
0.381044405718396
0.165175587249599
0.111760046985696
0.0904174334085279
0.0794289928974948
0.0729059769664832
0.068701469981979
0.0658702750204053
0.0639343329836425
0.0626170802367327
0.0617320704926691
0.0611437050022829
2.46684064221503
2.38167856149577
0.461386341221616
2.28699458411622
0.447154887275037
0.204857018627636
2.21610811195761
0.430759282641796
0.200915743922593
0.13412729169242
2.18721813548526
0.417904046785974
0.19574841739075
0.132517258229441
0.104409878260313
2.18619290281801
0.410683988332467
0.190927954129345
0.130234705605317
0.103496411627469
0.0888550547710937
2.19192819025174
0.407075969927716
0.187147832249249
0.12774571992622
0.102187484028834
0.0881797109558929
0.0796053047608201
2.19484585270533
0.404174158164818
0.184078806329309
0.125351032518173
0.100620650853767
0.0872457342127658
0.0790035289805271
0.0736322142928121
2.1951233359375
0.400578437661368
0.181089854291125
0.12305106036883
0.0989255310251332
0.0860896948442899
0.0782149914067708
0.0730443509101212
0.0695484406096567
2.19480015470226
0.396284586562153
0.177832569786604
0.120708195486175
0.0971558431469867
0.0847719441711425
0.0772507726510673
0.0723108973831458
0.0689573703510953
0.0666416505974689
2.19480992350875
0.391616161713724
0.174244940630829
0.118221930073873
0.0953074454598642
0.0833467039125843
0.0761482034231957
0.0714438599907827
0.068248050646206
0.0660461061092718
0.0645139626855332
2.19512596666166
0.38679516627066
0.170364422763372
0.115566952521193
0.0933707275055542
0.0818482566433077
0.0749554638951857
0.0704766491457182
0.0674409855390925
0.0653542749670539
0.0639182747868522
0.062927306038647
2.19485291589123
0.381921458132674
0.166248852691622
0.112766005722174
0.0913550742031731
0.0802998719077162
0.0737136558057201
0.0694522099787879
0.0665719617927859
0.0645956790698689
0.0632468847571216
0.0623380361341851
0.0617303092428289
2.19192765331609
0.377093841897133
0.161985406416079
0.109883808732539
0.0892991720499217
0.0787325333821996
0.0724574839408638
0.0684093863991585
0.0656798132144889
0.0638088079301753
0.0625364507327104
0.061694164411463
0.061154823519654
0.0608196676753652
2.46684050039522
2.38167850858917
0.461991829398637
2.28699462096519
0.44786127839605
0.205448516094816
2.21610814042867
0.431558120687261
0.201593505204949
0.134656029084513
2.18721799056135
0.418793035424541
0.196507021009207
0.133115665175945
0.104910893325738
2.18619273279667
0.411662177773265
0.191764718015151
0.130898282190619
0.104055971025087
0.0893513618413572
2.19193103762335
0.408140020731352
0.188061334615102
0.128470716838935
0.102802126535456
0.0887275520662063
0.080109630321698
2.1948509122686
0.405313266254458
0.185063869380051
0.126133585940496
0.101287234529764
0.0878427715961532
0.0795544897784777
0.0741508393577211
2.19511801965706
0.401768290827482
0.18213091100996
0.123884991082377
0.0996409627767476
0.0867337445138608
0.0788108641837855
0.0736053547752998
0.0700834285715134
2.19479808419679
0.397452767185575
0.178897983878536
0.121584108898173
0.0979168671983042
0.0854611152926181
0.0778898931024032
0.0729126377925567
0.0695303532331503
0.0671921349598992
2.19480540488336
0.392717264396131
0.175312015202597
0.119131992795342
0.0961113370990417
0.0840796325247672
0.0768291888626047
0.0720845976420959
0.0688569496013873
0.0666295631615709
0.0650767624433289
2.19513163075226
0.387794917133118
0.171427718150992
0.116505261430731
0.0942153459115568
0.0826243298787496
0.0756775371335373
0.0711547587581427
0.0680832620925965
0.065967564112925
0.0645079617859564
0.0634972961980126
2.19485255486382
0.382805246699061
0.167305834553647
0.113733717648349
0.0922428841514689
0.0811217927805388
0.0744784173889756
0.0701675767641327
0.0672455512161778
0.0652349332114024
0.0638586320140327
0.0629276662072363
0.0623012662458107
2.19193032253663
0.377765174898995
0.163003181123234
0.110873886249195
0.0902350598409021
0.079606068973271
0.0732697459579411
0.0691651883619489
0.0663856271149905
0.0644720483656355
0.0631651072029057
0.0622963199106789
0.0617375397594491
0.0613868549440393
2.18619316583205
0.372778570301036
0.158646609914616
0.108039550042681
0.0882723921831245
0.0781347812500894
0.0720971648629671
0.0681880669726612
0.0655417999778612
0.0637181862173693
0.0624703084332311
0.0616452056718349
0.0611317544323739
0.0608362346110195
0.0606810925864033
2.46684034403216
2.38167837977611
0.462493801317537
2.28699455104593
0.448456969317856
0.205947747750674
2.21610812019581
0.432246596653701
0.202177671000527
0.135110846891965
2.18721795804653
0.4195710527554
0.197171564050349
0.133640228651705
0.105350615538807
2.18619237837851
0.412528545755037
0.192507700676638
0.131488991723397
0.104554943774846
0.089794545701177
2.19192892420189
0.409092386220916
0.188882633984158
0.129124812227826
0.103357469787631
0.0892229740810208
0.0805663680982894
2.19485649617563
0.406344487358732
0.185961925356923
0.126848612744437
0.101896301868517
0.0883883625733241
0.0800585092641699
0.0746262219666104
2.19512317259869
0.402863218711335
0.183098527678271
0.124657275182368
0.10030129307901
0.0873275564232903
0.0793606595518694
0.0741239572606496
0.0705792506033021
2.1947923848653
0.398579483425076
0.179916782078614
0.12240695102574
0.0986257828522549
0.0861014847809349
0.0784840273698237
0.0734731079417198
0.070065475709468
0.0677078232787642
2.19480323613488
0.393801183400614
0.176349279913499
0.119995749879856
0.0968659561972156
0.0847653031165569
0.0774665443449177
0.0726856073590655
0.06942978609452
0.0671802768465529
0.0656098283802481
2.19512717403219
0.388786647852617
0.172461862351386
0.117402923733703
0.0950134570201619
0.0833546591318704
0.0763575242159744
0.071795209700422
0.0686920916167853
0.0665510570728946
0.0650710116374674
0.0640435366720977
2.19485558276338
0.383665162580522
0.168326635670535
0.114658083586566
0.0930826509288902
0.0818969250146825
0.075201272803756
0.0708469253950041
0.0678887226467719
0.0658484718776074
0.064448218721229
0.0634977414141193
0.0628549719423454
2.19193053319912
0.378468296389897
0.164011928308444
0.111828279410004
0.0911204721706457
0.0804299062622374
0.0740384447818856
0.0698848346204859
0.0670627446123872
0.0651132504811792
0.0637769875969354
0.0628849845638064
0.0623077608559401
0.0619415433056313
2.18619326213848
0.373213300092928
0.159603311906412
0.109016880593462
0.0892102781337049
0.0790150534059733
0.0729180737982116
0.0689527527139932
0.0662556704867305
0.0643875434675109
0.0631020838404998
0.0622468864941632
0.0617109715454847
0.0613996282167767
0.0612321520246033
2.1872225768608
0.368604869397239
0.155375401089183
0.106438700076977
0.0875040330369144
0.0777561911597931
0.0719131356397103
0.0681049718248551
0.065510491291005
0.0637092652310935
0.0624638416554225
0.0616300851731788
0.0611107214914282
0.0608264310864699
0.0607025367975054
0.0606736621773009
2.46684022555632
2.38167825929687
0.462892044711296
2.28699443818413
0.448947117732013
0.206356882957069
2.21610802160031
0.432823721490525
0.202669781616662
0.135492526377522
2.18721794616756
0.420238859372737
0.197743205710908
0.13409113188529
0.105729059334808
2.18619237164844
0.413285827470526
0.193157710965093
0.132006315810097
0.104992784458517
0.0901843235897972
2.19192635636024
0.409935690369398
0.189611492591538
0.129706688716473
0.103852498243855
0.0896653569271759
0.0809751220040634
2.19485263827251
0.407267083354369
0.186769325676386
0.127493562843215
0.102446457959404
0.0888816920394085
0.0805149743533319
0.0750577614761832
2.19512727738939
0.403855219874628
0.183981070063567
0.125362977103559
0.100904620772752
0.0878701792760922
0.0798636159314395
0.0745993288288282
0.0710349267553773
2.19479722313122
0.399620209892219
0.180864984830237
0.12316919369021
0.099280178233131
0.0866919593085407
0.0790322652712616
0.0739912503404088
0.0705614417980606
0.0681871547627922
2.19479727009853
0.394848609995347
0.177341700114239
0.120807224314037
0.0975689411888507
0.085402495519591
0.0780591354889292
0.0732454951022881
0.0699648476519382
0.0676962213725418
0.0661108116286809
2.19512508842636
0.389767844960385
0.173466848788114
0.118254325071541
0.0957625506624236
0.0840379115629714
0.0769940276109306
0.0723961022628308
0.069265063639203
0.0671019860974059
0.0656044139970056
0.0645627524482845
2.1948532106827
0.384522830713406
0.169322599333907
0.115543222046921
0.0938763998569972
0.0826263552715763
0.0758819441128414
0.0714885812130623
0.0684986159614493
0.0664326077452502
0.0650116165599287
0.0640443328119336
0.0633876399490999
2.19192744641621
0.379169558487625
0.164987480224709
0.112740066726631
0.0919578765747419
0.0812066780422736
0.0747646244210191
0.0705678831669429
0.0677091015624109
0.065728875341568
0.0643674636453919
0.0634552475969972
0.0628616415429577
0.0624816759884985
2.18619471361911
0.373714663296129
0.160560402544226
0.10996047363815
0.090096930513642
0.0798445663946346
0.0736941116614054
0.0696800824994441
0.0669396830809246
0.065034026284506
0.063716994823042
0.0628362769289022
0.0622804994197676
0.0619536681222621
0.0617732385671707
2.18721940471083
0.368773556878892
0.15626557353648
0.107406881713446
0.0884477205804464
0.0786484954829573
0.0727475625789064
0.0688831118193688
0.0662367313653041
0.0643891182402236
0.063103360880551
0.0622358876729575
0.0616900108483976
0.0613865688458604
0.0612498682983941
0.0612113382126286
2.2161134346418
0.367234567238193
0.152923824930152
0.105542481631456
0.0873017414979871
0.077805389036754
0.0720477551345325
0.0682608664664952
0.0656598410394059
0.0638385008277257
0.0625644248358065
0.0616955807748142
0.0611398276669732
0.0608298952247069
0.0607043932616377
0.0606993975916029
0.0607563928645461
2.46684015387546
2.38167818723332
0.463185485545092
2.28699435520286
0.449331905801545
0.206676976798292
2.21610791189308
0.433296624822777
0.203072566149995
0.135802191101233
2.18721777354698
0.420796626132986
0.198223500646889
0.134469135629276
0.106046708963669
2.18619245982691
0.413932702891998
0.193715894928199
0.132450478331418
0.105369488139783
0.0905207761407388
2.19192844307735
0.410670861290146
0.190248732434398
0.13021596291266
0.104286688264517
0.0900544004827541
0.0813357575169953
2.19485008024361
0.408082950165487
0.187485940811237
0.128067259679878
0.102936750144164
0.0893221565304616
0.0809234819040839
0.0754451121911807
2.19512818885931
0.404741575094038
0.184774853768914
0.125999667307931
0.101449624836871
0.0883608216471402
0.0803191226191957
0.0750308663499836
0.0714497765768201
2.19479932936694
0.400562744776127
0.181730670305129
0.12386600807565
0.0998782149088159
0.0872316061783712
0.0795338405182902
0.07446622530861
0.0710172612168324
0.068628962514362
2.19480176472533
0.395820542338952
0.178267465537634
0.121559357049969
0.0982180236387532
0.0859901573099171
0.0786060395673251
0.0737631626032539
0.0704607967016748
0.0681758093489845
0.0665778754881753
2.19511913237263
0.390712499760454
0.174427852435461
0.119054045084574
0.0964604139866674
0.0846729313818399
0.077585916859062
0.0729559782380241
0.0698003488217016
0.0676182072039854
0.0661057517869476
0.0650522546882116
2.19485171209349
0.385378274723197
0.170290682928774
0.116382321657249
0.0946212479337697
0.083308733427612
0.0765190858395769
0.072090648135807
0.0690727082628821
0.0669843263873647
0.0655455218014697
0.0645639778707766
0.0638956300364616
2.19192862319553
0.379864884624649
0.165938624131101
0.113613548174977
0.0927493640254881
0.0819375100575615
0.0754482120682453
0.0712128380097862
0.0683219408513284
0.0663151407947053
0.0649320788616068
0.064002449432571
0.0633947480237358
0.0630030751628692
2.18619094240793
0.374235290763644
0.161490213306369
0.110862313738161
0.0909355018601906
0.0806264434653314
0.0744268065182159
0.0703698255710773
0.0675920804015205
0.0656544026699527
0.0643105239294649
0.0634079582134672
0.062834810732372
0.0624940524613107
0.0623019811516679
2.18721884687694
0.36904695439745
0.157171097800408
0.10834423325985
0.0893407262859933
0.0794886698838263
0.0735354491060103
0.0696221383363252
0.0669314807039325
0.0650446444637743
0.063724995133253
0.0628292030410931
0.062260754270077
0.0619401373071091
0.0617903740324896
0.061741032750257
2.21610968677025
0.367109173541602
0.153740874360118
0.106507513685866
0.0882594853940035
0.0787164234494385
0.072902020623903
0.0690580222370143
0.0664035027426036
0.0645336046646837
0.0632164598999365
0.0623104710208499
0.0617240601900959
0.0613905438144354
0.0612486533443109
0.0612333874175258
0.0612829845930417
2.2869972684867
0.376856139154796
0.154088823768082
0.106522834584926
0.0882981664008812
0.0786587847678727
0.0727395216343008
0.0688140996226755
0.0660995243050289
0.0641842924387219
0.0628301738984449
0.0618897525237181
0.0612672666321116
0.0608973717524846
0.0607291899777594
0.060711385821307
0.060785870620643
0.0608977828356909
2.38167816861927
0.463375631737472
2.28699432764512
0.449607031076724
0.20690764323222
2.2161078606209
0.433662342549302
0.203385406097795
0.136040721741905
2.18721759841153
0.421251470965328
0.198615467218441
0.134775366675482
0.106304348954623
2.18619214144988
0.41447335010303
0.194184102934235
0.132822267568723
0.10568553104387
0.090804354302679
2.19193069383333
0.411297569810996
0.190795496045065
0.130652881959333
0.104660047482234
0.0903901856772327
0.0816484577657179
2.19485224688886
0.408792484792257
0.18811250573509
0.128569376863007
0.103366706762063
0.0897094657739929
0.0812839007411877
0.0757882229897043
2.19512591424171
0.405523046753714
0.185479726870574
0.126566313211892
0.101935430804493
0.0887989107805028
0.0807267839259062
0.0754182271738047
0.0718234501665679
2.19480698275924
0.401404505317427
0.182509868299369
0.124495086431346
0.100418675192451
0.0877196816738897
0.0799881557573365
0.0748974316562483
0.0714322554196402
0.0690324675012007
2.19480358136484
0.39670302630425
0.179114063291997
0.122247432980677
0.0988114728227863
0.0865274114223952
0.0791065068232309
0.0742377666308454
0.0709166315373203
0.0686178648753352
0.0670096684851608
2.1951233616461
0.391602295951199
0.175327386979074
0.119795908436364
0.097105008178327
0.0852587631762188
0.0781323030495819
0.0734737285587131
0.0702965688950862
0.0680980903758416
0.066573161324033
0.0655099595572607
2.19484823000087
0.386194316208267
0.171214127884676
0.11717016322133
0.0953151646361696
0.0839430265198069
0.0771116484912063
0.0726516889514836
0.0696091176861846
0.0675013717637548
0.0660474004196192
0.0650539184760219
0.0643759671297815
2.1919282280851
0.380568165025851
0.166864751053209
0.114441306923653
0.0934919594422956
0.082621152515778
0.0760880271173147
0.0718179372251745
0.0688987886590888
0.0668689455644799
0.0654672949784813
0.0645228365567926
0.0639032467928217
0.0635018104871718
2.18619182441514
0.374739111806862
0.162389406514312
0.111726384770723
0.0917280680944866
0.0813618864125003
0.0751162367390337
0.0710207469366044
0.068210324334002
0.0662450178265418
0.0648781351666178
0.0639568533425518
0.0633687494216467
0.0630159636338143
0.0628139202346831
2.18721766922195
0.369367304598842
0.158057365647909
0.10924124470694
0.0901857524346611
0.0802804461951069
0.0742788534709676
0.0703222814814543
0.067593313375325
0.0656729777796843
0.0643245635492137
0.0634047372064198
0.0628169241921304
0.0624811542481175
0.062319431033674
0.0622601631827784
2.21610871984906
0.367128342684882
0.154598196975068
0.10744777964447
0.0891668914759641
0.0795741567073261
0.0737076936487775
0.0698138471712257
0.0671135025887059
0.0652024016432171
0.0638489242198955
0.0629117086623059
0.0622994687065198
0.0619457284350716
0.061788863510409
0.0617625503844814
0.061803134379328
2.28698419106163
0.376543175796874
0.154818038587936
0.107493280319895
0.0892810650827434
0.0795986532554284
0.073622067301828
0.0696373869482352
0.0668667393851335
0.0649001363303939
0.063499866471201
0.0625188384011644
0.0618616942205363
0.0614636294728381
0.0612743052198227
0.0612424380930161
0.0613087972731899
0.0614152713896934
2.38167969099607
0.431305566999226
0.170660018363629
0.112923296341816
0.0919478634538998
0.0810544820451029
0.0744098577707755
0.0700244013364054
0.0669993677124966
0.0648626642750098
0.0633427068128091
0.0622720458408941
0.0615417403799755
0.0610782331761048
0.0608298750710571
0.0607546365319264
0.0608066019521338
0.0609305237291429
0.0610731422007981
2.28699435779735
0.449769623774126
0.20704836073622
2.21610786296679
0.433916470725138
0.203607878236449
0.136208634065285
2.18721763936476
0.421599502041192
0.198917140011547
0.135010560477316
0.106502799893937
2.18619183029496
0.414912964947273
0.194564830567545
0.133122768875971
0.105941692055393
0.0910357495548414
2.19192815865758
0.411822589978887
0.191254624190844
0.131018250944055
0.104973054361528
0.0906731533684462
0.0819136931899153
2.19485451046682
0.409398906512796
0.188650610433679
0.129000209220522
0.103736363426506
0.0900437073691771
0.0815964112804829
0.0760873443558285
2.19512590061767
0.40620396398253
0.186096581668051
0.127062631304354
0.102361624486804
0.0891841847949317
0.0810864766736601
0.0757613588354413
0.0721559153135275
2.19480490985426
0.402147327059884
0.183202332784492
0.125055502346883
0.100900781935219
0.0881556620532744
0.0803948361815613
0.0752845346925017
0.0718060705122599
0.0693972670776708
2.1948049626262
0.397493103708987
0.179877043043488
0.122869223754318
0.0993481990583386
0.0870135942304305
0.0795599773982244
0.0746687172113077
0.0713316783183557
0.0690216061604748
0.0674052998771184
2.1951248445159
0.392412409118371
0.176152262401031
0.120475336911016
0.0976947513619202
0.0857946235054527
0.0786324872756699
0.0739485263583949
0.0707527177601863
0.0685404489095067
0.0670052823989844
0.0659343436939407
2.19485011945575
0.386979978381606
0.172083070178639
0.117901844098923
0.0959564485894492
0.0845284251652383
0.0776588281251705
0.0731706318044728
0.0701064573172425
0.067982074661239
0.0665153459034887
0.0655120430277745
0.0648263530195189
2.19192921889522
0.381236566150784
0.167744506142856
0.115217849452316
0.0941838033555289
0.0832567412854329
0.0766831637978857
0.0723818457681946
0.0694377999801521
0.0673879904424084
0.0659704706188736
0.0650135345671822
0.0643840927423597
0.0639746744226185
2.18619271536672
0.375256273621134
0.163269183402019
0.112545240044103
0.0924716716220595
0.0820498376950971
0.0757614513565682
0.0716313074717326
0.0687921080205535
0.0668028396380102
0.0654162154627875
0.0644789800672965
0.063878190900084
0.0635152741916708
0.0633049051899917
2.18721426789469
0.369671661789533
0.158902078363304
0.110100523972523
0.0909846825399057
0.0810251146005373
0.0749780595963612
0.0709825770763531
0.068219995389113
0.0662707153477698
0.0648976753094525
0.0639573445418794
0.063352953355927
0.063004082618113
0.0628319420215819
0.0627640784236377
2.21610684513456
0.367232770736885
0.155447930413532
0.108349607376677
0.0900266857574528
0.0803827063591075
0.0744674805149491
0.0705291539828952
0.0677889037136014
0.0658424333512942
0.064458039429884
0.0634943516521722
0.0628601561077132
0.0624889681906249
0.0623187168811064
0.0622820441728283
0.0623141087951287
2.28700717368183
0.37635479739321
0.155623619853524
0.108452316613277
0.0902158333599217
0.080484078026791
0.0744536594445854
0.0704166725939198
0.0675975944440647
0.0655871322187643
0.0641477229781736
0.0631323981273693
0.0624460205844685
0.062024086695313
0.0618164530943384
0.0617714392618837
0.0618284466024839
0.0619274495784587
2.38166628498341
0.431027308770811
0.171284189926996
0.11390912321145
0.0929720743632105
0.0820378189668517
0.0753322358927215
0.0708832850839191
0.0677978910817624
0.0656058585342737
0.0640359318632003
0.0629208028273675
0.0621517551172461
0.0616555896569516
0.0613811306588868
0.0612868071244303
0.0613266805307037
0.0614443450928381
0.0615834538021826
3.68516441843931
0.769050543958108
0.258930171372687
0.137934013124319
0.102199897849416
0.0866081927613388
0.0778616863928851
0.072342406147765
0.0686340622026297
0.0660517215569177
0.0642226799067871
0.0629265032683591
0.0620237600096468
0.0614217088615455
0.0610567778018693
0.0608839576652125
0.0608657327806944
0.0609587887228678
0.0611087915465338
0.0612620770396434
2.21610790843142
0.434055478588035
0.203739492901366
0.136305523477525
2.18721771688427
0.421837276144516
0.199128425877542
0.135175332363842
0.106642724760495
2.18619206547132
0.41524715724663
0.194856103279457
0.133352559249689
0.106138776599108
0.0912157880600916
2.19192566944164
0.412249227900015
0.191627350455168
0.131313097268511
0.105226477758866
0.0909040050217285
0.0821321960810626
2.19485167505948
0.409907477007835
0.189103448043666
0.129360665037143
0.104046212680016
0.0903253246638856
0.0818614910203662
0.0763430142731033
2.19512581305032
0.406786673287315
0.186627389812313
0.127489028324648
0.102728284107701
0.0895167499340979
0.0813983884362955
0.0760605113994305
0.0724474794141356
2.19480438151785
0.402794187821806
0.183809502807216
0.125547123526404
0.101324201719403
0.0885393306139938
0.0807537792211533
0.0756274904096758
0.0721386794558231
0.0697233506327229
2.19480280664187
0.398189673958485
0.180556188254637
0.123423959895019
0.0998275561057319
0.0874482557827933
0.0799661125734703