/*--------------------------------*- C++ -*----------------------------------*\
  =========                 |
  \\      /  F ield         | OpenFOAM: The Open Source CFD Toolbox
   \\    /   O peration     | Website:  https://openfoam.org
    \\  /    A nd           | Version:  12
     \\/     M anipulation  |
\*---------------------------------------------------------------------------*/
/*   Windows 32 and 64 bit porting by blueCAPE: http://www.bluecape.com.pt   *\
|  Based on Windows porting (2.0.x v4) by Symscape: http://www.symscape.com   |
\*---------------------------------------------------------------------------*/
FoamFile
{
    format      ascii;
    class       volScalarField;
    location    "800";
    object      p;
}
// * * * * * * * * * * * * * * * * * * * * * * * * * * * * * * * * * * * * * //

dimensions      [0 2 -2 0 0 0 0];

internalField   nonuniform List<scalar> 
10116
(
83333.3295695669
83333.3295684538
83333.3295695845
83333.3295696095
83333.3295672804
83333.3295684703
83333.3295684944
83333.3295696161
83333.3295696271
83333.3295697158
83333.3295660391
83333.3295672962
83333.3295673165
83333.3295685023
83333.329568511
83333.329568593
83333.3295696659
83333.3295696586
83333.3295697368
83333.3295699689
83333.3295647272
83333.3295660557
83333.3295660677
83333.3295673291
83333.329567333
83333.3295674031
83333.3295685538
83333.3295685429
83333.3295686133
83333.3295688416
83333.3295697362
83333.3295697088
83333.329569771
83333.3295699925
83333.32957039
83333.3295633442
83333.3295647445
83333.3295647498
83333.3295660901
83333.3295660849
83333.3295661423
83333.3295673827
83333.329567366
83333.3295674236
83333.3295676429
83333.3295686272
83333.3295685948
83333.3295686476
83333.3295688644
83333.3295692699
83333.3295698281
83333.3295697795
83333.3295698224
83333.3295700313
83333.3295704129
83333.3295709842
83333.3295618858
83333.329563362
83333.3295633606
83333.3295647803
83333.3295647672
83333.3295648124
83333.3295661464
83333.3295661192
83333.3295661632
83333.329566373
83333.3295674594
83333.3295674201
83333.3295674587
83333.3295676668
83333.3295680789
83333.3295687235
83333.3295686687
83333.3295687008
83333.329568904
83333.3295692923
83333.3295698856
83333.3295699413
83333.3295698715
83333.3295698927
83333.3295700843
83333.3295704556
83333.3295710038
83333.3295717403
83333.3295603474
83333.329561904
83333.3295618956
83333.3295633991
83333.3295633783
83333.3295634105
83333.329564839
83333.3295648027
83333.3295648336
83333.3295650355
83333.3295662271
83333.3295661758
83333.3295661992
83333.3295663985
83333.3295668197
83333.3295675605
83333.3295674975
83333.3295675138
83333.3295677075
83333.3295681021
83333.3295687188
83333.3295688423
83333.3295687654
83333.3295687745
83333.329568959
83333.3295693363
83333.3295699044
83333.3295706766
83333.3295700741
83333.3295699842
83333.3295699831
83333.3295701542
83333.32957051
83333.3295710437
83333.329571755
83333.3295726419
83333.3295587246
83333.3295603661
83333.3295603506
83333.3295619426
83333.3295619135
83333.3295619318
83333.3295634603
83333.329563415
83333.3295634322
83333.3295636263
83333.3295649234
83333.3295648617
83333.3295648704
83333.329565062
83333.3295654954
83333.3295663334
83333.329566257
83333.3295662559
83333.3295664401
83333.329566844
83333.3295674879
83333.3295676854
83333.3295675989
83333.3295675905
83333.3295677649
83333.3295681478
83333.3295687385
83333.3295695494
83333.329568982
83333.329568884
83333.32956887
83333.3295690322
83333.329569393
83333.329569946
83333.3295706905
83333.3295716256
83333.3295702244
83333.3295701165
83333.3295700938
83333.329570243
83333.3295705797
83333.3295710972
83333.3295717909
83333.3295726533
83333.3295736724
83333.3295570123
83333.3295587436
83333.3295587206
83333.3295604061
83333.3295603686
83333.3295603723
83333.3295620063
83333.3295619513
83333.329561954
83333.3295621409
83333.3295635485
83333.3295634763
83333.32956347
83333.3295636539
83333.3295641013
83333.3295650347
83333.3295649465
83333.329564929
83333.3295651048
83333.3295655205
83333.3295661962
83333.3295664644
83333.3295663634
83333.3295663355
83333.3295664995
83333.3295668913
83333.3295675088
83333.3295683635
83333.3295678319
83333.3295677237
83333.3295676908
83333.3295678415
83333.329568207
83333.3295687822
83333.3295695641
83333.3295705514
83333.32956914
83333.3295690233
83333.3295689871
83333.3295691262
83333.3295694664
83333.3295700018
83333.3295707281
83333.3295716363
83333.329572714
83333.3295703898
83333.3295702665
83333.3295702243
83333.329570352
83333.3295706683
83333.3295711659
83333.3295718404
83333.3295726838
83333.3295736826
83333.3295748173
83333.3295552051
83333.3295570317
83333.3295570007
83333.3295587852
83333.3295587385
83333.3295587269
83333.3295604726
83333.3295604072
83333.3295603945
83333.3295605749
83333.3295620986
83333.3295620149
83333.3295619929
83333.3295621693
83333.329562633
83333.3295636649
83333.3295635648
83333.3295635317
83333.3295636982
83333.3295641272
83333.3295648386
83333.3295651719
83333.329565058
83333.3295650128
83333.3295651665
83333.3295655695
83333.3295662176
83333.3295671222
83333.329566618
83333.3295664945
83333.3295664403
83333.3295665794
83333.3295669528
83333.3295675547
83333.3295683791
83333.329569425
83333.3295679977
83333.3295678701
83333.3295678142
83333.3295679402
83333.329568284
83333.3295688407
83333.3295696038
83333.3295705628
83333.3295717044
83333.3295693137
83333.3295691811
83333.3295691248
83333.3295692417
83333.3295695603
83333.3295700744
83333.3295707799
83333.329571668
83333.3295727239
83333.3295739264
83333.3295705677
83333.3295704321
83333.3295703728
83333.3295704811
83333.3295707776
83333.3295712543
83333.3295719069
83333.3295727287
83333.3295737074
83333.3295748259
83333.3295760619
83333.3295532971
83333.3295552248
83333.3295551853
83333.3295570748
83333.3295570183
83333.3295569903
83333.3295588545
83333.3295587779
83333.3295587489
83333.3295589229
83333.3295605691
83333.3295604728
83333.3295604344
83333.3295606037
83333.3295610862
83333.3295622203
83333.329562107
83333.3295620577
83333.3295622152
83333.3295626596
83333.329563411
83333.3295638084
83333.3295636814
83333.3295636198
83333.3295637627
83333.3295641783
83333.3295648605
83333.3295658209
83333.3295653327
83333.3295651953
83333.3295651228
83333.3295652501
83333.3295656337
83333.3295662657
83333.3295671381
83333.3295682497
83333.3295667916
83333.3295666483
83333.3295665701
83333.3295666828
83333.3295670333
83333.3295676158
83333.329568421
83333.3295694372
83333.3295706499
83333.3295681798
83333.3295680359
83333.3295679596
83333.3295680622
83333.329568383
83333.3295689169
83333.3295696581
83333.3295705963
83333.329571715
83333.3295729914
83333.3295695002
83333.3295693551
83333.3295692816
83333.3295693784
83333.3295696765
83333.3295701683
83333.3295708504
83333.3295717152
83333.3295727496
83333.3295739348
83333.3295752464
83333.3295707549
83333.3295706106
83333.3295705376
83333.329570629
83333.3295709079
83333.3295713646
83333.3295719947
83333.3295727924
83333.329573748
83333.3295748464
83333.3295760687
83333.3295773916
83333.3295512813
83333.3295533172
83333.3295532687
83333.3295552695
83333.3295552027
83333.3295551571
83333.3295571469
83333.3295570585
83333.3295570121
83333.32955718
83333.3295589552
83333.3295588458
83333.3295587894
83333.3295589521
83333.3295594562
83333.3295606964
83333.3295605688
83333.3295605011
83333.3295606509
83333.3295611133
83333.3295619097
83333.3295623704
83333.329562229
83333.3295621496
83333.3295622826
83333.3295627127
83333.3295634334
83333.329564456
83333.3295639765
83333.3295638251
83333.3295637352
83333.3295638505
83333.3295642455
83333.329564911
83333.3295658371
83333.3295670219
83333.3295655143
83333.3295653565
83333.3295652589
83333.3295653586
83333.329565718
83333.3295663296
83333.3295671821
83333.3295682621
83333.3295695543
83333.3295669822
83333.3295668223
83333.3295667233
83333.3295668112
83333.3295671371
83333.3295676957
83333.3295684779
83333.3295694723
83333.3295706612
83333.3295720196
83333.3295683751
83333.3295682186
83333.3295681252
83333.3295682068
83333.3295685059
83333.3295690161
83333.3295697323
83333.3295706458
83333.329571742
83333.3295730004
83333.3295743944
83333.3295696962
83333.3295695424
83333.3295694554
83333.3295695353
83333.3295698152
83333.3295702858
83333.3295709437
83333.3295717828
83333.3295727923
83333.329573956
83333.329575253
83333.3295766582
83333.3295709473
83333.3295707988
83333.3295707165
83333.3295707944
83333.3295710586
83333.3295714972
83333.3295721054
83333.3295728786
83333.3295738085
83333.3295748832
83333.3295760861
83333.329577397
83333.3295787933
83333.3295491499
83333.3295513018
83333.3295512444
83333.3295533635
83333.3295532857
83333.3295532215
83333.3295553446
83333.3295552437
83333.3295551786
83333.3295553409
83333.329557252
83333.3295571289
83333.3295570531
83333.3295572096
83333.3295577384
83333.3295590883
83333.3295589459
83333.329558858
83333.3295590004
83333.3295594838
83333.3295603307
83333.3295608533
83333.3295606963
83333.3295605968
83333.3295607209
83333.3295611682
83333.3295619324
83333.3295630244
83333.3295625461
83333.3295623794
83333.3295622705
83333.3295623745
83333.3295627829
83333.3295634861
83333.3295644723
83333.3295657387
83333.3295641662
83333.3295639938
83333.329563878
83333.3295639646
83333.3295643338
83333.3295649778
83333.329565883
83333.3295670343
83333.3295684148
83333.3295657134
83333.3295655388
83333.3295654198
83333.3295654937
83333.3295658271
83333.3295664134
83333.3295672416
83333.3295682989
83333.3295695658
83333.3295710154
83333.3295671863
83333.3295670138
83333.3295668978
83333.3295669641
83333.3295672668
83333.3295678001
83333.3295685558
83333.3295695242
83333.3295706894
83333.3295720291
83333.3295735144
83333.3295685801
83333.3295684151
83333.3295683087
83333.329568373
83333.329568653
83333.3295691407
83333.329569831
83333.329570717
83333.3295717868
83333.3295730226
83333.3295744014
83333.3295758961
83333.3295698976
83333.3295697398
83333.329569644
83333.3295697108
83333.3295699756
83333.3295704272
83333.3295710618
83333.3295718745
83333.3295728564
83333.3295739946
83333.329575271
83333.3295766635
83333.3295781473
83333.3295711397
83333.3295709932
83333.329570907
83333.3295709756
83333.3295712285
83333.3295716514
83333.3295722393
83333.3295729882
83333.3295738918
83333.3295749399
83333.3295761191
83333.3295774119
83333.3295787977
83333.3295802545
83333.3295468937
83333.3295491708
83333.3295491048
83333.3295513499
83333.3295512608
83333.3295511775
83333.3295534417
83333.3295533277
83333.3295532429
83333.3295534005
83333.3295554545
83333.3295553167
83333.3295552202
83333.3295553709
83333.3295559282
83333.3295573913
83333.3295572332
83333.3295571239
83333.329557259
83333.3295577665
83333.32955867
83333.3295592525
83333.3295590791
83333.3295589577
83333.3295590729
83333.3295595406
83333.3295603536
83333.3295615229
83333.329561037
83333.3295608537
83333.3295607234
83333.3295608168
83333.3295612414
83333.3295619873
83333.3295630407
83333.3295643978
83333.3295627442
83333.3295625559
83333.3295624202
83333.3295624943
83333.3295628753
83333.329563556
83333.3295645201
83333.3295657509
83333.3295672295
83333.329564374
83333.3295641846
83333.3295640467
83333.3295641067
83333.3295644484
83333.3295650657
83333.3295659453
83333.3295670727
83333.3295684263
83333.3295699771
83333.3295659265
83333.3295657391
83333.329565603
83333.3295656548
83333.3295659636
83333.3295665233
83333.3295673232
83333.329568353
83333.3295695951
83333.329571025
83333.3295726115
83333.3295674002
83333.3295672196
83333.329567091
83333.3295671398
83333.3295674225
83333.3295679317
83333.3295686597
83333.3295695988
83333.3295707362
83333.3295720522
83333.3295735218
83333.3295751153
83333.3295687903
83333.3295686219
83333.3295685075
83333.329568559
83333.3295688235
83333.3295692909
83333.3295699562
83333.3295708139
83333.3295718542
83333.329573063
83333.3295744203
83333.3295759019
83333.3295774808
83333.329570099
83333.3295699435
83333.3295698447
83333.3295699032
83333.3295701567
83333.329570592
83333.3295712049
83333.3295719915
83333.329572945
83333.3295740546
83333.3295753057
83333.3295766789
83333.3295781517
83333.3295797001
83333.3295713246
83333.3295711892
83333.329571107
83333.3295711712
83333.3295714165
83333.3295718266
83333.3295723957
83333.3295731213
83333.3295739984
83333.3295750188
83333.3295761713
83333.3295774411
83333.3295788102
83333.329580258
83333.3295817634
83333.3295445044
83333.3295469146
83333.3295468418
83333.3295492208
83333.3295491206
83333.329549018
83333.3295514316
83333.3295513039
83333.3295511988
83333.3295513528
83333.3295535566
83333.3295534035
83333.329553285
83333.3295534307
83333.3295540207
83333.3295556002
83333.3295554256
83333.3295552933
83333.3295554214
83333.3295559566
83333.3295569236
83333.329557563
83333.3295573724
83333.3295572277
83333.329557334
83333.3295578251
83333.3295586931
83333.3295599486
83333.3295594446
83333.3295592438
83333.3295590901
83333.3295591729
83333.3295596168
83333.3295604107
83333.3295615391
83333.3295629971
83333.329561244
83333.3295610384
83333.3295608804
83333.3295609423
83333.3295613381
83333.3295620602
83333.3295630903
83333.3295644096
83333.3295659974
83333.3295629611
83333.3295627554
83333.3295625971
83333.3295626436
83333.3295629957
83333.3295636479
83333.3295645851
83333.3295657907
83333.3295672409
83333.329568904
83333.3295645963
83333.3295643943
83333.3295642387
83333.3295642763
83333.3295645922
83333.3295651811
83333.3295660307
83333.329567129
83333.3295684565
83333.3295699867
83333.3295716852
83333.3295661495
83333.3295659544
83333.3295658057
83333.3295658402
83333.3295661279
83333.329566662
83333.3295674326
83333.3295684311
83333.3295696436
83333.3295710487
83333.3295726189
83333.3295743219
83333.3295676192
83333.3295674361
83333.3295673003
83333.3295673366
83333.3295676032
83333.329568091
83333.3295687922
83333.3295697008
83333.3295708067
83333.3295720941
83333.3295735412
83333.3295751214
83333.3295768054
83333.3295690003
83333.3295688351
83333.3295687191
83333.329568763
83333.3295690161
83333.3295694664
83333.3295701084
83333.3295709379
83333.3295719476
83333.3295731258
83333.3295744563
83333.3295759178
83333.3295774856
83333.3295791335
83333.3295702926
83333.3295701486
83333.3295700551
83333.3295701108
83333.3295703572
83333.3295707794
83333.3295713723
83333.3295721338
83333.3295730586
83333.3295741383
83333.3295753607
83333.3295767095
83333.3295781647
83333.3295797037
83333.3295813037
83333.3295714921
83333.3295713807
83333.3295713134
83333.3295713795
83333.3295716216
83333.3295720217
83333.329572574
83333.3295732773
83333.3295741281
83333.3295751203
83333.3295762445
83333.3295774881
83333.3295788355
83333.3295802682
83333.3295817661
83333.3295833092
83333.3295419861
83333.3295445252
83333.3295444461
83333.3295469664
83333.3295468569
83333.3295467338
83333.3295493062
83333.3295491649
83333.3295490392
83333.3295491905
83333.3295515518
83333.3295513826
83333.3295512417
83333.3295513836
83333.3295520103
83333.3295537092
83333.329553517
83333.3295533606
83333.3295534826
83333.3295540495
83333.3295550874
83333.32955578
83333.3295555712
83333.3295554013
83333.3295554991
83333.3295560172
83333.3295569468
83333.3295582984
83333.3295577641
83333.3295575448
83333.3295573661
83333.3295574381
83333.3295579043
83333.3295587523
83333.3295599645
83333.3295615349
83333.3295596611
83333.329559437
83333.3295592548
83333.3295593042
83333.3295597176
83333.3295604865
83333.3295615904
83333.3295630085
83333.3295647176
83333.3295614704
83333.3295612472
83333.329561066
83333.3295610991
83333.3295614642
83333.329562156
83333.3295631578
83333.3295644506
83333.3295660084
83333.3295677964
83333.3295631928
83333.3295629747
83333.3295627985
83333.3295628219
83333.329563147
83333.3295637689
83333.3295646742
83333.329565849
83333.3295672718
83333.3295689134
83333.3295707363
83333.3295648286
83333.3295646193
83333.3295644514
83333.3295644716
83333.3295647655
83333.3295653272
83333.3295661454
83333.3295672104
83333.3295685067
83333.3295700107
83333.3295716926
83333.3295735167
83333.3295663775
83333.3295661806
83333.3295660255
83333.3295660479
83333.329566319
83333.3295668303
83333.3295675722
83333.3295685381
83333.329569717
83333.3295710918
83333.3295726385
83333.329574328
83333.3295761281
83333.3295678374
83333.3295676587
83333.329567523
83333.3295675524
83333.3295678077
83333.3295682772
83333.3295689534
83333.3295698318
83333.3295709047
83333.3295721594
83333.3295735782
83333.3295751376
83333.3295768105
83333.3295785682
83333.3295692024
83333.3295690495
83333.3295689407
83333.3295689832
83333.3295692297
83333.3295696661
83333.3295702868
83333.3295710892
83333.3295720679
83333.3295732138
83333.3295745135
83333.3295759493
83333.3295774989
83333.3295791375
83333.3295808401
83333.3295704679
83333.329570349
83333.3295702723
83333.329570332
83333.3295705763
83333.3295709882
83333.3295715633
83333.3295723007
83333.3295731971
83333.3295742462
83333.3295754379
83333.3295767586
83333.3295781909
83333.3295797142
83333.3295813065
83333.329582946
83333.3295716308
83333.3295715589
83333.3295715224
83333.3295715992
83333.3295718426
83333.3295722354
83333.3295727728
83333.3295734549
83333.3295742801
83333.3295752438
83333.3295763388
83333.3295775543
83333.3295788766
83333.3295802893
83333.3295817739
83333.3295833109
83333.3295848819
83333.3295393416
83333.3295420097
83333.3295419199
83333.3295445788
83333.3295444607
83333.3295443119
83333.3295470556
83333.3295469023
83333.3295467552
83333.3295469036
83333.3295494321
83333.3295492468
83333.3295490834
83333.3295492223
83333.3295498899
83333.3295517117
83333.3295515012
83333.3295513201
83333.329551437
83333.3295520397
83333.3295531564
83333.3295538976
83333.3295536696
83333.3295534733
83333.3295535632
83333.329554112
83333.3295551107
83333.329556569
83333.3295559904
83333.3295557517
83333.3295555463
83333.3295556075
83333.3295560995
83333.3295570082
83333.3295583139
83333.3295600092
83333.3295579905
83333.3295577471
83333.3295575388
83333.3295575755
83333.3295580093
83333.3295588311
83333.3295600175
83333.3295615457
83333.3295633896
83333.3295598977
83333.3295596555
83333.3295594497
83333.3295594687
83333.3295598496
83333.3295605863
83333.3295616604
83333.3295630504
83333.329564728
83333.3295666549
83333.329561712
83333.3295614765
83333.3295612776
83333.3295612866
83333.3295616232
83333.3295622827
83333.3295632504
83333.3295645107
83333.3295660397
83333.3295678053
83333.3295697665
83333.3295634348
83333.3295632099
83333.3295630218
83333.3295630275
83333.3295633296
83333.3295639225
83333.3295647941
83333.3295659334
83333.3295673232
83333.3295689375
83333.3295707434
83333.329572702
83333.3295650659
83333.3295648555
83333.329564682
83333.3295646904
83333.3295649674
83333.3295655047
83333.3295662922
83333.3295673222
83333.3295685827
83333.3295700548
83333.3295717121
83333.3295735226
83333.3295754511
83333.329566604
83333.3295664131
83333.3295662594
83333.3295662757
83333.3295665356
83333.3295670275
83333.3295677425
83333.3295686758
83333.3295698193
83333.3295711593
83333.3295726762
83333.3295743441
83333.3295761331
83333.3295780119
83333.3295680473
83333.3295678826
83333.3295677564
83333.3295677857
83333.3295680349
83333.3295684896
83333.3295691429
83333.3295699919
83333.3295710312
83333.3295722511
83333.3295736372
83333.3295751695
83333.3295768237
83333.3295785723
83333.329580388
83333.329569386
83333.3295692591
83333.3295691697
83333.3295692181
83333.3295694633
83333.3295698891
83333.3295704907
83333.329571267
83333.3295722149
83333.3295733274
83333.3295745941
83333.3295759999
83333.3295775255
83333.3295791481
83333.3295808432
83333.3295825874
83333.329570613
83333.3295705355
83333.3295704928
83333.3295705655
83333.3295708125
83333.3295712174
83333.3295717766
83333.3295724911
83333.3295733596
83333.3295743777
83333.3295755376
83333.3295768279
83333.3295782334
83333.3295797359
83333.3295813145
83333.3295829479
83333.329584616
83333.3295717319
83333.3295717102
83333.3295717246
83333.3295718268
83333.3295720772
83333.3295724658
83333.3295729903
83333.3295736526
83333.3295744528
83333.3295753883
83333.3295764535
83333.3295776396
83333.3295789347
83333.329580324
83333.3295817907
83333.3295833164
83333.3295848826
83333.3295864721
83333.3295393679
83333.3295392674
83333.3295420665
83333.3295419357
83333.3295417593
83333.329544672
83333.3295445075
83333.3295443343
83333.3295444774
83333.3295471875
83333.3295469877
83333.3295468005
83333.3295469364
83333.3295476494
83333.3295495997
83333.329549371
83333.3295491651
83333.3295492776
83333.3295499203
83333.3295511242
83333.3295519091
83333.3295516611
83333.3295514379
83333.3295515208
83333.3295521046
83333.3295531799
83333.3295547567
83333.329554118
83333.3295538589
83333.3295536252
83333.3295536762
83333.3295541978
83333.3295551744
83333.3295565841
83333.3295584182
83333.3295562273
83333.3295559637
83333.3295557274
83333.3295557512
83333.3295562088
83333.3295570901
83333.3295583685
83333.3295600193
83333.3295620132
83333.329558238
83333.3295579759
83333.3295577434
83333.329557748
83333.3295581472
83333.3295589348
83333.3295600898
83333.3295615883
83333.3295633993
83333.3295654808
83333.32956015
83333.3295598954
83333.3295596718
83333.3295596658
83333.3295600162
83333.3295607185
83333.3295617562
83333.3295631121
83333.3295647596
83333.3295666631
83333.3295687782
83333.3295619642
83333.3295617223
83333.329561512
83333.3295615029
83333.3295618153
83333.3295624438
83333.3295633754
83333.3295645978
83333.329566092
83333.3295678292
83333.3295697731
83333.3295718811
83333.3295636817
83333.3295634568
83333.3295632638
83333.3295632579
83333.3295635425
83333.3295641094
83333.3295649479
83333.3295660497
83333.3295674014
83333.3295689821
83333.3295707625
83333.3295727075
83333.3295747785
83333.3295653016
83333.3295650984
83333.3295649273
83333.3295649306
83333.3295651963
83333.3295657131
83333.3295664715
83333.3295674664
83333.3295686888
83333.329570124
83333.32957175
83333.3295735383
83333.3295754559
83333.3295774687
83333.3295668217
83333.3295666466
83333.3295665044
83333.329566522
83333.3295667763
83333.3295672526
83333.329567943
83333.3295688445
83333.3295699517
83333.3295712543
83333.3295727363
83333.3295743759
83333.3295761458
83333.3295780159
83333.3295799564
83333.3295682385
83333.3295681014
83333.3295679976
83333.3295680347
83333.3295682833
83333.329568727
83333.3295693597
83333.3295701805
83333.3295711862
83333.3295723701
83333.3295737205
83333.3295752209
83333.3295768501
83333.3295785825
83333.3295803912
83333.3295822505
83333.3295695381
83333.3295694544
83333.3295694025
83333.3295694662
83333.3295697153
83333.329570134
83333.3295707186
83333.3295714702
83333.3295723876
83333.3295734665
83333.3295746986
83333.3295760715
83333.3295775686
83333.3295791695
83333.3295808511
83333.3295825895
83333.3295843631
83333.3295707193
83333.3295706946
83333.3295707071
83333.3295708081
83333.3295710636
83333.3295714646
83333.3295720102
83333.3295727033
83333.3295735446
83333.3295745318
83333.3295756592
83333.3295769175
83333.3295782935
83333.3295797711
83333.3295813313
83333.3295829534
83333.329584617
83333.3295863037
83333.3295717925
83333.3295718204
83333.3295718975
83333.3295720505
83333.3295723195
83333.3295727085
83333.329573223
83333.3295738676
83333.3295746443
83333.3295755522
83333.3295765875
83333.3295777434
83333.3295790096
83333.3295803731
83333.3295818185
83333.3295833287
83333.3295848857
83333.3295864719
83333.3295880717
83333.3295394285
83333.329539285
83333.3295390809
83333.3295421647
83333.3295419846
83333.3295417827
83333.3295419242
83333.3295448104
83333.3295445966
83333.3295443808
83333.3295445133
83333.3295452758
83333.3295473636
83333.3295471179
83333.3295468854
83333.3295469938
83333.3295476811
83333.3295489818
83333.3295498069
83333.3295495387
83333.3295492883
83333.3295493651
83333.3295499878
83333.3295511482
83333.3295528561
83333.3295521403
83333.3295518596
83333.3295515972
83333.3295516389
83333.3295521939
83333.3295532459
83333.3295547713
83333.3295567594
83333.3295543662
83333.3295540811
83333.3295538154
83333.3295538266
83333.3295543115
83333.3295552593
83333.3295566402
83333.3295584274
83333.3295605882
83333.3295564864
83333.3295562034
83333.3295559422
83333.3295559322
83333.3295563527
83333.3295571976
83333.3295584431
83333.3295600625
83333.3295620222
83333.3295642758
83333.3295585019
83333.3295582271
83333.3295579767
83333.3295579551
83333.3295583218
83333.3295590724
83333.3295601887
83333.3295616513
83333.3295634308
83333.3295654882
83333.3295677748
83333.329560413
83333.3295601526
83333.329559918
83333.3295598934
83333.3295602181
83333.329560887
83333.329561886
83333.3295632015
83333.3295648123
83333.3295666865
83333.3295687841
83333.3295710586
83333.3295622214
83333.3295619804
83333.329561766
83333.3295617456
83333.3295620395
83333.3295626401
83333.3295635361
83333.3295647181
83333.3295661717
83333.3295678736
83333.3295697913
83333.3295718861
83333.3295741156
83333.3295639269
83333.3295637106
83333.3295635213
83333.3295635112
83333.3295637842
83333.3295643291
83333.3295651363
83333.3295662001
83333.3295675108
83333.3295690521
83333.3295707999
83333.3295727223
83333.3295747829
83333.3295769443
83333.3295655275
83333.3295653423
83333.3295651843
83333.3295651905
83333.3295654509
83333.3295659513
83333.329566683
83333.3295676434
83333.3295688267
83333.3295702215
83333.3295718106
83333.3295735695
83333.3295754679
83333.3295774725
83333.3295795507
83333.32956702
83333.3295668746
83333.3295667576
83333.3295667853
83333.3295670399
83333.3295675046
83333.3295681727
83333.3295690435
83333.3295701143
83333.3295713778
83333.3295728215
83333.3295744273
83333.3295761714
83333.3295780254
83333.3295799594
83333.3295819454
83333.3295683972
83333.3295683059
83333.3295682425
83333.3295682979
83333.3295685516
83333.329568988
83333.3295696024
83333.3295703963
83333.3295713688
83333.3295725159
83333.3295738287
83333.3295752938
83333.3295768928
83333.3295786029
83333.3295803983
83333.3295822527
83333.329584142
83333.3295696502
83333.3295696217
83333.3295696293
83333.3295697246
83333.3295699837
83333.3295703985
83333.3295709685
83333.3295716969
83333.3295725846
83333.3295736297
83333.3295748262
83333.3295761643
83333.3295776296
83333.3295792043
83333.329580867
83333.3295825946
83333.3295843643
83333.3295861561
83333.3295707834
83333.3295708108
83333.3295708916
83333.3295710467
83333.3295713235
83333.3295717255
83333.3295722605
83333.3295729344
83333.3295737499
83333.3295747068
83333.3295758015
83333.3295770266
83333.3295783713
83333.3295798211
83333.3295813588
83333.3295829652
83333.32958462
83333.3295863038
83333.3295880002
83333.3295718185
83333.3295718824
83333.3295720177
83333.3295722371
83333.3295725515
83333.3295729543
83333.3295734647
83333.3295740953
83333.3295748509
83333.3295757327
83333.3295767389
83333.3295778644
83333.3295791007
83333.3295804366
83333.3295818582
83333.3295833495
83333.3295848934
83333.3295864726
83333.3295880706
83333.3295896728
83333.3295395313
83333.329539336
83333.3295391028
83333.3295392463
83333.3295423103
83333.3295420777
83333.3295418303
83333.3295419615
83333.329542785
83333.3295449957
83333.329544733
83333.3295444692
83333.3295445727
83333.3295453109
83333.3295467184
83333.3295475815
83333.3295472942
83333.3295470145
83333.3295470851
83333.3295477513
83333.3295490064
83333.3295508604
83333.3295500498
83333.3295497472
83333.3295494557
83333.3295494888
83333.3295500812
83333.3295512168
83333.3295528704
83333.3295550296
83333.3295524006
83333.3295520929
83333.3295517972
83333.3295517966
83333.3295523124
83333.3295533343
83333.329554829
83333.3295567677
83333.3295591142
83333.3295546375
83333.3295543324
83333.3295540412
83333.3295540166
83333.3295544618
83333.3295553706
83333.3295567171
83333.3295584709
83333.3295605964
83333.3295630416
83333.3295567625
83333.3295564666
83333.3295561875
83333.3295561498
83333.3295565355
83333.3295573406
83333.3295585448
83333.3295601265
83333.3295620531
83333.3295642821
83333.32956676
83333.3295587767
83333.3295584962
83333.3295582354
83333.3295581945
83333.3295585337
83333.3295592485
83333.329560323
83333.3295617424
83333.3295634834
83333.3295655106
83333.3295677797
83333.3295702399
83333.329560681
83333.3295604223
83333.3295601847
83333.3295601491
83333.3295604541
83333.329561093
83333.3295620533
83333.3295633253
83333.3295648928
83333.32956673
83333.3295688011
83333.3295710629
83333.3295734689
83333.3295624765
83333.3295622456
83333.3295620363
83333.3295620126
83333.3295622944
83333.3295628714
83333.3295637333
83333.3295648742
83333.3295662837
83333.3295679437
83333.3295698275
83333.3295718995
83333.3295741194
83333.3295764461
83333.3295641617
83333.3295639654
83333.3295637911
83333.3295637854
83333.3295640532
83333.3295645807
83333.3295653588
83333.3295663851
83333.3295676533
83333.3295691514
83333.32957086
83333.329572752
83333.3295747936
83333.3295769478
83333.3295791787
83333.3295657332
83333.3295655799
83333.3295654499
83333.3295654683
83333.32956573
83333.3295662182
83333.3295669259
83333.3295678527
83333.3295689962
83333.3295703487
83333.3295718967
83333.32957362
83333.3295754919
83333.3295774807
83333.3295795535
83333.3295816794
83333.3295671856
83333.3295670881
83333.3295670149
83333.3295670639
83333.3295673249
83333.3295677821
83333.3295684303
83333.3295692717
83333.3295703061
83333.3295715295
83333.3295729326
83333.3295745005
83333.3295762129
83333.3295780441
83333.3295799654
83333.3295819474
83333.329583964
83333.329568514
83333.3295684815
83333.3295684812
83333.329568572
83333.3295688377
83333.3295692703
83333.3295698689
83333.3295706374
83333.3295715775
83333.3295726875
83333.3295739615
83333.3295753888
83333.3295769537
83333.3295786362
83333.3295804125
83333.3295822566
83333.3295841432
83333.3295860503
83333.329569718
83333.3295697447
83333.3295698256
83333.3295699797
83333.3295702621
83333.3295706782
83333.3295712367
83333.329571944
83333.3295728035
83333.3295738154
83333.329574976
83333.3295762778
83333.329577709
83333.3295792538
83333.3295808929
83333.3295826048
83333.3295843664
83333.3295861564
83333.3295879565
83333.3295708118
83333.3295708759