/*--------------------------------*- C++ -*----------------------------------*\
  =========                 |
  \\      /  F ield         | OpenFOAM: The Open Source CFD Toolbox
   \\    /   O peration     | Website:  https://openfoam.org
    \\  /    A nd           | Version:  12
     \\/     M anipulation  |
\*---------------------------------------------------------------------------*/
/*   Windows 32 and 64 bit porting by blueCAPE: http://www.bluecape.com.pt   *\
|  Based on Windows porting (2.0.x v4) by Symscape: http://www.symscape.com   |
\*---------------------------------------------------------------------------*/
FoamFile
{
    format      ascii;
    class       surfaceScalarField;
    location    "800";
    object      phi;
}
// * * * * * * * * * * * * * * * * * * * * * * * * * * * * * * * * * * * * * //

dimensions      [0 3 -1 0 0 0 0];

internalField   nonuniform List<scalar> 
28903
(
6.54621071589422e-07
-3.26660818048303e-08
3.98908377734961e-09
6.88670428476664e-07
-3.10228221227728e-08
-3.02201536615551e-09
9.56505721617099e-07
-6.640405323347e-08
-3.06021301806447e-09
-1.46798972330073e-07
-1.71737858516247e-08
2.6013020173015e-08
7.28449789014507e-07
-3.0314664612726e-08
-9.46049895462326e-09
1.00094787279557e-06
-6.53502003026672e-08
-1.01130701300688e-08
-1.47546081994291e-07
-1.56749553872215e-08
1.33941888455231e-08
1.09539125695815e-06
-1.02569041942614e-07
-4.52263028278656e-09
-2.10834215093947e-08
-3.68377738442239e-08
1.95433550908651e-08
-4.37366416719849e-07
-7.48924171629405e-09
3.92844290122766e-08
7.74536058163634e-07
-3.08996095338101e-08
-1.5179585419642e-08
1.0527028370771e-06
-6.54781479453294e-08
-1.66051996852025e-08
-1.43256336942897e-07
-1.48369149290145e-08
1.08953714523482e-09
1.1450328979545e-06
-1.02264436412266e-07
-1.27347110183186e-08
-1.80754313133955e-08
-3.47043204547279e-08
5.90347493295455e-09
-4.40159372929546e-07
-6.80034096564482e-09
2.29878375196794e-08
1.24400846454543e-06
-1.40838688563743e-07
-6.80691926927982e-09
-1.09248496598575e-08
-5.76034229330441e-08
1.89533023838453e-08
-4.43643121606261e-07
-1.69360534733988e-08
3.46397030880506e-08
-4.80715921066026e-07
-4.92220391550258e-09
4.92101184559033e-08
8.27382871534896e-07
-3.14776981100609e-08
-2.13617098455187e-08
1.11136835561599e-06
-6.66944823310596e-08
-2.28682971614464e-08
-1.33036524241753e-07
-1.45597547430676e-08
-1.0830958519053e-08
1.20300331043881e-06
-1.03229822437345e-07
-2.02157434634631e-08
-8.6255697521749e-09
-3.32495287599716e-08
-7.64168639707846e-09
-4.39269726394353e-07
-6.35115690217179e-09
6.54802157350598e-09
1.29905206178148e-06
-1.41344697979847e-07
-1.59432351659656e-08
-6.64713184175799e-09
-5.4786881928486e-08
3.07394225810756e-09
-4.45197732805017e-07
-1.54983210805819e-08
1.61646617391191e-08
-4.82893744524165e-07
-4.44603191300461e-09
2.96129067533762e-08
1.36028235524058e-06
-1.79867944425616e-07
-9.71971192423161e-09
4.65340748433355e-09
-7.98251124714315e-08
1.75325854175047e-08
-5.07943210527217e-07
-2.73079736897911e-08
3.54729342811691e-08
-5.13937974290613e-07
-1.10798092988697e-08
4.56798157284876e-08
-4.81460492844395e-07
-3.93519442602015e-09
5.72964555189631e-08
8.87081243751409e-07
-3.19395215820416e-08
-2.77683594913756e-08
1.17754078500757e-06
-6.78986739131617e-08
-2.97344648213038e-08
-1.17007456297679e-07
-1.42743124945961e-08
-2.31172315954958e-08
1.26884235514223e-06
-1.05130655655459e-07
-2.73857274247782e-08
7.51715169814392e-09
-3.23040899677032e-08
-2.12670244706012e-08
-4.33989853437874e-07
-6.03969033197007e-09
-1.00692103987279e-08
1.36345396039805e-06
-1.43129006648078e-07
-2.44860183170271e-08
5.15128230751611e-09
-5.25364792318966e-08
-1.27440478257204e-08
-4.42158800644784e-07
-1.43373587892772e-08
-2.69075611380411e-09
-4.81850209211841e-07
-4.05004474749769e-09
9.55410478385377e-09
1.41952480532952e-06
-1.81331196376692e-07
-1.92886698405932e-08
1.04271112996799e-08
-7.61039197519482e-08
-3.91037520633759e-10
-5.09107932143449e-07
-2.49971248880904e-08
1.3737798420011e-08
-5.1531037090794e-07
-1.00399325400264e-08
2.31303766764587e-08
-4.82960580404724e-07
-3.523070388557e-09
3.46357923885089e-08
1.43027390416971e-06
-2.18452942124025e-07
-1.27334088076718e-08
2.64292880022802e-08
-1.03366296778382e-07
1.50322288759321e-08
-5.60907529244251e-07
-3.83459372419731e-08
3.49209601985407e-08
-5.91086355380215e-07
-1.80679150520015e-08
4.77380519404023e-08
-5.174247106875e-07
-8.42443774669335e-09
5.41560866067498e-08
-4.669891180293e-07
-3.17340852743177e-09
6.36957158830625e-08
9.54020763316596e-07
-3.23569870464111e-08
-3.45859481185407e-08
1.25154622590646e-06
-6.90943767742916e-08
-3.68333537149464e-08
-9.49020961139965e-08
-1.39701701304729e-08
-3.5909833747946e-08
1.3432565183082e-06
-1.07007346177236e-07
-3.52990653991617e-08
3.02797600279393e-08
-3.14397068263763e-08
-3.53205695984642e-08
-4.24187233469031e-07
-5.7475663851064e-09
-2.71737582172833e-08
1.43682249537048e-06
-1.45702988471017e-07
-3.28213255099625e-08
2.46852261524052e-08
-5.05990464190006e-08
-2.86318206837276e-08
-4.34112447362326e-07
-1.33807695851726e-08
-2.1967289869359e-08
-4.77205396844639e-07
-3.69989171745425e-09
-1.10135911203457e-08
1.48887821368827e-06
-1.83767225119378e-07
-2.87042451146995e-08
2.45641939842696e-08
-7.28230293651936e-08
-1.83461762670809e-08
-5.04796871395474e-07
-2.28631175815963e-08
-8.52956033153925e-09
-5.12895722273006e-07
-9.05522446275239e-09
-1.01590651607744e-10
-4.81564846797827e-07
-3.13789240194091e-09
1.12964623480017e-08
1.49212659837153e-06
-2.20682115157351e-07
-2.24768878982881e-08
3.375258759694e-08
-9.87070117406669e-08
-4.00096887933227e-09
-5.61472196158558e-07
-3.50552167188474e-08
1.02314952279441e-08
-5.92170409033716e-07
-1.63002703981565e-08
2.10846284851599e-08
-5.18306299615212e-07
-7.52776690870131e-09
2.80154998283363e-08
-4.67819123186356e-07
-2.80339916798754e-09
3.82693402807065e-08
1.46477559803865e-06
-2.55660639001126e-07
-1.57819217985586e-08
5.4127311119727e-08
-1.27870725204985e-07
1.18128732643146e-08
-5.90480504471999e-07
-4.97031904293778e-08
3.25790203601207e-08
-6.54530328635773e-07
-2.55179183926755e-08
4.77959140703935e-08
-5.90678548546156e-07
-1.35930826306609e-08
5.7154690707563e-08
-5.03003559193878e-07
-6.80348324036448e-09
6.08741463449773e-08
-4.45437341454637e-07
-2.53352456886824e-09
6.85878205280973e-08
1.02902017446976e-06
-3.28490045176165e-08
-4.21365932687167e-08
1.33387049189491e-06
-7.03059141777649e-08
-4.43991937435354e-08
-6.64244292811403e-08
-1.36774865167851e-08
-4.93822165585482e-08
1.42645728383835e-06
-1.08816150861838e-07
-4.34708013018815e-08
6.00921346371302e-08
-3.06737262140033e-08
-4.9959062538904e-08
-4.09695783674288e-07
-5.47754590876865e-09
-4.49215153081693e-08
1.51994739568119e-06
-1.48069758136747e-07
-4.20392938136147e-08
5.18474104604573e-08
-4.88329023352427e-08
-4.50638373224371e-08
-4.20859920022742e-07
-1.24673409538251e-08
-4.18489290554157e-08
-4.68765169540485e-07
-3.36500992874595e-09
-3.22490917153184e-08
1.56820753204586e-06
-1.86768411974911e-07
-3.82802934395287e-08
4.74820699048232e-08
-6.97869130662772e-08
-3.65462740807705e-08
-4.94621081046171e-07
-2.08255079797658e-08
-3.13667678829443e-08
-5.06391857343539e-07
-8.11565830570884e-09
-2.40518198807413e-08
-4.77039377329156e-07
-2.76182831880786e-09
-1.27780994538077e-08
1.56433876894711e-06
-2.23660758200944e-07
-3.23740588448462e-08
4.99981226186482e-08
-9.43551489075982e-08
-2.34441060272432e-08
-5.55810534145505e-07
-3.17323190652037e-08
-1.51403392190664e-08
-5.88790554080773e-07
-1.45220554029772e-08
-6.4422247989601e-09
-5.15895771771373e-07
-6.62819125949507e-09
9.79641378711165e-10
-4.66088633534474e-07
-2.43844710166883e-09
1.20047263893317e-08
1.52810502027863e-06
-2.58399625498712e-07
-2.56726092936799e-08
6.29966995483484e-08
-1.22289435807216e-07
-7.77772407735181e-09
-5.9028333600944e-07
-4.53226485578914e-08
6.06488604395379e-09
-6.55187070570839e-07
-2.29550875554353e-08
1.7547370395236e-08
-5.91289485654156e-07
-1.21678227169028e-08
2.6336620055357e-08
-5.03348710944039e-07
-6.05583834740318e-09
3.16124184130184e-08
-4.45692702266458e-07
-2.21146037203196e-09
4.07368194376335e-08
1.4814102638245e-06
-2.90542029822341e-07
-1.92841191739239e-08
8.56301122786798e-08
-1.52870739766708e-07
7.91939127846817e-09
-5.99169828344201e-07
-6.1087778388606e-08
2.89147586231513e-08
-6.89716167192106e-07
-3.30941367010523e-08
4.5438811037305e-08
-6.50666601355184e-07
-1.91457099283926e-08
5.76797942439775e-08
-5.71358736305758e-07
-1.07938545219863e-08
6.44127833879596e-08
-4.8264368754241e-07
-5.45780120513282e-09
6.60642256603818e-08
-4.21437531422048e-07
-2.0308203348209e-09
7.22448369053722e-08
1.11281046197499e-06
-3.33890335350046e-08
-5.03997968190538e-08
1.42556184166813e-06
-7.16975225774104e-08
-5.28371975888851e-08
-3.15185584211377e-08
-1.34115236441948e-08
-6.36240317439059e-08
1.5190358584351e-06
-1.10706141432166e-07
-5.21468128480277e-08
9.73789753796563e-08
-2.98984166581798e-08
-6.54673245687735e-08
-3.90385089607433e-07
-5.22596500652951e-09
-6.34661570488187e-08
1.61279201907657e-06
-1.50454029846241e-07
-5.12050001355367e-08
8.71283482851283e-08
-4.71837622181072e-08
-6.22405157271887e-08
-4.02147296546156e-07
-1.16130687691635e-08
-6.25360884366443e-08
-4.56332992446957e-07
-3.05036673235628e-09
-5.4304003895391e-08
1.65791646332895e-06
-1.89664385538831e-07
-4.81468304027417e-08
7.90466259488367e-08
-6.69162451670113e-08
-5.55236775246609e-08
-4.78374521655388e-07
-1.88367425199102e-08
-5.49414138806337e-08
-4.95543292706509e-07
-7.2073346583549e-09
-4.88528551459883e-08
-4.69199916364218e-07
-2.38570236667576e-09
-3.77020632902934e-08
1.64718462404293e-06
-2.26866824585236e-07
-4.27350088812972e-08
7.57403841304157e-08
-9.01689760377088e-08
-4.36557144906673e-08
-5.43561629936183e-07
-2.83636657006064e-08
-4.12554442110872e-08
-5.80644033763289e-07
-1.27448464461367e-08
-3.48839998691614e-08
-5.09970192042185e-07
-5.73175882775415e-09
-2.70080150030139e-08
-4.61624606017581e-07
-2.06807245805966e-09
-1.51738785824374e-08
1.60189323248869e-06
-2.61650666003027e-07
-3.57771687974921e-08
8.1129747918646e-08
-1.1682723307151e-07
-2.80171087019277e-08
-5.83353531248082e-07
-4.08048146807196e-08
-2.13055626548034e-08
-6.50802264627851e-07
-2.02807983334081e-08
-1.37659575122219e-08
-5.88075911294316e-07
-1.06734667150876e-08
-5.61030991313347e-09
-5.00816930705165e-07
-5.27027176822704e-09
1.28085289657743e-09
-4.43715995504675e-07
-1.88521044220455e-09
1.19124531738743e-08
1.54587433732297e-06
-2.93416741942228e-07
-2.93926732424689e-08
9.60561463820902e-08
-1.46348177549159e-07
-1.20547910653806e-08
-5.98147300471488e-07
-5.56068644378915e-08
1.49466156760328e-09
-6.89854511048802e-07
-2.97288788733811e-08
1.29774200245319e-08
-6.5092340293391e-07
-1.71686020554756e-08
2.28047719966537e-08
-5.7145547533343e-07
-9.65655574555296e-09
3.0034603526905e-08
-4.82517329813345e-07
-4.83966801024166e-09
3.41142015354177e-08
-4.21247433864406e-07
-1.76247569401055e-09
4.23096327855295e-08
1.49285476208837e-06
-3.2215014296455e-07
-2.37272731373142e-08
1.20962077451707e-07
-1.78117417694365e-07
3.06705318618045e-09
-5.95594058770318e-07
-7.23847206028756e-08
2.42484168852019e-08
-7.0203889756515e-07
-4.05777183390101e-08
4.12980677839385e-08
-6.83211456739031e-07
-2.4833092167052e-08
5.53191000358706e-08
-6.27495767770509e-07
-1.51636903113503e-08
6.53653399922764e-08
-5.48363843949259e-07
-8.75129862548986e-09
7.01104679214566e-08
-4.5995051711444e-07
-4.42652690729407e-09
7.00397018186917e-08
-3.97366539567465e-07
-1.63153473289257e-09
7.49295433773279e-08
1.20620330680543e-06
-3.39947717684556e-08
-5.93979691614856e-08
1.52764282246673e-06
-7.32994672151529e-08
-6.21644359835988e-08
1.00392584435267e-08
-1.31651461026204e-08
-7.88029517843748e-08
1.62228816750408e-06
-1.12979648200061e-07
-6.19559062073141e-08
1.42323009328408e-07
-2.92319202968071e-08
-8.19666762647713e-08
-3.66073866695182e-07
-4.97729577986675e-09
-8.29600243025162e-08
1.71598405261817e-06
-1.5306623294901e-07
-6.0822430646594e-08
1.31046467236743e-07
-4.54893451362472e-08
-8.05004208924862e-08
-3.77775853011087e-07
-1.07911634711252e-08
-8.42683730548297e-08
-4.397204709759e-07
-2.7339753937604e-09
-7.73447840471406e-08
1.75787439298186e-06
-1.9258314232287e-07
-5.78241818893468e-08
1.19661114629011e-07
-6.4022091754814e-08
-7.49895720048251e-08
-4.55716047608749e-07
-1.70021615005032e-08
-7.95101605106253e-08
-4.80102676197868e-07
-6.33622389329711e-09
-7.46922325974285e-08
-4.57848180739363e-07
-2.01719292904299e-09
-6.36382919342914e-08
1.74072972476508e-06
-2.30151139147891e-07
-5.30615402709558e-08
1.10785618691651e-07
-8.59779969157238e-08
-6.41378040583015e-08
-5.24534738350074e-07
-2.51402828469052e-08
-6.82366211366439e-08
-5.67423774973145e-07
-1.09976801567405e-08
-6.43746013394037e-08
-5.00297716034796e-07
-4.83325780751314e-09
-5.60763493764403e-08
-4.54257416016176e-07
-1.68333811792687e-09
-4.33865682776017e-08
1.6864293792963e-06
-2.64955574570981e-07
-4.64591887198075e-08
1.09081909164139e-07
-1.1143410202757e-07
-4.94296771632275e-08
-5.69562991155862e-07
-3.61896088040971e-08
-4.96256053283316e-08
-6.41068755445531e-07
-1.75472839116607e-08
-4.61881955834388e-08
-5.80797713081604e-07
-9.14079447147578e-09
-3.87524559906441e-08
-4.95227754488367e-07
-4.45924662079239e-09
-3.02040313754899e-08
-4.39362046835194e-07
-1.54571101663749e-09
-1.7982560724452e-08
1.62064180542663e-06
-2.96812133420792e-07
-3.96117619511485e-08
1.15964125407073e-07
-1.3979628509286e-07
-3.27306518510534e-08
-5.90097112914271e-07
-4.99563318401788e-08
-2.6909799691103e-08
-6.84573109251445e-07
-2.61762149422051e-08
-2.06925571136079e-08
-6.46891190924777e-07
-1.50578263836821e-08
-1.34115799898479e-08
-5.68227313058594e-07
-8.43391404967968e-09
-5.6737856877379e-09
-4.79886094416888e-07
-4.18082065706422e-09
9.44582004432509e-10
-4.19127553303896e-07
-1.48590658170572e-09
1.12782528517819e-08
1.55840588190185e-06
-3.24969639531003e-07
-3.39993542449997e-08
1.33090996638135e-07
-1.70569838608431e-07
-1.72872873254465e-08
-5.93717158464758e-07
-6.58470237501025e-08
-3.68117296647838e-09
-7.01586358471827e-07
-3.64409907176977e-08
7.75261853043411e-09
-6.83052227628373e-07
-2.23185040639939e-08
1.79684539145306e-08
-6.27275640815286e-07
-1.36464350032717e-08
2.65760646350907e-08
-5.48004407869938e-07
-7.85061818533793e-09
3.2686068874075e-08
-4.59460466893739e-07
-3.93536246749762e-09
3.57974475469923e-08
-3.96864248954537e-07
-1.41151746185232e-09
4.32186943491535e-08
1.50559098149586e-06
-3.49472500503005e-07
-2.9421748897431e-08
1.62326152669887e-07
-2.035098806531e-07
-3.12331099793387e-09
-5.85527124082776e-07
-8.36163949037207e-08
1.84897591411417e-08
-7.02731836597338e-07
-4.78928808468242e-08
3.59485545689655e-08
-6.94455548929291e-07
-3.04882868836911e-08
5.08413557236139e-08
-6.57969653706956e-07
-1.97026802808558e-08
6.30570169068805e-08
-6.0258849834831e-07
-1.23459029247658e-08
7.14034077131346e-08
-5.24141764347923e-07
-7.16022914117569e-09
7.45373591454368e-08
-4.36394522054007e-07
-3.61674042879957e-09
7.30684556518117e-08
-3.73937601732372e-07
-1.32207664958151e-09
7.68879021189793e-08
1.31007468931549e-06
-3.46702785666711e-08
-6.91929523952119e-08
1.64118249081212e-06
-7.51119086070218e-08
-7.23693031790242e-08
5.86305101247622e-08
-1.29500048788643e-08
-9.50372150267915e-08
1.73742165311047e-06
-1.15605186436311e-07
-7.28538344702008e-08
1.95207501705538e-07
-2.86007097080562e-08
-9.96005312845713e-08
-3.36523784554378e-07
-4.74737558757002e-09
-1.03607072122863e-07
1.83125387328329e-06
-1.56152295103394e-07
-7.21431654584894e-08
1.83826773975347e-07
-4.39370502931798e-08
-1.00028664975716e-07
-3.47528106074717e-07
-9.95911778059794e-09
-1.07228728426103e-07
-4.1871325503723e-07
-2.4063708244071e-09
-1.01560535383513e-07
1.86898259343371e-06
-1.95710113387116e-07
-6.84554423205247e-08
1.7002824766003e-07
-6.10572893479907e-08
-9.55899584681361e-08
-4.26384494004809e-07
-1.52179780376546e-08
-1.05400567489719e-07
-4.5984358261306e-07
-5.46122813193465e-09
-1.01797844730896e-07
-4.42779164915315e-07
-1.64178123127588e-09
-9.07722805233038e-08
1.84466347614869e-06
-2.33539745053727e-07
-6.30079365748671e-08
1.55623593669296e-07
-8.17171395256701e-08
-8.49568165382882e-08
-4.98184739663907e-07
-2.2030978277722e-08
-9.62966937339404e-08
-5.48812852615362e-07
-9.29834340799275e-09
-9.51579902778283e-08
-4.86645098657869e-07
-3.93889728432203e-09
-8.64233829228868e-08
-4.43796898771681e-07
-1.29095881202541e-09
-7.28072630061233e-08
1.78180772333113e-06
-2.68423721663555e-07
-5.70878591628356e-08
1.4673250026516e-07
-1.05900146318205e-07
-7.07676783003441e-08
-5.48450406792372e-07
-3.16222545081237e-08
-7.87698499464416e-08
-6.25627023502329e-07
-1.48362753981539e-08
-7.98413239078453e-08
-5.69174798415133e-07
-7.59749016534054e-09
-7.32348407752368e-08
-4.86376721832614e-07
-3.6236492823332e-09
-6.29850794904007e-08
-4.32476990222871e-07
-1.1846523353258e-09
-4.90865990202946e-08
1.70609986858667e-06
-3.00082987934959e-07
-5.03258775233029e-08
1.45879801967323e-07
-1.33175280137164e-07
-5.46380826087108e-08
-5.75087871374845e-07
-4.42035704016429e-08
-5.64219197747717e-08
-6.73604884419206e-07
-2.25155224370422e-08
-5.56234539514038e-08
-6.38301704427197e-07
-1.28696320870759e-08
-5.10484407062978e-08
-5.61470762389499e-07
-7.1568010049581e-09
-4.28112818445977e-08
-4.74592805113757e-07
-3.48683901998876e-09
-3.3554831935896e-08
-4.14950685453954e-07
-1.19184876277447e-09
-2.09677589850097e-08
1.63417351903783e-06
-3.28254503610335e-07
-4.43268779560767e-08
1.54866369024694e-07
-1.62925694335147e-07
-3.82455530722471e-08
-5.84630388345066e-07
-5.91234971982559e-08
-3.26465158011129e-08
-6.95490241993953e-07
-3.20760652288179e-08
-2.71009358842486e-08
-6.78298095597184e-07
-1.96200961871513e-08
-2.08822874787103e-08
-6.23334645577454e-07
-1.19992268768717e-08
-1.37880341897001e-08
-5.44747759335025e-07
-6.86691737689044e-09
-6.24479163088026e-09
-4.56800721055506e-07
-3.40130148016482e-09
2.00054878793029e-10
-3.94704073831216e-07
-1.17901698681348e-09
1.02974532713676e-08
1.57254872155649e-06
-3.52070812940127e-07
-3.98393561201599e-08
1.7643435969826e-07
-1.94894057266337e-07
-2.37810666152543e-08
-5.82742877058452e-07
-7.60787204166562e-08
-9.84262767823162e-09
-7.01626854303373e-07
-4.30401525120369e-08
1.81768902574511e-09
-6.93825973504757e-07
-2.74700157831599e-08
1.22789136070723e-08
-6.57394792926835e-07
-1.78255463511866e-08
2.15723904612986e-08
-6.01942041988427e-07
-1.11750156546844e-08
2.92544612045762e-08
-5.23439590883304e-07
-6.44782881766988e-09
3.44953230509602e-08
-4.3566504857373e-07
-3.2133341724851e-09
3.68701491759169e-08
-3.73250809034309e-07
-1.14256872187659e-09
4.36745225087564e-08
1.52211890175429e-06
-3.71341593550576e-07
-3.66804355904707e-08
2.12532457125353e-07
-2.28974230500569e-07
-1.10470707116547e-08
-5.70794150673298e-07
-9.48542483950709e-08
1.13751521052199e-08
-6.98498648652024e-07
-5.50633357620446e-08
2.94414312862454e-08
-6.95643165285583e-07
-3.6053184546309e-08
4.5000840151279e-08
-6.68653317800921e-07
-2.42755054140832e-08
5.837230994659e-08
-6.32401900150023e-07
-1.61048711716266e-08
6.9170517452926e-08
-5.7729646790542e-07
-1.01575228976081e-08
7.6130977241261e-08
-4.99044155004731e-07
-5.86784898160544e-09
7.79370677133818e-08
-4.1261214550804e-07
-2.93637171241416e-09
7.53463833577361e-08
-3.51048022009542e-07
-1.06354217013793e-09
7.83150569511654e-08
1.42542144364314e-06
-3.55089827011016e-08
-7.98470184273514e-08
1.76726657317991e-06
-7.72732152556417e-08
-8.3519051167519e-08
1.14688689030642e-07
-1.27961579503675e-08
-1.12452571441142e-07
1.86566058378891e-06
-1.18604241343352e-07
-8.47962823402438e-08
2.56477807731629e-07
-2.80750430871256e-08
-1.18510053277255e-07
-3.01442484140404e-07
-4.54409619180522e-09
-1.25574626590563e-07
1.96005726184827e-06
-1.59686413234545e-07
-8.47148203856398e-08
2.45795705161813e-07
-4.24638483734273e-08
-1.20971368425003e-07
-3.11118044511248e-07
-9.14125347999326e-09
-1.31616308983198e-07
-3.93080998856128e-07
-2.08453452365392e-09
-1.27155242215382e-07
1.99326842128655e-06
-1.99472716414258e-07
-8.09832721024861e-08
2.30315112472828e-07
-5.83058185426069e-08
-1.18060394055403e-07
-3.90149993467717e-07
-1.33656971394611e-08
-1.32856955897862e-07
-4.34524568598724e-07
-4.56098180770203e-09
-1.30392642650314e-07
-4.23777309108754e-07
-1.25243943723974e-09
-1.19309862942228e-07
1.96015766334885e-06
-2.36974996170699e-07
-7.42171303893467e-08
2.11011297924299e-07
-7.7533775359209e-08
-1.07377939617996e-07
-4.6418656525669e-07
-1.88749175819848e-08
-1.25937849181508e-07
-5.24549177365745e-07
-7.58706590211624e-09
-1.27538030459276e-07
-4.68781494025224e-07
-3.02305052168098e-09
-1.18280836884823e-07
-4.3004637590786e-07
-8.83713040154998e-10
-1.03639624461961e-07
1.88759432546425e-06
-2.72022109856773e-07
-6.72763877760119e-08
1.94698358448946e-07
-1.00391348139037e-07
-9.22952359471292e-08
-5.19282728568687e-07
-2.70949123914601e-08
-1.09058055735912e-07
-6.04064966596614e-07
-1.21435604619162e-08
-1.15009344651197e-07
-5.52923058677641e-07
-6.04475227156719e-09
-1.09304557989798e-07
-4.74048144419821e-07
-2.76581871508046e-09
-9.72754082209496e-08
-4.22886949175717e-07
-8.06886956025827e-10
-8.15905369243953e-08
1.8024609051265e-06
-3.03532626966172e-07
-6.11872493420604e-08
1.85741257944409e-07
-1.26346396735068e-07
-7.6492945400175e-08
-5.52411575591723e-07
-3.83517830140613e-08
-8.67197592162884e-08
-6.56494855904116e-07
-1.88271561819875e-08
-9.18898518134976e-08
-6.24830366565696e-07
-1.06467568810846e-08
-9.0261998450023e-08
-5.50944381934656e-07
-5.83798427858212e-09
-8.15465737972798e-08
-4.66456650741671e-07
-2.75725189740198e-09
-6.9548058151645e-08
-4.08579245828906e-07
-8.69956156049776e-10
-5.45877903897527e-08
1.72056540317246e-06
-3.31364536884412e-07
-5.5100588453172e-08
1.86794726006479e-07
-1.55099518474799e-07
-6.03240945780532e-08
-5.6841852139636e-07
-5.22661429333635e-08
-6.27960200787433e-08
-6.83526518365127e-07
-2.75730969883449e-08
-6.33248793486888e-08
-6.6866776714123e-07
-1.68090628166408e-08
-6.1314275873712e-08
-6.15436306254035e-07
-1.02645893196353e-08
-5.58380911398601e-08
-5.38413848710603e-07
-5.81852399365042e-09
-4.68125901794855e-08
-4.51832305307854e-07
-2.82513942951773e-09
-3.68896319832909e-08
-3.90774524313145e-07
-9.2557243587067e-10
-2.39716124419317e-08
1.64961722205105e-06
-3.55057488104407e-07
-5.02697841995887e-08
2.00345829210612e-07
-1.86162404159746e-07
-4.4993267025149e-08
-5.72581808755661e-07
-6.83120687556617e-08
-3.92287426201999e-08
-6.94718880854016e-07
-3.79359937991438e-08
-3.36942500776014e-08
-6.88414866624928e-07
-2.42404064415433e-08
-2.78916115812572e-08
-6.52827585609471e-07
-1.57819349711867e-08
-2.16658832950673e-08
-5.98045272765309e-07
-9.88258919676921e-09
-1.46695192652302e-08
-5.20221100152264e-07
-5.65294343830061e-09
-7.21067702231459e-09
-4.33071106556681e-07
-2.76439204313238e-09
-8.09043704455926e-10
-3.71152220904158e-07
-9.47398913307373e-10
9.14660911648405e-09
1.59092488112653e-06
-3.73597213616747e-07
-4.72707572130668e-08
2.29044823111964e-07
-2.19293917642637e-07
-3.19546236323662e-08
-5.66986896092309e-07
-8.6354825118995e-08
-1.73123593400809e-08
-6.96672233980568e-07
-4.95660413812735e-08
-5.14009074083327e-09
-6.94493928833811e-07
-3.25903727252032e-08
5.78689382606564e-09
-6.67688371341529e-07
-2.20708993430084e-08
1.55606008632793e-08
-6.31447420235888e-07
-1.46846370054908e-08
2.41266881974981e-08
-5.76339867888189e-07
-9.23658529377541e-09
3.10870867481888e-08
-4.98135571853159e-07
-5.28437874790222e-09
3.56575107156647e-08
-4.11772674923445e-07
-2.59489802789161e-09
3.74827845919026e-08
-3.50300692810521e-07
-9.06628464787022e-10
4.38337799168275e-08
1.5423313139121e-06
-3.86217522566543e-07
-4.59176165370772e-08
2.74193722729244e-07
-2.54354379438046e-07
-2.12461165982176e-08
-5.51290653976749e-07
-1.06246907194064e-07
2.58158275805757e-09
-6.91346775410761e-07
-6.21454653985113e-08
2.1573572847221e-08
-6.93070064828976e-07
-4.15417089835194e-08
3.79728489922416e-08
-6.70233207768456e-07
-2.88284193443633e-08
5.22120313157727e-08
-6.43246850872542e-07
-1.99303178213257e-08
6.43684795485236e-08
-6.06912444421195e-07
-1.33099260746355e-08
7.39974522015905e-08
-5.5109071315771e-07
-8.35801856809576e-09
7.98198181727257e-08
-4.7332275960958e-07
-4.77791065932205e-09
8.05543880934952e-08
-3.88759573029456e-07
-2.35200166234515e-09
7.70720002644554e-08
-3.28447477576663e-07
-8.26763744293285e-10
7.93694669039199e-08
1.55332408012654e-06
-3.64919927454047e-08
-9.14249637652018e-08
1.90725996435959e-06
-7.97989417141009e-08
-9.56924237349461e-08
1.78684207253543e-07
-1.27008458221262e-08
-1.31141809876225e-07
2.0083124196439e-06
-1.22123639971853e-07
-9.78015861183515e-08
3.26663484947814e-07
-2.76751617738292e-08
-1.38837005533457e-07
-2.6049809605166e-07
-4.3852277653816e-09
-1.49011702442846e-07
2.10368197588562e-06
-1.63784931953778e-07
-9.84451670201113e-08
3.175395680975e-07
-4.11284069598769e-08
-1.43453655381964e-07
-2.68185517912915e-07
-8.36605467574102e-09
-1.57622809401722e-07
-3.62557229524873e-07
-1.77498562684748e-09
-1.54324261614544e-07
2.13228880588323e-06
-2.03844649568803e-07
-9.48371051813991e-08
3.00984599725272e-07
-5.56669228041856e-08
-1.42190985835898e-07
-3.46665836576181e-07
-1.15066763617614e-08
-1.62093806056456e-07
-4.03867765730529e-07
-3.65263386977065e-09
-1.60707345758222e-07
-4.00608941061504e-07
-8.52890389873634e-10
-1.49470793778936e-07
2.08937239780764e-06
-2.4120514412931e-07
-8.74740935285977e-08
2.77116887050821e-07
-7.35116486404592e-08
-1.31901481614536e-07
-4.22421689097669e-07
-1.5668393596515e-08
-1.57519596325155e-07
-4.94353415625474e-07
-5.82496428950035e-09
-1.61787530026031e-07
-4.46462888333523e-07
-2.07172022160458e-09
-1.51894005757402e-07
-4.12794461276338e-07
-4.536764559279e-10
-1.36108136397652e-07
2.00507749580868e-06
-2.75668012922728e-07
-7.87675708199668e-08
2.53747937620319e-07
-9.50419192466198e-08
-1.1574240470429e-07
-4.81843662718026e-07
-2.2517738907024e-08
-1.41170793421832e-07
-5.76096505019842e-07
-9.40932254369333e-09
-1.52081830032643e-07
-5.31775354830929e-07
-4.45188345287552e-09
-1.4725523832651e-07
-4.58021183361205e-07
-1.87230751656166e-09
-1.33319050585041e-07
-4.10407872854444e-07
-4.02601728300084e-10
-1.15716058177539e-07
1.90918120935607e-06
-3.07099840910325e-07
-7.16596232138993e-08
2.36227602574589e-07
-1.19628685208122e-07
-9.85461328862283e-08
-5.21188624489336e-07
-3.2447721434989e-08
-1.18177493295117e-07
-6.32752956199869e-07
-1.51175690807838e-08
-1.29825347226296e-07
-6.0614693955964e-07
-8.38947927036843e-09
-1.31348267189805e-07
-5.36396933043157e-07
-4.47617664733672e-09
-1.22142937445843e-07
-4.55279403058213e-07
-1.99425150847991e-09
-1.07264922399277e-07
-3.99857952728271e-07
-5.21121188999841e-10
-8.97907505967537e-08
1.81784104645264e-06
-3.34633767838905e-07
-6.6140124995521e-08
2.28863641891215e-07
-1.47030080590567e-07
-8.25475079771006e-08
-5.44292986346342e-07
-4.51976807161436e-08
-9.37627282579536e-08
-6.6515240811535e-07
-2.29773574180488e-08
-1.00943422182415e-07
-6.53792339771037e-07
-1.39267058536724e-08
-1.03482759836999e-07
-6.03306395965297e-07
-8.46357709610143e-09
-9.97649179779783e-08
-5.28791089893333e-07
-4.70879444579877e-09
-8.92170690452147e-08
-4.44394691966664e-07
-2.19744075230564e-09
-7.56586500929157e-08
-3.84955364730789e-07
-6.39245651683225e-10
-5.97673812201278e-08
1.73728634132367e-06
-3.57878387989618e-07
-6.11263646196912e-08
2.34559437269769e-07
-1.77191427453092e-07
-6.72225202001513e-08
-5.5501379077638e-07
-6.03415905289001e-08
-6.9810167318415e-08
-6.81779840885359e-07
-3.26637292500726e-08
-7.06463788974516e-08
-6.77931476171669e-07
-2.08656249995474e-08
-6.97500445666114e-08
-6.4401125392775e-07
-1.36223078080219e-08
-6.67728208702606e-08
-5.90689955420959e-07
-8.49422010795843e-09
-6.05161424286506e-08
-5.14329907745408e-07
-4.78446758490469e-09
-5.07446452528136e-08
-4.28491168718648e-07
-2.26500556039752e-09
-4.01294527683644e-08
-3.6754753464194e-07
-7.24789996348058e-10
-2.68512664824327e-08
1.66978245145438e-06
-3.76149946749876e-07
-5.77584355822179e-08
2.55517132275722e-07
-2.09524116034289e-07
-5.33674246782455e-08
-5.55609070161743e-07
-7.75939245636336e-08
-4.70815631194544e-08
-6.88885332060082e-07
-4.37957235727612e-08
-4.11613433798383e-08
-6.88412178255127e-07
-2.88960553733945e-08
-3.51190946208896e-08
-6.62557445029502e-07
-1.96795609499844e-08
-2.91257933424158e-08
-6.26993317483854e-07
-1.31117854780864e-08
-2.28893379534254e-08
-5.72552912818411e-07
-8.19822185515649e-09
-1.59119017283909e-08
-4.95062150725901e-07
-4.61688421200127e-09
-8.43149103965772e-09
-4.09349799026189e-07
-2.20134750738473e-09
-1.97691035575888e-09
-3.48370191067554e-07
-7.28062109608001e-10
7.94428153595431e-09
1.61356012893825e-06
-3.88073110811921e-07
-5.6738825218596e-08
2.93687256407324e-07
-2.43679501262897e-07
-4.23543736480247e-08
-5.46329063338365e-07
-9.68502635195984e-08
-2.64216506986027e-08
-6.88716268022512e-07
-5.60901089061384e-08
-1.34170079182694e-08
-6.91342965911702e-07
-3.77155542908318e-08
-1.74147919746821e-09
-6.68843188851578e-07
-2.63598959345641e-08
8.68579200755896e-09
-6.41965628902591e-07
-1.82957995242856e-08
1.78921114489171e-08
-6.05696279306213e-07
-1.22047183314499e-08
2.58786395429716e-08
-5.49975013220744e-07
-7.60170490875267e-09
3.22888791437782e-08
-4.72355628825376e-07
-4.27198014853898e-09
3.63678037661851e-08
-3.87941676392951e-07
-2.04182358971383e-09
3.78000341239465e-08
-3.27761330569451e-07
-6.78506608734379e-10
4.38258801105531e-08
1.56354007084653e-06
-3.91962425274946e-07
-5.7554215004841e-08
3.49505440182213e-07
-2.79212865890519e-07
-3.46145314879481e-08
-5.26196650525569e-07
-1.18077677920187e-07
-8.32176178740236e-09
-6.8145061771961e-07
-6.92449633701511e-08
1.20682703428497e-08
-6.88422583506805e-07
-4.70075964912058e-08
2.95977866391041e-08