/*--------------------------------*- C++ -*----------------------------------*\
  =========                 |
  \\      /  F ield         | OpenFOAM: The Open Source CFD Toolbox
   \\    /   O peration     | Website:  https://openfoam.org
    \\  /    A nd           | Version:  12
     \\/     M anipulation  |
\*---------------------------------------------------------------------------*/
/*   Windows 32 and 64 bit porting by blueCAPE: http://www.bluecape.com.pt   *\
|  Based on Windows porting (2.0.x v4) by Symscape: http://www.symscape.com   |
\*---------------------------------------------------------------------------*/
FoamFile
{
    format      ascii;
    class       volVectorField;
    location    "800";
    object      U;
}
// * * * * * * * * * * * * * * * * * * * * * * * * * * * * * * * * * * * * * //

dimensions      [0 1 -1 0 0 0 0];

internalField   nonuniform List<vector> 
10116
(
(-2.85357687579387e-06 -0.000106779623363056 -7.11586037711969e-06)
(-1.97279144848299e-06 -0.000111531105701064 -4.5298626131953e-06)
(-8.21084582065362e-06 -8.35196201478123e-05 -6.41835305268334e-06)
(-1.89494662404687e-06 -0.000295742948665367 -1.85211192730957e-05)
(-1.40371050758245e-06 -0.000113612381892994 -2.07169881127066e-06)
(-6.32241644169416e-06 -8.80128455264967e-05 -3.70971529918605e-06)
(-1.36539195463375e-06 -0.000301918111498982 -1.1997151602072e-05)
(-1.24995534176235e-05 -8.88259896881214e-05 -6.46555489561606e-06)
(-5.92576642026308e-06 -0.000289934008299935 -1.66973485231639e-05)
(-1.05166014618644e-06 -0.000321649347736546 -2.75786803565447e-05)
(-1.29454456050921e-06 -0.000110650972749608 -3.72169243178201e-07)
(-5.08586355583995e-06 -8.88857420743649e-05 -1.28303064719253e-06)
(-1.03026793115099e-06 -0.000305609889624792 -5.90999919921189e-06)
(-1.03568929008872e-05 -9.35264087386634e-05 -3.49095659090512e-06)
(-4.56726527194858e-06 -0.000296299747069414 -1.03438819358265e-05)
(-8.01842332655573e-07 -0.000325781821537056 -1.88318104292813e-05)
(-1.69207408677652e-05 -9.09383269829108e-05 -6.43920709479741e-06)
(-9.2160841437146e-06 -0.00029819416135572 -1.62234768702442e-05)
(-3.56137528174531e-06 -0.000325092658879763 -2.61784955530842e-05)
(-6.4702149465857e-07 -0.000309888402789048 -3.39796960971449e-05)
(-1.08271000401173e-06 -0.000104082533601823 1.38048766049818e-06)
(-4.55976106646811e-06 -8.44574661714304e-05 4.11180332268219e-07)
(-8.41382446780029e-07 -0.000305278779020678 -5.62910408060246e-07)
(-8.81721251014882e-06 -9.46040325379585e-05 -9.29517320584148e-07)
(-3.5835794656226e-06 -0.000299223926432902 -4.32854774042719e-06)
(-6.14035268993909e-07 -0.000327928510613556 -1.02080467543781e-05)
(-1.45650145720679e-05 -9.57323960190828e-05 -3.37261304197161e-06)
(-7.44393013834376e-06 -0.000304585973669818 -9.52224465194443e-06)
(-2.85029850664623e-06 -0.000329370547661399 -1.73076797438473e-05)
(-4.9896447279772e-07 -0.000312910030489334 -2.31789992039616e-05)
(-2.12637833148966e-05 -8.97883565961904e-05 -6.43284739885573e-06)
(-1.24390387464306e-05 -0.000303165746160413 -1.59170698084275e-05)
(-5.7441659033971e-06 -0.000332868163845798 -2.55490871512321e-05)
(-2.49828454388442e-06 -0.000313091362032354 -3.25636328940751e-05)
(-4.64704585640676e-07 -0.000296507074804967 -3.94247960890705e-05)
(-7.92799661059694e-07 -9.47625341967094e-05 3.21621864694711e-06)
(-3.83975196774182e-06 -7.64411818694107e-05 2.19374528657617e-06)
(-6.06438268797507e-07 -0.000301795018316658 4.97518995702824e-06)
(-7.74283425808388e-06 -9.00489064115061e-05 8.36955740986041e-07)
(-2.88108429880227e-06 -0.000297933787248659 1.22041956293842e-06)
(-4.62966677991638e-07 -0.000327417870355201 -1.68052812124933e-06)
(-1.26479221193202e-05 -9.68880613698128e-05 -6.52987284733686e-07)
(-5.93305901495383e-06 -0.000307368465395642 -3.24241764290282e-06)
(-2.25576314720297e-06 -0.000331146055970176 -8.47007573735601e-06)
(-3.74392174298244e-07 -0.000314069271231061 -1.22660064321318e-05)
(-1.86451073297461e-05 -9.45100225077724e-05 -3.3418576760792e-06)
(-1.01991023587149e-05 -0.000309403692345354 -8.94257739287144e-06)
(-4.64493959110407e-06 -0.000337168401602157 -1.64250280856464e-05)
(-2.05910315290458e-06 -0.000316107601575938 -2.1474908898899e-05)
(-3.56567560854465e-07 -0.000298753125410895 -2.6653566157527e-05)
(-2.55856564406254e-05 -8.63835021086662e-05 -6.26867329449425e-06)
(-1.56876265832764e-05 -0.000304928307241175 -1.54786708411728e-05)
(-7.95249031844593e-06 -0.00033852162262937 -2.49287191394665e-05)
(-4.24050751708923e-06 -0.000318779072783844 -3.17692619541219e-05)
(-1.91446989622446e-06 -0.000298479633310384 -3.7819469370777e-05)
(-3.80692881387373e-07 -0.000283723571729329 -4.37837436935446e-05)
(-4.57663917982236e-07 -8.22560369680082e-05 5.29821609762365e-06)
(-2.96821569284763e-06 -6.57123959366879e-05 4.04612490640817e-06)
(-3.40760857197234e-07 -0.000295324018460026 1.07775378637596e-05)
(-6.43339386387884e-06 -8.17143525729409e-05 2.71263126089115e-06)
(-2.09405344243078e-06 -0.000293564138581477 6.95197298211343e-06)
(-3.0231810000529e-07 -0.000324421111319423 7.04505751949911e-06)
(-1.09879729865336e-05 -9.21596140582209e-05 1.17424500859515e-06)
(-4.54509902607902e-06 -0.000305758298865804 2.40978183978254e-06)
(-1.72211456699852e-06 -0.000330187712207755 3.74682017815402e-07)
(-2.60866197559246e-07 -0.000313161086879184 -1.19232918965896e-06)
(-1.62825273362378e-05 -9.55919016450642e-05 -4.50063260395827e-07)
(-8.1425911602996e-06 -0.000311992627736172 -2.38098000003394e-06)
(-3.62086043407004e-06 -0.000338791412606699 -7.30433537223802e-06)
(-1.65892594242865e-06 -0.000317024603215926 -1.02132975764191e-05)
(-2.55128855101153e-07 -0.000299299890233764 -1.35819180763033e-05)
(-2.25922610561651e-05 -9.08763234354389e-05 -3.19818919646293e-06)
(-1.29197017847844e-05 -0.000310948226079509 -8.55361637354272e-06)
(-6.45334430005247e-06 -0.000342727204911195 -1.55289044251724e-05)
(-3.51533438213171e-06 -0.000321768861358227 -2.03609594770884e-05)
(-1.59782947733606e-06 -0.000300669884168314 -2.46992254022166e-05)
(-2.95532707735088e-07 -0.000285338422203948 -2.9228449274012e-05)
(-2.97969690993536e-05 -8.21372292784328e-05 -5.96991865766461e-06)
(-1.90349637104485e-05 -0.00030415531360168 -1.4820966389063e-05)
(-1.01544382066313e-05 -0.000341998690114451 -2.41850219667322e-05)
(-6.01011666100328e-06 -0.000323307802573435 -3.08701446470074e-05)
(-3.35713668075633e-06 -0.000302287424898412 -3.68498737773149e-05)
(-1.51765083479766e-06 -0.000284904531604987 -4.19781783262708e-05)
(-3.34233989506086e-07 -0.000271034905346908 -4.71416837447851e-05)
(-1.18096474169891e-07 -6.61827483935498e-05 7.66667078140693e-06)
(-1.97950584911869e-06 -5.17486969061054e-05 6.20295161234739e-06)
(-7.7864173192317e-08 -0.000285545904901358 1.69351922230677e-05)
(-4.93946027566284e-06 -7.06533493689326e-05 4.63891235366643e-06)
(-1.26937414481613e-06 -0.000286271472280454 1.2960411237176e-05)
(-1.40869829914855e-07 -0.00031885308313786 1.60756615021547e-05)
(-9.04839616900601e-06 -8.34025844446479e-05 3.12858809687141e-06)
(-3.10720091814069e-06 -0.000301014092942079 8.29869407266439e-06)
(-1.17450189860837e-06 -0.000326772928736892 9.42518809924574e-06)
(-1.43480607794331e-07 -0.000310197969164514 1.01957858261036e-05)
(-1.40101367248382e-05 -9.05574000540367e-05 1.42841821622705e-06)
(-6.12967565938066e-06 -0.000310086964459132 3.63905903353761e-06)
(-2.63089907018243e-06 -0.000337600192162785 1.85078858098335e-06)
(-1.2705904219186e-06 -0.000315841817599979 1.26424512303267e-06)
(-1.55188114465842e-07 -0.000298091445244826 -1.69200898311067e-07)
(-1.97120796831983e-05 -9.17944596696403e-05 -2.75044626523159e-07)
(-1.02593651615003e-05 -0.000313274230851966 -1.73304324143916e-06)
(-4.97007581069392e-06 -0.000344168130088393 -6.10364507835797e-06)
(-2.79286804733184e-06 -0.000322552535081313 -8.74969148436171e-06)
(-1.28669835840191e-06 -0.000301032225999564 -1.12337828002149e-05)
(-2.13866737235107e-07 -0.000285437775479339 -1.42518897454886e-05)
(-2.63580582888866e-05 -8.62811980539984e-05 -2.91256849608419e-06)
(-1.57046504156764e-05 -0.000309886167327454 -7.93681049570637e-06)
(-8.22341631468501e-06 -0.000346046297418037 -1.45677668165869e-05)
(-4.97174408499157e-06 -0.00032621597218141 -1.91540421532821e-05)
(-2.82897410303756e-06 -0.000304432138315102 -2.3384638625064e-05)
(-1.27142603076272e-06 -0.000286469539306318 -2.70684729349895e-05)
(-2.66351301809945e-07 -0.00027213394245725 -3.10250053988254e-05)
(-3.38179570691974e-05 -7.74893343334711e-05 -5.57922739248869e-06)
(-2.24026881511157e-05 -0.00030179585658527 -1.39320669158203e-05)
(-1.23138822316686e-05 -0.000343627505445054 -2.3256198307998e-05)
(-7.79329333417462e-06 -0.000326353996813408 -2.98286998893053e-05)
(-4.80736629772481e-06 -0.00030552532952797 -3.57163937613913e-05)
(-2.70769206343816e-06 -0.00028751569978237 -4.08365455294258e-05)
(-1.23385047986032e-06 -0.000271908689843134 -4.51914613974023e-05)
(-2.96840988078537e-07 -0.000258103043810871 -4.96563937034321e-05)
(2.32983312301651e-07 -4.62756705007955e-05 1.0291564721667e-05)
(-9.83473437053326e-07 -3.41393808826734e-05 8.65953210011452e-06)
(1.96801159633022e-07 -0.000272371110825445 2.35250528196057e-05)
(-3.35490790553622e-06 -5.63450407176087e-05 6.91443282592719e-06)
(-4.04326758797297e-07 -0.000275605528586122 1.93669267104785e-05)
(2.27657468767329e-08 -0.00031058328665542 2.54900712489664e-05)
(-6.91940471280103e-06 -7.19412149090614e-05 5.22207200109454e-06)
(-1.71401240621225e-06 -0.00029334171408433 1.45227692299714e-05)
(-6.31349100171951e-07 -0.00032078346470102 1.8808573453788e-05)
(-2.57150121291851e-08 -0.000305027753933017 2.19917122835333e-05)
(-1.14554935878425e-05 -8.13889999792817e-05 3.43633293681524e-06)
(-4.15081348815784e-06 -0.000304914265890006 1.00383789594348e-05)
(-1.63613695328668e-06 -0.00033393724374306 1.12224300176762e-05)
(-8.75140659993069e-07 -0.000312606716721177 1.30858026930742e-05)
(-5.15654590760106e-08 -0.000295098470175625 1.36656284543727e-05)
(-1.675692816209e-05 -8.64769476309743e-05 1.61362513208933e-06)
(-7.6325038240974e-06 -0.000311032220947082 5.04142928525364e-06)
(-3.49264571171079e-06 -0.000342731595642645 3.3844744933235e-06)
(-2.06297210256388e-06 -0.000321196274665282 3.10933813672486e-06)
(-9.70134218088711e-07 -0.000299630605177605 2.61797367292841e-06)
(-1.31524021513013e-07 -0.000284009299550906 1.18976071026768e-06)
(-2.28818622211752e-05 -8.69566195808945e-05 -3.61307880311986e-08)
(-1.23603657008263e-05 -0.000311892932654581 -9.37275538142001e-07)
(-6.24684727993382e-06 -0.000347271607839009 -4.88682553468933e-06)
(-3.9013092119247e-06 -0.000326849413733655 -7.2084263836969e-06)
(-2.27827441230348e-06 -0.000304680514526548 -9.54082233978282e-06)
(-1.02433285218717e-06 -0.0002864356182564 -1.16894774592979e-05)
(-2.0058242792128e-07 -0.000271899361535118 -1.43946994972189e-05)
(-2.98447793559674e-05 -8.1214166203066e-05 -2.54307297602682e-06)
(-1.84624571382098e-05 -0.000307176791294922 -6.95685007244837e-06)
(-9.92461771417413e-06 -0.000347469851599542 -1.34696410408304e-05)
(-6.42082750882249e-06 -0.000329138802353384 -1.78553498904999e-05)
(-4.04276138503432e-06 -0.000307593960250019 -2.19334963899816e-05)
(-2.30186425828709e-06 -0.000289043535026897 -2.55831204116856e-05)
(-1.03802989145784e-06 -0.000272980703695593 -2.87275673073117e-05)
(-2.42790398366152e-07 -0.000258791343923016 -3.21993771369396e-05)
(-3.75023477221757e-05 -7.22279802251408e-05 -5.10488035279879e-06)
(-2.57345168281336e-05 -0.000298344762901996 -1.28344486066273e-05)
(-1.44022613748775e-05 -0.000343919574952258 -2.21029568509952e-05)
(-9.52420542098317e-06 -0.000328009305223426 -2.8590636250484e-05)
(-6.28100182320561e-06 -0.000307825939754822 -3.44246381822072e-05)
(-3.91281673777722e-06 -0.000289846702250974 -3.9527544452082e-05)
(-2.20305137564062e-06 -0.000273903602677452 -4.3907985319785e-05)
(-1.01150351558621e-06 -0.000258968994684827 -4.76267802822986e-05)
(-2.58335832201453e-07 -0.0002448334047491 -5.14981261881825e-05)
(6.09634193105806e-07 -2.22055760603658e-05 1.31866346164831e-05)
(4.55718504971001e-08 -1.25392181335978e-05 1.13876920509126e-05)
(4.8985442723579e-07 -0.000255661928955057 3.05902094139305e-05)
(-1.7818866565132e-06 -3.83227091932554e-05 9.47452261529035e-06)
(4.97062759816727e-07 -0.000261433439498674 2.6246860236569e-05)
(1.93015830913557e-07 -0.000299507209029126 3.53726089397405e-05)
(-4.74350466242113e-06 -5.72837619360973e-05 7.55834602877909e-06)
(-2.18935140873452e-07 -0.000282230389157443 2.11437555715506e-05)
(-7.53718665874481e-08 -0.000312028564089502 2.8644046795108e-05)
(9.76328267177996e-08 -0.000297523872581991 3.42835276286934e-05)
(-8.69797235937662e-06 -6.96107860762861e-05 5.57425798650541e-06)
(-2.1003413616522e-06 -0.000296750359779248 1.63955211036839e-05)
(-6.53861646005195e-07 -0.000327668793654114 2.09477507934189e-05)
(-4.8105061879389e-07 -0.000307147383890114 2.53601549364429e-05)
(5.2580249466845e-08 -0.000290169940111557 2.80179712804796e-05)
(-1.35404849582969e-05 -7.68974136411897e-05 3.64289364969712e-06)
(-4.93403615472147e-06 -0.000305358411612317 1.16440534688654e-05)
(-2.02523561005073e-06 -0.000338797266041694 1.30972356449952e-05)
(-1.3305489254113e-06 -0.00031777301560129 1.53358813197734e-05)
(-6.45437737709921e-07 -0.000296445048567042 1.69410211713709e-05)
(-4.34075118453101e-08 -0.000281009427094985 1.71682772103926e-05)
(-1.92011508425992e-05 -8.12964396095027e-05 1.81020536826988e-06)
(-8.96895909298259e-06 -0.000309235004322676 6.36337667122805e-06)
(-4.25716584129674e-06 -0.000345574909059256 4.90926476288509e-06)
(-2.80860050031128e-06 -0.000325294068547042 5.01067915403032e-06)
(-1.70658217915802e-06 -0.000303138553949557 4.72520512073026e-06)
(-7.684122872528e-07 -0.000284865807453679 4.2025354678909e-06)
(-1.33172320027375e-07 -0.000270325198928654 2.80464186783655e-06)
(-2.57722925403349e-05 -8.15482276351496e-05 2.60025197564288e-07)
(-1.43916033473629e-05 -0.00030879647165311 1.62747711136123e-07)
(-7.44600842602297e-06 -0.000348439408389965 -3.59094886778705e-06)
(-4.9789569432575e-06 -0.00032959477494033 -5.62576305122366e-06)
(-3.22986819716568e-06 -0.000307714634413404 -7.74058945866239e-06)
(-1.86976105846566e-06 -0.000288919051231516 -9.82113858549129e-06)
(-8.38865494444244e-07 -0.000272655406655583 -1.1700159958806e-05)
(-1.89630249481963e-07 -0.000258315609982523 -1.41485185059714e-05)
(-3.29819735674176e-05 -7.54679460667782e-05 -2.1109917969302e-06)
(-2.11173080878043e-05 -0.000303321710831097 -5.66124063009725e-06)
(-1.15361949018628e-05 -0.000347519328267818 -1.21715205204239e-05)
(-7.81116355018134e-06 -0.000330630299662604 -1.6412687319421e-05)
(-5.2673734086731e-06 -0.000309791153001679 -2.03713989223144e-05)
(-3.32753790804137e-06 -0.000291311750669367 -2.39554049393145e-05)
(-1.88250158771607e-06 -0.000274953176193463 -2.71085136661369e-05)
(-8.53269170432374e-07 -0.000259656436038912 -2.98260263001973e-05)
(-2.15248465580513e-07 -0.000245209751573013 -3.28979935211357e-05)
(-4.07691906669177e-05 -6.60731106028507e-05 -4.56707744263182e-06)
(-2.89724891749578e-05 -0.000293888219571665 -1.15048181931778e-05)
(-1.63972648940769e-05 -0.000343270797713754 -2.07106670876682e-05)
(-1.11719527161249e-05 -0.000328608864881504 -2.71210465067519e-05)
(-7.72142088152686e-06 -0.000309147522916878 -3.29283307611412e-05)
(-5.13234231843688e-06 -0.000291587839697174 -3.80524774889339e-05)
(-3.19026994680417e-06 -0.000275735731005914 -4.24666482512126e-05)
(-1.7881097285076e-06 -0.00026072112147736 -4.6256216810214e-05)
(-8.26048096852036e-07 -0.000245837362008379 -4.94445475753632e-05)
(-2.15025259029866e-07 -0.000231249456109994 -5.28207670091226e-05)
(1.01275682112329e-06 6.38658329664085e-06 1.64133472494984e-05)
(1.14085973105919e-06 1.342076716654e-05 1.44382473822381e-05)
(7.92201737584293e-07 -0.000235235888256124 3.81762687977489e-05)
(-1.37046011317896e-07 -1.61689256089054e-05 1.23485350585896e-05)
(1.4388104110886e-06 -0.000243599794391118 3.36347483172818e-05)
(3.74726904969687e-07 -0.000285484240070649 4.58497574482814e-05)
(-2.5149897301158e-06 -3.88002284849859e-05 1.02755839244796e-05)
(1.31850013995126e-06 -0.000267549802255145 2.83141512438234e-05)
(5.13856205664533e-07 -0.000300383896960572 3.90260019099845e-05)
(2.3019827474149e-07 -0.000287566087992294 4.71792848067566e-05)
(-5.82966726068542e-06 -5.46194963170553e-05 8.00464768288231e-06)
(1.55273222167161e-07 -0.000285156465581478 2.29877550723121e-05)
(3.54993459444815e-07 -0.000318568367844288 3.11809268522383e-05)
(-7.39975520085268e-08 -0.000299309564022979 3.82005919625295e-05)
(1.61536104874837e-07 -0.000283182124362643 4.29950942714017e-05)
(-1.00836512082194e-05 -6.47658795031297e-05 5.76136585379217e-06)
(-2.06391283524556e-06 -0.000296671635027155 1.78990831516083e-05)
(-5.4655053755053e-07 -0.000332200218230472 2.31411170428743e-05)
(-6.01195702853927e-07 -0.000312089785341557 2.80523406525938e-05)
(-3.19060228840656e-07 -0.000291304257984952 3.18394091601044e-05)
(4.71537857615688e-08 -0.000276298268308261 3.37858069659662e-05)
(-1.52548440164834e-05 -7.13058838846546e-05 3.81946493592055e-06)
(-5.43869603986573e-06 -0.000303015443707825 1.31328640662857e-05)
(-2.25148148898403e-06 -0.00034131594135696 1.48893113659359e-05)
(-1.70815441376653e-06 -0.000321647095354148 1.76155650928588e-05)
(-1.12697629121199e-06 -0.000299798190215706 1.94988044587167e-05)
(-4.99427612451225e-07 -0.000281722622385428 2.06850273678091e-05)
(-5.98813984616948e-08 -0.000267365321315671 2.06519175240784e-05)
(-2.13418471563081e-05 -7.5473159602844e-05 2.03903525491113e-06)
(-1.01873994968047e-05 -0.00030563328987303 7.59481559331679e-06)
(-4.90998446500728e-06 -0.00034642980498261 6.45329432853207e-06)
(-3.49983109634037e-06 -0.000327813985997106 6.89606726721329e-06)
(-2.38317907163413e-06 -0.000306005682402212 6.90670746615217e-06)
(-1.41535379232022e-06 -0.000287235024454837 6.49525529266791e-06)
(-6.29363616902536e-07 -0.000270983283175608 5.94666161091259e-06)
(-1.34205415304054e-07 -0.000256668345620719 4.56410363480372e-06)
(-2.82884057294678e-05 -7.53732708389441e-05 6.10768035311566e-07)
(-1.63199105375063e-05 -0.00030449662621602 1.52973008383378e-06)
(-8.54526073565175e-06 -0.000348190364643051 -2.1375624660638e-06)
(-6.00089278699117e-06 -0.000330873893504471 -3.95785069184843e-06)
(-4.18069366649627e-06 -0.000309756759003049 -5.88269456519545e-06)
(-2.69332455065128e-06 -0.000291081430229984 -7.83754457612202e-06)
(-1.53619847254605e-06 -0.000274561611167532 -9.70217234866519e-06)
(-6.90222348083534e-07 -0.000259127548518072 -1.13810997619268e-05)
(-1.71545801944697e-07 -0.000244577020824194 -1.36310800776936e-05)
(-3.57135134898248e-05 -6.87641297363614e-05 -1.63936587536819e-06)
(-2.36550532558639e-05 -0.000298417520808364 -4.16859367419848e-06)
(-1.30446928875673e-05 -0.000346595632412283 -1.06434024500885e-05)
(-9.12387330927327e-06 -0.00033103729973824 -1.47737620582652e-05)
(-6.46055855686178e-06 -0.000310979659113387 -1.86529185956729e-05)
(-4.36185276817046e-06 -0.000292968082395156 -2.220572156744e-05)
(-2.73059452200182e-06 -0.000276739913097948 -2.53480651214267e-05)
(-1.52808389377347e-06 -0.000261404415647527 -2.81232024626976e-05)
(-6.96136766304577e-07 -0.00024623911264872 -3.05007596185729e-05)
(-1.78423941475255e-07 -0.000231405443205554 -3.32483531224105e-05)
(-4.35153306125055e-05 -5.89980530897176e-05 -3.99060489224391e-06)
(-3.20777588798659e-05 -0.000288369174078146 -9.89076229267101e-06)
(-1.82781463329034e-05 -0.000341911658141164 -1.90448322453347e-05)
(-1.2722872134323e-05 -0.000328461787012228 -2.53877826276145e-05)
(-9.09946353995903e-06 -0.000309691263045898 -3.11872243919865e-05)
(-6.33679638856474e-06 -0.000292661462564133 -3.6368917507553e-05)
(-4.19803477152125e-06 -0.000277176785746419 -4.08585531262181e-05)
(-2.59025610627905e-06 -0.000262354843871276 -4.47215468930734e-05)
(-1.43731981708324e-06 -0.000247560000203332 -4.80267016868326e-05)
(-6.6257411043483e-07 -0.000232450779478567 -5.07810958571215e-05)
(-1.71352683168892e-07 -0.000217417409838631 -5.37577337837638e-05)
(1.45431949450641e-06 3.99228625536215e-05 1.99539877580605e-05)
(2.31402490543505e-06 4.41264984999765e-05 1.78504815345505e-05)
(1.09959429043012e-06 -0.000210821341380922 4.63349626561957e-05)
(1.61225414507976e-06 1.05173517299665e-05 1.55853581628544e-05)
(2.40789647630109e-06 -0.000221909453019037 4.15962246953246e-05)
(5.61080512194836e-07 -0.000268359060327118 5.70002196745481e-05)
(-1.58799751431167e-07 -1.60075661664919e-05 1.33630875824546e-05)
(2.91102547983717e-06 -0.000249155332740696 3.60560732762833e-05)
(1.12643021534219e-06 -0.000285714491205479 5.00518902463788e-05)
(3.69549887439244e-07 -0.000275016503249363 6.07931632075541e-05)
(-2.85784632251167e-06 -3.56640621079064e-05 1.08789180944629e-05)
(2.41711385061302e-06 -0.000269952884316011 3.0467007693259e-05)
(1.41771588128626e-06 -0.000306516098383392 4.20259776308396e-05)
(3.5906070258926e-07 -0.00028896498660691 5.17185174244184e-05)
(2.77280223747833e-07 -0.000274010185752003 5.87134648697973e-05)
(-6.38626889938159e-06 -4.93876632078582e-05 8.21845456589611e-06)
(9.21702240491269e-07 -0.000284539572711052 2.46527878468709e-05)
(9.94513374243336e-07 -0.000322690031825172 3.37474281637444e-05)
(1.48913041250848e-07 -0.000303975590324379 4.13923263778265e-05)
(1.95718202041296e-08 -0.000284070936668316 4.74327015594885e-05)
(1.42301714088435e-07 -0.000269759044646288 5.11595943637837e-05)
(-1.10193657812846e-05 -5.87556822762612e-05 5.88130081167769e-06)
(-1.78352735883042e-06 -0.000293757115216775 1.92851144550578e-05)
(-1.90365242004404e-07 -0.000334313151928207 2.52034751909817e-05)
(-5.9679710438356e-07 -0.000315689182911454 3.0736264250319e-05)
(-5.41162749717055e-07 -0.000294470272081736 3.4895197136274e-05)
(-2.22238561495032e-07 -0.000276852186141832 3.78688883417919e-05)
(1.71293711770663e-08 -0.000262893991438887 3.92573974073582e-05)
(-1.66325601571433e-05 -6.50096047501502e-05 3.98896461664701e-06)
(-5.78974189095933e-06 -0.000298811392441264 1.44681581701219e-05)
(-2.31119188460897e-06 -0.00034178236064813 1.66464094919088e-05)
(-1.99588893503984e-06 -0.000323894832825635 1.98089447599505e-05)
(-1.5185486501126e-06 -0.000302470406720124 2.20949957439734e-05)
(-9.4388215733954e-07 -0.000283961510234891 2.34454017402144e-05)
(-4.04434767971135e-07 -0.000267922892280375 2.42988342993418e-05)
(-7.26972762011483e-08 -0.000253804214881663 2.4029185765152e-05)
(-2.3157042560173e-05 -6.87909541125899e-05 2.29973856447708e-06)
(-1.12931884406298e-05 -0.000300725097106087 8.86571560541891e-06)
(-5.4541376966917e-06 -0.000345803333792287 8.07907522360304e-06)
(-4.12873445202835e-06 -0.000328827294419261 8.80999366804584e-06)
(-3.04549963006357e-06 -0.000307848809432863 9.08891058816468e-06)
(-2.02371507000898e-06 -0.000289255152007251 8.8743131277557e-06)
(-1.16659634870055e-06 -0.000272800978156557 8.36893380165963e-06)
(-5.1575719587064e-07 -0.000257422041731625 7.77914010717217e-06)
(-1.24737690426045e-07 -0.000242927145722872 6.38286745021528e-06)
(-3.04203691844898e-05 -6.81192207640986e-05 9.78614502013007e-07)
(-1.81123249970559e-05 -0.000299065273561374 3.09839119765053e-06)
(-9.54737703537607e-06 -0.00034692946522682 -4.77709070786317e-07)
(-6.95722967663398e-06 -0.000331033890966487 -2.13317576986439e-06)
(-5.10681180792813e-06 -0.000310760119746767 -3.91713073444861e-06)
(-3.52271853550893e-06 -0.000292605511780729 -5.77848326648297e-06)
(-2.2255335236168e-06 -0.00027626432294368 -7.58119983444939e-06)
(-1.24361884309165e-06 -0.00026083446143443 -9.30027133306587e-06)
(-5.5907684302447e-07 -0.000245588660357824 -1.08380522335086e-05)
(-1.4052456529311e-07 -0.000230694218832903 -1.29415283548307e-05)
(-3.79903037452818e-05 -6.09925625983132e-05 -1.10732430647921e-06)
(-2.60542626568415e-05 -0.000292374670117315 -2.42917773570099e-06)
(-1.4442149177326e-05 -0.000344940205047778 -8.86294318244364e-06)
(-1.03549768958029e-05 -0.000330674882680236 -1.28920828190744e-05)
(-7.605784885601e-06 -0.000311369002747032 -1.67232387688131e-05)
(-5.38748598658231e-06 -0.000293934387081034 -2.02896954641431e-05)
(-3.59854205742633e-06 -0.00027811567868787 -2.34586153087649e-05)
(-2.21987598716115e-06 -0.000263011864147833 -2.62667402116331e-05)
(-1.21966305656623e-06 -0.000247977693570732 -2.87488403209512e-05)
(-5.50750679361512e-07 -0.000232659963058811 -3.08627772469694e-05)
(-1.38340166749538e-07 -0.000217440523225418 -3.33604478001044e-05)
(-4.55884460352984e-05 -5.11901686468709e-05 -3.30760088564322e-06)
(-3.50250336684133e-05 -0.000281768928119411 -7.93552171385259e-06)
(-2.00288462594078e-05 -0.000339970153121976 -1.70729389305947e-05)
(-1.41643984205302e-05 -0.000327763541395892 -2.33590041698328e-05)
(-1.04060468396037e-05 -0.000309662870110343 -2.91648105519418e-05)
(-7.50361247723054e-06 -0.000293185858919608 -3.44353358205736e-05)
(-5.20205700032964e-06 -0.000278159529363998 -3.90441757157528e-05)
(-3.41589590626016e-06 -0.000263705783251749 -4.3023410690752e-05)
(-2.0829714808987e-06 -0.00024918242424225 -4.64370593165788e-05)
(-1.1380749635746e-06 -0.00023425509053893 -4.93485902255862e-05)
(-5.16243367760788e-07 -0.000218840982110137 -5.17563829068693e-05)
(-1.30678283345476e-07 -0.000203426888746161 -5.44201547869549e-05)
(1.94500640016606e-06 7.87826575457836e-05 2.37786493953025e-05)
(3.55400957346778e-06 8.00430371589336e-05 2.16117630590615e-05)
(1.42511536036279e-06 -0.000182136546715056 5.50951131822686e-05)
(3.46546680206376e-06 4.21330231241957e-05 1.92180951236068e-05)
(3.39321287379668e-06 -0.000196062359380603 5.01836446228831e-05)
(7.4463744676077e-07 -0.00024793791797297 6.88979292823398e-05)
(2.31013979641546e-06 1.1476124646287e-05 1.68305582385828e-05)
(4.54073789451455e-06 -0.000226803434741514 4.44145747152657e-05)
(1.74711660661422e-06 -0.000267848484780224 6.18075845964532e-05)
(5.11637856688962e-07 -0.000259737519368291 7.52356224293289e-05)
(2.62302757633954e-07 -1.22948524411417e-05 1.41349076704513e-05)
(4.72643882154477e-06 -0.000250975078136939 3.85806694333661e-05)
(2.51316202605068e-06 -0.000291382541947328 5.35729149103043e-05)
(8.06217015107836e-07 -0.000275981519492565 6.60300057516883e-05)
(3.99131424339963e-07 -0.000262525001606954 7.53000238982305e-05)
(-2.60649076814008e-06 -3.00118990344707e-05 1.11809316542653e-05)
(3.94954353091459e-06 -0.000268745634448236 3.23810547246261e-05)
(2.5971420649984e-06 -0.000310180768390333 4.50436975188881e-05)
(9.33834563370983e-07 -0.000293308056712856 5.54787673605152e-05)
(3.75969975888686e-07 -0.000274620343381118 6.38457481086326e-05)
(2.43848094777407e-07 -0.000261271255865442 6.94187959545753e-05)
(-6.46722016335253e-06 -4.29094876137484e-05 8.30113405051591e-06)
(1.9810311817194e-06 -0.000281000256411645 2.6122132715261e-05)
(1.94788123391071e-06 -0.000324334267100146 3.61359899014455e-05)
(5.5090077268359e-07 -0.000307238896449008 4.45382320814347e-05)
(6.53390845895436e-08 -0.000287010218854011 5.10481474838077e-05)
(6.86997135801024e-08 -0.000270128757694773 5.5881135039817e-05)
(9.99226062194226e-08 -0.000256801856345885 5.87493263631869e-05)
(-1.15627712980091e-05 -5.19509025518811e-05 6.00387032306507e-06)
(-1.32154557969729e-06 -0.000288893972072061 2.06545906251244e-05)
(3.66438193665584e-07 -0.000334310149414673 2.71693095959356e-05)
(-4.5860260754141e-07 -0.000317599301180243 3.32714060960939e-05)
(-6.34857092330849e-07 -0.0002969033020001 3.79479726179031e-05)
(-4.57257314976494e-07 -0.000278934298967171 4.11500052361916e-05)
(-1.66060929949548e-07 -0.000263337952489921 4.34747011047067e-05)
(-6.00621392081021e-09 -0.000249611753667447 4.43669135986224e-05)
(-1.76961106059032e-05 -5.77430302168079e-05 4.16495028466041e-06)
(-6.04141103462231e-06 -0.000293221518231682 1.57842895765098e-05)
(-2.25364600431239e-06 -0.000340697491629669 1.84487157959173e-05)
(-2.20685006500713e-06 -0.000324582875658414 2.19795702166098e-05)
(-1.87697699551731e-06 -0.000304071410193172 2.46271729988964e-05)
(-1.32659873586149e-06 -0.000285809839320548 2.6260283274286e-05)
(-7.73997716918451e-07 -0.000269635548233196 2.71946442881445e-05)
(-3.2339367336958e-07 -0.00025449842745765 2.77517105737485e-05)
(-7.11912333864589e-08 -0.000240218605546607 2.72466610112384e-05)
(-2.46243278356542e-05 -6.09294022967469e-05 2.57312378868065e-06)
(-1.22843694804062e-05 -0.000294582172741869 1.0347703170786e-05)
(-5.90458651734047e-06 -0.000344097541865999 9.86341397694351e-06)
(-4.70504255314275e-06 -0.000328674583062727 1.08404755411289e-05)
(-3.68942439355594e-06 -0.000308616606112379 1.13265882852184e-05)
(-2.63435073679489e-06 -0.000290603771728007 1.12779246223543e-05)
(-1.68332041185982e-06 -0.000274385391037438 1.08940194527999e-05)
(-9.33865290777527e-07 -0.000259068004065213 1.02860808740237e-05)
(-4.07927135364807e-07 -0.000243919800113031 9.62743242419734e-06)
(-9.83732643517615e-08 -0.000229111774216299 8.1907069062752e-06)
(-3.21528651123591e-05 -5.97090577800114e-05 1.38003991202139e-06)
(-1.97861799492705e-05 -0.000292414942159826 4.89542847317005e-06)
(-1.04480971570336e-05 -0.000344892631316238 1.41966828846133e-06)
(-7.85355547008108e-06 -0.000330392308995361 -9.03705317520382e-08)
(-6.00787066440256e-06 -0.000310937039697953 -1.77392857944552e-06)
(-4.35639940667078e-06 -0.000293413259445675 -3.59635401863874e-06)
(-2.93707595411883e-06 -0.000277530482644641 -5.37008217088968e-06)
(-1.80629977479147e-06 -0.000262380845670648 -7.07697199588382e-06)
(-9.77159426058797e-07 -0.000247313159251193 -8.70525495114348e-06)
(-4.28776564380182e-07 -0.000231967283717316 -1.01567155517078e-05)
(-1.02780324349822e-07 -0.000216728056902618 -1.21668800375807e-05)
(-3.97605249823766e-05 -5.23722957236139e-05 -5.11997746295805e-07)
(-2.8319750013853e-05 -0.00028518154981456 -3.97124894688504e-07)
(-1.57320935477701e-05 -0.000342674739260959 -6.79338293420356e-06)
(-1.15029926166938e-05 -0.000329744622309566 -1.07328022685159e-05)