/*--------------------------------*- C++ -*----------------------------------*\
  =========                 |
  \\      /  F ield         | OpenFOAM: The Open Source CFD Toolbox
   \\    /   O peration     | Website:  https://openfoam.org
    \\  /    A nd           | Version:  12
     \\/     M anipulation  |
\*---------------------------------------------------------------------------*/
/*   Windows 32 and 64 bit porting by blueCAPE: http://www.bluecape.com.pt   *\
|  Based on Windows porting (2.0.x v4) by Symscape: http://www.symscape.com   |
\*---------------------------------------------------------------------------*/
FoamFile
{
    format      ascii;
    class       volVectorField;
    location    "0";
    object      U;
}
// * * * * * * * * * * * * * * * * * * * * * * * * * * * * * * * * * * * * * //

dimensions      [0 1 -1 0 0 0 0];

internalField   nonuniform List<vector> 
10166
(
(0.000101338876132077 9.74803802216261e-05 0.000550190699205429)
(0.000102080155602696 9.75777570443465e-05 0.000584476503994738)
(9.84449751133314e-05 0.000303606774000668 0.000550458674830075)
(0.000315486426440408 0.000101520294693919 0.000549038086215531)
(0.000102717028544769 9.75685588935008e-05 0.000620551272933381)
(9.91473041330804e-05 0.000303925435884568 0.000584578676310021)
(0.000317811538483167 0.000101650873698233 0.000583450514878114)
(9.31025826777364e-05 0.000517815050336856 0.000551011453222913)
(0.000302226963361565 0.000310302756655167 0.000549403182603639)
(0.000553013532312227 0.000108445936554694 0.000546423207457483)
(0.000103198545567142 9.74297332569745e-05 0.000658354511747655)
(9.97460532538787e-05 0.000303911413035722 0.00062045004863377)
(0.000319820950787341 0.000101672175270836 0.000619720097869478)
(9.37424574904634e-05 0.000518334564428462 0.00058477235213386)
(0.000304419238630244 0.0003106892697139 0.00058364417235749)
(0.000557199154359912 0.000108640368282429 0.000581105919266043)
(8.50592923852904e-05 0.000733003312948007 0.000551851696724359)
(0.000284277856002966 0.00052811614520622 0.000550076930107997)
(0.000532732184609734 0.000325692064373393 0.000546935941275196)
(0.000822383482790818 0.00011785362017613 0.000541803077437154)
(0.000103457285279946 9.71359130472278e-05 0.00069772345183627)
(0.000100191749706888 0.000303493210024016 0.000658006768494176)
(0.000321358102283746 0.000101558203603185 0.000657806590552563)
(9.42798207409683e-05 0.000518287019093399 0.000620204202154621)
(0.000306301993728731 0.000310741053792636 0.000619700126951622)
(0.00056086427100102 0.000108722666974298 0.000617795665367657)
(8.56175266456482e-05 0.000733666026445889 0.000585028156153239)
(0.000286273221805362 0.000528731482691024 0.000583949912040247)
(0.000536702365926838 0.000326237053788433 0.000581442019773474)
(0.000828883658320301 0.000118152473636338 0.000576910269167537)
(7.56975103710579e-05 0.000938923103955502 0.000552925859379361)
(0.000261905950902391 0.00074650884655499 0.000551049422437724)
(0.000501626520900001 0.000550135842124836 0.000547837749248875)
(0.000797626344297102 0.00035172044394005 0.000542467324976435)
(0.00113223105990297 0.000131441687034207 0.000534495337393615)
(0.000103409626845552 9.66585678489026e-05 0.000738355766966265)
(0.000100419863351876 0.000302590121556292 0.000697080690762926)
(0.000322214711196533 0.000101283236868892 0.000697571521636582)
(9.46701030952175e-05 0.000517549442907651 0.000657229830270985)
(0.000307722945814919 0.000310383141838934 0.000657523728043139)
(0.000563735083986295 0.000108664184598916 0.000656497112436673)
(8.6076960772562e-05 0.000733523694010782 0.000619747209937291)
(0.000287964627008317 0.00052877515655102 0.000619551615128221)
(0.000540157411874757 0.000326443338549232 0.000617906996653249)
(0.00083469105099093 0.000118339212141758 0.000614272967687379)
(7.61648071962551e-05 0.000939647302871866 0.000585280569544282)
(0.000263655133424719 0.000747285667441046 0.000584325102698207)
(0.000505247330312276 0.000550982279618387 0.000581969007604723)
(0.000803835312432868 0.00035255768642033 0.000577401987726456)
(0.00114172625309906 0.000131913717016754 0.000570151696118407)
(6.66504679018361e-05 0.00112653029215951 0.000554135861842367)
(0.000236082856860407 0.00095364247164124 0.000552257533498613)
(0.000462374275741973 0.000773825110052204 0.000549086282481069)
(0.000752743221305249 0.000589257664005715 0.00054370550329165)
(0.00110108991114059 0.000392151188546877 0.000535326350644659)
(0.0014940157391817 0.000153947065073703 0.00052375552072514)
(0.000102951854567261 9.59673101230839e-05 0.000779764545686532)
(0.000100349352134602 0.000301112820175834 0.000737364782776376)
(0.000322131612088881 0.000100814936974251 0.000738740150360246)
(9.48507789955081e-05 0.000515987419127566 0.000695669924015205)
(0.000308485424204537 0.000309530802861207 0.000696969089224729)
(0.000565462951253678 0.000108435421149566 0.000697126512690799)
(8.63958930787751e-05 0.000732411929416086 0.000655915027611495)
(0.000289207953655864 0.000528121886431658 0.000656821556931551)
(0.000542834357966286 0.000326229895394388 0.0006563263564119)
(0.000839419550731314 0.000118383261352759 0.00065397313764028)
(7.65383424133049e-05 0.00093934393046545 0.000619002966195657)
(0.000265106224734654 0.000747252217451587 0.00061919455767652)
(0.000508357751070585 0.000551251987940775 0.0006179643828426)
(0.000809349987543995 0.000353055671739822 0.00061454100801711)
(0.00115043014703096 0.000132278051004376 0.00060841857195689)
(6.70272101409702e-05 0.00112723774614648 0.000585448327216462)
(0.000237553673908204 0.000954488341298525 0.000584699959578119)
(0.000465545658181335 0.000774881721628571 0.000582612063214347)
(0.000758414471569653 0.000590544754842142 0.000578268666332252)
(0.00111018145997811 0.000393487918892229 0.000570827473610574)
(0.00150746427909752 0.000154718290972461 0.000559994505360354)
(5.84478565522686e-05 0.00129109295893592 0.000555383302307474)
(0.00020928607778883 0.00114074668476036 0.000553591660004693)
(0.000417253871890658 0.00098375240400298 0.000550597249081071)
(0.00069261155484594 0.000821983992686271 0.000545432924937226)
(0.00103775381738489 0.000651526615202895 0.000537055229722167)
(0.00144797481155927 0.000456118945115685 0.000524838097077792)
(0.00192905213738333 0.000194935187247454 0.0005087816231463)
(0.000101960745451172 9.5030422447742e-05 0.000821227816383755)
(9.98802574696417e-05 0.000298965199805486 0.000778368949408165)
(0.000320788039355984 0.000100118729532334 0.000780854887852492)
(9.47441740542287e-05 0.000513452080368826 0.000735208063276115)
(0.000308340966488651 0.000308088779193924 0.000737754191810581)
(0.000565596702000332 0.000107998760033335 0.000739472432918718)
(8.65173071350751e-05 0.000730142486814052 0.000693336306531353)
(0.000289817817022997 0.00052662970789296 0.000695600329935599)
(0.000544392737607185 0.000325502946895954 0.000696605785978396)
(0.000842563741455665 0.00011824791807495 0.000696022167663597)
(7.67780570871541e-05 0.000937806708345415 0.000653977986449888)
(0.000266125023713484 0.000746235923647673 0.00065557830875326)
(0.000510707339439393 0.000550810631528281 0.000655802652854234)
(0.000813792529454369 0.000353123959943082 0.000653955070417949)
(0.0011578489976273 0.000132500101621669 0.000649493829949078)
(6.73142179820015e-05 0.00112671961990441 0.000617915494970284)
(0.000238734626989137 0.00095429852945613 0.000618554799157574)
(0.000468211447357764 0.000775120000963968 0.00061785669834817)
(0.000763386783190506 0.000591252933400315 0.000614932490782163)
(0.00111846901887359 0.000394495111573671 0.000608888247325043)
(0.00152014949383599 0.000155393496654567 0.000599293448295211)
(5.87400754544323e-05 0.00129173169580706 0.000585471662308271)
(0.00021047282697502 0.00114157304298745 0.000584987233504756)
(0.000419915067224883 0.000984898021155806 0.000583281181677108)
(0.000697560969415423 0.0008235768452833 0.000579392281413092)
(0.00104603705419023 0.0006535705329927 0.000572206704415134)
(0.00146079124938789 0.000458291191548268 0.000560952025878026)
(0.00194781520688193 0.000196264540672074 0.000545486966788679)
(5.09375652108583e-05 0.00143184567428803 0.000556608034602301)
(0.00018339202877792 0.00130397666404336 0.000554950296999786)
(0.000370051599691285 0.00117088820648512 0.000552234585794797)
(0.000622963112471056 0.00103625506286313 0.000547501659580179)
(0.000949401988069047 0.00089855168862206 0.000539558067400735)
(0.00135488824311358 0.000747432495337609 0.000527322230989927)
(0.00184466404326422 0.000561409065456106 0.000510304545959106)
(0.00247652868563664 0.000267535131428878 0.000488568446278877)
(0.000100296578700963 9.38178109581718e-05 0.000861738920159955)
(9.88982365664914e-05 0.000296045372325594 0.000819370419498453)
(0.000317798934829038 9.91579192763421e-05 0.000823220755815641)
(9.42593268968247e-05 0.000509780129514337 0.000775348142077174)
(0.000306984049359499 0.000305952360977874 0.000779415113494944)
(0.000563573688378806 0.000107312076480487 0.000783145816747922)
(8.6370444153024e-05 0.000726509542443457 0.000731680801429227)
(0.000289561737302181 0.000524140130955917 0.000735593250379708)
(0.000544399053477444 0.000324154253872757 0.000738522601487728)
(0.000843469000672328 0.000117889026933755 0.000740321971480386)
(7.68348418281838e-05 0.000934807514081643 0.000689990655506632)
(0.000266540526519761 0.000744042376847315 0.000693297928126935)
(0.000511973651108015 0.000549502971726368 0.000695371194418363)
(0.000816669153887348 0.000352654434757815 0.000695642089590006)
(0.00116332685267206 0.000132537099392147 0.000693535313280651)
(6.74765327896886e-05 0.00112474087213219 0.000651398965140616)
(0.000239503079217105 0.000952860796175574 0.000653719123435442)
(0.000470137409985009 0.00077435572684157 0.000654775640282906)
(0.000767297414062944 0.000591233008002442 0.000653746379767729)
(0.00112546600039471 0.000395070274085475 0.000649693912089895)
(0.00153149057940691 0.000155933473412666 0.000642006973901083)
(5.8947227129908e-05 0.00129098266233669 0.000616476062121313)
(0.000211380796338767 0.0011411652289151 0.000617576959333158)
(0.00042207953717517 0.000984996152975814 0.000617491009071642)
(0.000701807299495024 0.000824344969752229 0.000615293144947101)
(0.00105349211643274 0.000655046214893416 0.000609806659244516)
(0.00147281531571482 0.000460164427308195 0.000600077525928366)
(0.00196602827655053 0.000197524204954565 0.000585763364423723)
(5.11546716459371e-05 0.00143240417192428 0.000585335907379199)
(0.000184311350917998 0.00130472500276053 0.000585122475398423)
(0.000372193743096096 0.00117200807160538 0.000583864267477817)
(0.000627092675227127 0.00103797239833452 0.00058061772436196)
(0.000956574105112365 0.000901056355421226 0.000574125833197033)
(0.00136646507820468 0.000750706187719199 0.000563134563058583)
(0.00186222732394553 0.000565000757740402 0.000546932781229835)
(0.00250245758167704 0.00026975659740458 0.000525434947314492)
(4.40090386177406e-05 0.0015502740302012 0.000557799949935489)
(0.000159197509776522 0.00144317981133706 0.000556274008324327)
(0.000323880267811506 0.00133234743285378 0.000553876757414093)
(0.000550443269281057 0.0012235814408343 0.000549708809296459)
(0.000847631192133139 0.00111891562090548 0.000542551882726091)
(0.00122609748123396 0.00101327030761255 0.000531033461774266)
(0.00170262175012703 0.000893865994770066 0.000513964954700443)
(0.00229840782346659 0.000733266154649397 0.000491006720190205)
(0.00318852010454388 0.000380511930091023 0.000461968769832014)
(9.78130230745624e-05 9.23037255013196e-05 0.00089996808901542)
(9.72689536613883e-05 0.000292258508781945 0.000859366256642393)
(0.000312724426173148 9.78959900626893e-05 0.000864848106234457)
(9.32933084010273e-05 0.000504807203796389 0.000815367120361866)
(0.000304050797593567 0.000303011268598922 0.000821253135026049)
(0.000558710530393019 0.000106328936687037 0.000827517145109185)
(8.58752252979865e-05 0.000721296979006227 0.000770444093756952)
(0.000288156665428883 0.000520480770198004 0.000776326342652587)
(0.000542313613006226 0.000322061465872239 0.00078167646533327)
(0.000841302712807463 0.000117253883400626 0.0007866109752142)
(7.66478497680221e-05 0.000930099135147112 0.000726695168404155)
(0.0002661407004276 0.000740456626282956 0.000732041649581697)
(0.000511749374103953 0.000547151690172093 0.000736428379141793)
(0.0008173431398325 0.000351518158831261 0.000739488372119311)
(0.00116599995213633 0.000132335358038672 0.000740625696042614)
(6.74706437984558e-05 0.00112104495519666 0.000685663169522044)
(0.000239705576260521 0.000949938470228429 0.00068999186274347)
(0.000471025067764457 0.000772377773567806 0.000693231373662404)
(0.000769675112387619 0.000590307490621894 0.000694683285160358)
(0.00113052692938945 0.000395086236114881 0.000693386225194283)
(0.00154070227322911 0.000156287766613521 0.000688496836304976)
(5.9038799693837e-05 0.00128859330296846 0.000648235453922815)
(0.000211900714493814 0.00113928189879413 0.000651232585641269)
(0.000423533007145916 0.00098382095802815 0.00065315388042099)
(0.000705009471154842 0.000824084493011203 0.000653154634869189)
(0.00105964781293252 0.000655784251501734 0.000650013414585607)
(0.00148347204622616 0.00046162232690466 0.000642555379077618)
(0.00198306027334029 0.000198669684266466 0.000630157885766526)
(5.12922712531302e-05 0.00143145264409511 0.000614728235924807)
(0.000184966276645269 0.00130407652739723 0.000616246120600707)
(0.000373854625877917 0.0011718784250752 0.000616789769355005)
(0.000630522185278827 0.00103862914432395 0.000615464593623652)
(0.000962892044826225 0.000902741290763689 0.000610966208908922)
(0.00137719041005225 0.000753450860697004 0.000601841651549463)
(0.00187918343202532 0.000568364390439458 0.00058708770317914)
(0.0025283036061132 0.000271968161742592 0.000566399355014413)
(4.41623511714778e-05 0.00155078255216745 0.000585073602588537)
(0.00015987954693586 0.001443834459105 0.000585086950162286)
(0.000325536010364267 0.00133336477233453 0.000584276212193404)
(0.00055374847236831 0.00122525688277204 0.00058176477736257)
(0.000853556424695136 0.00112158932614835 0.000576289025345836)
(0.00123598898582506 0.00101721376534894 0.000566313810343732)
(0.001718259263848 0.000899084147938968 0.000550380449484839)
(0.00232198621043637 0.000739103841287577 0.000527873610069587)
(0.00322423131600978 0.000384357236332009 0.000498473947918502)
(3.77092552292398e-05 0.00164880884280695 0.000558993933283188)
(0.000137058988317445 0.00156014010399157 0.000557552497001052)
(0.000280553435941906 0.00146899289176078 0.000555453688685101)
(0.000479942879361647 0.00138244847307173 0.000551886797918775)
(0.00074354759477786 0.00130577826028216 0.000545699474487197)
(0.00108194645712906 0.00123950371408428 0.000535450002595583)
(0.00151533109006826 0.00117950302524492 0.000519496577890132)
(0.00207716018175778 0.00111486911561119 0.000496422341783046)
(0.00283010472620459 0.000998270360169977 0.000465997002671588)
(0.0041721283754509 0.000609101707923226 0.000427246772852757)
(9.43755367052196e-05 9.04709317801199e-05 0.000934252951182708)
(0.000305098156456077 9.62997430310926e-05 0.000904402905294639)
(9.4852855826679e-05 0.000287523252230444 0.00089703817558009)
(9.17210936809989e-05 0.000498375877698699 0.000854271824733121)
(0.000299126769756136 0.000299156064226339 0.000862280094266179)
(0.000550211840415197 0.000105000079710068 0.000871642930141678)
(8.49385502852222e-05 0.000714286465934787 0.000808905546109275)
(0.000285268887924123 0.000515471445500256 0.000817096682785214)
(0.000537484405542786 0.000319090271360011 0.000825428372755625)
(0.000835030549865243 0.000116281002609805 0.000834389483632094)
(7.61464714032436e-05 0.000923423101664181 0.000763579717502198)
(0.000264670786525394 0.000735247931574651 0.000771323431949605)
(0.000509531909225984 0.000543558389789866 0.000778555961165754)
(0.000815008007602066 0.000349562930707943 0.000785214839605549)
(0.00116474388575437 0.000131827760045413 0.00079071799378809)
(6.72449828305465e-05 0.00111535731245678 0.000720347738116165)
(0.000239154461158157 0.000945273212055325 0.000727042090958854)
(0.00047050166347625 0.000768947699424045 0.000732957509263844)
(0.000769917085291047 0.000588266647580245 0.000737601091723401)
(0.00113280458970174 0.000394384936447783 0.000740027535347858)
(0.0015467297472723 0.000156390863676197 0.000739108454885291)
(5.89774966220848e-05 0.0012842910999795 0.000680495649804906)
(0.000211897908057855 0.00113565749707305 0.000685729734943135)
(0.000424006309431345 0.000981116607348522 0.000690103102414204)
(0.000706729223167856 0.000822555313707584 0.000692915010484378)
(0.0010638834106948 0.00065557573525009 0.000692935089004513)
(0.00149198438879401 0.000462514921378518 0.000688728818528031)
(0.0019980423764462 0.000199642138008164 0.000679290519567276)
(5.13241463307288e-05 0.00142873126539493 0.000644603941147242)
(0.000185261367019053 0.00130177228550439 0.000648168350520937)
(0.000374842760327046 0.00117024330526528 0.000650907772775911)
(0.000632938643083655 0.0010379761108425 0.00065202447471149)
(0.000967909900583992 0.000903374918242124 0.000650197191990285)
(0.00138650248023432 0.000755473638808963 0.000643750703747358)
(0.00189490730043052 0.000571370357050429 0.000631302373719633)
(0.00255344126183122 0.0002741238276432 0.000612226009183143)
(4.42425875549326e-05 0.00154969909376547 0.000612757322044074)
(0.00016031486552053 0.00144296955413211 0.0006145958859315)
(0.000326733354469989 0.00133296682431308 0.000615716966042122)
(0.000556368439568556 0.00122566183175027 0.000615301161125268)
(0.000858612514811033 0.00112319590451129 0.000612063613947113)
(0.00124496051703409 0.00102037077836932 0.000604295302183685)
(0.0017331678636358 0.000903867270108267 0.000590204537459196)
(0.00234536269398557 0.000744865418672473 0.000568797438554214)
(0.00326067749959211 0.000388322037798569 0.000539565071192386)
(3.78104502697732e-05 0.00164933450745154 0.000584756349321594)
(0.000137540135799418 0.00156072928693495 0.000584909608097)
(0.000281779782979489 0.00146988171715907 0.000584484918310226)
(0.000482485328741147 0.00138397061907184 0.000582700436220132)
(0.000748245962840417 0.00130836740906077 0.000578377371129299)
(0.00109000122451256 0.00124364328207007 0.00056994007963812)
(0.0015284375531476 0.0011856169254159 0.000555485185472706)
(0.00209764818186346 0.00112308968625872 0.000533232888087857)
(0.00286122116621501 0.00100789274275537 0.000502633185982841)
(0.00422184427737384 0.000616183895889598 0.000462598614389914)
(3.2104788351571e-05 0.00173008930607914 0.000560260241307246)
(0.000117191695848967 0.00165737179964202 0.000558819545687802)
(0.000241033077808171 0.00158316889918905 0.00055694970409544)
(0.000414272651198374 0.00151499139179064 0.000553940193830925)
(0.000644186111801773 0.00146002623749026 0.00054875033018949)
(0.000939179957885955 0.00142295876069914 0.00054001128576319)
(0.00131592719705179 0.0014068393537099 0.000525985623462675)
(0.00180621106994893 0.00141476057382127 0.00050461580692428)
(0.00246648675442395 0.00144382735184057 0.000474114468098554)
(0.00344647725325759 0.00145805936321801 0.000434010261582702)
(0.00570190878599433 0.00119248549791118 0.000381188639652625)
(8.98911122547886e-05 8.83159362947255e-05 0.000962642121278157)
(0.000294484696822252 9.43443262070638e-05 0.000940183010241821)
(9.15269175741654e-05 0.000281782852180245 0.000930744609156679)
(0.00053721258782622 0.000103276758508521 0.000914189859281921)
(0.000291776078601825 0.000294288138517051 0.000901172024950569)
(8.94182815582556e-05 0.000490349749319221 0.00089076843252309)
(8.34529810573847e-05 0.000705269036501347 0.000846090374215178)
(0.000280521919758087 0.000508935115293336 0.000856922418313139)
(0.000529157423692742 0.000315099694262496 0.000868830469816014)
(0.000823411754556529 0.000114900236183481 0.000882820202194929)
(7.52499511902904e-05 0.000914522769063334 0.000799930737647742)
(0.000261834247836333 0.000728178288596128 0.000810438094476626)
(0.000504720457756078 0.000538507621454176 0.000821101565433747)
(0.000808667465206511 0.000346612206998938 0.000832303763927808)
(0.00115811739920678 0.000130930823773102 0.000843550307741499)
(6.67394990305807e-05 0.00110739662851786 0.000754937528532474)
(0.000237627339629281 0.000938591776441743 0.000764372437570605)
(0.000468113421680168 0.000763802234803061 0.000773514164410859)
(0.000767267188058563 0.000584865646595321 0.000782189876267312)
(0.00113120061838288 0.000392770396025569 0.000789545310028479)
(0.00154816248544042 0.00015615726429751 0.000794127435523577)
(5.87198710272957e-05 0.00127779109956327 0.000712885719990335)
(0.000211210730977434 0.00113000662137456 0.000720719671103035)
(0.000423168344332897 0.000976598313695821 0.000728044765433386)
(0.000706412849391202 0.000819477253671019 0.000734393874127645)
(0.00106539079590517 0.000654163277964851 0.000738592267485694)
(0.00149730931091028 0.000462648049019245 0.000738917659043599)
(0.00200978568830207 0.000200364446265764 0.000733854413389947)
(5.12189029732673e-05 0.0014239648748687 0.000674694371717751)
(0.000185081071961008 0.00129753167503202 0.000680643773289494)
(0.00037492149631463 0.00116681695585643 0.000686021694766784)
(0.000633945701603807 0.00103572383794099 0.000690194679153871)
(0.000971047168123132 0.000902674928105613 0.000691877445120003)
(0.00139364767338933 0.000756527065111305 0.00068916037027655)
(0.00190853368132458 0.000573845754436492 0.000680177509575815)
(0.00257698983424522 0.000276156893095211 0.000663832824644824)
(4.42277503235461e-05 0.00154676568588781 0.000640654128046054)
(0.000160421676267724 0.00144031932681071 0.000644626250519884)
(0.000327304833410077 0.00133087988245108 0.000648066290884532)
(0.000558022818611597 0.00122451485950984 0.000650260604677634)
(0.000862388313792881 0.00112345251860948 0.000649943718959313)
(0.00125247545830835 0.00102247644121547 0.000645231777873921)
(0.00174672809806627 0.000908000442119425 0.000633929518371536)
(0.00236791749187331 0.000750417871014835 0.000614531049302151)
(0.00329732043425319 0.000392367319517013 0.000586244579010984)
(3.78457100995734e-05 0.00164822432784823 0.000610679358140123)
(0.000137794893643368 0.00155971655160719 0.000612704367088481)
(0.000282577329385108 0.00146922991861645 0.000614290406825541)
(0.00048437031837031 0.00138404890703366 0.000614718522030213)
(0.000752079364418249 0.00130966513394918 0.000612812902922758)
(0.00109708347214118 0.00124673074984172 0.000606867186370549)
(0.00154067185955722 0.00119103163763089 0.000594674689390345)
(0.00211770073804434 0.0011310675635144 0.000573992178798825)
(0.0028927950090081 0.00101774330100381 0.00054382037502719)
(0.00427363186897123 0.000623665187989891 0.000502927104170892)
(3.21649574590436e-05 0.0017307289044518 0.000584486513391583)
(0.000117509296779654 0.00165796247890401 0.000584660724479631)
(0.000241897474451437 0.00158395337879236 0.000584512564799035)
(0.000416149018365802 0.00151631592598054 0.000583366409282176)
(0.000647772396678475 0.0014623659190234 0.000580173008382373)
(0.000945484931957499 0.00142691217919098 0.000573461717686461)
(0.00132639852513986 0.00141310143631029 0.000561273563173083)
(0.00182292915848256 0.00142405136587466 0.000541190625758315)
(0.00249244354124403 0.00145668990559391 0.000510960878640389)
(0.00348665352877552 0.00147427099362542 0.000469743595080115)
(0.0057735823339719 0.00120782602255306 0.000414207666388159)
(2.72090759319805e-05 0.0017966186768093 0.000561695775966686)
(9.96696783515618e-05 0.00173750054282594 0.000560145182111219)
(0.000205754631106981 0.00167763630301916 0.000558397082442083)
(0.000354849785709654 0.00162440592856503 0.000555842118492855)
(0.000553096153087909 0.00158574849804741 0.000551569219066297)
(0.000806639100123433 0.00156853965526306 0.000544344134239225)
(0.00112705949715154 0.00157993865834532 0.000532538935719184)
(0.00153702842724793 0.00163099071928602 0.000514008672786514)
(0.00207752497459368 0.00173997517658347 0.000486165338379051)
(0.002828306620316 0.00193646027809797 0.000446534973413758)
(0.0040491129990137 0.00229367599902118 0.000392777866419565)
(0.0077894670706357 0.00367871637536192 0.000317161540650508)
(8.43432518463422e-05 8.58568633997292e-05 0.000983015612382888)
(0.00028057091086178 9.20206230368835e-05 0.000970148405320647)
(8.72087236286066e-05 0.000275025319646843 0.000958564935796223)
(0.000518874339836951 0.000101117205309952 0.000953376134334603)
(0.000281596697792997 0.000288335233780316 0.000936249297799289)
(8.62767938856248e-05 0.000480643122567274 0.000923259240071513)
(0.000805040786073817 0.000113035431060777 0.000930605889310726)
(0.000516519852024565 0.00030995274316357 0.000910555358851029)
(0.000273525759979504 0.000500715206255106 0.000894502584121008)
(8.13139945146981e-05 0.000694073666766837 0.000880745387648601)
(7.38709170156875e-05 0.000903161094415991 0.000834802189579783)
(0.00025730257658449 0.000719017994664704 0.000848418135407411)
(0.00049662905551487 0.000531776811425447 0.000863114465498902)
(0.000797135448934927 0.00034246740139734 0.000879902817988703)
(0.00114431684206294 0.000129541751515302 0.000898513735510343)
(6.58876805892037e-05 0.00109688824049296 0.000788733335024434)
(0.000234870102120568 0.00092961768840942 0.000801280513882014)
(0.000463326294048777 0.00075666030637052 0.000814235790233422)
(0.000760802398818799 0.000579824370620071 0.000827901818496367)
(0.00112431558138428 0.000390000832511499 0.000841646489533942)
(0.00154312282118114 0.000155473952455977 0.000853697640888217)
(5.82162813085925e-05 0.0012688053624481 0.00074489321361829)
(0.00020965084828786 0.00112203272247097 0.000755697827319405)
(0.000420622852714781 0.000969956952810783 0.000766517506433775)
(0.000703376032419827 0.000814528261546429 0.000777241837784577)
(0.00106313336722089 0.00065123109236863 0.000786861482915802)
(0.00149805548127379 0.000461768811964049 0.000793370919898854)
(0.00201665966321244 0.000200734368994344 0.000794606065176213)
(5.09406341148832e-05 0.00141686967115307 0.000704623580697393)
(0.000184289315841003 0.00129105836264321 0.000713310106426564)
(0.000373804977555348 0.00116128660189809 0.000721811589235463)
(0.000633050834775757 0.00103153995771262 0.000729751652692196)
(0.000971558532736152 0.00090029826444512 0.000735967866660178)
(0.00139762325618468 0.000756292419066558 0.000738330553104458)
(0.0019188691991852 0.000575559354144644 0.000734377413326536)
(0.00259772155983598 0.000277971000400859 0.000722329100831187)
(4.40915420334718e-05 0.00154171340593169 0.000668486022159567)
(0.00016010279920316 0.00143560048419941 0.000674916000211582)
(0.000327047228188682 0.00132680333888381 0.000681100424018693)
(0.000558362723998902 0.00122149429209427 0.000686498276479339)
(0.000864357166624279 0.00112201970822757 0.000689928457037101)
(0.0012578236105617 0.00102319517173323 0.000689352224296137)
(0.00175809071669071 0.000911196210031671 0.000682098990071307)
(0.00238876900773187 0.000755572050111213 0.000665980656784714)
(0.00333337892873571 0.000396428957613277 0.000639769769011526)
(3.77965155936649e-05 0.00164522915409974 0.000636554611758268)
(0.000137754428768195 0.00155683834795674 0.000640744708433005)
(0.000282802550096323 0.00146675746607782 0.000644711272805117)
(0.000485352393956943 0.00138238352860985 0.000647845273589862)
(0.000754678408225485 0.00130935258114898 0.000649020192445704)
(0.00110269470167393 0.00124844140053215 0.000646417477146644)
(0.00155143280369542 0.00119544856307663 0.000637488877023226)
(0.00213668697824444 0.00113857668253501 0.000619404941485819)
(0.00292428223064073 0.00102770701153505 0.00059054325073305)
(0.00432716965327124 0.000631528478611283 0.000549493532041505)
(3.21665000958013e-05 0.0017297232693725 0.000608634105504502)
(0.000117622485657466 0.00165690719006301 0.000610685955743143)
(0.000242367829411161 0.00158311300211952 0.000612579994153229)
(0.000417407315564775 0.00151606495820312 0.000613708249462734)
(0.000650518880953841 0.00146322660364565 0.000613045173576677)
(0.000950795276187756 0.00142956520878454 0.000609032432474009)
(0.00133588013652673 0.001418369347195 0.000599469637261136)
(0.00183894699990774 0.0014328208686672 0.000581504264054876)
(0.00251842586662831 0.00146966740171692 0.000552276722698262)
(0.00352821255994189 0.00149129666865282 0.000510428442983345)
(0.00584954495162626 0.00122432446945826 0.000452407138158515)
(2.7238063190468e-05 0.00179749083375734 0.000584389421642002)
(9.98587196521048e-05 0.00173819064489407 0.000584443410755963)
(0.000206325497120044 0.00167838379003591 0.000584428024342433)
(0.000356169775593536 0.00162555101921064 0.000583774102930677)
(0.000555727830696237 0.00158776931601673 0.000581578177369484)
(0.000811401878889674 0.00157207314164548 0.0005765354545003)
(0.00113512500468338 0.0015858001537119 0.000566843092551185)
(0.00155007285046606 0.00164020506655302 0.000550049380019759)
(0.00209795675576975 0.00175380073312205 0.000523096684743294)
(0.00285970140754008 0.00195640409413288 0.000482929597937582)
(0.00409849095482142 0.00232196044079958 0.000426677028140503)
(0.00789104705211823 0.00372896117625113 0.000345855087224144)
(2.29865329119062e-05 0.00185064706059074 0.000563416582072209)
(8.44282850118714e-05 0.00180300337611245 0.000561627194199853)
(0.000174781733507566 0.00175513912095082 0.000559867257517536)
(0.000302192990705793 0.00171397281624671 0.000557622893718161)
(0.000471755927586997 0.00168744353993376 0.000554114908814796)
(0.00068781904687117 0.00168319260585438 0.000548264580146711)
(0.000957850154128727 0.00170992055436037 0.000538625304780118)
(0.00129586017728196 0.00178113928692524 0.000523241727707541)
(0.00172593811892507 0.00192115914785245 0.000499506256367948)
(0.00228770009521582 0.00217561202707824 0.000464211230642026)
(0.00305089172315785 0.00264748326921184 0.000413367757875662)
(0.00404157432964701 0.00378631365940089 0.000336440445440656)