/*--------------------------------*- C++ -*----------------------------------*\
  =========                 |
  \\      /  F ield         | OpenFOAM: The Open Source CFD Toolbox
   \\    /   O peration     | Website:  https://openfoam.org
    \\  /    A nd           | Version:  12
     \\/     M anipulation  |
\*---------------------------------------------------------------------------*/
/*   Windows 32 and 64 bit porting by blueCAPE: http://www.bluecape.com.pt   *\
|  Based on Windows porting (2.0.x v4) by Symscape: http://www.symscape.com   |
\*---------------------------------------------------------------------------*/
FoamFile
{
    format      ascii;
    class       surfaceScalarField;
    location    "0";
    object      phi;
}
// * * * * * * * * * * * * * * * * * * * * * * * * * * * * * * * * * * * * * //

dimensions      [0 3 -1 0 0 0 0];

internalField   nonuniform List<scalar> 
29275
(
-2.19068960565747e-06
7.08348539184242e-08
2.6304252039699e-09
-2.26219569184427e-06
6.86680340356006e-08
2.83795571385462e-09
-2.21615855152829e-06
1.41407811769605e-07
3.69012552992223e-09
-2.35096502346021e-06
7.59513466924993e-08
5.47530702403349e-09
-2.33184112765333e-06
6.65139711442184e-08
3.13142940601371e-09
-2.28842420539222e-06
1.37034905810813e-07
3.89875756747326e-09
-2.42765793139467e-06
7.36414327427129e-08
5.88933005484846e-09
-2.27920426463607e-06
2.13307811867717e-07
4.34846488077871e-09
-2.44578716414907e-06
1.52364991809367e-07
9.1831554121426e-09
-2.60178171076227e-06
8.437974507972e-08
8.20208568163761e-09
-2.39974333964301e-06
6.43816058938611e-08
3.5205695235629e-09
-2.35879840030381e-06
1.32684658243315e-07
4.2035546964128e-09
-2.50235158966748e-06
7.13487169929313e-08
6.47632248629374e-09
-2.35337902328124e-06
2.06742590928413e-07
4.46717526655912e-09
-2.52549363960766e-06
1.47723521386515e-07
9.52313699475898e-09
-2.68655137127281e-06
8.18203752380866e-08
8.83850963136555e-09
-2.34414350789105e-06
2.84755318506335e-07
6.74416010018036e-09
-2.55260467961014e-06
2.33671665650799e-07
8.34014393159406e-09
-2.76379321378351e-06
1.7350447084518e-07
1.25154103247545e-08
-2.85947625936695e-06
9.28055676209465e-08
1.09554347875164e-08
-2.46603838349327e-06
6.22812725930799e-08
4.01372052390586e-09
-2.42741035868026e-06
1.28377678964444e-07
4.61592307402061e-09
-2.57516638539478e-06
6.90817813496705e-08
7.25354238546253e-09
-2.42558472331932e-06
2.00220660775776e-07
4.66983225241673e-09
-2.60310980843285e-06
1.43123096700261e-07
1.00453800979712e-08
-2.76909652150461e-06
7.92799916677507e-08
9.74142489605967e-09
-2.42016870710302e-06
2.76001399389693e-07
6.76651262088395e-09
-2.63560498374813e-06
2.26434712665163e-07
8.75634371527137e-09
-2.85375050347836e-06
1.68229038056635e-07
1.30717475966646e-08
-2.95245143631146e-06
9.00048555264671e-08
1.18086992157931e-08
-2.38312851169729e-06
3.56068241514605e-07
7.83132817588542e-09
-2.61596877430433e-06
3.16980458194549e-07
1.06278023479511e-08
-2.92762385684657e-06
2.66760705297159e-07
1.28536852909832e-08
-3.05131772642093e-06
1.92837187053753e-07
1.43628040485817e-08
-3.04954664928823e-06
9.87997324932972e-08
1.3796491190643e-08
-2.53088304857559e-06
6.02204002790567e-08
4.62418000853779e-09
-2.49439103972889e-06
1.24117590754646e-07
5.14438502364239e-09
-2.64624918386117e-06
6.68547992183938e-08
8.2416581045988e-09
-2.49596776639871e-06
1.93774096924024e-07
4.98678363730214e-09
-2.67876693664379e-06
1.38584384515253e-07
1.07704997600924e-08
-2.8495493337993e-06
7.67719473923386e-08
1.09343543377749e-08
-2.49414411807205e-06
2.67327396154347e-07
6.8688735276901e-09
-2.71640523908927e-06
2.19231738998491e-07
9.3615889472951e-09
-2.94133155556688e-06
1.62997736899699e-07
1.39087385720375e-08
-3.0429610066946e-06
8.72282050706864e-08
1.30227090906073e-08
-2.46002436713684e-06
3.45075354821903e-07
7.82202710345392e-09
-2.7007429596108e-06
3.07216587555259e-07
1.07589386047846e-08
-3.02269644228225e-06
2.58569654472639e-07
1.34883873357776e-08
-3.15042522846656e-06
1.87020220957712e-07
1.5163889406954e-08
-3.14840898084576e-06
9.5824173550037e-08
1.4846695079936e-08
-2.39236913199908e-06
4.28463793269104e-07
6.57886134647903e-09
-2.63553419125123e-06
4.00747466799711e-07
1.15256290188986e-08
-3.00034505499311e-06
3.64662192655216e-07
1.25917014971539e-08
-3.24231127581116e-06
2.98328576358223e-07
1.53964324705568e-08
-3.23816951870353e-06
2.05025952807304e-07
1.59599994806332e-08
-3.15279455388431e-06
1.01951797969578e-07
1.65650357440422e-08
-2.59445563079173e-06
5.82021310994969e-08
5.37035126183272e-09
-2.55990028218522e-06
1.19926428825935e-07
5.80319101755287e-09
-2.71576771427601e-06
6.46752166282313e-08
9.46740714773379e-09
-2.56467527380647e-06
1.87428177413741e-07
5.39700925350803e-09
-2.75261798093015e-06
1.34130356238056e-07
1.17198818493172e-08
-2.92806784921723e-06
7.4309065965283e-08
1.2451039457429e-08
-2.56621928519344e-06
2.58774916340032e-07
7.0744974837154e-09
-2.79514210350549e-06
2.12111062712058e-07
1.01970735832497e-08
-3.02668459189777e-06
1.57848823623624e-07
1.50466948025366e-08
-3.1311462743687e-06
8.44874355726262e-08
1.46321045753608e-08
-2.5348019537455e-06
3.34213526611592e-07
7.89161358554502e-09
-2.78321709381504e-06
2.97535454677813e-07
1.1039455752667e-08
-3.11521690823432e-06
2.50456739474795e-07
1.44231781990245e-08
-3.2468920723663e-06
1.81260174021018e-07
1.63436468119918e-08
-3.24461052725915e-06
9.2878182456481e-08
1.6345920979642e-08
-2.4690320662868e-06
4.15130495216939e-07
6.60788263899869e-09
-2.720507549427e-06
3.8835860030894e-07
1.16534194306979e-08
-3.09740841080467e-06
3.53451593067892e-07
1.29403718502022e-08
-3.34737158078358e-06
2.89368679326255e-07
1.62002051049312e-08
-3.34302918008025e-06
1.98839803296183e-07
1.70077872458009e-08
-3.25460983908237e-06
9.88793643345316e-08
1.77823147966536e-08
-2.38446794596643e-06
5.02350907184421e-07
4.22120878256741e-09
-2.63521592101752e-06
4.84047669809681e-07
1.02043615206954e-08
-3.00316469805653e-06
4.62289458669884e-07
1.3399539285472e-08
-3.31267867743408e-06
4.05982083701389e-07
1.49120738229355e-08
-3.42438098069832e-06
3.17030919315828e-07
1.71722634503302e-08
-3.32825337665972e-06
2.10411596166428e-07
1.79368381762095e-08
-3.19426409630975e-06
1.03249918810426e-07
1.89720564570963e-08
-2.65695472561186e-06
5.62299054621398e-08
6.26907235389086e-09
-2.62412384733763e-06
1.15811955811138e-07
6.61370540135633e-09
-2.78390738808763e-06
6.25448911561658e-08
1.09650261431579e-08
-2.63185838281447e-06
1.8120195842898e-07
5.90766717418937e-09
-2.82483779710601e-06
1.29777240572681e-07
1.29209799012528e-08
-3.0048322435856e-06
7.18987811659597e-08
1.43329287169109e-08
-2.63655064916928e-06
2.50376293042496e-07
7.38338699775649e-09
-2.87198274687988e-06
2.05092663652897e-07
1.12754534944001e-08
-3.10997823732674e-06
1.52801644301143e-07
1.65209814453626e-08
-3.2171723076281e-06
8.17948014308063e-08
1.66821900850283e-08
-2.6076139925177e-06
3.23533300196595e-07
8.0537797691622e-09
-2.86355867409473e-06
2.87973384739156e-07
1.15539038740926e-08
-3.20536196335638e-06
2.42542422399519e-07
1.56486571364671e-08
-3.34087123274192e-06
1.75575160754739e-07
1.79381910252936e-08
-3.33829286208088e-06
8.99747674978227e-08
1.83395735225666e-08
-2.54352467779512e-06
4.01990375612302e-07
6.71584204352886e-09
-2.80313064917553e-06
3.76114650383552e-07
1.19355787286377e-08
-3.1917365739238e-06
3.42341060930748e-07
1.34833234289875e-08
-3.44961236552009e-06
2.80525173716817e-07
1.73990242912251e-08
-3.44505371881723e-06
1.92718945235153e-07
1.8527514516689e-08
-3.3536307184225e-06
9.58401302068709e-08
1.95266036467178e-08
-2.46020746000216e-06
4.86548773344711e-07
4.32125921159096e-09
-2.71959226023976e-06
4.6897044121276e-07
1.0372478863859e-08
-3.09981797136934e-06
4.4799886337354e-07
1.37593792221583e-08
-3.41958247311849e-06
3.93577168256738e-07
1.56354180343997e-08
-3.53499880541409e-06
3.07432367529001e-07
1.82253168159487e-08
-3.43560950335543e-06
2.04051527766435e-07
1.91917301869975e-08
-3.29693774706424e-06
1.00131122043613e-07
2.03246110647184e-08
-2.37448632596326e-06
5.77036838139519e-07
2.35118169989336e-09
-2.63106741768803e-06
5.66621671570596e-07
7.76670332986204e-09
-2.99122368724827e-06
5.58565309288057e-07
1.24317670135629e-08
-3.29919807289409e-06
5.13649821782828e-07
1.47298243635001e-08
-3.48079304771977e-06
4.30056765112914e-07
1.71333190863402e-08
-3.49860467977123e-06
3.24256637390797e-07
1.91635174896984e-08
-3.36150398611246e-06
2.12205251666047e-07
2.00560740278457e-08
-3.2054407433239e-06
1.03710313272781e-07
2.07867186662508e-08
-2.71860348567278e-06
5.43080565954024e-08
7.34059487901514e-09
-2.68725831896758e-06
1.11771188897429e-07
7.59312610947961e-09
-2.85088052278362e-06
6.04696155294188e-08
1.27724763890199e-08
-2.6977151117552e-06
1.75110753349576e-07
6.55794971462879e-09
-2.89562292236152e-06
1.25533854606197e-07
1.44098211647654e-08
-3.08004244502535e-06
6.95435544680638e-08
1.66315665332726e-08
-2.70531220054809e-06
2.42163584143976e-07
7.79999300563765e-09
-2.94711570897039e-06
1.98197126278472e-07
1.26207792773479e-08
-3.19140452635825e-06
1.47870417959497e-07
1.83756176200249e-08
-3.30122914692507e-06
7.91591022138546e-08
1.92305579769631e-08
-2.67862568666712e-06
3.13072249222908e-07
8.31582131393716e-09
-2.94194107844917e-06
2.78574620502553e-07
1.22839497629123e-08
-3.29331536103072e-06
2.3482403309696e-07
1.72065622248883e-08
-3.43254087727623e-06
1.69991431873225e-07
1.99940202838351e-08
-3.42962106329457e-06
8.71251287846267e-08
2.08851203009143e-08
-2.61600581552918e-06
3.89101222216085e-07
6.9132745545319e-09
-2.88356589419487e-06
3.64069230178339e-07
1.2393232715025e-08
-3.28363843365122e-06
3.31307743367618e-07
1.46905029103021e-08
-3.54918756270361e-06
2.71763735432487e-07
1.90353082525144e-08
-3.54439518369968e-06
1.86687570677528e-07
2.05667655721673e-08
-3.44999119917192e-06
9.28476903589097e-08
2.18521064751668e-08
-2.53373438568164e-06
4.71014837495118e-07
4.50249477481063e-09
-2.8015723288715e-06
4.54112780399119e-07
1.06979096837683e-08
-3.19376933953418e-06
4.33880589536884e-07
1.43474298468394e-08
-3.52365055192578e-06
3.81337002533313e-07
1.67394880676927e-08
-3.64259919239024e-06
2.97947287049379e-07
1.97710189016446e-08
-3.54000522299177e-06
1.97762057892481e-07
2.10012549199726e-08
-3.39672654695395e-06
9.70470408489622e-08
2.22681997477529e-08
-2.44909676443766e-06
5.58649712961839e-07
2.50945977158818e-09
-2.71456838300626e-06
5.4879187037238e-07
8.00074051419381e-09
-3.08682322049727e-06
5.41158649587011e-07
1.2812265183443e-08
-3.40506594563499e-06
4.97787466571738e-07
1.54167024010857e-08
-3.59278181181667e-06
4.1690719643327e-07
1.81489754214338e-08
-3.61117248982157e-06
3.14405082700673e-07
2.04394448060008e-08
-3.46942450302955e-06
2.05775106977077e-07
2.14681764471604e-08
-3.30792633600056e-06
1.00569309009576e-07
2.22406615848602e-08
-2.37179515888831e-06
6.51582235593134e-07
1.51676582350075e-09
-2.62990294878019e-06
6.48583810294625e-07
5.64684846375664e-09
-2.98820639105074e-06
6.53286546917229e-07
1.0687291033983e-08
-3.27909467092476e-06
6.19380962863318e-07
1.43671566384548e-08
-3.45409410691897e-06
5.41581551043201e-07
1.70135538533204e-08
-3.54057540033232e-06
4.3872337534646e-07
1.94787805914562e-08
-3.52023428270212e-06
3.26192236320714e-07
2.12378097262113e-08
-3.37089776285734e-06
2.12772299971125e-07
2.18510558806901e-08
-3.2056220146282e-06
1.03861442910995e-07
2.1912722226732e-08
-2.77965816683227e-06
5.24399405424943e-08
8.61462522159711e-09
-2.74952708358935e-06
1.07814367170407e-07
8.7624039060889e-09
-2.91692916520689e-06
5.84539831061023e-08
1.49351382952186e-08
-2.76245041370587e-06
1.69162561381684e-07
7.34397293100589e-09
-2.96519442937299e-06
1.21409171224565e-07
1.62250399317182e-08
-3.1539298491951e-06
6.72483906103585e-08
1.94113760234008e-08
-2.77270182218184e-06
2.34159534615296e-07
8.34091161974578e-09
-3.02074410875185e-06
1.91446665031153e-07
1.4273589253048e-08
-3.27118268062655e-06
1.43067515498588e-07
2.06640021135305e-08
-3.3835290367799e-06
7.65834251576663e-08
2.23479260677577e-08
-2.74802115428405e-06
3.02864587222595e-07
8.69450892459126e-09
-3.01855643875408e-06
2.69383068520882e-07
1.32294893821836e-08
-3.37928198262955e-06
2.27310231653909e-07
1.91476604860484e-08
-3.522105584779e-06
1.64528595525845e-07
2.25708616247292e-08
-3.51878420815631e-06
8.43381440344943e-08
2.40554562912637e-08
-2.68665288843904e-06
3.76507874372238e-07
7.21144748966791e-09
-2.9619861832164e-06
3.52269611182368e-07
1.3041121969063e-08
-3.37329034694831e-06
3.20437419278273e-07
1.63224707266183e-08
-3.6462931572112e-06
2.63151451077865e-07
2.11521979787598e-08
-3.6412311175504e-06
1.80769215379927e-07
2.31859868774789e-08
-3.54384743231543e-06
8.99136149790162e-08
2.48277082993767e-08
-2.60521929760604e-06
4.55812053247727e-07
4.77407504068244e-09
-2.88132329193884e-06
4.39539814438968e-07
1.11937366486837e-08
-3.28520886402205e-06
4.19989371319691e-07
1.51511163148254e-08
-3.62493072779704e-06
3.69392503383434e-07
1.83417103043053e-08
-3.74734354446376e-06
2.88605463812316e-07
2.1861694971054e-08
-3.64158411832014e-06
1.91571021507838e-07
2.34223837738403e-08
-3.49375034330031e-06
9.40113801867784e-08
2.48643394234485e-08
-2.52145072183278e-06
5.40612154813081e-07
2.75661327467709e-09
-2.79562254369045e-06
5.31270181141791e-07
8.39921061563223e-09
-3.17968787124163e-06
5.24016715346667e-07
1.3426495623179e-08
-3.50798377788004e-06
4.82133325752565e-07
1.64687547968155e-08
-3.70168051426749e-06
4.03927427447875e-07
1.96575967910557e-08
-3.72060563789222e-06
3.04670468359166e-07
2.22956497673507e-08
-3.57429771607179e-06
1.99418495464606e-07
2.35030646559653e-08
-3.40745572516442e-06
9.7464144089616e-08
2.43332921000836e-08
-2.44536170681708e-06
6.3051368918474e-07
1.70251811825504e-09
-2.71245986595432e-06
6.27915410460454e-07
5.94287165367168e-09
-3.08285913478478e-06
6.32727811207072e-07
1.10842647098793e-08
-3.3835742165495e-06
6.00044433866066e-07
1.50347977127544e-08
-3.564601758777e-06
5.24852738860915e-07
1.79783702033059e-08
-3.65403289557911e-06
4.25286234947478e-07
2.0724723753502e-08
-3.63296199437989e-06
3.16256334456469e-07
2.26857824842109e-08
-3.47854325538615e-06
2.06308771402999e-07
2.33741609955529e-08
-3.30751942412134e-06
1.00708514267267e-07
2.34293391641702e-08
-2.37916456551208e-06
7.25413548398637e-07
1.41419711778783e-09
-2.63532069915657e-06
7.29976671035328e-07
4.57045129219036e-09
-2.99452596089968e-06
7.468766369186e-07
8.96155402340289e-09
-3.27895878461145e-06
7.23189936619302e-07
1.37160298915483e-08
-3.43044336612843e-06
6.5131364325912e-07
1.69634120327081e-08
-3.50586384701231e-06
5.51369326175417e-07
1.94697190672805e-08
-3.55353127091482e-06
4.40754851428137e-07
2.16569115450985e-08
-3.52472977121293e-06
3.26676592134527e-07
2.2987745219445e-08
-3.37196032657331e-06
2.12994885502094e-07
2.30369458189734e-08
-3.20344885351061e-06
1.03910685211337e-07
2.2350185059338e-08
-2.84041009454164e-06
5.0632119119832e-08
1.01196982954803e-08
-2.81118978617818e-06
1.03954689371995e-07
1.01478855769852e-08
-2.98232510994161e-06
5.64982593372739e-08
1.75121969387977e-08
-2.82628227503321e-06
1.63369628217128e-07
8.27659036735325e-09
-3.03380067899122e-06
1.17412611160742e-07
1.84099630993102e-08
-3.22675910357161e-06
6.50158806274522e-08
2.2748401176068e-08
-2.83892362479447e-06
2.2636955942337e-07
9.01482126341805e-09
-3.0930981472678e-06
1.84841080297778e-07
1.62660936055836e-08
-3.34955962118688e-06
1.38397263178127e-07
2.34530622281295e-08
-3.46431528624117e-06
7.40732451071415e-08
2.6124258875441e-08
-2.81602229060318e-06
2.92930932901042e-07
9.22975743583051e-09
-3.09363215731253e-06
2.60437581533107e-07
1.44257680976842e-08
-3.46350180286293e-06
2.20038125793268e-07
2.15228473665218e-08
-3.60979736646548e-06
1.59196699846319e-07
2.57424981493958e-08
-3.60599703960579e-06
8.16186454055453e-08
2.79419560214422e-08
-2.75566219392865e-06
3.64241868142099e-07
7.63201219621355e-09
-3.03858582072829e-06
3.40751270322165e-07
1.39259341004871e-08
-3.46087228362403e-06
3.09832286117381e-07
1.82893861317493e-08
-3.74115626512613e-06
2.54731840604622e-07
2.38075175148524e-08
-3.73576496758715e-06
1.74981542338185e-07
2.64611957131203e-08
-3.63537883866793e-06
8.70466311855661e-08
2.85399567984385e-08
-2.67485065564077e-06
4.40986348930021e-07
5.15285369427901e-09
-2.95902847478051e-06
4.25303869994891e-07
1.18824368762075e-08
-3.37429569174908e-06
4.06389478075765e-07
1.61758677899785e-08
-3.72364783379197e-06
3.57744684114454e-07
2.04462734204973e-08
-3.84942520278576e-06
2.79444145320216e-07
2.45589062711245e-08
-3.74051357971621e-06
1.8550146999443e-07
2.65275578193907e-08
-3.58814978251779e-06
9.10360357033514e-08
2.81909649407983e-08
-2.59173661158195e-06
5.23001092498577e-07
3.09680943341177e-09
-2.87440750220255e-06
5.14123868791185e-07
8.97491417818968e-09
-3.26999523744123e-06
5.07215446246444e-07
1.42750713499586e-08
-3.6081337298453e-06
4.6676682014239e-07
1.79265635750399e-08
-3.80764488227528e-06
3.91187676131876e-07
2.1723595366625e-08
-3.82705979916545e-06
2.95094682795422e-07
2.47921465022623e-08
-3.67625331201401e-06
1.93164146276111e-07
2.62251759275215e-08
-3.50413018925737e-06
9.44078276490489e-08
2.71307694135612e-08
-2.51661779785372e-06
6.09899669213721e-07
1.96854385450872e-09
-2.79251874958733e-06
6.07633888649404e-07
6.45184673155764e-09
-3.17471813300081e-06
6.12583742105371e-07
1.16911534852331e-08
-3.48505462257101e-06
5.80974499316374e-07
1.60657285579956e-08
-3.6719814359187e-06
5.08349886579745e-07
1.94256456135124e-08
-3.76428297969803e-06
4.12021795810174e-07
2.25560440970228e-08
-3.7424749620127e-06
3.06440789197057e-07
2.47863230849575e-08
-3.58306796089453e-06
1.9992125542078e-07
2.55706851077933e-08
-3.40639322509466e-06
9.75925655852205e-08
2.5614389137382e-08
-2.45183172918992e-06
7.01586769754648e-07
1.59405528988512e-09
-2.71698905856988e-06
7.06362641866053e-07
4.92352762430684e-09
-3.08829159259872e-06
7.23105996540779e-07
9.33034303249084e-09
-3.38253566075989e-06
7.00323801801987e-07
1.43816313882825e-08
-3.53941626911805e-06
6.30971535658647e-07
1.7888737445178e-08
-3.61757973022579e-06
5.34320937010142e-07
2.06591116237359e-08
-3.66685948968569e-06
4.27230040588108e-07
2.30788071837676e-08
-3.63699561378059e-06
3.16703016258777e-07
2.45572796681134e-08
-3.47901403632818e-06
2.06509952836875e-07
2.46263856662306e-08
-3.3046559802172e-06
1.00749867311777e-07
2.38864032172504e-08
-2.39545323591801e-06
7.98257707424944e-07
1.66960848040998e-09
-2.64870969452574e-06
8.10902486872885e-07
4.19347108881058e-09
-3.00825393545451e-06
8.39223333804867e-07
8.43958867565635e-09
-3.29256788354862e-06
8.25437151471625e-07
1.29975998366872e-08
-3.43411330498148e-06
7.59821649367688e-07
1.6789971063725e-08
-3.48117995031506e-06
6.62419297910804e-07
1.94890406562111e-08
-3.51522063859259e-06
5.53502808609624e-07
2.16331750964963e-08
-3.55434813191539e-06
4.41169536208915e-07
2.33669675199093e-08
-3.52463427618505e-06
3.26887349481888e-07
2.41444214345494e-08
-3.37059550727413e-06
2.1309653284374e-07
2.35263184687372e-08
-3.20189608945014e-06
1.03929557396606e-07
2.21415638395378e-08
-2.90119782620855e-06
4.8902934428522e-08
1.18846646083804e-08
-2.87253366032006e-06
1.00210861240114e-07
1.17650726177236e-08
-3.0473775505701e-06
5.46003214614907e-08
2.05716971179534e-08
-2.88947525491634e-06
1.5775628202082e-07
9.39141578761407e-09
-3.10173052494647e-06
1.13560993955743e-07
2.10149537268178e-08
-3.29882093866899e-06
6.28379962891527e-08
2.67359243198078e-08
-2.90419439287035e-06
2.18790157775337e-07
9.85028049559082e-09
-3.16443014429041e-06
1.78396235993647e-07
1.86249907378983e-08
-3.4268137336281e-06
1.338572941636e-07
2.68226379630225e-08
-3.54386590891556e-06
7.16308975136137e-08
3.06680218395684e-08
-2.88284749958107e-06
2.83284574872405e-07
9.91019325080743e-09
-3.1673876188266e-06
2.5172869534206e-07
1.58827016008648e-08
-3.54624230352358e-06
2.12997589854947e-07
2.44063036073456e-08
-3.69587839006842e-06
1.54004787199949e-07
2.96025524047283e-08
-3.69150200884734e-06
7.8972315623832e-08
3.2656809419241e-08
-2.82326363164003e-06
3.52321499696165e-07
8.21081594247825e-09
-3.11365390724772e-06
3.29531164959975e-07
1.52042095307469e-08
-3.54667841633215e-06
2.99675881752575e-07
2.05940908302393e-08
-3.83402426566555e-06
2.46508703052347e-07
2.70788755751907e-08
-3.82822775213363e-06
1.69335899981697e-07
3.04881470172075e-08
-3.7247868301909e-06
8.42529479068674e-08
3.30969882255382e-08
-2.74283926938545e-06
4.26570973982452e-07
5.65944529398075e-09
-3.03489752264936e-06
4.11436183465308e-07
1.28161626155057e-08
-3.46112522052828e-06
3.93131408407758e-07
1.74562774030615e-08
-3.82007577640334e-06
3.46361305878628e-07
2.30876308397565e-08
-3.94906623048632e-06
2.70489038376873e-07
2.79409660979528e-08
-3.83698481907052e-06
1.79571025238067e-07
3.04080997320245e-08
-3.68008629941963e-06
8.81302161786997e-08
3.23460734580922e-08
-2.6601553555604e-06
5.05867072129823e-07
3.53796380432186e-09
-2.95112651571613e-06
4.97393203962546e-07
9.78243923261176e-09
-3.35791816189443e-06
4.90853617615207e-07
1.53412319467996e-08
-3.70577419874384e-06
4.51728764105931e-07
1.98320659102868e-08
-3.91088313499491e-06
3.78723674327154e-07
2.44045617877984e-08
-3.93071616285504e-06
2.85712179450781e-07
2.80044821142168e-08
-3.77544151828555e-06
1.87035334544215e-07
2.97165451616293e-08
-3.59807058640628e-06
9.14128655627058e-08
3.07183497098373e-08
-2.58576746696943e-06
5.89829095274227e-07
2.32162996048738e-09
-2.87028254794607e-06
5.87823329656236e-07
7.16119116080909e-09
-3.2639361146985e-06
5.92903157861135e-07
1.25051370302203e-08
-3.58375518505896e-06
5.62250724613062e-07
1.74917149372859e-08
-3.77642316655516e-06
4.92148625158526e-07
2.14069914428897e-08
-3.87149073069008e-06
3.98990879878892e-07
2.50346203279193e-08
-3.84891430573355e-06
2.96789313061819e-07
2.76062245404889e-08
-3.68458334152174e-06
1.93638380931487e-07
2.85099968221489e-08
-3.50232542131497e-06
9.45265578091917e-08
2.85361945240014e-08
-2.5221161236973e-06
6.7833663664899e-07
1.84740565064491e-09
-2.79608900218605e-06
6.83255327826747e-07
5.44694660929541e-09
-3.1792274002593e-06
6.99734640520296e-07
1.0236795160721e-08
-3.48305080444137e-06
6.77758611879259e-07
1.54220757170841e-08
-3.64522077084551e-06
6.10925073730285e-07
1.92949317135456e-08
-3.72606885826958e-06
5.17508530572757e-07
2.24276448222513e-08
-3.77690572019152e-06
4.13881904985908e-07
2.51607501183602e-08
-3.74597469797117e-06
3.06853664841174e-07
2.68329941008001e-08
-3.58287551233364e-06
2.00104060126726e-07
2.69207221359038e-08
-3.40276968224494e-06
9.76270687670406e-08
2.61009039147186e-08
-2.46730548841769e-06
7.71588779882727e-07
1.8502766037406e-09
-2.72954062113986e-06
7.84277539141711e-07
4.51016924328294e-09
-3.10129309950178e-06
8.12021890425173e-07
9.04670689882202e-09
-3.39554255464351e-06
7.98949428118191e-07
1.36794142552335e-08
-3.54225370373261e-06
7.35796155425451e-07
1.76972038388291e-08
-3.59131704475454e-06
6.41716112404071e-07
2.06304628185834e-08
-3.6266937648292e-06
5.36364840880893e-07
2.29970187704419e-08
-3.6670876181633e-06
4.27606027420523e-07
2.49148677403658e-08
-3.63624048447174e-06
3.16886453661152e-07
2.57869092095577e-08
-3.47695082469217e-06
2.06595365446294e-07
2.513620534357e-08
-3.30242361920456e-06
1.00762444727051e-07
2.36513237726792e-08
-2.41850514388069e-06
8.69750317468775e-07
2.28856756962767e-09
-2.66944406204254e-06
8.90912064225094e-07
4.63189721900616e-09
-3.02899577887919e-06
9.30586735140348e-07
8.38446429588208e-09
-3.31370683370982e-06
9.27009377945603e-07
1.26270716905466e-08
-3.45321351063388e-06
8.67453909879446e-07
1.65111617067378e-08
-3.48732162589707e-06
7.7261196800588e-07
1.94854851277292e-08
-3.49030038152164e-06
6.64747767869409e-07
2.16160326636275e-08
-3.51476560072527e-06
5.53866103445829e-07
2.3268548742981e-08
-3.55312658105933e-06
4.4136378441702e-07
2.44411707807165e-08
-3.52322793192424e-06
3.27016141290134e-07
2.45975817258816e-08
-3.36898085965793e-06
2.13137407655748e-07
2.33324526587926e-08
-3.20104050128543e-06
1.03909258258955e-07
2.13570075157571e-08
-2.96240026889335e-06
4.72393138429369e-08
1.39629851117129e-08
-2.93392642673831e-06
9.66981838490604e-08
1.35974239782039e-08
-3.11243688161791e-06
5.27481330753802e-08
2.4195729924718e-08
-2.95223988953922e-06
1.52307946993582e-07
1.06675153712197e-08
-3.16931584241346e-06
1.09842126344264e-07
2.41085091402184e-08
-3.37044541127265e-06
6.07104779003616e-08
3.14855779268323e-08
-2.96882630662034e-06
2.11397503603072e-07
1.09906821733001e-08
-3.23506854181906e-06
1.722444751869e-07
2.13463028819413e-08
-3.50325826474904e-06
1.2942884885053e-07
3.08685778511494e-08
-3.6224852999362e-06
6.92485746419812e-08
3.61066221252749e-08
-2.94872997094039e-06
2.73928386846783e-07
1.07442308566677e-08
-3.23996263549532e-06
2.43237083535313e-07
1.75844743051704e-08
-3.62781374900729e-06
2.06170143414113e-07
2.7883610933077e-08
-3.78064239000127e-06
1.48952830028517e-07
3.42646807179086e-08
-3.77557211496272e-06
7.6401507336703e-08
3.8336463574758e-08
-2.88968749355508e-06
3.40771479353287e-07
8.9369106239454e-09
-3.1874182923433e-06
3.18625375567194e-07
1.67778531796289e-08
-3.6309909220053e-06
2.89832593597947e-07
2.33601894785973e-08
-3.92518422695084e-06
2.38509096022175e-07
3.10619216938235e-08
-3.91887903100053e-06
1.63841963870795e-07
3.53840366637077e-08
-3.81229990234112e-06
8.15377888573495e-08
3.86318039500787e-08
-2.80941158960901e-06
4.12596725185725e-07
6.29702591564217e-09
-3.10923038286795e-06
3.97931075850258e-07
1.41437812469357e-08
-3.54632428061671e-06
3.80237274248148e-07
1.98418153503393e-08
-3.91444124434914e-06
3.35114935084653e-07
2.63532470988776e-08
-4.04651167838566e-06
2.61752427582561e-07
3.21077702276001e-08
-3.93121353588905e-06
1.73792263947245e-07
3.5177501761835e-08
-3.76974099167387e-06
8.52998523869152e-08
3.74516889947712e-08
-2.72691696354669e-06
4.89244832690715e-07
4.08767741078665e-09
-3.02602753946176e-06
4.81106504593996e-07
1.08900362536451e-08
-3.44358337900942e-06
4.74989061726225e-07
1.66237161350211e-08
-3.80127841610276e-06
4.3704867687545e-07
2.22729120597832e-08
-4.01163450973591e-06
3.66549743971734e-07
2.77780526558528e-08
-4.03178077024739e-06
2.76548555810765e-07
3.20280077215102e-08
-3.87203371669934e-06
1.81049984279729e-07
3.4080485123847e-08
-3.68941643041059e-06
8.84887334030482e-08
3.52029688803402e-08
-2.65302833209678e-06
5.70354189874263e-07
2.77370642314249e-09
-2.94596547588255e-06
5.68543211676676e-07
8.0709115361354e-09
-3.35072706789153e-06
5.73671190632297e-07
1.37557508315879e-08
-3.67994356042568e-06
5.43895281729833e-07
1.93630608443212e-08
-3.87815492001474e-06
4.76300259866672e-07
2.39869308784342e-08
-3.9758484005367e-06
3.86237564306746e-07
2.82366010209218e-08
-3.95244265686153e-06
2.87336837289606e-07
3.12313708275794e-08
-3.78321884880439e-06
1.87483470978151e-07
3.22814874683501e-08
-3.59541430682099e-06
9.15230632158334e-08
3.22840256221038e-08
-2.59024886648327e-06
6.55757650496215e-07
2.20415733409015e-09
-2.87284589279116e-06
6.60767400003541e-07
6.13434633778368e-09
-3.26754996721732e-06
6.76865556092643e-07
1.15213872882725e-08
-3.58078029378525e-06
6.55615107920962e-07
1.68701234594671e-08
-3.74806922204238e-06
5.91259012047684e-07
2.12296664521084e-08
-3.83151150802281e-06
5.01006005367194e-07
2.48341705774761e-08
-3.88382145771593e-06
4.00769604247266e-07
2.7969708297699e-08
-3.85178914718323e-06
2.97172185936294e-07
2.98868017948005e-08
-3.68363599681417e-06
1.93805463788025e-07
2.99915440846223e-08
-3.4978530686417e-06
9.4556340268375e-08
2.90630316816398e-08
-2.53669050523673e-06
7.456223956828e-07
2.09928793940264e-09
-2.807699846217e-06
7.58291295565749e-07
4.97075897143963e-09
-3.19140812330359e-06
7.85373190432709e-07
9.92336303684884e-09
-3.4953426430853e-06
7.72990193733507e-07
1.48053649170374e-08
-3.64715583019293e-06
7.12153706859108e-07
1.90954251562423e-08
-3.69819091118724e-06
6.21326755319862e-07
2.23504533635396e-08
-3.73487164220012e-06
5.19470581472266e-07
2.50164913497241e-08
-3.77647611301333e-06
4.14224647264831e-07
2.71778917806356e-08
-3.7444866486583e-06
3.0701464867651e-07
2.81685733819992e-08
-3.58004102485383e-06
2.00176765491009e-07
2.74612700419808e-08
-3.39978648793188e-06
9.76347416514535e-08
2.58289237608762e-08
-2.48953202595984e-06
8.40124172856414e-07
2.49152022493626e-09
-2.74944856250215e-06
8.61080779898169e-07
5.05149815350827e-09
-3.12127458788163e-06
8.99885363363656e-07
8.92559554196896e-09
-3.41598001897357e-06
8.96907877229968e-07
1.33613084198395e-08
-3.56081251996446e-06
8.39657745288125e-07
1.74168340909841e-08
-3.59668034196911e-06
7.48174267500169e-07
2.05975734806179e-08
-3.60018408899744e-06
6.43950393242778e-07
2.29284550121969e-08
-3.6256117709615e-06
5.36690015199648e-07
2.47588093144788e-08
-3.66516106161653e-06
4.2776895772663e-07
2.60664593978327e-08
-3.63410199907503e-06
3.16991936919032e-07
2.6264353211032e-08
-3.4746200663856e-06
2.066231629674e-07
2.49147038720633e-08
-3.30091933296718e-06
1.00737644903659e-07
2.27923602028141e-08
-2.44658820277006e-06
9.40092884620264e-07
2.62485144536338e-09
-2.69628369286158e-06
9.70089594197523e-07
5.31800903747957e-09
-3.05602000808712e-06
1.02148104532179e-06
8.59582884244375e-09
-3.3406471746375e-06
1.02804299042202e-06
1.25149190191052e-08
-3.47895567750147e-06
9.74467644220356e-07
1.63055857750954e-08
-3.50920124869163e-06
8.82215826803507e-07
1.94178534544427e-08
-3.49731821859994e-06
7.75266536934475e-07
2.16668782244093e-08
-3.48982920663279e-06
6.65068960533141e-07
2.32009932920284e-08
-3.51320884881561e-06
5.54042440941271e-07
2.42582066136206e-08
-3.55152523989238e-06
4.41512700471361e-07
2.48014020997733e-08
-3.52155925510286e-06
3.27087345962608e-07
2.43258467323077e-08
-3.36716805901642e-06
2.13103717139422e-07
2.24933557635638e-08
-3.19796857534344e-06
1.03759745152074e-07
2.00802147482608e-08
-3.02444451630705e-06
4.5622324640237e-08
1.64217378361779e-08
-2.99574699645232e-06
9.3339740387733e-08