/*--------------------------------*- C++ -*----------------------------------*\
  =========                 |
  \\      /  F ield         | OpenFOAM: The Open Source CFD Toolbox
   \\    /   O peration     | Website:  https://openfoam.org
    \\  /    A nd           | Version:  12
     \\/     M anipulation  |
\*---------------------------------------------------------------------------*/
/*   Windows 32 and 64 bit porting by blueCAPE: http://www.bluecape.com.pt   *\
|  Based on Windows porting (2.0.x v4) by Symscape: http://www.symscape.com   |
\*---------------------------------------------------------------------------*/
FoamFile
{
    format      ascii;
    class       volVectorField;
    location    "0";
    object      U;
}
// * * * * * * * * * * * * * * * * * * * * * * * * * * * * * * * * * * * * * //

dimensions      [0 1 -1 0 0 0 0];

internalField   nonuniform List<vector> 
10244
(
(2.12644395806706e-07 0.00134870587053152 1.96782366492522e-05)
(2.71347773723551e-07 0.00139409323629081 1.90772685773972e-05)
(-3.43140078261712e-07 0.00134981519961409 6.09862113742127e-05)
(1.05121600865133e-06 0.00134864311890017 1.99476890785265e-05)
(3.4926453584308e-07 0.00143828421657664 1.84804710943388e-05)
(-2.62352879563118e-07 0.0013951993055509 5.9110222007685e-05)
(1.21276385300014e-06 0.00139400293118798 1.93422066109253e-05)
(-2.59664370566691e-07 0.00135225208072405 0.00010509460927921)
(4.35008270594575e-07 0.00134977215228048 6.07952060065344e-05)
(2.2179056937864e-06 0.00134851497671694 2.03676939255196e-05)
(4.48200485154013e-07 0.00148134693086985 1.78910167370449e-05)
(-1.61416571541468e-07 0.00143938047293597 5.72448957560954e-05)
(1.43125631284006e-06 0.00143816431883459 1.87426268312747e-05)
(-1.99691607419807e-07 0.00139763298210843 0.000101859048073086)
(6.20678575685269e-07 0.00139512698202437 5.89498198766531e-05)
(2.47087940088757e-06 0.00139381618553468 1.97520571835482e-05)
(7.0465520063072e-07 0.00135617862946422 0.000150299898202228)
(2.61867099313676e-07 0.00135221009022972 0.000104252905642151)
(1.95860872732388e-06 0.00134967055177416 6.17540866891389e-05)
(3.67512507781749e-06 0.00134831511018756 2.06755682181949e-05)
(5.70570013744021e-07 0.00152336118349718 1.73108430341084e-05)
(-3.86360906520146e-08 0.00148242880798618 5.54007183850153e-05)
(1.71267092664056e-06 0.00148119419829995 1.81510504063283e-05)
(-1.23325147633376e-07 0.00144179604316394 9.86417577098589e-05)
(8.64316797069077e-07 0.00143927757519521 5.7121855808639e-05)
(2.82010543393035e-06 0.00143791408880168 1.91426210901416e-05)
(7.28041312126643e-07 0.00140154526932992 0.000145682008504764)
(4.39132201963248e-07 0.00139754467296378 0.000101055046538288)
(2.22211217905055e-06 0.00139496826561398 5.9886275211808e-05)
(4.00973579170635e-06 0.00139351974467339 2.00536640894665e-05)
(1.39581501870747e-06 0.00136164355916166 0.000194881896224006)
(2.07172221291456e-06 0.00135618214060581 0.000149856035387411)
(1.72732413381521e-06 0.00135215444769336 0.000104983161771843)
(3.60610199868857e-06 0.00134949621590043 6.2643434087913e-05)
(5.19319139965801e-06 0.00134804044743812 2.07760028927917e-05)
(7.19371407873664e-07 0.00156441845634503 1.67417671096156e-05)
(1.09628822479526e-07 0.0015244252566054 5.35812886068752e-05)
(2.06383888571801e-06 0.00152317156433316 1.7570432882032e-05)
(-2.49694936712062e-08 0.00148481628101411 9.54619136182364e-05)
(1.1713489346634e-06 0.00148229169223257 5.53203583948104e-05)
(3.27375084414168e-06 0.00148087388681633 1.85420667182215e-05)
(7.66704161348724e-07 0.00144567224178833 0.00014110164382996)
(6.70315379438849e-07 0.00144166737684791 9.78799320895782e-05)
(2.58101567638383e-06 0.00143905528521989 5.80363611781744e-05)
(4.47933627753565e-06 0.00143751346137625 1.94378209153314e-05)
(1.39717328350713e-06 0.00140697431976989 0.000188880916525005)
(2.14178224304458e-06 0.00140151359109798 0.000145238673136082)
(2.00962524840072e-06 0.00139744377529773 0.000101785712904346)
(3.94241143385183e-06 0.00139469545389867 6.07603396957865e-05)
(5.6033217280649e-06 0.00139310731415046 2.01509169790697e-05)
(1.43813142981395e-06 0.00136863111285353 0.000238990690296775)
(3.35919860782399e-06 0.00136166377452901 0.000195672707498602)
(3.22074024942956e-06 0.00135614460227654 0.000150237812992825)
(3.67553607065896e-06 0.00135202252509008 0.000106394226019546)
(5.20061839575941e-06 0.00134923765507028 6.31390902752765e-05)
(6.56213570445978e-06 0.00134769427779993 2.07533832333761e-05)
(8.98015537843231e-07 0.00160462302268725 1.61855818424188e-05)
(2.85543592883927e-07 0.00156546166827451 5.17931899269839e-05)
(2.49358113586205e-06 0.00156418709090657 1.70027081634734e-05)
(9.26806209292286e-08 0.00152677866631411 9.23306899692963e-05)
(1.54933496730112e-06 0.00152424935972297 5.35541433494906e-05)
(3.84371082686786e-06 0.00152277267480037 1.79532964404427e-05)
(8.24823716466465e-07 0.00148863728790351 0.000136582341345672)
(9.68316675317474e-07 0.00148464179377625 9.47471683022841e-05)
(3.04320346954817e-06 0.00148199885151647 5.62173636835749e-05)
(5.09639205007869e-06 0.00148035860587316 1.88308445995119e-05)
(1.41356092613169e-06 0.00145103698685219 0.000182944931522004)
(2.25586747810109e-06 0.00144560081432081 0.000140655564862821)
(2.38754252020144e-06 0.00144150033169664 9.86212211171499e-05)
(4.4134756224282e-06 0.00143867780474218 5.88971962380418e-05)
(6.18653450446511e-06 0.00143695144935749 1.95322599832299e-05)
(1.4378307955223e-06 0.00141389687970805 0.000231583520141591)
(3.39373475018363e-06 0.00140696006080605 0.000189642565015525)
(3.35263222745467e-06 0.00140140329273997 0.000145632281917132)
(4.01335601000261e-06 0.00139720471604813 0.000103203858824276)
(5.60749338204572e-06 0.00139429685773465 6.1237765247692e-05)
(7.04401263676399e-06 0.00139258266605675 2.01276944850567e-05)
(1.08035897805065e-06 0.00137710816983129 0.000283349126417183)
(3.42441354717168e-06 0.00136863498860323 0.000241033237128888)
(4.5840761699087e-06 0.0013616335394594 0.000196424311958631)
(4.44983589524831e-06 0.00135599867412601 0.000151586750396089)
(5.35532321997122e-06 0.0013518028484276 0.000107333200352792)
(6.59048828271835e-06 0.00134889733629875 6.3276037952598e-05)
(7.69270800258498e-06 0.00134728542530891 2.07233854098235e-05)
(1.11110945979028e-06 0.00164409266315264 1.56426887434235e-05)
(4.92759401499174e-07 0.00160564348450032 5.00408248339484e-05)
(3.01285316238548e-06 0.00160434401492781 1.6449419442023e-05)
(2.30218522442721e-07 0.00156777507911094 8.92544463797168e-05)
(2.00696674796429e-06 0.00156524237329462 5.18294994648957e-05)
(4.54501992409359e-06 0.00156369907315741 1.73781985538181e-05)
(9.02963645295488e-07 0.00153052949300861 0.00013214287640574)
(1.33274747212848e-06 0.0015265498051468 9.16690123872683e-05)
(3.6202567703764e-06 0.00152387767056131 5.44365378957338e-05)
(5.87772166444395e-06 0.00152212873661136 1.82353322253896e-05)
(1.44742258225353e-06 0.00149391326559703 0.000177101849418009)
(2.43425767650274e-06 0.00148851979359764 0.000136130984362632)
(2.86624239265219e-06 0.00148439972476604 9.55279357291971e-05)
(5.03073689895613e-06 0.00148150681944248 5.70608892343394e-05)
(6.95980912202726e-06 0.00147963121093534 1.89227927136116e-05)
(1.45274351354658e-06 0.00145785928469253 0.000224275566874796)
(3.47306776063572e-06 0.00145098525239261 0.000183677014665337)
(3.55053492804519e-06 0.00144538937406615 0.000141072056959303)
(4.48663602002215e-06 0.00144115860876116 0.000100054165152688)
(6.18752030326324e-06 0.00143812747637903 5.93569910847268e-05)
(7.73428727051218e-06 0.0014362322329002 1.95087201827825e-05)
(1.09099327813222e-06 0.00142227351117288 0.000274482335324566)
(3.45729155013605e-06 0.00141386497133191 0.000233558442154335)
(4.68678269842087e-06 0.00140685077108674 0.00019037745498748)
(4.68383165845794e-06 0.00140113585264664 0.000146997758387056)
(5.74849742588467e-06 0.00139684279005573 0.000104092441636099)
(7.0682492450072e-06 0.00139377628772928 6.13651107271675e-05)
(8.2389089905738e-06 0.00139195955092263 2.00970515590893e-05)
(6.96531547441958e-07 0.00138706269821297 0.000328156653187079)
(2.72415297185669e-06 0.00137708006880167 0.000285932347124871)
(4.68835867585436e-06 0.0013685848081606 0.00024217672884728)
(5.41331870095094e-06 0.00136148440451411 0.00019743055606334)
(5.78309485720626e-06 0.00135585307572365 0.000152765203890311)
(6.72077727861399e-06 0.00135148399428448 0.000107700286821354)
(7.72418826756476e-06 0.00134849124478057 6.32878022798156e-05)
(8.56107119526869e-06 0.00134682643354274 2.07245792497824e-05)
(1.36344369008811e-06 0.00168296006520422 1.51144978325305e-05)
(7.36358659281626e-07 0.00164508878459015 4.83250645563339e-05)
(3.63480070715628e-06 0.00164375915184967 1.59114410335471e-05)
(3.94823410276734e-07 0.00160791300085206 8.62424976324934e-05)
(2.55471830911179e-06 0.00160537489630166 5.01504396700694e-05)
(5.39615851059472e-06 0.00160375394418277 1.6818456732182e-05)
(1.00200607359431e-06 0.00157144638551183 0.000127797947786124)
(1.7698029427998e-06 0.00156748670281403 8.86552906966663e-05)
(4.32698560468925e-06 0.00156478149759261 5.26994474242241e-05)
(6.84481767146979e-06 0.00156290888911225 1.76532687299641e-05)
(1.50048807006377e-06 0.00153569510382504 0.000171375298257138)
(2.67398973840085e-06 0.00153036052532292 0.000131683266844913)
(3.45667093956526e-06 0.00152622655358171 9.25102977780468e-05)
(5.81063003194497e-06 0.00152325688333186 5.5259826570993e-05)
(7.94522116895908e-06 0.00152121554957033 1.83248761725256e-05)
(1.48479102006863e-06 0.00150060585678594 0.000217099800510909)
(3.60373107709202e-06 0.00149381843676399 0.000177800967760312)
(3.92134456312603e-06 0.00148818932767529 0.000136585210372547)
(5.10188466420987e-06 0.00148394955181667 9.69418438142627e-05)
(6.95760309735943e-06 0.00148078899946358 5.75046019818772e-05)
(8.65402266111932e-06 0.00147869619649881 1.88992312588759e-05)
(1.11751417881852e-06 0.00146609422804506 0.000265755955048484)
(3.53609895634922e-06 0.0014577890462295 0.000226184975471107)
(4.86371140550632e-06 0.00145078860685414 0.000184398245067867)
(5.02872978063206e-06 0.00144504386784254 0.000142471964554367)
(6.31468478136828e-06 0.00144064220289751 0.000100889865798237)
(7.75473971916442e-06 0.00143741037078048 5.94752197070773e-05)
(9.02397898393422e-06 0.0014353750798204 1.94776488975262e-05)
(7.19598871423425e-07 0.00143208578958683 0.000317763986445445)
(2.77732720780617e-06 0.00142220767835423 0.000276981920007314)
(4.78819996874977e-06 0.00141373239804844 0.000234665070570465)
(5.62066384545842e-06 0.00140656362619513 0.000191370107922266)
(6.13306824076534e-06 0.0014008551583254 0.000148118520563153)
(7.18607424996105e-06 0.00139634204313403 0.000104435412267553)
(8.26646713533497e-06 0.0013931549472137 6.13713545210914e-05)
(9.15929302593882e-06 0.00139125792395675 2.00965868923191e-05)
(4.69169856434679e-07 0.00139852332703837 0.000373105688061239)
(1.96223060407106e-06 0.00138700764214292 0.000330522893723874)
(4.0318193066101e-06 0.00137699475490764 0.000287333040620379)
(5.5354821133831e-06 0.00136842254882616 0.000243083838420407)
(6.23686443267812e-06 0.00136137348455943 0.000198336177132673)
(6.96607653871741e-06 0.00135556993506456 0.000153257689519928)
(7.81920549070268e-06 0.00135108990105562 0.000107824504903908)
(8.58886401474931e-06 0.00134803568139336 6.33017258663528e-05)
(9.15603937186804e-06 0.00134633124920095 2.07414866063175e-05)
(1.66074330566639e-06 0.0017213757165459 1.46026657984467e-05)
(1.0205558647467e-06 0.00168392937276217 4.66493814220282e-05)
(4.37457403395725e-06 0.00168256424298171 1.53899240089049e-05)
(5.86813571757858e-07 0.00164731185447866 8.32984104406533e-05)
(3.20556378289267e-06 0.00164476412272757 4.85206644490398e-05)
(6.42022199254929e-06 0.001643051828851 1.62739616423536e-05)
(1.12468234534657e-06 0.00161149771053124 0.000123558602754546)
(2.29393439083726e-06 0.00160755826388727 8.57144566501141e-05)
(5.18152468699079e-06 0.00160481244552943 5.10108247595766e-05)
(8.02462819893902e-06 0.00160279588479519 1.70863241701159e-05)
(1.57591835426457e-06 0.00157648409054927 0.000165784317340503)
(2.97595311013846e-06 0.00157121857517753 0.000127329805623863)
(4.17359155339014e-06 0.00156707205707884 8.95743184959787e-05)
(6.77439861930912e-06 0.00156401430531125 5.35005487033825e-05)
(9.170834363802e-06 0.00156178424636127 1.77403781576665e-05)
(1.53633264359806e-06 0.00154223379636127 0.000210083149135984)
(3.79019029405323e-06 0.00153554774873065 0.000172040229676284)
(4.41527088194217e-06 0.00152991464450991 0.000132189497942733)
(5.87545239146386e-06 0.00152565169528231 9.38874591835922e-05)
(7.93949160310271e-06 0.00152235126257686 5.56878730115317e-05)
(9.8304097821001e-06 0.00152003762758307 1.83015445927834e-05)
(1.16164987474809e-06 0.00150866602759671 0.000257207109024399)
(3.66532603525961e-06 0.00150049194513342 0.000218945351720056)
(5.11650311674314e-06 0.00149352466959481 0.000178494234079495)
(5.59804190635155e-06 0.00148778153832069 0.000138033173682072)
(7.07224615955354e-06 0.00148326275451295 9.77367463240629e-05)
(8.67108935232539e-06 0.00147985397360351 5.76147837564521e-05)
(1.0072397691806e-05 0.00147757899612719 1.88679910672118e-05)
(7.60315854752446e-07 0.00147571854359328 0.000307559121836758)
(2.87885797833566e-06 0.00146598756052627 0.000268176496625813)
(4.96491313366436e-06 0.00145756845822425 0.000227259367095176)
(5.9439999473479e-06 0.00145036712907201 0.000185392136512714)
(6.65216070624424e-06 0.00144459986369876 0.000143531315549364)
(7.86046461464546e-06 0.00143994250740581 0.000101208593610306)
(9.04809929939617e-06 0.00143655393127511 5.94765173724009e-05)
(1.00203366648529e-05 0.00143440817791825 1.94759161308787e-05)
(5.00087982492099e-07 0.00144335615594422 0.000361124664835159)
(2.03923286728616e-06 0.00143198949842885 0.000320054802180647)
(4.14427943995871e-06 0.00142203630385138 0.000278336310098262)
(5.73545188311778e-06 0.00141342753419741 0.000235537828791222)
(6.56107613580449e-06 0.0014063193484813 0.000192241290908732)
(7.40841300624954e-06 0.00140039080335943 0.000148580968911366)
(8.35161544249734e-06 0.00139573125740453 0.000104546533980443)
(9.18345553307835e-06 0.00139245622619608 6.1380159165206e-05)
(9.79034031886872e-06 0.00139049981282947 2.01114761290902e-05)
(3.85543834140277e-07 0.00141155175676763 0.00041783601167524)
(1.50986976730245e-06 0.00139845423414224 0.000374866809585715)
(3.24683138721405e-06 0.00138688988212117 0.000331978163279739)
(5.13032059631059e-06 0.00137681891058053 0.000288076671470387)
(6.36058065379617e-06 0.00136831094702862 0.000243461939257415)
(7.20516179535595e-06 0.00136111473233575 0.000198730137764171)
(7.96987841146537e-06 0.00135519629488659 0.000153452726657213)
(8.65557500391143e-06 0.00135064348884453 0.000107892127766309)
(9.17664822725631e-06 0.00134754444039892 6.33300697337489e-05)
(9.47075700949085e-06 0.00134581435614491 2.07552579310046e-05)
(2.0094216564987e-06 0.00175951070349122 1.41090251018864e-05)
(1.35022276904831e-06 0.00172231513395456 4.50200435951013e-05)
(5.25014102499246e-06 0.00172090865451432 1.48859618565621e-05)
(8.08052286378645e-07 0.00168610000010338 8.04267607267714e-05)
(3.97337856110292e-06 0.00168354186413377 4.69440189442044e-05)
(7.64348835318872e-06 0.00168172191805172 1.57460339328786e-05)
(1.27303967322176e-06 0.00165080240036109 0.000119429394064741)
(2.91182602661025e-06 0.00164688156252039 8.2849703461893e-05)
(6.20603064416128e-06 0.00164408612119802 4.93726818556177e-05)
(9.44922937950651e-06 0.00164189960029539 1.65343781997383e-05)
(1.68126774560224e-06 0.00161639835522573 0.00016034269382245)
(3.34955137334924e-06 0.00161120486322019 0.00012308701744607)
(5.03461057276879e-06 0.00160704074648253 8.6732435347915e-05)
(7.94831318328801e-06 0.00160387718127529 5.17869395259409e-05)
(1.06715280712739e-05 0.0016014281738263 1.71705560736566e-05)
(1.61150978631809e-06 0.00158285145653902 0.000203245074275255)
(4.04483316991494e-06 0.00157626947815946 0.000166417321055177)
(5.01484026119073e-06 0.00157064711719248 0.000127910526526254)
(6.82849509618118e-06 0.00156635476191059 9.09052035098581e-05)
(9.16090566679492e-06 0.00156289512041219 5.39124548201368e-05)
(1.12977603231787e-05 0.00156032947594956 1.77174090915128e-05)
(1.2266786393082e-06 0.00155009414115288 0.000248864178820758)
(3.8516651000416e-06 0.00154206628695086 0.000211867505064995)
(5.44912115775158e-06 0.00153513946186287 0.00017270146900791)
(6.34623423353524e-06 0.00152940558942553 0.000133694860395067)
(8.04157045784243e-06 0.00152477565121922 9.46457177002091e-05)
(9.84438394749387e-06 0.00152117115784832 5.57907706246975e-05)
(1.14157760372563e-05 0.00151862729292326 1.82703286153473e-05)
(8.19369402931831e-07 0.00151806758625852 0.000297583935358761)
(3.03293853975336e-06 0.00150851274605795 0.00025955218385102)
(5.22117612645744e-06 0.00150017364880986 0.000219990599325472)
(6.38867418884017e-06 0.00149297105461035 0.000179541837646457)
(7.37550159227135e-06 0.00148715151778486 0.000139024387567547)
(8.76576094313823e-06 0.00148234227394179 9.8033914468746e-05)
(1.00936045871641e-05 0.00147873635880689 5.76119007256182e-05)
(1.11714103028747e-05 0.00147631702623541 1.88652227572579e-05)
(5.47220188292641e-07 0.00148674901526514 0.000349388460077059)
(2.17612920154507e-06 0.00147557775924064 0.000309776727195285)
(4.33105557401919e-06 0.00146572325231349 0.000269502069225845)
(6.05363195750943e-06 0.00145712013632462 0.000228095404822165)
(7.05173478816505e-06 0.00144997691284801 0.000186228465853831)
(8.05970042391981e-06 0.00144393427468844 0.000143962842904576)
(9.12422536003982e-06 0.00143909491163955 0.000101307375738043)
(1.00415371358504e-05 0.00143558946369298 5.94810005091916e-05)
(1.07040675160179e-05 0.00143336249033504 1.94892254340813e-05)
(4.17657242277876e-07 0.0014561342175853 0.000404214060664278)
(1.60668734009706e-06 0.00144324715994024 0.000362827021848467)
(3.36769517991184e-06 0.00143176979881931 0.000321470378808596)
(5.33295648804204e-06 0.00142172663180064 0.000279024561936377)
(6.67290049217072e-06 0.00141318119208018 0.000235898709328651)
(7.62789185025673e-06 0.00140587960596973 0.000192612240929353)
(8.48693861914175e-06 0.00139979934051898 0.000148758659989036)
(9.24210437063628e-06 0.00139504035230712 0.000104604337342766)
(9.80776458114113e-06 0.00139170158586466 6.1403362942281e-05)
(1.01231324143871e-05 0.00138970782906507 2.01236513917929e-05)
(3.89681408509542e-07 0.00142622166881017 0.000462128813745997)
(1.31737039727373e-06 0.00141148512758588 0.00041896843865149)
(2.84586379370938e-06 0.00139830655578687 0.000376137460917294)
(4.59482862125839e-06 0.00138672243067141 0.000332402216891941)
(6.21643322888088e-06 0.00137668785577391 0.000288084831527641)
(7.30855366142931e-06 0.00136806112772981 0.000243633791583004)
(8.11531432585656e-06 0.00136076005469683 0.000198897716683807)
(8.75415260160726e-06 0.00135476472010561 0.000153557911433237)
(9.22147052321034e-06 0.00135016044198447 0.000107947449766248)
(9.48251345559525e-06 0.0013470312005026 6.33556112945433e-05)
(9.50640339290633e-06 0.00134529063724397 2.07588956988498e-05)
(2.41644358855977e-06 0.00179756193571519 1.36382939272738e-05)
(1.72855892479452e-06 0.00176041443255384 4.34443289300295e-05)
(6.28300877488357e-06 0.00175896245073243 1.43990565742132e-05)
(1.06508405371525e-06 0.00172442395698301 7.7640292474133e-05)
(4.87272812817759e-06 0.00172185896184017 4.54264915576804e-05)
(9.09857723448286e-06 0.00171990972511922 1.52337284931485e-05)
(1.45258276710042e-06 0.00168948469733821 0.000115413382907473)
(3.63101296856084e-06 0.00168558621227881 8.00683826693035e-05)
(7.42621336072779e-06 0.001682733038329 4.77852576232049e-05)
(1.115877900763e-05 0.00168034391224867 1.59986290797663e-05)
(1.81444347820191e-06 0.00165556587842513 0.000155055964719577)
(3.79885756221929e-06 0.00165043772061732 0.00011895290713508)
(6.06088183391012e-06 0.00164625178590042 8.39839341332962e-05)
(9.36497281965368e-06 0.00164295644517948 5.01218738021464e-05)
(1.24900258639236e-05 0.00164025006316717 1.66163378982068e-05)
(1.71719040074037e-06 0.00162258354822965 0.000196597731693242)
(4.40540899188986e-06 0.00161611056432422 0.000160949524750145)
(5.72692215044582e-06 0.00161049575075718 0.000123800850365722)
(7.98616427341085e-06 0.00160615930622615 8.79986669558404e-05)
(1.06565717558632e-05 0.00160251242092705 5.21820872618013e-05)
(1.30985939067511e-05 0.00159965468573817 1.71481913262775e-05)
(1.31666661874009e-06 0.0015904957098905 0.000240747166442719)
(4.10958479597017e-06 0.00158261570087118 0.000204970530804017)
(5.87736851362875e-06 0.00157569157995258 0.000167056974868596)
(7.26267167765606e-06 0.00157001979541572 0.000129459169597308)
(9.24927156640987e-06 0.00156526425697997 9.16259284462725e-05)
(1.13088042541955e-05 0.00156143582461482 5.40084989830082e-05)
(1.30938250515374e-05 0.00155858472842896 1.7686432829527e-05)
(8.98247116860907e-07 0.00155924764668945 0.00028786916365328)
(3.25355317567322e-06 0.00154988469231993 0.000251135089006136)
(5.5582306384276e-06 0.00154162951464689 0.000212897684184919)
(6.96403410870091e-06 0.00153446783488882 0.000173828491276602)
(8.31507137312281e-06 0.00152858220166029 0.000134612768300791)
(9.92870544830309e-06 0.00152360749897208 9.492295653513e-05)
(1.14345238420356e-05 0.00151975922901012 5.57843796170028e-05)
(1.26475582387589e-05 0.00151703244404664 1.8266623814206e-05)
(6.11628731713082e-07 0.00152881877740012 0.000337944890831272)
(2.37114047635073e-06 0.00151788114502092 0.000299729683212156)
(4.59406319532011e-06 0.00150813723321133 0.000260859870174715)
(6.49640572750335e-06 0.00149958681356812 0.000220790712650091)
(7.72690064819018e-06 0.00149241907886189 0.000180327599222271)
(8.94437357786922e-06 0.00148626127751726 0.000139424004303408)
(1.01616873437369e-05 0.00148123157725184 9.81215646267805e-05)
(1.11901974596428e-05 0.00147747643404872 5.76128095403276e-05)
(1.19261669135287e-05 0.00147495136990661 1.88771604174762e-05)
(4.64739787176332e-07 0.0014992218216938 0.00039090534659728)
(1.75369205095958e-06 0.00148659833452323 0.000351030563711943)
(3.63781699925184e-06 0.00147524471255612 0.00031115725926872)
(5.65205603996307e-06 0.00146528487410472 0.00027009525461766)
(7.15303438739688e-06 0.00145672860404047 0.00022844279433133)
(8.2594145219211e-06 0.00144933917749804 0.000186576740850752)
(9.24534578325571e-06 0.00144310442674293 0.00014412407277302)
(1.00933045441177e-05 0.00143813697431437 0.000101356627045158)
(1.07189750687443e-05 0.00143454689119988 5.95000427406494e-05)
(1.10633839364246e-05 0.00143226953015038 1.95000346258517e-05)
(4.23603799390429e-07 0.00147048219446337 0.000446813872840106)
(1.40940064628062e-06 0.0014560292587212 0.000405309262750621)
(3.02874244771353e-06 0.00144300657137721 0.000364051376896602)
(4.79739946277457e-06 0.00143151166370384 0.000321810504193022)
(6.5263757177569e-06 0.00142145710775969 0.000279028652997003)
(7.71826337941594e-06 0.00141274837729669 0.000236056969218842)
(8.6166947224732e-06 0.00140530561305176 0.000192763858359348)
(9.32864996051805e-06 0.00139912144740267 0.000148850748973344)
(9.84575983521498e-06 0.00139429251995939 0.000104650976306029)
(1.01322678144817e-05 0.0013909126846844 6.14242370983419e-05)
(1.0157765678997e-05 0.00138890505089089 2.01261504454641e-05)
(4.84712124829616e-07 0.00144261840145004 0.000505785985424959)
(1.37336466544612e-06 0.00142615579553731 0.000462710056613687)
(2.67363873701992e-06 0.00141135370756236 0.000419788226656303)
(4.35005098207069e-06 0.00139819227680235 0.000376264543908752)
(5.98562107336187e-06 0.00138656730307457 0.000332306428826018)
(7.28497942208975e-06 0.00137643759684865 0.0002880827508916)
(8.20336151267673e-06 0.00136772028435535 0.000243716989739457)
(8.85415203397629e-06 0.00136034470999017 0.000198996649700093)
(9.28759258627241e-06 0.00135429417588582 0.000153633677490824)
(9.50830170366178e-06 0.00134965458873288 0.000107989096163728)
(9.50781582261655e-06 0.00134651063230079 6.33674255367672e-05)
(9.27410812054293e-06 0.00134477571921934 2.07509713058593e-05)
(2.89402260512779e-06 0.00183575380544082 1.31869703883847e-05)
(2.15134121860607e-06 0.00179842925269569 4.19592490177864e-05)
(7.49904994624045e-06 0.00179691831746971 1.39260292501734e-05)
(1.35370487338952e-06 0.0017624254563638 7.49398308445667e-05)
(5.92139549389882e-06 0.00175988953576866 4.39648820631195e-05)
(1.08248468486069e-05 0.00175778005113786 1.47361349132801e-05)
(1.69097288185561e-06 0.00172769983998091 0.000111513592964349)
(4.4557077363747e-06 0.00172382859533113 7.74109218831976e-05)
(8.87207700945039e-06 0.00172090002800854 4.62441994937288e-05)
(1.3201020171209e-05 0.00171826776460845 1.54782045301014e-05)
(1.97699883179922e-06 0.0016941186256517 0.000149923717693032)
(4.32633046652263e-06 0.00168901133495736 0.000114926760721916)
(7.27466377332563e-06 0.00168484074995309 8.13247221440479e-05)
(1.10638497914801e-05 0.00168137734415131 4.8505979452747e-05)
(1.4678386771048e-05 0.00167836548108236 1.6078066085784e-05)
(1.85121612524004e-06 0.0016615638556965 0.00019015183986613)
(4.85089626024174e-06 0.00165520682635744 0.000155637174576739)
(6.57768124665161e-06 0.00164959302467254 0.000119826920906755)
(9.38152286129851e-06 0.0016451785767245 8.51762178100587e-05)
(1.2469131951894e-05 0.00164130683778777 5.04996975915575e-05)
(1.52851207008511e-05 0.00163810679123402 1.65945925432299e-05)
(1.43234656479472e-06 0.00162999899493298 0.000232870752544309)
(4.47488248885939e-06 0.00162227464307301 0.000198258954657225)
(6.59648230621554e-06 0.00161534747641391 0.000161617507407397)
(8.36496731146237e-06 0.00160972831100177 0.000125299860651222)
(1.072999630316e-05 0.00160482223301176 8.86825226115293e-05)
(1.31068841628684e-05 0.00160073178025257 5.22718411376653e-05)
(1.51557625886468e-05 0.0015975247376731 1.7117646650612e-05)
(9.98648032690566e-07 0.00159938118406387 0.000278436119004517)
(3.55823011402322e-06 0.00159022344655538 0.000242942123169332)
(5.98617692904152e-06 0.00158200568482313 0.000206006753462822)
(7.69411181781844e-06 0.00157498995492684 0.000168252091882565)
(9.49262195399983e-06 0.00156898050630721 0.000130304837295724)
(1.13832137220848e-05 0.00156381421214502 9.18844506065107e-05)
(1.31105783231391e-05 0.00155968820408099 5.3999274115815e-05)
(1.44926923057286e-05 0.00155660992680613 1.768205736042e-05)
(6.95503700581264e-07 0.00156969131061729 0.000326827624115616)
(2.62570996209118e-06 0.00155901159581515 0.000289941334409675)
(4.98936229260343e-06 0.00154936420468199 0.000252430907209264)
(7.07044114785775e-06 0.00154093088893786 0.000213637454193298)
(8.60751500741182e-06 0.00153372961085237 0.00017455664673031)
(1.00883636091636e-05 0.00152744135937786 0.000134980258444383)
(1.14954830828625e-05 0.00152220049159538 9.50006819543385e-05)
(1.26643864366709e-05 0.00151816606528999 5.57824052235779e-05)
(1.34937840600866e-05 0.00151530563819587 1.82774988177916e-05)
(5.3241714490634e-07 0.00154094314340428 0.000377962637121654)
(1.95078933056007e-06 0.00152862494859625 0.000339530740110928)
(4.02301205596949e-06 0.00151743841444912 0.000301074360860253)
(6.09359733206261e-06 0.00150759515709704 0.00026133174564738)
(7.81675659475262e-06 0.00149903425515699 0.000221126991489302)
(9.12144288050492e-06 0.00149156067101761 0.000180650720776115)
(1.02700546482039e-05 0.00148516634392956 0.000139569570839486)
(1.12361745538659e-05 0.00147997690008842 9.81635034573906e-05)
(1.19391099999603e-05 0.00147611364858056 5.76285230806493e-05)
(1.23212730996866e-05 0.00147352356365763 1.88867908697184e-05)
(4.71538397963133e-07 0.00151319098712871 0.00043188879396882)
(1.54522712318909e-06 0.00149907201453871 0.000391961686379846)
(3.29952399968371e-06 0.00148626555743266 0.000352191552037267)
(5.19597617517824e-06 0.00147491322117714 0.00031139775896559)
(7.00922870953788e-06 0.00146486519912859 0.000270111529906034)
(8.33887113696119e-06 0.00145609684264908 0.000228590746375533)
(9.36099702405783e-06 0.00144852608201019 0.000186714150759634)
(1.01696107988018e-05 0.00144215780380755 0.000144204876672412)
(1.07515453032281e-05 0.00143710001874431 0.000101396216478175)
(1.10705533745534e-05 0.00143345662443739 5.95173351172125e-05)
(1.10968451090045e-05 0.00143116142167532 1.95015925703282e-05)
(5.24063512362024e-07 0.00148647598239086 0.000488714462768473)
(1.48901240062997e-06 0.00147037828219274 0.000447360481328156)
(2.83935822316189e-06 0.00145581522522948 0.000406054829689354)
(4.61326024003969e-06 0.00144279300622453 0.000364115391192191)
(6.30002635928832e-06 0.00143120190464656 0.000321724677374551)
(7.68741697365115e-06 0.00142101946310351 0.000279021107607706)
(8.69136539361144e-06 0.00141218536990212 0.000236127930235954)
(9.41499540287634e-06 0.00140464146319441 0.000192849043295786)
(9.90162243265205e-06 0.00139838388760994 0.000148914978706312)
(1.01522937012319e-05 0.00139350947341987 0.000104684877772501)
(1.01571253293471e-05 0.00139011237531251 6.14322005516286e-05)
(9.90445469749302e-06 0.00138811530168608 2.01174989102034e-05)
(5.36834102710001e-07 0.00146083189672339 0.000548734550917817)
(1.57902751646624e-06 0.0014425824578143 0.000505982555515779)
(2.73590778386768e-06 0.00142607743089374 0.00046308412893984)
(4.26190409229842e-06 0.00141123920544894 0.000419853198858164)
(5.83779102149126e-06 0.00139800611886024 0.000376212358198123)
(7.20615566541479e-06 0.00138631331291544 0.000332243264373007)
(8.23232720121235e-06 0.00137610678108906 0.0002880934377272)
(8.93205761492216e-06 0.00136732030192741 0.000243783269901233)
(9.36134808191833e-06 0.00135988901345227 0.000199074092920815)
(9.54940315091427e-06 0.00135379946016495 0.000153689845510892)
(9.51275536877888e-06 0.00134914044578532 0.000108011460612695)
(9.26286447978664e-06 0.00134599833623967 6.33620310194625e-05)
(8.79638308591928e-06 0.00134428620743765 2.07362764861476e-05)
(3.4569531899562e-06 0.00187433896575704 1.27512038998833e-05)