/*--------------------------------*- C++ -*----------------------------------*\
  =========                 |
  \\      /  F ield         | OpenFOAM: The Open Source CFD Toolbox
   \\    /   O peration     | Website:  https://openfoam.org
    \\  /    A nd           | Version:  12
     \\/     M anipulation  |
\*---------------------------------------------------------------------------*/
/*   Windows 32 and 64 bit porting by blueCAPE: http://www.bluecape.com.pt   *\
|  Based on Windows porting (2.0.x v4) by Symscape: http://www.symscape.com   |
\*---------------------------------------------------------------------------*/
FoamFile
{
    format      ascii;
    class       volScalarField;
    location    "100";
    object      k;
}
// * * * * * * * * * * * * * * * * * * * * * * * * * * * * * * * * * * * * * //

dimensions      [0 2 -2 0 0 0 0];

internalField   nonuniform List<scalar> 
10176
(
1.88114685737624e-05
1.74525468169373e-05
0.000136445127493401
4.2350638669205e-05
4.14688566930201e-05
1.70099971677627e-05
0.00013373819976933
0.000254825253495748
0.000213790991850135
8.03491315146351e-05
0.00021195327430802
4.04485018631952e-05
7.93913102135804e-05
1.36922544332905e-05
0.000128456925938434
0.000251431524217863
0.000369203741533388
0.000366771437861756
0.000309755306140047
0.000127710634286283
0.000308428498138446
0.000207005038577314
0.000364408975028669
3.59717510442159e-05
7.81911369054805e-05
0.000128766223295558
1.11311484903103e-05
0.00011710002151395
0.00024223891487321
0.000366285051384935
0.000486714841733902
0.000509205690549513
0.00050084246192506
0.000413573381340124
0.000183629142508308
0.000498263076707111
0.000303192797957808
0.000412413493236752
0.000356050521821643
0.000195773658785604
0.000505863823729365
3.03178484176461e-05
7.30414862144479e-05
0.000127978830084484
0.000182868261983365
7.29149445710653e-06
0.000100910306106402
0.000224326796741799
0.000353656433345549
0.00048047645674257
0.00059511090970189
0.00064616126355608
0.000673768576122627
0.000642773287631165
0.000518159251943774
0.000211061714668547
0.000669989819580094
0.000640065372156261
0.000488853417075643
0.000406501681604327
0.000290824651354725
0.000516385717352343
0.000493804215537508
0.000338703261689377
0.000177058210060054
0.000640573297530322
2.39415809661218e-05
6.40875184276979e-05
0.000122134162167822
0.000180267480614328
0.000210898115186011
4.39737884898661e-06
6.5934117870461e-05
0.000196788387635249
0.000328603174597028
0.000462429423059849
0.000587630111793477
0.000696602600590043
0.000772923710229009
0.000835974083374189
0.000846197884512968
0.000786061043683008
0.000615427040022356
0.000243701313789924
0.000656767925835712
0.000842552237971944
0.000830698775153305
0.000783346514785348
0.000629536346988568
0.000469652108882786
0.000509808521329136
0.000392630850728425
0.000269050376972801
0.00061376018341643
0.000624160068619359
0.00046980556848959
0.000309512663878047
0.000146139135465493
0.000765832385757144
1.78299846635225e-05
5.23364998212708e-05
0.000110618993366825
0.000173884104431633
0.000209212061471292
0.000242929737176661
1.30029271948136e-06
4.13132121259406e-05
0.00015710665868646
0.00028991306487024
0.000429202049342187
0.000565136697747128
0.000686724968885855
0.000786319117792853
0.00088948259241495
0.000986312811789413
0.00103457031889006
0.00102045776769674
0.000925937012786248
0.000708592807220848
0.000274521574531361
0.000828292582716752
0.000813667397708814
0.000631091067102629
0.00102980610597572
0.00101710329481558
0.00097955987853074
0.000923259002867982
0.000772169740838753
0.000608246099155614
0.000437778084752253
0.000607181145533607
0.00049491301464617
0.000368297697440432
0.000235853142483893
0.00070690276085641
0.000745445351096931
0.000593294293490236
0.000431789064477071
0.000268138919989743
0.000105860482650258
0.000880688257848757
7.690284170896e-06
4.26672578751176e-05
9.43603155014226e-05
0.000162431897358539
0.000203702148103378
0.000241413539267578
0.000274215090603283
1.41535232823379e-07
1.45954066850436e-05
9.38730627831918e-05
0.000239302716875209
0.000379656820821277
0.000523925701556574
0.000659648544775924
0.000774948534684121
0.000865387148842067
0.000994000411010076
0.00112369724374226
0.00120855096498856
0.00123466050298941
0.00119106725058711
0.00105909040930488
0.000795571700878622
0.000303623797786213
0.00101208198696088
0.000800629247887938
0.00100231514588427
0.000958938057732865
0.00078178974601338
0.000590453304740631
0.0012024708675069
0.00123039998005996
0.00118785813295586
0.00111565693369227
0.00105653539203685
0.000911797898202123
0.000749608312908291
0.000573344256936383
0.00039127680286897
0.000700534245180047
0.00059230137258429
0.000469363199765889
0.00033189202205313
0.000190306894337269
0.000794257110137182
0.0008566972615935
0.000708008635710513
0.000545726103568318
0.000377949739318979
0.000205902834503516
4.45990984962375e-05
0.000984016277363572
1.40288307789808e-06
1.58312568486321e-05
8.01217780257861e-05
0.000144764137249698
0.000193880924229625
0.000236268387153639
0.000273153016675997
0.000303463134184328
1.39058752495455e-06
4.39181748622102e-05
0.000171316583775069
0.000314100885831067
0.000462553638008735
0.00061097433048614
0.000743985849873607
0.000852223983836687
0.000932641767315531
0.00108643828772188
0.00124735692248272
0.00136736459778144
0.00143129987869156
0.00143007592374586
0.00135367725277272
0.00118331954758961
0.000875622341263954
0.000329858544263387
0.00118138271721385
0.00121234133283302
0.000978668364619519
0.000757282798567358
0.000973509664421607
0.00117276504607486
0.00109189635884455
0.000921293480145618
0.000732837323542721
0.000533057678824133
0.0014257805618002
0.00136009617478794
0.00142599257719542
0.001350550425491
0.00123839319656044
0.00118102692609023
0.00104509289789428
0.000888995794411094
0.00071321268459081
0.000522094399785523
0.000323721478528463
0.000788376875253098
0.000686071066199056
0.000567306681913489
0.000432448108898611
0.000283611070115126
0.000874690555800707
0.000956985350264125
0.00081349406973791
0.000651617373324482
0.000480392637741377
0.000303456860786853
0.000119261211176704
8.11600313749115e-06
0.00107545652928357
2.55454937493273e-06
3.84089794624175e-05
0.000128200794906004
0.000180669577302918
0.000226945204462879
0.000268336419730077
0.000302858293178883
0.000329987452839834
4.95850718164592e-06
7.57488396443418e-05
0.000230914444674382
0.000383282055871605
0.000539726972207771
0.000689420486021343
0.00081742684570204
0.00091820808869148
0.000989528770382119
0.00116695769456334
0.001357374370983
0.00151054421764828
0.00161041725207247
0.00164795102139241
0.00161616318150151
0.00150546167055621
0.00129735418175784
0.000948003098738321
0.000353232870915746
0.00140444392395881
0.00133601556787391
0.00114263418019805
0.00140760976172453
0.00117807501235051
0.000927915632334875
0.000929047800459845
0.000696936517657888
0.00114365776669234
0.00133527754913032
0.00121208590705734
0.00104917518641695
0.000864633435053072
0.000665508362006251
0.00045567867035721
0.00160371408206315
0.00164256541904854
0.00150240391355542
0.00161206021702581
0.00150248668488464
0.00134774276468405
0.00116981733635969
0.00129539882954336
0.00102258826764991
0.000853289181704598
0.000661203563614888
0.00044676238707754
0.000232852300011091
0.000869420021558364
0.000774485802666528
0.000661974673117559
0.000533200479877453
0.00038587354187026
0.000947505022051822
0.0010459133591666
0.000908849413734541
0.000748880918888578
0.000575212253249935
0.000390662662147521
0.000187057354913645
2.11433013329785e-05
1.41316539487507e-05
0.0011551384893353
2.71327797108499e-06
2.49144576597908e-05
9.98560309227475e-05
0.000169853374926067
0.000214778425574675
0.000259219506981323
0.000298417942720162
0.000329832243763518
0.000353656112503091
8.65079352243454e-06
0.000106962609582958
0.000285370598707002
0.000448975000217655
0.0006098384383227
0.000757005705165838
0.000880135276089374
0.000973649411747609
0.00103758819446046
0.00123654460059382
0.00145428638249267
0.00163830248913245
0.00177194151350321
0.00184580815337628
0.00185377141034795
0.00178984701570163
0.00164483241499098
0.00140053427660599
0.00101253482965322
0.000373701471514698
0.00162083798245949
0.00157940850888312
0.00136508241756055
0.00147589702223197
0.00129252204482079
0.00108493740057476
0.00137303140966674
0.00159328933473917
0.0011268297169515
0.000859453783171765
0.00109985993773298
0.000868944983258039
0.000619423254427221
0.00130624762135365
0.00148716227874825
0.00131936464368383
0.0011650143981878
0.000985447002763559
0.000787550162492263
0.000574447982546158
0.000335556465666066
0.00176436088478441
0.00183917830753873
0.00184826056097326
0.00162953568551236
0.00178576330775869
0.00164209732902315
0.00144406191521728
0.00114772367538368
0.00128452380406735
0.00139893088979093
0.000988131368285136
0.00080543897610207
0.000589912093245544
0.000372685316362652
4.81909239711072e-05
0.000942849499720031
0.000856117615445304
0.000751054439949132
0.000629953279360931
0.000493959322240028
0.000345793752393501
0.00101240809748667
0.00112335600572547
0.000993188035133055
0.00083697198228342
0.000662829507900754
0.000470674662698081
0.000250697582664004
3.42085914719159e-05
1.3763605524844e-05
0.00122384918855525
3.19965403643683e-06
2.09381876047851e-05
8.36824124623549e-05
0.000154264245218362
0.000202352585096237
0.000247230275366669
0.000289464760514348
0.000325749225669577
0.000353931416552544
0.000374400876305001
1.38369781273877e-05
0.000136247492544682
0.000336738506391314
0.000509457184451135
0.000669762208400557
0.000814152399131963
0.000932229447456483
0.00102011711736742
0.0010782977576007
0.00129619523525475
0.00153879576755794
0.00175122236614929
0.00191626218593624
0.00202412000704518
0.00206880410019902
0.00204570210162146
0.00194941247575214
0.00177105885124397
0.00149267341944998
0.00106931070354769
0.000391456410158859
0.00158117100094062
0.00181441651354762
0.00182596017663563
0.00173765260546117
0.00153548651199483
0.00130745847007192
0.00160109094209865
0.00142836365922626
0.00122844545848173
0.00100793860347572
0.00155853722240527
0.00132247422395051
0.00176666248876976
0.00105987731243751
0.000770995868318998
0.00104304725152393
0.00126355455721517
0.000796941304788438
0.0005140023761337
0.00145823667616183
0.00162682033518007
0.00141391400705286
0.0012685420269152
0.00109500910837272
0.000899453455086687
0.000683404130488225
0.000432511896594391
7.20087895422753e-05
0.00201658039935391
0.00190807664051471
0.00206196759406939
0.0020400776167028
0.00174196381054949
0.00194542896608116
0.00176857329948825
0.0015280389311285
0.00111408548490352
0.00126279246550552
0.00138840599457512
0.00149136954135116
0.000943563367056123
0.000749676074278383
0.000525054238014805
0.000269233475980973
5.35045114793635e-05
0.00100830160729513
0.000930077595898598
0.000833108950647873
0.000719877523957126
0.000593378611015888
0.000455309537745948
0.00030267436848621
0.0010694927634292
0.00119000586773254
0.00106688702230199
0.000915525064302113
0.000742298975871472
0.000544705934518432
0.000310191052114034
5.18406975568294e-05
1.8558948212632e-05
0.00128279547866051
3.21139224992659e-06
1.89598135210291e-05
6.86660457940052e-05
0.000114052923138583
0.000136522068888328
0.00018819728439612
0.000234197442820068
0.000277516376346325
0.000317012924977731
0.000350165218627854
0.000375052801527866
0.000392368868094593
1.9753613405497e-05
0.00016622841389289
0.000384572910828017
0.000559897232081476
0.000719698465961148
0.000861280626632596
0.000975498696016752
0.00105947424150486
0.00111305402523814
0.00134694851360979
0.00161172165922886
0.00185002825147713
0.00204404257573607
0.00218352601881853
0.00226233965954319
0.00227643030544581
0.0022220309502675
0.00209406750829224
0.00188393968418662
0.00157390948916897
0.00111865146358463
0.000406676414971613
0.00177022518614758
0.00178592882654534
0.00152440402952929
0.00198939073005243
0.00203651144901385
0.002017217168592
0.00168987063602071
0.00187949105122371
0.00147197685208561
0.00123307949284963
0.0017119293781001
0.00155014851739537
0.00135862741715167
0.00114342910815443
0.000908402551692932
0.00173166902971616
0.00150876215190351
0.00125850703167604
0.00192610150755943
0.000979904732698501
0.000647697351622591
0.00120960074690592
0.000977975226496723
0.00141614690653416
0.000721368390749367
0.000398445336151347
0.00159791694430604
0.00175338305498107
0.00149635664159517
0.00135991959923247
0.00119316369871806
0.00100094310919633
0.00078339723225064
0.000522534769987761
0.000110611542150019
8.49180079546089e-05
0.00225455774532729
0.00217537788805857
0.00203541026315574
0.00226940229387147
0.00221638709937849
0.00184035404742059
0.00209022059797376
0.00188167523724905
0.00160052604660653
0.00107078088538996
0.00122952424344978
0.00136694851717517
0.00148115556506083
0.00157284810776946
0.000892506381277913
0.00069415260423288
0.000463401005906376
0.000234475033684114
5.60494404155888e-05
0.00106585458575972
0.000995970815868566
0.00090731836356459
0.000802162009549384
0.000683963007139091
0.000554998235453041
0.000415195831577114
0.000255612144045686
0.00111907533134224
0.00124700692696651
0.0011302469580975
0.000983524011026813
0.000812202014332536
0.000612158194722836
0.000366187945652718
7.27091855035922e-05
1.81549796191178e-05
0.00133307635116796
2.68757145036784e-06
1.59835744684757e-05
5.68519880669161e-05
0.000107373991114449
0.000119848492950568
0.000177380109027161
0.000220279023854669
0.00026427935600009
0.000305114531596792
0.000341540127514892
0.000371546297837732
0.000393328177389588
0.000407755701083441
2.75954875899705e-05
0.000220928444531691
0.000424738308073833
0.000601974409691257
0.000761033297349555
0.000900188325786991
0.00101199485334347
0.00109316054123514
0.0011423004229192
0.00138975442733268
0.00167389455766411
0.00193549858900164
0.00215604807258198
0.00232481667099176
0.00243534327682446
0.00248373355114591
0.00246706017507754
0.00238196209648583
0.00222358405691294
0.00198363045306054
0.00164463743578717
0.00116100927340739
0.000419572509263421
0.00194142088537898
0.00199186898907118
0.00170781554158037
0.00197667559905255
0.00172977194024636
0.00145346236726847
0.00214632985089671
0.00222662269410118
0.00224324576511044
0.00219308065679216
0.00162115453312079
0.00182849982745589
0.00200532863894835
0.00139048703413554
0.00114419344042759
0.00180898747347675
0.00165809867025835
0.00147547442740459
0.00126632479021325
0.00103373079315562
0.000770313190242056
0.00168211445559264
0.00189079163473808
0.00144693386280967
0.00118552476725525
0.00207074530644728
0.000893118176512407
0.000520855826981977
0.00136324659925237
0.0011480929744066
0.000910532348565439
0.00155590414792739
0.000645970958972816
0.000358480282289319
0.00172444259349118
0.00186657603493442
0.00156751464320011
0.00143961540633171
0.001279720430236
0.0010916303003375
0.000874080246715985
0.000605929266515037
0.000150147581127181
0.000131899116687569
9.64854215561224e-05
0.00247573024406227
0.00242694504827744
0.00231623515272355
0.00214705189335455
0.00245994196877269
0.0023763526292391
0.00192546935593679
0.0022198660298406
0.00198154504395853
0.00166235655967399
0.00102074122096623
0.00118644701986079
0.00133376764812792
0.00145990380143966
0.00156289806415004
0.00164376667010675
0.000838396978066578
0.000638559391205213
0.000417452650000518
0.000221265439097158
5.2599788040048e-05
0.00111582617622518
0.00105388433740371
0.000973344955760608
0.000876272978676349
0.000766071565372214
0.000645348933570582
0.000515567331133788
0.000375193955263868
0.000228628003880673
0.00116162120945024
0.00129555251842289
0.0011843455753899
0.00104196984579498
0.000873208967773959
0.000671440606179986
0.000418483073808412
9.68677841071132e-05
1.61026881394431e-05
0.00137553512733579
1.9123798781399e-06
1.25217646958306e-05
4.77155001308652e-05
9.87796146391147e-05
0.000104582248515551
0.000168938504183193
0.0002070874861063
0.000250274452084311
0.000291675485052191
0.000329578968943623
0.000362979623975126
0.000390028031375352
0.000408965299155276
0.000420782603316197
3.68237536854513e-05
0.000247500785067112
0.000458387042725713
0.000637388314317289
0.000795406351524926
0.00093283774353348
0.0010432327876469
0.0011216506223054
0.00116607354677777
0.00142525732832613
0.0017261583227589
0.0020084663483478
0.00225310052955958
0.00244883264949823
0.00258878405346114
0.00266894451841944
0.00268679662756434
0.0026399569532068
0.00252526775197678
0.00233811864175181
0.00207057076198119
0.00170545102242966
0.00119692990000995
0.000430369095219085
0.00209526881058784
0.00187408552724816
0.00217819837593854
0.00219793960519755
0.00193007390035235
0.00163031829234366
0.00192045641282935
0.00215195139721501
0.00166083306363384
0.00137256494461452
0.00228573758909404
0.00239714755079485
0.00244703303867203
0.00243320228302416
0.00235270775797716
0.00153319305474817
0.00175525476206509
0.00195165236271509
0.00211574567370081
0.00129320636831033
0.00104745284813421
0.00189298785092158
0.0017526899513147
0.00157909673373827
0.00137660777105376
0.00114736198774404
0.000882623696352458
0.000631830697248301
0.0016208780754494
0.001840969103941
0.00203509877231983
0.00137663599836168
0.00110823960897193
0.00220028883792155
0.000807289237598932
0.000471385105867612
0.00130236642751966
0.00150296954267828
0.00108216448436874
0.000842451360943354
0.00168224547476509
0.000585215454117718
0.000332895645678814
0.0018375710457958
0.00196652970480944
0.00150839413776637
0.00162822777920636
0.00135518341171005
0.00117170401513345
0.000954859604828055
0.000681006257942016
0.000193864239157724
0.000177444890305884
0.000147228498170684
9.47928992909042e-05
0.00266032197054416
0.00267867709855536
0.00257995704546768
0.00243990629375719
0.002243792750379
0.00263280992860031
0.00251970041363831
0.00199813804164672
0.00233450409604656
0.0020686259242262
0.00171434333436534
0.000966147066469715
0.00113612666956929
0.00129048124669685
0.00142668630620732
0.00154180230832409
0.0016340399572278
0.0017047295520421
0.000782170807270009
0.000585260435220488
0.000387619963868104
0.000204726860761131
4.67886352345952e-05
0.00115869514260434
0.00110414951621927
0.00103132166248254
0.00094208381936763
0.000839708599817446
0.000726637398496291
0.000604914827254916
0.000476586635843971
0.000339793543553116
0.000206420405826045
0.00119768894553129
0.00133654659379476
0.00123038279429989
0.00109185723731842
0.000925726780021587
0.000722740705664127
0.000461711533197036
0.00011928308141286
1.30700694178646e-05
0.00141074723968133
1.1883278187253e-06
3.95417945632175e-05
9.53464718806671e-06
8.73325277540742e-05
9.03343952699642e-05
0.00015262127282959
0.000193902632432758
0.00023590234095463
0.000277330489081965
0.000315921773531409
0.000350915050311489
0.000381487307712067
0.000405830055749718
0.000422197382494713
0.000431683771259037
4.36389550652252e-05
0.00026906159571374
0.000486871065745776
0.000666968646503237
0.00082411253363637
0.000960788941636755
0.0010698945157995
0.00114488809439129
0.00118472811558426
0.00145398775612036
0.00176935545228181
0.00206986262627549
0.00233611491308957
0.00255646617497949
0.00272360820196296
0.00283324870377575
0.00288294925062248
0.00287088914167956
0.00279493100932876
0.0026521142177275
0.00243813905224457
0.00214543838817611
0.00175709084812301
0.00122701947135591
0.000439298412182902
0.00223212907209564
0.00234568064282986
0.00202369706935956
0.0021115736939131
0.00179067607425334
0.00239788601694832
0.00238713792894276
0.0021359448941509
0.0018547109062985
0.00154202262185491
0.0018518144799227
0.00209517476039114
0.00231099988634448
0.00158262822703608
0.00128633124105478
0.00240824113555078
0.0025487300839925
0.00262974861456817
0.00264933294939857
0.00260560859507703
0.00249579458611248
0.00142824365453625
0.0016614998292367
0.00187447546026335
0.00205980827295907
0.00221147637943886
0.00118743658683879
0.000951991653417131
0.00196474241927142
0.00183459656485904
0.00166991023310431
0.00147440959561741
0.00124924684202749
0.000984214360758464
0.000734047229469924
0.00057278937723355
0.00155074975068303
0.00177934632790748
0.00198478334805953
0.00216432753267452
0.00130065484183856
0.00102912508158332
0.00231485510400677
0.000734210851654512
0.000434695598566949
0.00123551684228216
0.00144149341896876
0.00162883958065056
0.00101295352298644
0.000775793234789702
0.0017950887064081
0.000536207793889855
0.000304023514105576
0.00193745717313461
0.0020536907197017
0.00156710238087325
0.00142027799204779
0.0016793118627985
0.00124146868609666
0.00102615759382356
0.000745712347585874
0.000232433193581374
0.000228129442516419
0.00019794614426907
0.000142053568028868
8.48023712400923e-05
0.00282420461717236
0.00287420991418307
0.00286271620805312
0.00271444416606404
0.00254724557600869
0.0023265389546136
0.00278777024392697
0.00264657691326884
0.00205928458876326
0.00243460272389522
0.0021436039205581
0.00175730830502436
0.000907986876241971
0.00108032686203461
0.00123946034136423
0.00138301879793261
0.00150848993872695
0.00161307134555712
0.00169519725861338
0.0017564875361081
0.000724958735809154
0.000536384073163716
0.000354263134402912
0.000182260713743863
3.93019198432795e-05
0.00114726310620553
0.00119503512076743
0.00108161047678734
0.000999793745452588
0.00090494475337765
0.000799287688745895
0.000684561913299796
0.000563089259405643
0.000436860808500557
0.000306331162592826
0.000181908606996518
0.00122789482034992
0.00137066511523946
0.00126936711219159
0.00113425319680092
0.000970536276547037
0.000766982150348169
0.000498340222386711
0.000137217834108527
9.81380848986307e-06
0.00143923888549456
7.62088606416244e-07
7.60356613700393e-05
3.1263668315556e-05
7.01855680441283e-06
7.27058541051356e-05
0.000135366875061719
0.000179324443119761
0.000220870045793762
0.000262146943066694
0.000301205332883418
0.00033703446798102
0.000369305313006423
0.000397298100464138
0.000419197465434656
0.0004332673677465
0.000440699837258972
4.94232129048638e-05
0.000287299465478395
0.00051056581814867
0.000691542926614057
0.000848421768420818
0.000985067978816514
0.0010919625486743
0.00116311842447625
0.00119902089313037
0.001476644350604
0.0018043843090684
0.00212072202425345
0.002406139952179
0.0026487175147239
0.00284078687339299
0.0029777213841079
0.00305693789616687
0.00307682785325642
0.00303588943171006
0.00293217938620561
0.00276299663611703
0.00252438139023001
0.00220909809477559
0.00180039627699583
0.00125191246754194
0.000446594039465712
0.00215692179685697
0.0023525144814311
0.00249479154978371
0.00257755870937455
0.00227496517077463
0.00193503860313256
0.00233102970713449
0.00203051739111582
0.00169564200151951
0.0025993443834985
0.0025588061749907
0.00232440306355753
0.00206076583417657
0.00176933170482921
0.00144768891856927
0.00177351218396009
0.00202584931416279
0.00225347037932495
0.0024535693216349
0.00149776542438709
0.00119742704836414
0.00251462529463441
0.00268207847369706
0.00279221120034657
0.00284297185189702
0.00283285020587502
0.00276020268499432
0.0026224695460727
0.00131419791015566
0.00154960466808369
0.00177557945326975
0.00197923362524275
0.00215364492632806
0.00229339938696864
0.00108310007533455
0.000867729030251111
0.00202516215149966
0.00190461526292399
0.00174855840052751
0.00156007236909649
0.00133955101394399
0.00107485361924232
0.000825785439100051
0.000664505486315266
0.00052684099787689
0.0017082514686526
0.00147351708463137
0.00192238018949965
0.00211346812634419
0.00227862460265456
0.00122017406020647
0.000949699323285672
0.00241491022542391
0.000671517102235635
0.000394742314540256
0.00116362740898258
0.00137300253341946
0.00156635528705249
0.00174106489933606
0.000941183301388712
0.000711919906036491
0.00189467215774286
0.000487891251950871
0.000270229828912845
0.00202456737493305
0.00212875243102855
0.00161658088162986
0.00147584854262216
0.00130159301269571
0.00172159236214149
0.00108815086420875
0.000803267876591178
0.000252208314860373
0.000271697250564052
0.000248614937807468
0.000189975534729101
0.000125894203561853
7.14368999329251e-05
0.00296834913135902
0.00304778608350558
0.00306803349406862
0.00302767949647508
0.00283133543616988
0.00263924163147228
0.00239633655573675
0.00292499989291266
0.0027574750628035
0.00210993772604138
0.0025209038341542
0.00220735151360474
0.00179214953257569
0.000846836100106688
0.00101985569138645
0.00118224424190488
0.00133116264352098
0.0014643888141585
0.00157965054120037
0.0016743450994339
0.00174713094434087
0.00179988761407504
0.000667216708074608
0.000487774497034432
0.000316435416383325
0.000155902444522285
3.10474244959455e-05
0.0011247326679968
0.00118381471878759
0.00122547332456552
0.00104980771011383
0.000962067018388901
0.000863522510648214
0.000755509688045628
0.000639943997841493
0.00051951772330864
0.000396381727018138
0.000271346728541697
0.000154882219923053
0.00125288291279583
0.00139844799911282
0.00130197596685611
0.00117006115565339
0.00100863490191312
0.000804708691853053
0.000530341852499716
0.000151759172700954
6.8930299583489e-06
0.00146174616840173
4.83205497220282e-07
0.0001157664188876
6.12685112503401e-05
2.32810646363276e-05
4.76342388855132e-06
5.67133943656906e-05
0.00017295388329528
0.000204869362857206
0.00024591595288405
0.000285377072741029
0.000321965652546789
0.000355209448200926
0.000384999676851775
0.000410668368728398
0.000430381339808343
0.000442429682257692
0.00044806268788421
5.44618445290357e-05
0.0003016846386557
0.000530592486595377
0.00071245448910572
0.000869700889124668
0.0010055385035945
0.00110942878221553
0.00117714944827344
0.0012097095168414
0.00149420002776404
0.00183224322104167
0.00216216990260292
0.00246435359856074
0.00272673282554179
0.00294139521962545
0.00310341972231181
0.00320998194437118
0.00325942808030727
0.00325054304961294
0.00318204563745691
0.00305223274126972
0.00285869990959577
0.00259780007423336
0.00226254658639129
0.0018362617818972
0.00127225836336088
0.00045247689927627
0.00227420032481516
0.0024206116441855
0.00206364376066247
0.0024571404934624
0.00262610761153624
0.00273758103193701
0.00250664420997795
0.00278991426696903
0.00218892108836185
0.00183392926567931
0.00225015457166206
0.00253165799805569
0.00193868507954617
0.00159393977817412
0.00278203839120115
0.00271274671330408
0.00249514105398739
0.00224835324830338
0.00197518774264493
0.00167649376786518
0.00134998128472538
0.00168717172363227
0.0019462860513858
0.0021830993861804
0.00239527887765189
0.0025798121548987
0.00140732933346188
0.00110684833374278
0.00279804368790104
0.00260584454967185
0.00293523502993196
0.00301513301733366
0.00303625476807521
0.00299739464967867
0.00289714427487958
0.00273322015153041
0.0012016355473388
0.00142795610418881
0.00165744747437702
0.00187581489166102
0.00207017117068242
0.00223400930860671
0.00236254215915002
0.000988474242762342
0.000793722904490245
0.00196364410217897
0.00207525892988551
0.0018158325756236
0.00163422737431693
0.00141848034362473
0.00115523149903426
0.000907053946098968
0.000744909455982794
0.000609629670243995
0.000477463272592703
0.00184995438460127
0.00162900170807049
0.00138998206760211
0.00205019109040078
0.00222725544301415
0.00237847071034133
0.00113570052269104
0.0008719021611718
0.00250119846827587
0.000609775303249262
0.000350284421692388
0.00129822379388253
0.00108720264339361
0.00149605541112076
0.00167747299840623
0.00184001509037978
0.00086773240193887
0.000647941181721159
0.00198150863128037
0.000436311796935196
0.000232779993024413
0.00209960861696026
0.0021925922755017
0.00165763045532386
0.00152272315642943
0.00135292634175191
0.00114145129875598
0.001755951546241
0.00085331228275854
0.000268293279671072
0.000310129036454702
0.000278737642575069
0.000235367994073828
0.000167522189834624
0.000105230215139436
5.69364526375193e-05
0.00309376755311471
0.00320051253836191
0.00325022890770104
0.00324170845977225
0.00317379601400835
0.00293169307788701
0.00271703807650205
0.00245436129511091
0.00304502734311782
0.00285318422035001
0.00215122014918813
0.00259436765938684
0.00226087111734571
0.00181987165327696
0.000782820334539699
0.000955008566104363
0.0011194489441494
0.00127251655333738
0.00141169061301719
0.00153512761480189
0.00164083063509642
0.0017263966425663
0.00179069401992633
0.00183582928759339
0.000608003943725248
0.000436490561786892
0.000274895774655142
0.00012747130995529
2.2950408454939e-05
0.00116129468308854
0.00109267408482797
0.00121444223592967
0.00125066732610637
0.00101152664103864
0.000919697420533658
0.000818174731983791
0.00070833317105976
0.000592550839466526
0.000474649583820554
0.000353319142750021
0.00023391182749733
0.000126108303572809
0.00127329996577758
0.00142046759951572
0.00132861067564231
0.00120006411537196
0.00104099997345255
0.000836914590992243
0.000556448821365777
0.000165278691418917
4.50267813321575e-06
0.0014791700475401
2.76409556766962e-07
0.000152569031072663
9.46895321918924e-05
4.65391023262342e-05
1.5921156144049e-05
2.78489112682521e-06
4.08364742899458e-05
0.000189486959043453
0.000228434779391466
0.000268200302515052
0.000305593878756555
0.000339821191268552
0.000370706538038552
0.000398265015898822
0.00042185737073716
0.000439643738283344
0.000449913838156114
0.000453999315668072
5.77947907909335e-05
0.000314193679442191
0.000548144509648117
0.000731206849416783
0.000888021303918919
0.00102191110662629
0.0011229608540155
0.00118768870446664
0.00121742126695765
0.00150752337474951
0.00185399986221868
0.00219538336165103
0.00251202382098889
0.00279179367760429
0.00302665645263538
0.00321148850250627
0.00334323203503079
0.00342005947056855
0.00344077096208242
0.00340440853352348
0.00330993595830326
0.0031559249238511
0.00294025097124777
0.00265950881079597
0.00230685850364092
0.00186559558644733
0.00128868896577712
0.00237620030365905
0.00254899964970247
0.00217690015039078
0.00266327193707953
0.00233023036989689
0.00195711171114318
0.00254691958574044
0.00274039879406569
0.00287861819664492
0.00295964167758299
0.00242084608407332
0.00271814328947438
0.00298233998267747
0.00209133414216207