/*--------------------------------*- C++ -*----------------------------------*\
  =========                 |
  \\      /  F ield         | OpenFOAM: The Open Source CFD Toolbox
   \\    /   O peration     | Website:  https://openfoam.org
    \\  /    A nd           | Version:  12
     \\/     M anipulation  |
\*---------------------------------------------------------------------------*/
/*   Windows 32 and 64 bit porting by blueCAPE: http://www.bluecape.com.pt   *\
|  Based on Windows porting (2.0.x v4) by Symscape: http://www.symscape.com   |
\*---------------------------------------------------------------------------*/
FoamFile
{
    format      ascii;
    class       volScalarField;
    location    "100";
    object      nut;
}
// * * * * * * * * * * * * * * * * * * * * * * * * * * * * * * * * * * * * * //

dimensions      [0 2 -1 0 0 0 0];

internalField   nonuniform List<scalar> 
10176
(
7.66170626471401e-06
7.07317728905885e-06
0.000203731654786232
1.71135120811332e-05
1.6978169415988e-05
6.99780750638776e-06
0.000199869653589711
0.000323552762631843
0.000265402199267442
3.27667962991042e-05
0.000264495204376331
1.6822158077805e-05
3.27333826123115e-05
5.51461346363384e-06
0.000194326879157876
0.000332678545295213
0.000455609191887006
0.000551496462730552
0.000358891178818236
5.09570244549361e-05
0.000361520925820155
0.00026244632760054
0.000552450318299766
1.51227801148361e-05
3.30591036823138e-05
5.32361091629637e-05
4.59672412022481e-06
0.000181440140584014
0.000328998805237055
0.000453672752177994
0.000582643701651848
0.000774319336980152
0.000791150400626306
0.000454205299947742
7.42379761000807e-05
0.000791727581857193
0.000362639098460824
0.000461145947292413
0.000544844456845941
0.0002530630227489
0.000769034706770761
1.28589935161352e-05
3.16105731704457e-05
5.48937977262786e-05
7.60372277046676e-05
2.95070260002798e-06
0.000163862783099244
0.000310978450891093
0.00043603512614545
0.0005688472701347
0.00067980815650728
0.000955106339663014
0.00115006111657861
0.00100876897408547
0.000541969950223799
7.02226426186756e-05
0.0011453391543422
0.00101210998919502
0.000784791618713532
0.000465796296094943
0.000355488602326866
0.000549165585117546
0.000750702418948477
0.000523006751344345
0.000235812829031223
0.000942656800840987
1.00735633345462e-05
2.79426298531594e-05
5.39139060715569e-05
7.78454876686153e-05
7.14027908760913e-05
1.82049233745881e-06
0.000121970773990775
0.000239123643393728
0.000399190622707429
0.000539768666304654
0.000661796652476454
0.000753938020426847
0.00109768718005142
0.00143131837007361
0.00150556556168063
0.00119527703316116
0.000585663185491766
7.58341482494261e-05
0.00112711263766095
0.00150320234616148
0.0014213419895648
0.00120050916841375
0.00100825944696491
0.00076275637768025
0.000555760539966289
0.000460846163741743
0.000335560399808375
0.000593187990546563
0.000914277645742432
0.000713067235639976
0.000471363053744117
0.000204489517981769
0.00108104131159575
7.77460346737284e-06
2.25677087957e-05
4.92945833842729e-05
7.74107020655451e-05
7.25431337191907e-05
7.68505698544709e-05
5.28307546107679e-07
8.85099126672499e-05
0.000240856249358802
0.000357952544613467
0.000490789031950248
0.000622869928295845
0.000733925215170774
0.000820966115135361
0.00121074763407198
0.00165214466137823
0.00190725831775951
0.00181733992103187
0.0013387870841152
0.000631358200591422
8.06773854331698e-05
0.00148665434544396
0.00139269656994214
0.00108713379354322
0.00189945968051276
0.00181706511342272
0.00163796765708106
0.00134574817392866
0.0011996693220607
0.00098792997525762
0.000716076248044208
0.000600538632704848
0.00055302267954117
0.0004401337307667
0.000298959470191537
0.000639200002822991
0.00104359166875572
0.000862009524850768
0.000653993731897602
0.000428712269469635
0.00015736067633042
0.00119109409090926
3.27412332565312e-06
1.94186466390132e-05
4.16320397966108e-05
7.31415231548152e-05
7.25797920512855e-05
7.80693242825257e-05
8.19228562305046e-05
5.83187448955809e-08
4.13735664443567e-05
0.000180139143568311
0.000265524294540413
0.000406108209517954
0.000551734701322233
0.000689481858637476
0.000794799532551108
0.000869335262617013
0.00130364711356315
0.00182683074755381
0.00222525836367867
0.00234082648548566
0.00207763839388835
0.00145975223260174
0.00067219374991453
8.51192545618226e-05
0.00187108688025346
0.00144605954464671
0.00180311971565883
0.00160045197579885
0.0013360279747802
0.00101626497603888
0.00221297657907336
0.00233457119889126
0.00207921927163778
0.0018097304493138
0.00146827096343432
0.00134802806143249
0.00118265496531312
0.00094082538737393
0.000643409352572663
0.000647580030145992
0.000600347794331306
0.000534458131157708
0.000399453746011978
0.000239445104983525
0.000680920433169659
0.0011473475103564
0.000974893746176159
0.000775574010029107
0.000558197880613563
0.000341954381942658
6.79352913767587e-05
0.00128034064729535
5.67024259320045e-07
6.53825455488811e-06
3.72998527739535e-05
6.49873756738675e-05
7.10188110822271e-05
7.83392724962741e-05
8.33353728375665e-05
8.64639653722144e-05
5.79593509706831e-07
8.94735362553568e-05
0.000211630231940572
0.000318024396774659
0.000446763999544922
0.000609173144788097
0.000739326563015119
0.00083905452996184
0.000901873862332405
0.00137582811693796
0.00196605355007018
0.00247735092237499
0.00276344758007264
0.00271592112339984
0.00229542532027309
0.00156324135984637
0.000708041827742778
8.89161782371776e-05
0.00217477277512061
0.00230746889289269
0.00181136818367004
0.00136948377573473
0.00176510599822322
0.00206854548431786
0.00176564105316151
0.00152893822611792
0.00124020509737332
0.000900892728856942
0.00275199690606941
0.00246188640854787
0.0027108424281526
0.00229878217067919
0.00194690102148126
0.00157328164366461
0.00147340630946885
0.00133580095075204
0.00113921872695008
0.000855461584438414
0.000510365828070469
0.000690513325725582
0.000649143732798402
0.000587932282669974
0.000497345641454772
0.000334676988097228
0.000717540079324656
0.00122948007593814
0.00106764829543982
0.000868094690440747
0.00066193378280304
0.000440882501004129
0.000169106194730094
3.34950105335209e-06
0.00134904895323104
7.64191303294851e-07
1.59988514099802e-05
5.92932217528973e-05
6.82050459961999e-05
7.71424300981304e-05
8.37974977947345e-05
8.80569138324405e-05
9.03989850437864e-05
2.11019643722934e-06
0.000117072473665572
0.000226664246563047
0.000356734196788317
0.000470455647172975
0.000661638106003996
0.000779924036176866
0.000868142480702065
0.00092905499629134
0.00142966490513724
0.00207665682285645
0.00267839789269163
0.00310148631364805
0.0032408696352996
0.00303440527814246
0.00247895375016356
0.00165191365322481
0.000738858319222398
9.21691425791238e-05
0.00271363226188457
0.00241627122700483
0.00209888097346123
0.00268597179734764
0.00224850023702109
0.00170726455382577
0.00169139553505722
0.00124074202928608
0.00203581947555266
0.00229153663753835
0.00189758154752093
0.00168279159184124
0.00141244530358685
0.00109400322426868
0.000715217223498978
0.00308631907691972
0.00322976808647638
0.00266082960741575
0.00303059066965308
0.00248404684192058
0.0020557804569719
0.00158101906671823
0.00166334310193008
0.00146561166035736
0.00130090657066979
0.00105883946020665
0.000699193308521848
0.000268769385417297
0.000728360069108528
0.000693590977100974
0.000639847271981771
0.000563321071082316
0.000442260981776443
0.000749177149292657
0.00129310551287409
0.00114479070824972
0.000940163749547724
0.00074195977072806
0.000510766406405706
0.00023279585467022
9.02797701057115e-06
4.24525588575999e-06
0.00140016960809691
5.96223296461104e-07
1.06198798193905e-05
4.64929444031734e-05
6.486273457847e-05
7.49133955985604e-05
8.27903114988259e-05
8.8706993167257e-05
9.2156759990526e-05
9.37749805613227e-05
3.60794863151035e-06
0.000142679703786826
0.000237619673190634
0.000400984625439383
0.000502194811567145
0.000675991723202653
0.000799250397018217
0.000884801838038436
0.000945354985680861
0.00147117669840394
0.0021642332109597
0.00283965235260685
0.00337255429855823
0.00366567148454096
0.00365290985172865
0.00330369249266464
0.002634299821927
0.0017276549072252
0.000765230068785675
9.49145351234521e-05
0.00319233448524847
0.00303935862960546
0.00263657022464674
0.00260975399614077
0.00232776680221012
0.00197160972952693
0.00263147457772639
0.00300862686515021
0.00214545532573685
0.00154120871659
0.00197191875131265
0.00156934497574324
0.00103082910095296
0.00226479989951004
0.00248007303981277
0.0020021990016275
0.00180708052720509
0.00154981625528456
0.00124299582430243
0.000863452623711214
0.000377614860285149
0.00335494628863886
0.00365023385263307
0.00364242610208605
0.00282049737214414
0.0033013752665552
0.00264103680044127
0.00214165724822459
0.00157695183845213
0.00167338029330907
0.00174033189531805
0.00143832625254914
0.00123962055791703
0.000922448234119182
0.000476580320555225
1.59642960830463e-05
0.00076112599709679
0.000732782004658634
0.0006862032593315
0.000621129825952524
0.000529202528810183
0.000375531220928921
0.00077616770983819
0.00133863002952036
0.00119753235834678
0.00100520632382775
0.000813476484467097
0.00056548204241288
0.000286268503243521
1.40865797599467e-05
2.744437310657e-06
0.00143706773870414
1.03145521985183e-06
9.20719485204682e-06
3.8838802774042e-05
6.82122326617598e-05
7.2554272797049e-05
8.07694171191468e-05
8.7849468205593e-05
9.29704367701141e-05
9.56803392369288e-05
9.66279242909884e-05
5.84478403789033e-06
0.000162809536202443
0.000256293619071543
0.000439967261841692
0.000546699077891624
0.000701319198865884
0.000804104032769298
0.00089740188839443
0.000946007382616152
0.00150170870229724
0.00223355659877898
0.00296957689092759
0.00359130319100407
0.00400893039264434
0.00415968445726414
0.0040045990367269
0.00353150673636283
0.00276604609419252
0.00179220222434921
0.000787664395235262
9.72320207671015e-05
0.00311846059907837
0.0036031390372749
0.00360705509035074
0.00330176124061187
0.00294797229502261
0.00250801076460203
0.00276523385445949
0.00251189285294743
0.00218225865504789
0.00177462821338417
0.00296032301491024
0.002538228613194
0.00328258560958886
0.00198474141727444
0.00127607815712244
0.00187108663130588
0.00221182721156804
0.00138624347893903
0.00067564910252479
0.00245875637205511
0.00263996197250438
0.0020842944361087
0.00190462178961185
0.00166282425534631
0.00136497723845926
0.000979691390330446
0.000467965861705624
2.17970310850184e-05
0.00399068708684056
0.00357199979362504
0.0041443929854081
0.00399519028171731
0.00294910083469056
0.00353068654844028
0.00277415712461919
0.00220903212108689
0.00155513282782835
0.00167233237520902
0.00175232452945112
0.00180585342428103
0.00139164751679759
0.00115371135935803
0.00075830488520761
0.00017986343844234
1.1484971923803e-05
0.00078903199369857
0.00076667288986486
0.000726732410362202
0.000670190271934193
0.000596772570547773
0.000499241897388126
0.000317056974401239
0.00079910946496128
0.0013692053262247
0.00124073391668078
0.00106316714865331
0.000874290469348266
0.000616270957302978
0.000330852020236069
2.15006356918281e-05
5.83037383530165e-06
0.00146471266974265
1.08866465275655e-06
8.02476847386599e-06
3.12646150998554e-05
7.60360654333298e-05
6.02677488980644e-05
6.96685522746055e-05
7.84616462667191e-05
8.59600761326125e-05
9.22609316698267e-05
9.66323535291973e-05
9.86564325006228e-05
9.90271625535629e-05
8.24658621073886e-06
0.000180012121874581
0.000277257946262268
0.000449682622231457
0.000553995575185319
0.000712728074811376
0.000803190784233066
0.000906363739673127
0.000946574171459949
0.00152241025319836
0.00228869160545029
0.00307473450586848
0.00376895980313051
0.00428750798988862
0.00457269081142866
0.00458563699058348
0.00430363086147026
0.0037243974720254
0.00287774233772111
0.00184698142849917
0.000806639218666036
9.91758613222923e-05
0.00351372182249031
0.00353896140531743
0.00299893144312125
0.0039366631309893
0.00409868970115682
0.0039626030596468
0.00319948674489256
0.00351420344839321
0.00279875439503638
0.00231312921032758
0.00289041648076915
0.00265997683632063
0.00235258638008312
0.00196159808692171
0.00146688789844452
0.00324042120007818
0.00287959143290465
0.00239976335630922
0.00351488621587247
0.0017484007388505
0.000843013256612193
0.00213137112317035
0.00173299673569754
0.002414620963543
0.00113666692984704
0.000282743211116067
0.00262303981941954
0.0027754778000525
0.00214803449285148
0.00198184717435116
0.00175421031525556
0.00146518283367445
0.0010767661221546
0.000542149358441122
3.41254925861513e-05
1.68117706873221e-05
0.00455436486990108
0.0042673810901742
0.00374834539490005
0.00457117294445731
0.00429549356562937
0.00305303966602097
0.00372488800710499
0.00288695271141517
0.0022625618585833
0.00151679082400826
0.00165429442381531
0.00175362438103688
0.00181941206258317
0.00186141100351234
0.00133005731912954
0.0010541850212972
0.000571800173922713
0.000181471449221409
1.78209606767372e-05
0.000812729843801957
0.000795496862717717
0.000761546549655392
0.000712142232348482
0.000649456518416829
0.000570611765917034
0.0004574357255084
0.00026438348560525
0.000818489045784143
0.00139049945361337
0.00127065734016118
0.00109802384644303
0.000915482349067066
0.000658988442071623
0.000368241342874921
3.005064188325e-05
6.10583600390713e-06
0.00148605061178993
9.23901594281387e-07
6.78850483083446e-06
2.48849259676099e-05
8.19377913079667e-05
5.33770270373423e-05
6.66433557793292e-05
7.59794807508648e-05
8.3737201140662e-05
9.0488514473581e-05
9.60252916653391e-05
9.97189520942896e-05
0.000101153235547107
0.000101034706579775
1.16000563735363e-05
0.000162685987963922
0.000292582616790374
0.000467087209511282
0.000561087988048923
0.000719200381032404
0.000800085865480248
0.00091568817995879
0.000951216441026651
0.00153996316090291
0.00233314966961876
0.00316046463940266
0.00391400720286382
0.00451480113892863
0.00490984842672552
0.0050632119975112
0.00495028271379034
0.00455744194431798
0.00388759321558181
0.00297217701246323
0.00189321194892113
0.000822575775764672
0.000100795597611015
0.00383536333474226
0.00401459431914887
0.00337242526053721
0.00390086008497621
0.00343255659698235
0.00282671128863952
0.00420831804589361
0.00450134885051353
0.00452798734186575
0.00426579496863051
0.00303407600038428
0.00340351195592555
0.00368692664563268
0.00257624951827672
0.00203210602597455
0.0029913816267833
0.00277928982590189
0.00249019152980443
0.00211330919377139
0.00162162555407837
0.000978197788876811
0.0031706805452505
0.00347795040960661
0.00276472392735261
0.00221364945581733
0.00371162353353961
0.0014309514946945
0.000383523157217957
0.00234808080686212
0.00202693094831371
0.00156480999578556
0.00258523717987427
0.000855656518354238
0.000291490574654182
0.00276196488625272
0.00289017848607203
0.00219820688540146
0.00204201137560371
0.00182448184470592
0.00154357555841702
0.00115534499652528
0.000606522337939511
4.61134772672276e-05
2.65316176647768e-05
2.95802634452694e-05
0.0050456566823288
0.00488954084535432
0.00449325732686716
0.00389228728940108
0.0049369895302493
0.0045504796488897
0.00313769911054652
0.0038891369121977
0.00298224996052666
0.00230616648566022
0.00146674270790706
0.00162068178205708
0.00173815142261711
0.00182255739596414
0.00187622933997979
0.00190826277092078
0.00125945957115461
0.000946179765626423
0.000527149297329693
0.000195007034162818
1.75693322693712e-05
0.000832725849755315
0.000819947543032645
0.000791123447815554
0.000747734237066677
0.000692806378035945
0.000626565626498728
0.000542012261260384
0.000420084531582008
0.000245938268129263
0.000834748709894628
0.00140642628933469
0.00129245064253668
0.00112481187268967
0.000950128577395112
0.000693816091128522
0.000379075101837647
4.02023752621311e-05
5.52983786080109e-06
0.00150476323354178
6.60179210995829e-07
5.32955818837041e-06
2.09547406267051e-05
8.27435333800034e-05
4.68572961672621e-05
7.60369722149535e-05
7.37693086193798e-05
8.14177541381329e-05
8.83288249237855e-05
9.43224299168503e-05
9.91866102019825e-05
0.000102302585549499
0.000103238185529884
0.000102704333094161
1.5456577825639e-05
0.000170378923677031
0.000300962760714874
0.000480748043879484
0.000567067187202297
0.000722961372795048
0.000795991244089041
0.000925352757674193
0.000957488661735751
0.00155655967638666
0.00237053549032502
0.0032309965785737
0.00403294940814358
0.00470099443177248
0.00518602618283785
0.00545543513120004
0.00548600018015532
0.00526114985790974
0.00477237532024646
0.00402527427164144
0.00305163719141476
0.00193196757266253
0.000835853904824048
0.00010213422690044
0.0040978813429519
0.00367672421173956
0.00440503139200555
0.00445034827284951
0.00388659513147948
0.00317202538139705
0.00380676960485455
0.00420974640192929
0.0032861648552921
0.00259904527184251
0.00443031379294337
0.00483129223055119
0.00499509713308298
0.0048966750678633
0.00452332337411596
0.00278961496172041
0.00322534426113718
0.00356953867880549
0.00382786639448276
0.00226011763119656
0.00166377609621324
0.00307341256924054
0.002875527337221
0.00260089050416443
0.00223553390818959
0.00174720935107622
0.00109178303262065
0.0004660425778165
0.00307373710464205
0.00341657552874745
0.00367880161276276
0.00261846214239507
0.00198807737243872
0.00387788675623565
0.0010909197794298
0.000386987193306616
0.00226326055120704
0.0025274477453859
0.0019056116351111
0.00139018210668041
0.00272863085329957
0.00078620007943719
0.000300585647097523
0.00287926064491496
0.00298697149007462
0.00208954629093395
0.00223889497358133
0.00188013364334099
0.00160651812883426
0.00121509285845805
0.000653795390150147
6.00918561663785e-05
3.54732919751919e-05
4.50709354676369e-05
3.1476584316596e-05
0.00543593313874698
0.00546966535027665
0.00516424786188998
0.00467828596046606
0.0040102795059087
0.00524898862583256
0.00476635613596257
0.00320737878552579
0.00402762661478459
0.00306238448613144
0.00234293763356794
0.00140927247255506
0.00157629078408787
0.00170744480221516
0.00180898688147559
0.00188082673037667
0.00192409594063524
0.00194751483833381
0.00118582335712432
0.000878046545828536
0.000521607220567826
0.000195957149632108
1.58693968519831e-05
0.000849485249615524
0.000840553935480019
0.000816177489832806
0.000777925100722081
0.000729237102991181
0.000671101241954751
0.000602269196029151
0.000525492382349111
0.000388981399708104
0.000231852621730938
0.000848284836611452
0.00141968876438283
0.00130910480770448
0.00114572532765382
0.000977794339128224
0.000720238944822636
0.000399567538038698
4.95907484113344e-05
4.48999123611069e-06
0.00152200785740957
4.07271109681962e-07
1.7404062952312e-05
4.05951698542885e-06
7.78408169705114e-05
4.05583782956953e-05
6.89547804448999e-05
7.15722991019356e-05
7.90912942266262e-05
8.60603222335676e-05
9.22066595956321e-05
9.75291781244213e-05
0.000101825409842697
0.000104456030598364
0.000104969841395406
0.000104082684794149
1.83644970523788e-05
0.000177045711411518
0.000306420823957392
0.000488199526125118
0.000568949486003499
0.000728864096575667
0.000795949694851734
0.000933595258606907
0.000961592335114135
0.00157130712384808
0.0024022875655275
0.00328942736209259
0.0041307226180458
0.00485380363480717
0.0054127722113814
0.00577803149289484
0.00592856866498775
0.0058482293372762
0.00552511665491148
0.00495370607632996
0.00414088722577645
0.00311808306859942
0.00196420891979279
0.000846820450566783
0.000103230615961718
0.00431265111331463
0.00472561821114798
0.0039254514793946
0.00425964277510936
0.00345349126960516
0.00490537503026659
0.00482509769747767
0.00433549226611626
0.00371326396376331
0.00291042740034769
0.00368105070703693
0.00412541803705363
0.00447185107960227
0.00310275334000597
0.00232734117584663
0.00461219917238606
0.00510202010391401
0.00538019655237693
0.00542210759041763
0.00521128713509124
0.00474122285347651
0.0024454226634688
0.00296319214388328
0.00338110729206477
0.00370502314238391
0.00394330907178876
0.00185312241679744
0.00127906077865559
0.00314080222150522
0.00295367703120086
0.00269045593800359
0.00233453042445115
0.00184766521972648
0.00118371075263805
0.000541372418001663
0.00046546519659945
0.00295334632890396
0.00333178528520317
0.00362344175001401
0.00384816414491978
0.00244970752911346
0.00175971552162394
0.00401792458090996
0.000993971640911427
0.000388247374949563
0.00216563124689382
0.00245371598462437
0.0026764181043223
0.00178080788518281
0.00128600071392795
0.00284908578364075
0.000758471463478574
0.000293079983163094
0.00297802023302782
0.00306828220801453
0.0021280214667457
0.00192466554492642
0.00227302291529359
0.00165734439565552
0.00126503940590134
0.000672475548135189
7.22155575331474e-05
4.60202480059179e-05
6.04810086995642e-05
4.6859685150299e-05
2.84673535240276e-05
0.00575710651646238
0.00591040440115753
0.00583310551137803
0.00538978648124487
0.00483010885829039
0.00410725492656413
0.00551386003868201
0.00494838620800004
0.00326511361407625
0.00414384910509475
0.00312935884274452
0.00237422014868403
0.00134800211153077
0.00152481785532082
0.00166624885679486
0.00178020906449092
0.00186867529057864
0.00192984197341439
0.00196416925103888
0.00198015368939034
0.00112293440431366
0.000830001111926987
0.000503237788128655
0.000184184095678215
1.3313012199269e-05
0.000857807703297088
0.000863426895627823
0.000837260340260804
0.000803448515465243
0.000759996967937077
0.000708313703699227
0.000647768654583961
0.000577831165501023
0.000493992909544606
0.000359036286758748
0.000210282244735601
0.000859456432508051
0.00143290590134374
0.00132386801655112
0.00116094088510656
0.000998393202536279
0.000740966370874464
0.00041777844105522
5.72312862689424e-05
3.35655394816349e-06
0.00153702350609314
2.59824514623799e-07
3.41924794999477e-05
1.37795328278683e-05
2.9912797082145e-06
6.68332662272876e-05
6.12777840653059e-05
6.88412488298348e-05
7.66048378267728e-05
8.36814497918404e-05
8.99639139278589e-05
9.54424675256518e-05
0.000100198042598111
0.000104020423361707
0.000106242537157442
0.000106397901451324
0.000105211496438515
2.08099812019009e-05
0.000182404160331052
0.000310444385827551
0.000491466494707482
0.000565284578301751
0.000739364468759197
0.000802200515031951
0.000941145867550608
0.000966268097785813
0.00158289471045438
0.00242849506262909
0.00333751688736524
0.00421092762611441
0.00497909814097105
0.00559894632783215
0.00604354562056534
0.0062941098679306
0.00633589171918141
0.0061568931543209
0.005748160841803
0.00510589271051569
0.00423737730989052
0.00317324044803844
0.00199080432441265
0.000855788066693663
0.000104120217245435
0.00412911563087848
0.00448867692657521
0.0049889801358671
0.00528127936327743
0.00456632101445903
0.00368373846728755
0.00477367566048722
0.00406405576018803
0.00316436380581695
0.00533881403399031
0.00514468532739577
0.00472099086321412
0.00418459520702331
0.00349839564279497
0.00260206754439484
0.00352769112836955
0.00401428720772853
0.00439468287072668
0.0046931927681787
0.00289339243548077
0.00205653406834088
0.00476142050041106
0.00532436776251305
0.00569747773209827
0.0058578731888576
0.00578834839133197
0.00547824431285607
0.00492477356089573
0.00200759302744786
0.00259623329350283
0.00310478580657647
0.00350830019702215
0.00381594811273649
0.00403813566127073
0.00143492830943269
0.00115937034761326
0.00319659629829844
0.00301777075055831
0.0027633241322836
0.00241507545740819
0.00192993138441624
0.00125330204234683
0.000604605292199731
0.000532667566881222
0.000461278274912775
0.00322705336057385
0.00281604639796604
0.00354660875334622
0.0037970193757636
0.00399048833130441
0.00227840443088617
0.00161969002223871
0.00413532675246685
0.000947253847033268
0.000372190735236165
0.002062162991105
0.00236812838316891
0.00260909731924881
0.00280047877714084
0.00167510620081646
0.00121357400980839
0.00295009256323084
0.000725943780913873
0.000272740882728912
0.00306083204756614
0.00313619033283517
0.00216026922079961
0.00196047966616986
0.00169806688227485
0.00230228696953847
0.00130585279554628
0.000701893334071492
6.47840844734835e-05
5.49793286577186e-05
7.62534792937737e-05
6.25675805457524e-05
4.19752091899625e-05
2.39211958514107e-05
0.00602144424636448
0.00627463719307798
0.00631907344987721
0.00614273823656853
0.00557493464407383
0.00495457549885469
0.00418680521541548
0.00573755093922998
0.00510106903214633
0.00331267385049774
0.00424079682376279
0.0031849319300681
0.00240010601017504
0.00128658429806213
0.001468424341363
0.00161789926879982
0.00174094847858519
0.00184122451059964
0.00191876368013195
0.00197083335138642
0.001997476617746
0.00200706715280423
0.00106169966618523
0.000782152554637733
0.000470468708952319
0.000163862717155193
1.048201153226e-05
0.00085489258211569
0.000872151853571961
0.000874924354379043
0.00082488469363481
0.000785925423486364
0.000739615089482008
0.000685472405103665
0.000622781296823894
0.000550883391735504
0.000459910868029004
0.000325635408034392
0.000183161088910733
0.000868589619360613
0.00144647026628156
0.00133891042514823
0.00117135225429357
0.00101389031458305
0.000756215860455996
0.000432760444822519
6.34160023259421e-05
2.35095770789525e-06
0.00154926284415691
1.65266203014449e-07
5.2452591002757e-05
2.75950851609574e-05
1.02784283052759e-05
2.03058777520809e-06
5.27570649672596e-05
7.83638362296461e-05
7.38419540105401e-05
8.10861348248396e-05
8.75667012274787e-05
9.3215159489881e-05
9.81294566183067e-05
0.000102413292976344
0.000105839213695166
0.000107714916850648
0.000107568228811747
0.000106126405837872
2.29433338549365e-05
0.000185632760584993
0.000315309667656742
0.000497467696758727
0.000562359165887478
0.000747269597701228
0.000807013324783492
0.000947324003709339
0.000970701111105557
0.00159237111273356
0.00244924325451464
0.00337631350923065
0.00427612149003341
0.0050813576828454
0.00575141907937164
0.00626180197545322
0.00659583167738939
0.00674035282453694
0.00668426649659878
0.00641833157627654
0.00593549541542211
0.00523280042072107
0.00431732749446804
0.00321865068892943
0.00201254036351679
0.000863055167153454
0.000104833490717897
0.0042960971775088
0.00481845816547529
0.00387239535380025
0.00463308807430092
0.00520538279223422
0.00559134907552888
0.00513604915615611
0.00576573189274942
0.00435253032866327
0.00337220879607951
0.0046016157231754
0.0052185928918182
0.00382305201874249
0.00282633505549999
0.00571043142840624
0.00541539761656098
0.00504860309917099
0.00458633851912956
0.0040023522660032
0.00325516094988107
0.00229747269639956
0.00335446554545607
0.00387981749025531
0.00429331722632752
0.00462104633505876
0.00487923237587891
0.00268272535900805
0.00188622145280283
0.00550690187610043
0.00488375117348047
0.00595870562307815
0.00621841412412002
0.00626958493942583
0.00610023028439497
0.00570347540451557
0.00507857159167722
0.00156228294950017
0.00213269979894797
0.00271954353130439
0.00322051737158136
0.00361243180381009
0.0039070168793277
0.00411594000909217
0.00129390281232898
0.00109784370453546
0.00307077942297247
0.00324267502085885
0.00282299515150032
0.00248065668045279
0.00199727193318387
0.00131332500876078
0.000655936114678897
0.000582994210453246
0.000522667542340282
0.000438692058200803
0.00345120324950065
0.00310670684686882
0.00267180930025522
0.00372532656894919
0.00394226319175395
0.00410957264960376
0.00213415204961539
0.00152134705224256
0.00423318046164517
0.000899432567920003
0.000343958935505742
0.00227427812783766
0.00196010775043748
0.00252983512331412
0.00273694989823956
0.00290385272712682
0.0015810343223445
0.00114514365921151
0.00303452579895983
0.000679885605423313
0.00024428115742323
0.00312990384977328
0.00319251371950653
0.00218811745097752
0.00198971023299064
0.00173103272708834
0.00133848570062564
0.00232702432038818
0.000725646221869817
6.7765550401497e-05
6.31507736425119e-05
8.58680117210092e-05
7.77299100582015e-05
5.57644367067924e-05
3.49879951898929e-05
1.90118192979767e-05
0.00623868668549555
0.00657526721609456
0.0067223559018857
0.00666853176977972
0.0064048589797529
0.00572654171721548
0.00505615697443694
0.00425148924810905
0.00592531503857098
0.00522832098390489
0.00335109602859285
0.00432109135672381
0.00323067017845791
0.00242068701959221
0.00122344204213869
0.00140816816781267
0.00156377077767583
0.00169435751143217
0.0018031931060367
0.00189225039874128
0.00196058271588536
0.00200488354645911
0.00202493546134193
0.00202905701144209
0.000998553502879048
0.000726118616920034
0.000426401431167425
0.000138875514396355
7.73966944259644e-06
0.000869541361995162
0.000842782559889482
0.000883977330715205
0.000884333286144233
0.000807654089013915
0.000765911305865192
0.000717151982407158
0.000660536490969092
0.000595612011235964
0.000532231853318426
0.000420303148751
0.000288047526378435
0.00015247334047393
0.000875976245764236
0.0014575669160674
0.00135235505026527
0.00118075447537948
0.00102776771194107
0.000770097848555709
0.000435665630056681
6.91459868685415e-05
1.53369388251787e-06
0.00155898658367844
9.3471991502171e-08
6.91574812423774e-05
4.29664726267571e-05
2.10066129550656e-05
7.01977706303547e-06
1.17724779116869e-06
3.82149256553089e-05
7.11791697127529e-05
7.81915865543436e-05
8.49119542731911e-05
9.08091320695664e-05
9.59108658074603e-05
0.000100355775691084
0.000104246349174581
0.000107337840521947
0.00010892177501995
0.00010851673604187
0.000106860139098131
2.43475417932992e-05
0.000188797060017502
0.000317139322583754
0.000507667994087037
0.000565658927718169
0.000753668499588168
0.00081054773906881
0.000951710124849423
0.000972424408068102
0.00159980846654625
0.00246538662967162
0.00340687653619225
0.00432831076071695
0.00516408224902157
0.00587562224561936
0.00644058694347651
0.00684430083088214
0.00707521904381814
0.007123370451451
0.00698015184885382
0.00663825450362195
0.00609174239950738
0.00533784718062123
0.00438303561305815
0.00325569759217507
0.00203011695211482
0.00086888693088804
0.00443308319319242
0.00502571428375556
0.0040270817225424
0.00543517167580346
0.00458977444054509
0.00354259151650574
0.00475148773282611
0.00538307015307418
0.00584676903911485
0.00611935958992118
0.00494648317650886
0.00563252648798058
0.00618319733785307
0.00408996900951682
0.00300985359141022