/*--------------------------------*- C++ -*----------------------------------*\
  =========                 |
  \\      /  F ield         | OpenFOAM: The Open Source CFD Toolbox
   \\    /   O peration     | Website:  https://openfoam.org
    \\  /    A nd           | Version:  12
     \\/     M anipulation  |
\*---------------------------------------------------------------------------*/
/*   Windows 32 and 64 bit porting by blueCAPE: http://www.bluecape.com.pt   *\
|  Based on Windows porting (2.0.x v4) by Symscape: http://www.symscape.com   |
\*---------------------------------------------------------------------------*/
FoamFile
{
    format      ascii;
    class       volScalarField;
    location    "100";
    object      omega;
}
// * * * * * * * * * * * * * * * * * * * * * * * * * * * * * * * * * * * * * //

dimensions      [0 0 -1 0 0 0 0];

internalField   nonuniform List<scalar> 
10176
(
2.45525838812153
2.46742674525263
0.669729638413667
2.4746900851459
2.44248102825323
2.43076094222877
0.669127090417967
0.787584848365838
0.805535871368951
2.4521509756763
0.801350159855628
2.40447757511937
2.42539279101941
2.48290374721351
0.661035295246377
0.755779198188891
0.810351828074956
0.66504767056131
0.863089773228796
2.5062419882704
0.85314148119846
0.788751896320642
0.659623070089239
2.37864670193321
2.36519228279355
2.41877600223159
2.421539383087
0.645392034734054
0.736291168895487
0.807377233096924
0.835355879337614
0.657617169339225
0.633055941738225
0.910542834677857
2.47352032146939
0.629336514383283
0.836073107518389
0.894323143590894
0.653490216056872
0.773616218833597
0.657790629311814
2.35771550701879
2.31066630208205
2.33138961750533
2.40498328915455
2.47110449458288
0.615821995683336
0.721358010817155
0.811073264835039
0.84464931444392
0.875410075629942
0.676533320660464
0.58585458321299
0.63718582167328
0.95606638657698
3.00560769002469
0.584970676187953
0.632406931054334
0.622908559952507
0.872702692168832
0.818098384733351
0.940309683174726
0.657789562246501
0.647607819246632
0.750842143692742
0.679540313037404
2.37667448657584
2.29353925398156
2.26535547258846
2.31570879717163
2.95363966307693
2.4154887985548
0.54057308741394
0.822956629642967
0.823173581504354
0.85671779769233
0.887931526390403
0.923952077911731
0.704138414181718
0.58405879562015
0.562046519959167
0.65763920988602
1.05082077082513
3.2136091644145
0.582699460453818
0.56050487156533
0.584446798344186
0.652511896948187
0.624379319116341
0.61573016316314
0.917316874206398
0.851978125499716
0.801794184076682
1.03468073055712
0.682681099692112
0.658851711322763
0.656633271147441
0.714653430199403
0.708421017349169
2.29336257962845
2.31908787440765
2.244039522649
2.24625406813133
2.88396779605823
3.16106617864628
2.46124199637371
0.466763675174511
0.65228392082291
0.809920390937019
0.874514346086072
0.907310936158575
0.935687934806906
0.95779728699668
0.73465565191604
0.596989376805918
0.542438488408529
0.561511776573605
0.691623801702719
1.12233088373142
3.40270787231652
0.557152094738874
0.584238817894567
0.58050910646955
0.542157391673469
0.559750604038462
0.598033712262893
0.686056292517715
0.643652152005004
0.615677339881304
0.611356801664543
1.01106092508793
0.894923541032328
0.836785894139192
0.788913434763538
1.10591795640553
0.714307495369076
0.688268837392427
0.660234255188057
0.625451938479533
0.672725137682909
0.739394364030848
2.34880711750891
2.19723128332725
2.26653116115402
2.22078909971189
2.80659591804066
3.09229702557594
3.3472354751857
2.42692522064383
0.352771296732975
0.521114183867505
0.901246032079325
0.93486615617036
0.949597152945039
0.95673082114081
0.975023893379416
0.995458468159844
0.762476594063294
0.615107472461216
0.543105908381197
0.527446400083452
0.573279380132172
0.72552751463668
1.18354522186465
3.5670401409083
0.540905928870487
0.553662711090878
0.55587831311469
0.599167030459768
0.585159712798677
0.581003299987822
0.54337261355491
0.527034677993246
0.571300078428091
0.616476853840469
0.719577937825315
0.676393855802377
0.633835171621524
0.609405597075484
0.608130424751297
1.0817724645124
0.98659706619564
0.878203871179181
0.830864713040337
0.794782981052644
1.16644628571351
0.746676359046081
0.726241847880907
0.703641556461952
0.677089169352528
0.602135388158423
0.656493813339194
0.768558179764309
2.47411473995905
2.42132769774104
2.14804542289601
2.22757321323731
2.72999394491616
3.01596350878643
3.2777559801456
3.50970641790443
2.3992461986987
0.490851001315831
0.809509029991407
0.987662861769778
1.03534223545294
1.002956771344
1.00630206879012
1.0156955875984
1.03411553019571
0.789661349660344
0.634447074159395
0.55194626866612
0.517939941764317
0.526552819013999
0.589728291666519
0.756965352878012
1.23668165771423
3.70976970449082
0.54322121866195
0.525398776367991
0.540292345555405
0.552969529092137
0.551530426728794
0.566951539120544
0.618413554040007
0.602570767351958
0.59090010603474
0.591699390781498
0.518089449394258
0.552460978729794
0.526033000806768
0.587506916800199
0.63608431188671
0.750677369717024
0.709303938213096
0.665515168192235
0.626054213926261
0.610307241473926
0.634293012430614
1.14172579424833
1.0568862203159
0.964918407502956
0.86951221213816
0.847417301463026
1.21901282033466
0.778365887331609
0.761949485811517
0.750629373154724
0.725741230047356
0.688294182907502
0.705244484786934
2.42304839085477
0.797196074099306
3.3428139837743
2.40073355756387
2.16214924937418
2.64891804798408
2.9418985657334
3.20220086269614
3.43934712219392
3.65034466570613
2.34978464287258
0.647025191085696
1.01875107422446
1.07441915948148
1.14724305139295
1.04199029615319
1.04808520802745
1.05766980547816
1.06509170536963
0.816245604386096
0.653634416646624
0.563973045890605
0.51924048317926
0.508490376608458
0.532612829651702
0.607297199658074
0.785364404020266
1.28306479615204
3.83244175904652
0.517551307037987
0.552924503235515
0.544401609546133
0.524059769769187
0.523938131272457
0.543510160891897
0.549278853587854
0.561709445805511
0.561767769896138
0.582699629260442
0.63875300043935
0.6234730381966
0.612153570023113
0.608323949365991
0.637119263051223
0.519620312123956
0.508570700765251
0.564637400819734
0.531929380357508
0.604854409155571
0.655586913531241
0.739913490599401
0.778792317736631
0.697721159915287
0.655918880681237
0.624460636823872
0.638968339130751
0.866364670401579
1.1936678827307
1.11663188858608
1.03458231691331
0.946530331011777
0.872501888636684
1.2647276054087
0.80883837301252
0.793900061544077
0.796543069490645
0.775260702727183
0.764855826945702
0.803525282607078
2.34197553983812
3.32881087242657
0.824998973449615
4.55077483082212
2.34602067852975
2.1477674129826
2.61865886521607
2.86702296509975
3.1310367395465
3.36408587491513
3.57903472081078
3.77132696147906
2.39770418206125
0.74966941158476
1.20095526971817
1.11968133373115
1.21434635379773
1.11984463593632
1.10120092448239
1.10041522280983
1.09756462934733
0.840513992598806
0.671963804606708
0.576937697189748
0.525400440331151
0.503538890803639
0.50747800673775
0.541771675080451
0.624390739922602
0.810656266334689
1.32317700382577
3.93724176206139
0.507728118700986
0.519651907313136
0.517749311131453
0.565531090062316
0.555262685073775
0.550279999295337
0.521772629417931
0.529573591592464
0.525217049935305
0.557649183994591
0.557761285550349
0.553699152633095
0.600898106053265
0.576760720289787
0.599644548718823
0.65895779720766
0.644694235065253
0.635847636391335
0.633590352513243
0.665291837410972
0.888620922949581
0.525898399851949
0.503852186405003
0.507425685291116
0.577747634727838
0.540914971360417
0.62176238087587
0.674273120227054
0.727811495188234
0.767622165268378
0.803829943905774
0.687000857096138
0.649746384857858
0.639506989580649
0.78199896279491
3.01866889215897
1.23875613671902
1.16831146234838
1.09450724655667
1.01420548980219
0.93340317808119
0.920812260397789
1.30436770900677
0.839183329936182
0.829362169807394
0.832637004407504
0.814810901798801
0.832342368804036
0.87574280727189
2.42845261624
5.01509197218613
0.851629436521093
3.10207750647328
2.27411149011693
2.15460844530162
2.26153344053849
2.78898233412474
3.06093920427787
3.29500868277219
3.50379364652281
3.69910286037051
3.87466541429079
2.36740622710538
0.83685204025928
1.31387783906285
1.15794339405746
1.22510213659685
1.16088708315492
1.15933935096175
1.13674500862991
1.13984074269981
0.863146916090915
0.688944156776308
0.589721172568215
0.533584073529721
0.504902756794947
0.497346402462386
0.510838184512346
0.552005877740411
0.640285371585966
0.832871089640571
1.35757146065782
4.02600302935705
0.507035747512064
0.503565500741787
0.506219098654819
0.526280514801595
0.520861920781062
0.521312941924068
0.579007428075774
0.568640361212156
0.562923856729882
0.567971700141971
0.526475392906584
0.521022502494904
0.538192357758805
0.534012795426516
0.604191729178716
0.557455349245886
0.571271820242865
0.574892734859522
0.760753435789313
0.593078961679719
0.616228700308436
0.678365773356179
0.666033557861226
0.658523656274588
0.658951248228842
0.697570824071155
0.924238137837637
3.30360539751528
0.505321603892136
0.534176022047947
0.49753187048847
0.510633404881504
0.590676246148859
0.551005856620315
0.637517350330698
0.691723273981493
0.71639249391917
0.755108544345251
0.792322410170227
0.825853040617031
0.678018934871827
0.649795174674829
0.69240518986114
1.49687717699939
4.65865409461501
1.27789698687469
1.21313484302613
1.14637649122137
1.07413902305614
0.994312809101179
0.912001857472263
0.954637156485233
1.33835577017101
0.869121559009508
0.859883821952842
0.861129941290781
0.849030158620869
0.883874094768736
0.937552238286793
2.41112394535074
3.18314892610515
0.875800083634084
2.94984524554481
2.36266174940435
2.19628629921379
1.49998454665684
2.26525913750716
2.70132331233641
2.98486526810752
3.22843334757166
3.43604729802884
3.6236850893014
3.80160514648144
3.96223478464673
2.39536856836269
0.923429001124186
1.38705821063911
1.24509421623433
1.29910507989238
1.2084280907
1.21452924406773
1.16892831777113
1.17587618466435
0.884747400235939
0.704210936672596
0.60168715313343
0.542335997862934
0.509276256503316
0.494750192575641
0.496426191196647
0.516315414075356
0.562256720455092
0.654658917684242
0.852152309104647
1.38680520076197
4.10055843780408
0.503803452742585
0.504647726268479
0.508315731266836
0.505349496224861
0.496868901405019
0.509063647866815
0.528169288001678
0.534827046533992
0.525939987694589
0.53307851863364
0.592277752874058
0.582767675352989
0.57750373319073
0.582906924602882
0.619271965264828
0.53439627838331
0.523950076619592
0.524429639433947
0.54798402829132
0.560457743424856
0.768312178417555
0.567522349231545
0.564326063835937
0.586488284461935
0.634634800931914
1.40921274317629
0.609185164661225
0.631740976255657
0.696616672858349
0.686187924494075
0.680171407237581
0.683152359003636
0.727546322392713
0.963820692309293
3.24131708489703
5.05110434432978
0.49503230631064
0.509768835285757
0.543015663904689
0.496459513005998
0.515979611077302
0.602794018008656
0.561149917524178
0.651785957493796
0.707395486463606
0.705951584385457
0.743231812759254
0.779499037511627
0.814084723038451
0.844976259838163
0.671028510156253
0.658473218846072
0.810424737592002
1.29207671338998
3.14514135530042
1.31145003950346
1.25201099155307
1.1914155004381
1.12640701971015
1.05313133018724
0.97263720905071
0.907659389995523
0.966823413574853
1.36724533713231
0.896805046363751
0.889497838932824
0.895721904595121
0.88718478860922
0.928936162823176
0.994423773261929
2.41955515579585
2.97338146774666
0.89705985825226
2.90893691168294
2.35450586937432
2.28459542700326
1.31043306635981
2.24531974901342
2.6616323105713
2.89919096153025
3.15605671553498
3.37185921740237
3.55677261262798
3.72593463965019
3.88843891411081
4.03579833986537
2.37890978296669
1.3580053654079
1.45168674999631
1.28878375907811
1.35635286008511
1.25165162523243
1.26485780715052
1.19381309616155
1.20088380903752
0.902459528004452
0.717439853713986
0.612409506143837
0.550854395721203
0.514932241632118
0.496011906104531
0.490545043811474
0.498367531253293
0.522653305426206
0.571969322304767
0.667399836800631
0.868702226776239
1.411431393452
4.1626074869124
0.506189561701446
0.496156978943135
0.506405749465987
0.506728146099248
0.503931076261655
0.514188475176047
0.510020827202224
0.494656772457695
0.495417852512395
0.514108313437348
0.534315730032953
0.537239137436393
0.543902505172906
0.539733059344985
0.5630579437305
0.604733096332477
0.596590774666795
0.59251443503242
0.599214158508145
0.637465776581899
0.787482039932381
0.530521580962279
0.54365111978464
0.523355640863282
0.535552168903599
0.557908227419958
0.624142872643688
1.35808181899685
0.580579081975527
0.566419381657648
0.581880452590245
0.601841935447897
0.754941901471481
1.22981774870289
0.624353554266508
0.645834173885652
0.71308785975067
0.704998720149681
0.701415820579063
0.707208853097543
0.756553453163167
0.999022177111417
3.25604552129252
4.97139369163596
3.26181752013953
0.490665615980755
0.496354386850729
0.515491320488983
0.551617014294163
0.498267608975154
0.522220252060444
0.613656468673128
0.570786290109335
0.664446330853027
0.72083111519075
0.695923842309576
0.73206661109923
0.767348362618308
0.801019383352464
0.832999479779414
0.861394298078558
0.665679945008461
0.674881681476724
0.791905921368292
1.13465362953224
2.99384104265282
1.33996822189806
1.285307025259
1.23033258393264
1.17190431471203
1.10575131762495
1.02997819586244
0.951209719748587
0.893139182847116
0.92961540967064
1.39158191642713
0.921166312267777
0.916356521797535
0.926350326747
0.91904294697457
0.967750121055652
1.10395821772447
2.40950400257465
2.9119638847983
0.914120638167231
2.8967587077685
2.34949394551208
2.27707424209564
1.19380464676877
2.23193092794415
2.22179420434589
2.8072309471516
3.07395425891626
3.30215516060429
3.49417385911455
3.65956274981027
3.81249436932987
3.96137627813008
4.09702872935669
2.38240017297806
1.45264907023519
1.52306897250979
1.32582612125422
1.40266686113364
1.29030094640745
1.31060837087575
1.21213300873992
1.21784580160343
0.915645798839315
0.728172317944176
0.621624412005543
0.558673145021354
0.520918006825826
0.499184532085129
0.489226698555272
0.489755111070426
0.501783264971595
0.529142739730362
0.580859460490468
0.678511445530408
0.882753440876493
1.43198457661319
4.21375975791747
0.51130538813467
0.509716100343973
0.494479648860536
0.493880359567957
0.496597622098509
0.513967606282399
0.50448453995753
0.511183143057926
0.505401626750163
0.528103515350269
0.515931307785642
0.496171093861023
0.489886977865777
0.496909075914222
0.520128136635151
0.549607410265185
0.544206949693559
0.546751986272969
0.552721922779309
0.572185425422161
0.629563587623485
0.615923768213568
0.609519488348371
0.607136952213054
0.61578478680674
0.656682604770461
0.808424082424019
1.35573599349774
0.527331395063522
0.538834598694183
0.553196118339058
0.52574218128756
0.557442896506829
0.567393783323734
0.740007884008562
1.21808967847194
0.575438133636486
0.594658997568632
0.567883016890609
0.606000722419762
0.616516328227708
0.744359444146394
1.10749015760825
0.638209343444166
0.658369091015431
0.721876392167493
0.727246163138172
0.720791001485351
0.729343786480436
0.785832620265556
1.04161985263558
3.2261316512002
5.0022109712845
3.26659512706145
3.01153703138383
0.489395638732485
0.489733270138707
0.499580406375671
0.521538510979377
0.559510315196989
0.501584231987682
0.528642917516581
0.622981623082341
0.579622770263031
0.675495168420016
0.731706772644503
0.685564420851888
0.720759571164226
0.75579675842091
0.788665921691798
0.819747126847411
0.849250769007038
0.87533584776205
0.659601451237065
0.666548303163392
0.743126146616869
1.04475320826766
2.94835624006392
1.36399677702322
1.31359746187937
1.26359973820622
1.21102123905396
1.15148913346994
1.08275376808986
1.00439277194186
0.906933481534944
0.873547022577689
0.890308698193602
1.4118947950497
0.941436339658421
0.939865767094213
0.952983416674824
0.946749989212395
1.00347351508756
1.15552813790473
2.40534949026091
2.91093428262149
0.926898788868543
2.91778078649691
2.27198641326246
2.3487146924844
1.12193745072278
2.2272684230955
2.2133530386852
2.70918546512801
2.98265875228545
3.22251278968362
3.42623596730289
3.59805195798753
3.74648438244834
3.88517592928783
4.0220826942508
4.14750803279918
2.37626736745139
1.5197295295583
1.58889679708412
1.36618044633723
1.4484810232016
1.31820039723552
1.34417353599061
1.22632166759252
1.23204821037143
0.925336450177601
0.736529413743726
0.629247099397488
0.565546304872622
0.526693366135949
0.503181751531322
0.490348435667018
0.486280823168713
0.490898864615435
0.505859185225391
0.535379809956824
0.588796293960263
0.688063255845136
0.894553950151275
1.44897241266984
4.25550509497889
0.517577010856338
0.496375402756041
0.51553231010046
0.495716144614705
0.518511828888472
0.488828275545326
0.494733594760296
0.492664907015111
0.499482645025536
0.529826863803814
0.503066821758977
0.50786968534406
0.516788203633567
0.510072201560513
0.552704199283048
0.522145953706703
0.499553124464807
0.488783000577622
0.488616816472007
0.499993289091988
0.526403137596123
0.584047770502913
0.560712822037689
0.554396917442582
0.555950177313533
0.560817409738491
0.640776117149839
0.744289614147783
0.625554326795472
0.621122941160955
0.620679272058045
0.631565808770319
0.676121858381048
0.831465253285079
1.35590067957188
1.23057401803224
0.525082255171388
0.534051919794999
0.547761902906776
0.562431188267214
0.530942909053825
0.584824688386906
0.576132044639453
0.738663782179212
1.11963564112551
0.570511181926411
0.587473622864889
0.60858935979399
0.568816845104243
0.603260345338478
0.630057794930351
0.70695842850916
1.03733974195158
0.650585631234866
0.669329149169309
0.736412863010144
0.73793496007229
0.738801114366065
0.7490710375894
0.811166505198647
1.10890626380955
3.21860277094289
4.95715369650079
3.27286446647006
3.03146654898004
2.97893413831095
0.490559729804647
0.486296659094962
0.490770517088902
0.503627402589997
0.527368150644598
0.566446202198564
0.505593218610848
0.534836369277346
0.630693088254407
0.587522050670703
0.684997799318569
0.740162324878924
0.673579713618458
0.708495679182156
0.743862680721301
0.776885606033081
0.80725096881858
0.835856701107595
0.863060684672036
0.887046063908756
0.64559312905926
0.646245005525849
0.703967672460128
0.989557285457952
2.95214330573793
1.33743623634515
1.38406056936469
1.29184487163266
1.24437811036797
1.19072153121086
1.12843742055469
1.05679999866537
0.974487519927042
0.884346313600498
0.853203906931733
0.865068789926803
1.42868768433869
0.956563242536781
0.958832071114221
0.977012017883068
0.972098241536025
1.03511060757454
1.19283374491036
2.39760178486484
2.92377499108353
0.936380530153939
2.93308969524941
2.22375395063571
2.26884820451437
2.34633918892266
1.08786923353224
2.20906935729682
2.60489817032553
2.88323886662638
3.13267688022604
3.34806835021597
3.53128409940194
3.68575376754303
3.81942399025454
3.94566504763945
4.07214204262022
4.18870420226857
2.37497633589161
1.57507079310562
1.6446289301952
1.4071008584739
1.50087548995177
1.33231717297648
1.36120898480202
1.23585351068198
1.24087807087692
0.932875914519999
0.743005137970086
0.635419114216865
0.571403777461557
0.531967324148251
0.507378836491349
0.492710996335517
0.485682322093297
0.485618755753284
0.493087886311537
0.510107400767493
0.541138796439374
0.595741470635107
0.696164734740212
0.904356221713054
1.4628767521598
4.28921540197125
0.522368950079047
0.524099755877514
0.500060429555129
0.488055740299824
0.498205264932331
0.525292069541892
0.48830919252201
0.499628329661963
0.53585557969108
0.486876742090924
0.497368840299112
0.492354916775891
0.492464798200274
0.505755176225763
0.55636100672627
0.502740211493455
0.50465978375003
0.512772012364189
0.52279321196241
0.51765028691596
0.582254904889647
0.528125019501495
0.503736517334623
0.490078475360404
0.485324922585335
0.489405615273124
0.503848044622036
0.532505609373789
0.654613705162308
0.596866495765858
0.571884685091244
0.56415743069043
0.56438003418858
0.567935200633391
0.754811280964109
0.748448528149324
0.633537038310926
0.631133184179623
0.632773542596508
0.645972515811464
0.694092559331678
0.857617384257701
1.36582568785596
1.2475050625026
1.14213269197756
0.529353338101864
0.523257388690633
0.542033340352496
0.556612415473691
0.571013974600378
0.535538837471403
0.586346344205424
0.583970837125106
0.708909342874435
1.06059145800548
0.564275187752766
0.579783825563622
0.600343757013808
0.621702586553291
0.561864854258178
0.586630811374163
0.642241596537528
0.672078561423415
0.990793262121386
0.661443471406056
0.67877016542683
0.748323804304117
0.752799719420443
0.766514573885338
0.747774879899793
0.833287540463958
1.14443012577373
3.89305979871652
4.94180735191476
3.2603750033445
3.03632541121167
2.99925136744661
2.98634317350453
0.492962985275699
0.485731045432845
0.485519517759085
0.492887598310946
0.507868812270221
0.532687741277203
0.572354440305375
0.509799376753806
0.540568074148031
0.636928904342441
0.594441077683472
0.693060813251839
0.746695989667966
0.658204908440281
0.694523825749042
0.730727966013535
0.764619206079419
0.795334195112133
0.823264770725567
0.849561987702337
0.874669034330114
0.896774984115641
0.628442043757978
0.62363089418068
0.672596094834852
0.951421087291206
2.96197198413609
1.31564209530665
1.35734931243819
1.40066203258826
1.27267206945968
1.22411998599202
1.16752960144849
1.10217374531856
1.0275581509996
0.943062962330286
0.861866406238394
0.83328385626
0.845606568754008
1.44243367048077
0.966800377243708
0.972414541258026
0.998897770815352
0.99481658657318
1.0641256470974
1.22548596768639
2.3930737847673
2.93200934036369
0.943510763144386
2.92380104586802
2.20706769054583
2.22026896793293
2.26504130250902
2.34583500733583
1.07499146134999
2.20706248719674
2.77443041157826
3.03277438757282
3.25896794946841
3.45400527455773
3.61980449542874
3.75927446196562
3.88011545428889
3.99555931891112
4.11301447597488
4.22197175478371
2.37375461096372
1.62516916574956
1.68276631204661
1.43216231676498
1.54652211945753
1.34561677162803
1.37473415635754
1.24260489934193
1.24622244993995
0.938349117121952
0.748085441355952
0.640393700612124
0.576305795872391
0.536615014279983
0.511420777904225
0.495611284815054
0.486668262832578
0.483569356850573
0.486297644067145
0.495774579365516
0.514233863838754
0.546304020744947
0.601714851968497
0.702948783530107
0.912409914943742
1.47413330199629
4.31614836230026
0.529364265017373
0.502362282924736
0.532911433910609
0.530346165248145
0.504498461756562
0.489610109287993
0.488049108130803
0.483878598392241
0.502907716448721
0.543836214356421
0.488992281630444
0.485122723794926
0.507104028415461
0.563959950562955
0.48718532497598
0.500932139314785
0.494224046726334
0.490228368212579
0.493506720890756
0.515026382313426
0.587594049252892
0.502962901472546
0.501643712951487
0.508487789533271
0.518341237887939
0.528733201487251
0.524589417525112
0.586807202355827
0.508097611116762
0.533574389256765
0.492596079686124
0.484871698338415
0.484283217694674
0.491357622571449
0.507961211261794
0.538186791736798
0.769153595207098
0.669553260563535
0.609457967963489
0.582457622558931
0.573068581806577
0.571794127746673
0.573998200637309
0.763947827722176
0.722983518702327
0.639461137289434
0.639983629730451
0.643229080524119
0.658788210071311
0.710208920506644
0.87962346816521
1.38283885549281
1.27773045190906
1.16638134351013
1.08837911165046
0.536031711510742
0.524349991281708
0.520239998965993
0.550338621985316
0.564968733612945
0.578763514637138
0.532155393002905
0.573111940425795
0.590855620481583
0.677955552198212
1.0183902365477
0.570828949191389
0.554664733686684
0.591364787900053
0.612898686777277
0.633646146442268
0.548838434229638
0.565816503902487
0.652987900765118
0.641742954189385
0.952918331810214
0.670822081998574
0.686791809884723
0.757560091019487
0.765298952169882
0.781571786934141
0.852793046815844
0.754590973053555
1.17593430109752
3.95913968205806
4.91093012114628
3.2461173490392
3.02802349697294
3.00410440287329
3.00760916903961
2.99479243649127
0.495900452944283
0.486750185684907
0.483495511862042
0.486120269301698
0.495529413534534
0.511948261735975
0.537372176188146
0.577294484797896
0.513901340822579
0.545717110547226
0.641945241447303
0.600396391839736
0.699814896742227
0.751799649664556
0.639850771493232
0.678192127853444
0.715865112796895
0.751031907228232
0.782883767851126
0.81127086342434
0.836909670681989
0.861095720804006
0.884321527333831
0.904769692148093
0.60888469368165
0.601128454243946
0.64468773920978
0.917881820343672
2.96529569191004
1.33552552396582
1.29650770771913
1.3738386650109
1.41424884226554
1.25242558020556
1.20078841177928
1.14086658345076
1.07236039302014
0.994860459977821
0.891809802177658
0.840629302445073
0.812059837618663
0.827084283592324
1.45357818997329
0.974547092045853
0.982442203607472
1.01635364539802
1.01287475891463
1.08676396455573
1.27723828316083
2.39028610197061
2.93583888189193
0.948802294404602
2.95713777276846
2.20611029106095
2.20380046122113
2.21545007878158
2.26804298784447
2.36559469273718
1.06860012389616
2.66211252264022
2.92147517984818
3.15856942418448
3.36523289885039
3.54309377157264
3.69392329923954
3.82042171310812
3.93018313658831
4.03632550243347
4.14603179718307
4.24853756975892
2.37374233840886
1.66418735235106
1.72840285204102
1.44032489330305
1.56988824962268
1.35591590624353
1.38543456466315
1.24795215838915
1.25194437414038
0.942314912236978
0.752011810198558
0.644397687538375
0.580370486284768
0.54061758565779
0.515121007803375
0.498632893351296
0.4884694752086
0.483385666138036
0.483025694863525
0.487727001824824
0.498615405073321
0.518066050216816
0.550830863409166
0.606773260722006
0.708560435461007
0.918959661168242
1.48314921074946
0.536015274269613
0.507191516625111
0.540565178552285
0.490006957634109
0.507700411007593
0.552451983815957
0.536025710041257
0.509077295323876
0.49234340836571
0.483652191719152
0.489407524030419
0.482579761546565
0.482329742966444
0.51133251555105
0.573293652715642
0.483782439494449
0.491063295286637
0.484616065812199
0.517688065750937
0.596783996101149
0.488825129393539
0.504871488144457
0.497311716961781
0.490935564169725
0.488426260267507
0.495210550730071
0.523695385158565
0.594685257276279
0.502075264760965
0.49845897260397
0.504020496597674
0.51343511084659
0.524027826054424
0.53432654744798
0.523618531560949
0.576089254796478
0.495633960727035
0.512279618697894
0.538366550729513
0.485989191958086
0.482357613298764
0.484707617762965
0.493900090209418
0.512013947532996
0.543312715488632
0.784577185281744
0.785307366726239
0.683889421964165
0.621237908120561
0.592075297920254
0.580903780078236
0.578111906578444
0.579058312560628
0.741533949326927
0.69444535319884
0.651987759394833
0.646185379087311
0.645139159722095
0.669874143000385
0.724546858192355
0.898890904455557
1.40070285867552
1.3651124244062
1.20116074396434
1.11445704385978
1.04824515419557
0.529510221763866
0.543646058478373
0.518293754365082
0.513872288854492
0.558393177346473
0.572595187008928
0.585603548561407
0.522062327748002
0.554537650347096
0.596794534347143
0.649275916954576
0.981483236701366
0.581222860861733
0.559877030135134
0.541807170462104
0.603286450025873
0.624549458456566
0.644265076183597
0.532561777946079
0.544436360445566
0.662308051524685
0.613715102093053
0.917680058350132
0.678809122750086
0.693519579085914
0.764605878878356
0.775183433858977
0.794017476321973
0.869137918797802
1.20478756220816
0.759871597140552
4.08139401116433
4.89532849536336
3.95977131694787
3.01425696775527
2.99546181768828
3.01213348129328
3.01563612005647
2.99476254857659
0.488582929201074
0.498954131312505
0.483339207561661
0.482868246692916
0.487500644132968
0.49834457611528
0.51567894369647
0.541402928140171
0.581385923233593
0.517720764657394
0.550235074583486
0.645976533808544
0.605442405390417
0.705403310385002
0.755738455764888
0.659356431397162
0.617780918118149
0.698918879852773
0.73568176154236
0.769043659713435
0.798719377527671
0.824878184521741
0.848409172503615
0.870697551577524
0.892258522639291
0.911272525726066
0.588791496073059
0.578624027506469
0.617920353982714
0.893553944879797
2.9678058328767
1.35199627617131
1.31643009612705
1.27626638981451
1.38733665157469
1.42528988448595
1.22897513105422
1.1737827501076
1.11046093573165
1.0386987452389
0.956490027124497
0.86384889468823
0.818199450487168
0.7903606876974
0.813332015369165
1.4624873864488
0.980376796980706
0.989978683499509
1.02793005986621
1.02524078166256
1.10676647267566
1.30518563298547
2.85208276010272
2.95106597010917
0.952754241717551
2.91143613403353
2.58636786904716
2.20312079506815
2.19825996487358
2.21803830807898
2.29446167325043
2.39560717890876
1.07580541124688
2.79800766447213
3.04542837059634
3.26430765796249
3.45444076716399
3.6176045484449
3.75552999411968
3.8708622486135
3.97110575712141
4.06925872097009
4.17240699486104
2.37381029465978
1.69486974218661
1.74802738327238
1.44881826997953
1.58352778243022
1.36030713616369
1.39016945067808
1.25150071983604
1.25587918221584
0.945555791239651
0.755016193349603
0.647579896765747
0.583709965265474
0.544009293927029
0.518397850197082
0.501535359531968
0.490617574080673
0.484245240915923
0.481848535267004
0.483429943681747
0.489527460345188
0.501395743148469
0.52151118618113
0.554721455730529
0.610996151362294
0.71314937167186
0.924235086062009
0.542041771161219
0.512101181285258
0.547787171362441
0.493071711325809
0.513059048061664
0.560964852414775
0.491904257200005
0.482709614119418
0.516900845040849
0.583051701682694
0.541010232864939
0.513444071399447
0.495564679647088
0.484958271286065
0.480608634563893
0.481839759001261
0.492284862042567
0.480176838679608
0.48242382630458
0.522979466846014
0.607580336621962
0.482050638876251
0.482899179306143
0.493906886042346
0.485748637384367
0.527766720125113
0.606433878070992
0.491181351528991
0.500975225081513
0.50883225075118
0.493347851931218
0.487585423653339
0.486577764456991
0.49589262961282
0.524598032134627