/*--------------------------------*- C++ -*----------------------------------*\
  =========                 |
  \\      /  F ield         | OpenFOAM: The Open Source CFD Toolbox
   \\    /   O peration     | Website:  https://openfoam.org
    \\  /    A nd           | Version:  12
     \\/     M anipulation  |
\*---------------------------------------------------------------------------*/
/*   Windows 32 and 64 bit porting by blueCAPE: http://www.bluecape.com.pt   *\
|  Based on Windows porting (2.0.x v4) by Symscape: http://www.symscape.com   |
\*---------------------------------------------------------------------------*/
FoamFile
{
    format      ascii;
    class       volScalarField;
    location    "100";
    object      p;
}
// * * * * * * * * * * * * * * * * * * * * * * * * * * * * * * * * * * * * * //

dimensions      [0 2 -2 0 0 0 0];

internalField   nonuniform List<scalar> 
10176
(
83333.3333279424
83333.3333282128
83333.3333258679
83333.3333130105
83333.3333129464
83333.3333280498
83333.3333258094
83333.3333259623
83333.3333102711
83333.3332874173
83333.3333099441
83333.3333123112
83333.3332866471
83333.3333280281
83333.3333255392
83333.3333259256
83333.3333264941
83333.3333107071
83333.3332859661
83333.3332567362
83333.3332850936
83333.3333091
83333.3333105389
83333.3333115613
83333.3332852843
83333.3332556138
83333.3333272135
83333.3333252951
83333.3333257643
83333.3333264163
83333.3333264609
83333.3333131517
83333.3332870756
83333.3332559498
83333.3332193806
83333.3332863952
83333.3332836846
83333.333254768
83333.3333099013
83333.3333079783
83333.3333128553
83333.333309214
83333.3332832019
83333.3332539016
83333.3332181118
83333.3333244906
83333.333324415
83333.3333254981
83333.3333262863
83333.3333265062
83333.3333265403
83333.333314713
83333.3332907575
83333.3332568321
83333.3332193914
83333.3331796109
83333.3332900942
83333.3332558766
83333.3332850976
83333.3332530332
83333.3332815524
83333.3332181404
83333.3333122135
83333.3333088152
83333.3333057142
83333.333314424
83333.3333034696
83333.3332794385
83333.3332509544
83333.3332159657
83333.3331782921
83333.3333212478
83333.3333231524
83333.3333248832
83333.3333261331
83333.3333264711
83333.3333266045
83333.333326636
83333.3333157498
83333.3332940258
83333.3332608877
83333.3332211133
83333.3331802374
83333.3331405577
83333.3332888899
83333.3332599733
83333.3332934194
83333.3332199155
83333.3332542516
83333.3332829791
83333.3332160338
83333.333250042
83333.3332777593
83333.3331789419
83333.3333138909
83333.3333113062
83333.3333068681
83333.3333021425
83333.3333154945
83333.3332943721
83333.333273131
83333.3332460736
83333.3332125248
83333.3331758934
83333.3331394762
83333.3333168644
83333.3333216395
83333.3333240645
83333.3333258539
83333.3333264171
83333.3333266031
83333.3333267421
83333.3333267937
83333.3333165877
83333.3332964473
83333.3332653816
83333.333225556
83333.3331826499
83333.3331411145
83333.3331008348
83333.3332584684
83333.3332923521
83333.3332869939
83333.3332644749
83333.3332244162
83333.3332959105
83333.3331813704
83333.3332179845
83333.3332514198
83333.3332794482
83333.333176649
83333.3332125706
83333.3332450836
83333.3332715191
83333.3331399333
83333.3333150737
83333.3333131854
83333.3333099447
83333.3333044749
83333.3332954814
83333.3333163595
83333.3332836136
83333.3332605894
83333.3332385409
83333.333207287
83333.3331722182
83333.333137188
83333.3330999073
83333.3333126496
83333.333322178
83333.3333225606
83333.333325231
83333.3333262853
83333.3333266098
83333.333326769
83333.3333269115
83333.3333269026
83333.3333172769
83333.3332982833
83333.3332691827
83333.333230778
83333.3331870734
83333.3331431087
83333.3331012729
83333.3330610705
83333.333263076
83333.3332558833
83333.3332226647
83333.3332949677
83333.3332906765
83333.3332840037
83333.3332682885
83333.3332296358
83333.3331858912
83333.3332978018
83333.3331419476
83333.3331792956
83333.3332147249
83333.333246776
83333.3332740253
83333.3331377134
83333.3331729629
83333.3332071507
83333.3332373498
83333.3332608213
83333.3331002082
83333.3333159987
83333.3333145033
83333.3333120254
83333.3333074852
83333.3332988191
83333.333291383
83333.3333170646
83333.3332756885
83333.3332429792
83333.3332243575
83333.333199544
83333.3331668051
83333.3331334165
83333.3330977827
83333.3330602482
83333.3333166911
83333.3333218425
83333.3333239927
83333.3333259961
83333.3333265985
83333.3333267983
83333.3333269408
83333.333327022
83333.333327044
83333.3333176879
83333.3332997453
83333.3332721992
83333.3332355221
83333.3331924311
83333.3331470011
83333.3331029084
83333.3330615641
83333.3330217749
83333.3332669713
83333.3332279797
83333.3332606986
83333.3332516898
83333.3332196823
83333.33318403
83333.3332969426
83333.3332934713
83333.3332879223
83333.3332786816
83333.3332344112
83333.3332713241
83333.3331912693
83333.3331459496
83333.3332992863
83333.333101908
83333.3331399064
83333.3331758347
83333.3332095127
83333.3332395484
83333.3332636453
83333.3330981159
83333.3331339525
83333.3331673844
83333.3331990202
83333.3332252743
83333.333060605
83333.3333167201
83333.3333154984
83333.3333136032
83333.3333100409
83333.3333033191
83333.3332947195
83333.333279432
83333.3333175091
83333.3332323751
83333.3332029519
83333.3331874048
83333.333158598
83333.3331277226
83333.3330941556
83333.3330582795
83333.3330210028
83333.3333208688
83333.3333234237
83333.3333250681
83333.333326462
83333.333326811
83333.3333269571
83333.333327052
83333.3333271384
83333.3333272376
83333.333318014
83333.3333008502
83333.333274599
83333.3332394511
83333.3331975515
83333.3331520435
83333.3331062652
83333.3330629108
83333.3330222694
83333.3329830872
83333.3332327943
83333.3332700542
83333.3332647458
83333.3331895106
83333.3332251919
83333.3332568035
83333.3332148786
83333.3332447286
83333.3331808672
83333.333144102
83333.3332984555
83333.3332955545
83333.3332910179
83333.3332831927
83333.3332699475
83333.3332384117
83333.3331964792
83333.3332737265
83333.3331510407
83333.3331053844
83333.3333004043
83333.3330999619
83333.33306203
83333.3331363927
83333.3331704197
83333.3332015491
83333.3332281148
83333.3332513324
83333.3330585937
83333.3330944647
83333.3331281673
83333.3331590696
83333.3331861328
83333.3330214099
83333.3333171794
83333.3333162105
83333.3333146411
83333.3333118321
83333.3333060655
83333.3333008463
83333.3332917264
83333.3332379819
83333.3333178343
83333.3331469665
83333.3331592548
83333.3331704038
83333.333145922
83333.3331192823
83333.3330886397
83333.3330548734
83333.3330191763
83333.3329823648
83333.3333248741
83333.3333251334
83333.3333257031
83333.333326745
83333.3333269581
83333.3333270497
83333.3333271428
83333.3333273009
83333.333327428
83333.3333183725
83333.3333017027
83333.3332764689
83333.3332426431
83333.3332020057
83333.3331571699
83333.3331108023
83333.3330656853
83333.333023391
83333.3329835511
83333.3329450919
83333.3331947332
83333.3332367944
83333.3332301191
83333.3332724631
83333.3332679089
83333.3332610885
83333.3331865369
83333.3331492939
83333.3332206979
83333.3332502479
83333.3331758265
83333.3332073551
83333.3332334686
83333.3331408773
83333.3331036149
83333.3332995833
83333.3332970854
83333.3332931963
83333.3332865704
83333.3332745804
83333.3332600249
83333.3332416343
83333.3332010042
83333.3331561773
83333.3332755917
83333.3331099873
83333.3330649297
83333.3333012515
83333.3330965294
83333.3330601874
83333.3330226078
83333.3331308672
83333.3331623487
83333.3331894261
83333.3332102527
83333.3332468601
83333.3330195536
83333.3330551044
83333.3330888511
83333.3331197074
83333.3331462631
83333.3331653441
83333.3329827756
83333.3333174982
83333.3333166523
83333.3333153545
83333.3333130516
83333.3333079189
83333.3333052552
83333.3333012868
83333.3331601585
83333.333318183
83333.3331086804
83333.3331150206
83333.3331387246
83333.3331298657
83333.3331072489
83333.333080756
83333.3330497061
83333.3330160187
83333.3329806842
83333.3329444239
83333.3333277643
83333.3333260605
83333.3333260081
83333.3333268631
83333.3333270458
83333.3333271251
83333.3333272722
83333.333327475
83333.3333275975
83333.3333186939
83333.333302412
83333.3332779101
83333.3332451632
83333.333205694
83333.3331617359
83333.3331155677
83333.3330695589
83333.333025606
83333.3329844822
83333.3329455167
83333.3329078298
83333.3331918458
83333.3331992425
83333.3331544605
83333.3332399962
83333.3332341604
83333.3332258156
83333.333274314
83333.3332703254
83333.3332643464
83333.3332548046
83333.3331462442
83333.3331817916
83333.3331083148
83333.3332135725
83333.3332393256
83333.3331682108
83333.3331357291
83333.3331957865
83333.3332167412
83333.3331004255
83333.3330632574
83333.3333004207
83333.3332981961
83333.3332947632
83333.333288961
83333.3332781279
83333.3332652237
83333.3332558135
83333.333204726
83333.3332441531
83333.3331608005
83333.3331147614
83333.3332770189
83333.3330688776
83333.3330249344
83333.333301946
83333.3330911367
83333.3330569011
83333.3330209024
83333.3329837768
83333.3331227805
83333.3331504569
83333.3331711196
83333.333177485
83333.3331753491
83333.3329810839
83333.333016301
83333.3330498323
83333.3330808754
83333.333107773
83333.3331291033
83333.3331351055
83333.3329448152
83333.3333178191
83333.3333169682
83333.3333158432
83333.3333137058
83333.3333090461
83333.3333075437
83333.3333070655
83333.3331189312
83333.3333185207
83333.3330762883
83333.3330799447
83333.3331043436
83333.3331201079
83333.3331073698
83333.3330931537
83333.3330700831
83333.3330424709
83333.3330112656
83333.3329777885
83333.3329428914
83333.3329072199
83333.3333284886
83333.3333263263
83333.3333261649
83333.3333268842
83333.3333270779
83333.3333272317
83333.3333274171
83333.3333276279
83333.333327728
83333.3333189549
83333.3333029752
83333.3332790175
83333.333247096
83333.3332086279
83333.333165578
83333.3331199438
83333.3330737179
83333.3330287549
83333.3329861889
83333.3329462771
83333.3329082194
83333.3328713204
83333.3331963717
83333.3331514834
83333.3331872579
83333.333202931
83333.3331590581
83333.3331131111
83333.3332373454
83333.3332424806
83333.3332299225
83333.333218939
83333.3332757121
83333.3332721451
83333.3332667653
83333.3332581976
83333.3332441667
83333.3331052694
83333.3331413638
83333.3331745649
83333.3330672954
83333.3332026162
83333.3332226792
83333.3331281126
83333.3331570857
83333.3330953325
83333.3331788573
83333.3331820682
83333.3330601744
83333.3330233757
83333.3333010868
83333.3332990201
83333.3332959083
83333.3332905031
83333.333280522
83333.3332686374
83333.3332602375
83333.3331794734
83333.3331646628
83333.3332076553
83333.3332460618
83333.3331191225
83333.3330730484
83333.3332781046
83333.3330281499
83333.3329855725
83333.333302504
83333.3330834053
83333.3330517879
83333.3330178247
83333.3329822194
83333.3329456339
83333.3331115247
83333.3331342051
83333.3331459236
83333.3331273692
83333.3331259203
83333.3329432818
83333.3329781053
83333.3330114123
83333.3330425114
83333.3330701872
83333.333093159
83333.3331069827
83333.3331046102
83333.332907584
83333.333318126
83333.3333172874
83333.3333160711
83333.3333140367
83333.3333096873
83333.3333084143
83333.3333095645
83333.3330832895
83333.333318805
83333.3330496802
83333.333051251
83333.3330725962
83333.3330832599
83333.3330825332
83333.3330751844
83333.3330571535
83333.3330329905
83333.3330047007
83333.3329734592
83333.3329402596
83333.3329058325
83333.3328707677
83333.3333282089
83333.3333263942
83333.33332618
83333.3333269092
83333.3333271226
83333.3333273603
83333.333327541
83333.3333277478
83333.333327823
83333.3333191469
83333.3333033894
83333.3332798276
83333.3332485239
83333.3332108588
83333.3331686367
83333.3331236427
83333.3330775874
83333.3330321642
83333.3329886118
83333.3329475217
83333.3329088225
83333.3328716814
83333.3328355675
83333.3332000251
83333.3331560817
83333.3331918201
83333.333110116
83333.3331467303
83333.3331802385
83333.3332058144
83333.3331628783
83333.3331174493
83333.3330714792
83333.3332330779
83333.3332397761
83333.3332443447
83333.3332231224
83333.333208293
83333.3332767562
83333.3332734956
83333.3332685393
83333.3332605842
83333.333247655
83333.3332275124
83333.3331003804
83333.333064323
83333.3331340971
83333.3331639698
83333.333026663
83333.333186305
83333.3331854437
83333.33308794
83333.3331174746
83333.3331416579
83333.3330552757
83333.3331536257
83333.3331324653
83333.3330204613
83333.332984133
83333.3333016101
83333.3332996577
83333.3332966449
83333.3332914972
83333.3332820853
83333.333270539
83333.3332631545
83333.3331826423
83333.3331306693
83333.3331227952
83333.3331677096
83333.3332098542
83333.3332474525
83333.3330768925
83333.3330315704
83333.3332788934
83333.3329880461
83333.3329469433
83333.3333029152
83333.3330730737
83333.3330445948
83333.3330130702
83333.3329793879
83333.3329442188
83333.332908231
83333.3330972612
83333.3331129722
83333.333111793
83333.3330878534
83333.3330874277
83333.3329061989
83333.332940581
83333.3329736593
83333.3330047535
83333.3330330023
83333.3330571414
83333.3330752187
83333.333082597
83333.3330733213
83333.3328711071
83333.333318377
83333.3333176042
83333.3333162705
83333.3333142979
83333.3333099612
83333.3333085491
83333.333309987
83333.3330535251
83333.333319012
83333.3330282702
83333.3330278415
83333.3330460636
83333.3330528433
83333.3330572534
83333.3330545934
83333.3330412772
83333.3330214699
83333.3329962538
83333.332967547
83333.3329363488
83333.3329034595
83333.3328695201
83333.3328350704
83333.3333280923
83333.3333264428
83333.3333261451
83333.3333269423
83333.3333271921
83333.3333274735
83333.3333276416
83333.3333278323
83333.3333278858
83333.3333192714
83333.3333036477
83333.3332803615
83333.3332495025
83333.3332124514
83333.3331709254
83333.3331265537
83333.3330808471
83333.3330353297
83333.3329912053
83333.3329492428
83333.3329096457
83333.3328721384
83333.3328359097
83333.3328005697
83333.3332028381
83333.33319542
83333.3331598551
83333.3331144407
83333.3331513424
83333.3331848316
83333.3331053118
83333.3330685317
83333.3331396232
83333.3331698677
83333.3332079577
83333.3331658711
83333.3331210769
83333.3330752903
83333.3330300839
83333.3332262115
83333.3332354198
83333.3332415652
83333.333245683
83333.3332125266
83333.3331921934
83333.3332774985
83333.3332744763
83333.3332697837
83333.3332622274
83333.3332499756
83333.3332307418
83333.3331884697
83333.3330932356
83333.3330595589
83333.3330238239
83333.3331238687
83333.3331489974
83333.3329866552
83333.333160436
83333.3331361825
83333.3330779683
83333.3330482907
83333.3331035362
83333.3331204777
83333.3330158577
83333.3331190878
83333.3330923319
83333.3329814275
83333.3329456194
83333.3333001608
83333.3333019847
83333.3332971669
83333.3332921869
83333.333283019
83333.3332715046
83333.3332645595
83333.333185166
83333.3331337214
83333.333091428
83333.3331256725
83333.3330801154
83333.3331699611
83333.3332114001
83333.3332483899
83333.3330347097
83333.3329906475
83333.3332794064
83333.3329486979
83333.3329090964
83333.3333031697
83333.3330603186
83333.3330352588
83333.3330064915
83333.3329750411
83333.3329416422
83333.3329069472
83333.3328715922
83333.3330794841
83333.3330877142
83333.3330790528
83333.3330562713
83333.333056253
83333.3328698577
83333.3329037654
83333.3329365767
83333.3329676774
83333.332996317
83333.3330215358
83333.3330415446
83333.3330549568
83333.3330572147
83333.333046055
83333.3328353891
83333.3333185595
83333.3333178658
83333.3333164632
83333.3333144939
83333.3333099725
83333.3333086553
83333.3333103248
83333.3330290157
83333.3333191392
83333.3330112501
83333.3330233016
83333.3330093329
83333.3330284328
83333.3330332313
83333.3330334318
83333.3330238654
83333.3330078908
83333.3329860763
83333.3329600368
83333.3329310542
83333.3328999507
83333.3328673921
83333.3328339518
83333.3328001227
83333.3333279669
83333.3333264052
83333.3333261135
83333.33332698
83333.3333272503
83333.3333275614
83333.3333277108
83333.3333278828
83333.3333279141
83333.3333193251
83333.3333037564
83333.3332806342
83333.3332500739
83333.3332134653
83333.3331724863
83333.3331286566
83333.333083349
83333.3330379374
83333.3329935497
83333.3329510031
83333.332910702
83333.3328725746
83333.3328362304
83333.332800893
83333.3327663239
83333.3332048898
83333.3331627685
83333.3331981218
83333.333155048
83333.3331883329
83333.3331180121
83333.3330723105
83333.3331096251
83333.3331442329
83333.333174436
83333.3330982616
83333.333063805
83333.3330272431
83333.3331295335
83333.3331549965
83333.3332094415
83333.3331680599
83333.3331238957
83333.3330784592
83333.3330331805
83333.3329892435
83333.3332154818
83333.3332284011
83333.3332370808
83333.3332428151
83333.3332465651
83333.3331963392
83333.3331657195
83333.3332779646
83333.3332751508
83333.3332706304
83333.3332633387
83333.3332514608
83333.3332325819
83333.3331895966
83333.3331389696
83333.3330835056
83333.3330527147
83333.3330192944
83333.3329839914
83333.3331101449
83333.3331276608
83333.3329474009
83333.3331253548
83333.333095596
83333.3330653707
83333.3330391189
83333.3330093912
83333.3330856711
83333.3330945655
83333.3329771797
83333.3330853404
83333.333059661
83333.3329431375
83333.3329078801
83333.333300513
83333.3332975233
83333.3333022088
83333.3332926066
83333.3332834426
83333.3332719885
83333.3332651021
83333.3331857085
83333.3331358579
83333.3330940934
83333.333059171
83333.3331277354
83333.3330825774
83333.3330372788
83333.3331714712
83333.3332123627
83333.3332489207
83333.3329929674
83333.3329504627
83333.3332796593
83333.3329101701
83333.3328720504
83333.3333032703
83333.3330450258
83333.3330239511
83333.3329981356
83333.3329691013
83333.3329377118
83333.3329046173
83333.3328704275
83333.3328357252
83333.3330590021
83333.333061443
83333.3330503739
83333.3330306658
83333.333030835
83333.3328676734
83333.3328342679
83333.3329001805
83333.3329312384
83333.3329602027
83333.3329862689
83333.3330082072
83333.333024426
83333.3330338989
83333.3330331528
83333.333022895
83333.3328004204
83333.3333186668
83333.3333180526
83333.3333166013
83333.3333146463
83333.3333099116
83333.3333084719
83333.33331034
83333.3330100647
83333.3333191867
83333.3329965529
83333.3330116764
83333.333004354
83333.3329942604
83333.3330089273
83333.3330129834
83333.3330062155
83333.3329930508
83333.3329743531
83333.3329510634
83333.3329243873
83333.3328952277
83333.3328642564
83333.3328320477
83333.33279912
83333.3327659202
83333.3333277389
83333.333326376
83333.3333261019
83333.3333270082
83333.3333272806
83333.3333276105
83333.3333277438
83333.3333279007
83333.3333279177
83333.3333193017
83333.3333037303
83333.3332806682
83333.3332502743
83333.3332139541
83333.3331733724
83333.3331299754
83333.3330850436
83333.333039825
83333.3329953627
83333.3329524688
83333.3329116427
83333.3328730102
83333.3328363094
83333.3328010907
83333.3327666237
83333.3327328345
83333.3332000292
83333.33320627
83333.3331648574
83333.3331207452
83333.33315784
83333.3331908609
83333.3331131154
83333.3331478221
83333.3331777545
83333.3330754106
83333.3330302878
83333.3330675431
83333.3331025373
83333.3331340718
83333.3331594082
83333.3330885789
83333.3330569863
83333.3330227065
83333.3329865535
83333.3331157832
83333.3331333133
83333.3332103395
83333.3331695017
83333.3331258904
83333.3330808563
83333.3330356886
83333.3329915132
83333.3329491415
83333.3331989775
83333.3332174369
83333.33322988
83333.3332381811
83333.3332436032
83333.3332470402
83333.3331690487
83333.3331298322
83333.3332781744
83333.333275546
83333.3332711556
83333.3332640187
83333.333252381
83333.3332336678
83333.3331896103
83333.333140259
83333.3330978188
83333.3330436366
83333.3330709671
83333.3330128815
83333.3329797684
83333.332944933
83333.333092077
83333.333100993
83333.3329089632
83333.3330902488
83333.3330621225
83333.3330500004
83333.3330278273
83333.3330010696
83333.3329712828
83333.3330646786
83333.3330671897
83333.3329392669
83333.3330550569
83333.3330329191
83333.332905619
83333.3328709331
83333.3333007122
83333.3332977251
83333.3332928424
83333.333302284
83333.3332835893
83333.3332720554
83333.3332653988
83333.3331850472
83333.3331364839
83333.3330958431
83333.3330612167
83333.3330328878
83333.3331290111
83333.3330842299
83333.3330391246
83333.3329947434
83333.3331723024
83333.3332128014
83333.3332490832
83333.3329519076
83333.3329111145
83333.333279673
83333.3328724873
83333.3328358072
83333.3333032327
83333.3330278863
83333.3330107677
83333.3329881505
83333.3329616608
83333.3329323903
83333.3329010858
83333.3328683266
83333.332834669
83333.332800622
83333.3330374072
83333.3330365336
83333.3330258351
83333.333010072
83333.3330105609
83333.3328644739
83333.3328323134
83333.3327994145
83333.3328954339
83333.3329246284
83333.3329513729
83333.3329747516
83333.3329935412
83333.3330069071
83333.3330134815
83333.333011664
83333.33300367
83333.3327661881
83333.3333186885
83333.3333181356
83333.333316657
83333.3333147357
83333.3333098617
83333.3333083345
83333.3333098882
83333.3329948333
83333.3333191586
83333.3329840504
83333.3329939082
83333.3329932697
83333.3329886442
83333.3329817902
83333.3329931431
83333.3329887477
83333.3329776957
83333.3329615719
83333.3329408511
83333.3329164811
83333.3328893175
83333.3328600535
83333.3328292513
83333.3327974175
83333.3327650228
83333.3327324735
83333.3333276051
83333.3333263706
83333.3333260702
83333.3333270161
83333.3333272835
83333.3333276232
83333.3333277472
83333.3333278956
83333.3333279042
83333.3333192258
83333.3333035841
83333.3332804906
83333.3332501409
83333.3332139685
83333.33317364
83333.333130555
83333.3330859341
83333.3330409233
83333.3329964859
83333.3329534015
83333.3329122152
83333.3328731672
83333.3328361741
83333.3328008513
83333.3327667088
83333.3327331116
83333.332700093
83333.3332012486
83333.3331597769
83333.3331925625
83333.3332070599
83333.3331661881
83333.3331226351
83333.3331157201
83333.3330777145
83333.3331504302
83333.333180017
83333.3331058953
83333.3330705453
83333.3331374582
83333.3331624115
83333.333032714
83333.3329887541
83333.3330256805
83333.3330606477
83333.333092741
83333.3331201028
83333.3331372198
83333.3330759266
83333.3330478684
83333.3330162581
83333.3329822859
83333.3329466282
83333.3330973505
83333.3331058513
83333.3331702626
83333.3332107142
83333.3331270915
83333.3330824367
83333.3330374649
83333.3329932237
83333.3329505316
83333.3329098754
83333.3331708712
83333.3332005393
83333.3332186649
83333.3332307783
83333.3332388104
83333.3332439832
83333.3332471498
83333.333132562
83333.3330935108
83333.333275686
83333.3332781484
83333.3332713963
83333.3332643623
83333.3332528505
83333.3332344291
83333.3331893129
83333.3331403335
83333.3330990666
83333.3330636267
83333.3330045444
83333.3330322802
83333.3330553536
83333.33297386
83333.3329410501
83333.3329066953
83333.3330704294
83333.3330724186
83333.3328713648
83333.3330587151
83333.3330344503
83333.3330144834
83333.3330324391
83333.3329910084
83333.3329638009
83333.3329339426
83333.333042171
83333.3330409105
83333.3329021184
83333.3330289532
83333.3330110716
83333.3328688801
83333.3328347779
83333.3333007499
83333.3332977709
83333.33329291
83333.3332835711
83333.3333022187
83333.3332719237
83333.3332653932
83333.3331842933
83333.3331360842
83333.3330968335
83333.3330624081
83333.3330341111
83333.3330114613
83333.3331295466
83333.3330850766
83333.3330401796
83333.3329958258
83333.3329528068
83333.3331725168
83333.3332127698
83333.3332489151
83333.3329116713
83333.332872651
83333.3332794745
83333.3328356639
83333.3328003691
83333.3333030754
83333.3330099239
83333.3329961513
83333.3329766875
83333.3329528473
83333.3329257827
83333.3328963386
83333.3328651621
83333.3328327763
83333.3327996632
83333.3327662659
83333.3330162721
83333.3330142014
83333.3330053916
83333.3329932515
83333.3329943203
83333.3328294613
83333.3328602633
83333.3327976671
83333.3327652721
83333.3328895922
83333.3329168615
83333.332941329
83333.3329621028
83333.3329783566
83333.3329896121
83333.3329945034
83333.3329932531
83333.3329878558
83333.332732714
83333.333318636
83333.3333181217
83333.3333166315
83333.3333147525
83333.3333097207
83333.3333082175
83333.3333095285
83333.3329825165
83333.3333190746
83333.3329746525
83333.3329722792
83333.3329771158
83333.3329779975
83333.3329759596
83333.3329722975
83333.3329804422
83333.3329623563
83333.3329482606
83333.3329297805
83333.3329075607
83333.3328823533
83333.3328548181
83333.3328255149
83333.3327949242
83333.3327635024
83333.3327316726
83333.3326997805
83333.3333275936
83333.3333263189
83333.3333259915
83333.3333269986
83333.333327267
83333.3333276147
83333.3333277326
83333.3333278744
83333.3333278758
83333.3333191065
83333.3333033401
83333.3332801277
83333.3332497118
83333.333213557
83333.3331733452
83333.3331304493
83333.3330860506
83333.3330412184
83333.3329968427
83333.3329536631
83333.3329122298
83333.3328728594
83333.332835589
83333.3328001823
83333.3327661838
83333.3327330864
83333.3327003615
83333.3332018714
83333.3331609409
83333.3331935625
83333.3331174535
83333.3331521511
83333.3331814336
83333.3332073265
83333.333166834
83333.3331237209
83333.3330791855
83333.3331083087
83333.3330727116
83333.3330343888
83333.3331397941
83333.3331642894
83333.3330634975
83333.3330958799
83333.33302799
83333.3331231588
83333.3331396803
83333.3329903712
83333.332947936
83333.3329843892
83333.3330191171
83333.3330513722
83333.3330798321
83333.3331011945
83333.3331090609
83333.3330599352
83333.3330363251
83333.3330078106
83333.3329762934
83333.3329426725
83333.3329075482
83333.3330750075
83333.3330761825
83333.3331275507
83333.3331704075
83333.333210621
83333.3330832068
83333.3330384454
83333.3329942335
83333.3329513647
83333.3329103762
83333.3328714906
83333.3331339615
83333.3331716635
83333.3332014637
83333.3332193106
83333.3332311969
83333.3332390286
83333.3332439999
83333.3332469316
83333.3330954865
83333.3330609976
83333.333271381
83333.3332755902
83333.3332779113
83333.3332644047
83333.3332529716
83333.3332346919
83333.3331890413
83333.3331395998
83333.3330995351
83333.3330644073
83333.3330351404
83333.3329943345
83333.3329662908
83333.333018643
83333.3330372061
83333.3329356698
83333.3329031568
83333.3328692914
83333.3330469021
83333.3330448348
83333.3328346179
83333.3330313151
83333.3330116151
83333.3329793524
83333.3329995172
83333.3330136794
83333.3329548657
83333.3329272535
83333.3328973389
83333.3330198679
83333.3330171759
83333.3328657271
83333.3330070412
83333.3329932992
83333.3328329154
83333.3327994191
83333.33330064
83333.3332976755
83333.3332928193
83333.3332833239
83333.3332715715
83333.3333020324
83333.333265041
83333.3331839943
83333.3331349228
83333.3330971925
83333.3330630158
83333.333034513
83333.333011743
83333.3329941364
83333.3330851489
83333.3331293975
83333.333040431
83333.3329961397
83333.3329530318
83333.3329116571
83333.3331721732
83333.333212317
83333.3332484538
83333.3328723311
83333.3328350796
83333.3332790913
83333.3327996792
83333.3327657146
83333.3333028179
83333.3329808285
83333.3329920567
83333.3329640804
83333.3329428251
83333.3329180068
83333.3328904784
83333.3328609375
83333.33282994
83333.3327979536
83333.3327653871
83333.3327326665
83333.3329966488
83333.3329949406
83333.3329885405
83333.332979876
83333.3329815186
83333.3327951249
83333.3328257265
83333.3328550992
83333.3327636987
83333.3327318902
83333.3328827504
83333.3329080662
83333.3329303673
83333.3329489359
83333.3329632923
83333.332973247
83333.3329777643
83333.332978003
83333.3329751921
83333.3327000213
83333.3333185356
83333.3333180501
83333.3333165471
83333.3333146836
83333.3333094262
83333.3333079327
83333.3333092522
83333.3329733708
83333.3333189463
83333.3329684686
83333.3329478703
83333.3329573971
83333.3329630973
83333.3329659241
83333.3329666451
83333.3329659802
83333.3329708388
83333.3329348962
83333.3329182752
83333.3328979335
83333.3328745434
83333.3328486786
83333.3328208766
83333.3327916008
83333.3327612764
83333.3327303149
83333.3326990756
83333.3333274896
83333.3333261886
83333.3333258868
83333.3333269628
83333.3333272343
83333.3333275888
83333.3333277042
83333.3333278418
83333.3333278382
83333.3333189415
83333.3333030095
83333.3332796044
83333.3332490214
83333.333212766
83333.3331725427
83333.3331297139
83333.333085438
83333.3330407262
83333.3329964082
83333.3329531756
83333.3329115729
83333.3328719518
83333.3328344365
83333.3327989094
83333.3327650293
83333.3327323096
83333.3327002371
83333.3332019703
83333.333161415
83333.3331939614
83333.3331183686
83333.3331530866
83333.3331821515
83333.33310982
83333.3330740204
83333.3331412196
83333.3331653456
83333.3332071284
83333.3331668641
83333.3331240606
83333.333079837
83333.3330352551
83333.3330654624
83333.3330980159
83333.3330295162
83333.3329912723
83333.3331251152
83333.3331410082
83333.3330212522
83333.333053983
83333.3330826286
83333.3329858723
83333.333103742
83333.3331109538
83333.332948669
83333.3329438632
83333.3329079552
83333.3329782495
83333.3330104722
83333.3330395378
83333.3330633745
83333.3330781778
83333.3330785315
83333.3330222908
83333.333041139
83333.3329973601
83333.3329685634
83333.3329371737
83333.3329039186
83333.3328693464
83333.3330505127
83333.3330474859
83333.3330832018
83333.3331273268
83333.3331699973
83333.33321011
83333.3330386186
83333.3329944714
83333.3329515142
83333.3329102958
83333.332871117
83333.3328339948
83333.3330965245
83333.3331342666
83333.3331719328
83333.3332018271
83333.3332194724
83333.3332311954
83333.3332388865
83333.3332436926
83333.3332464224
83333.3330622287
83333.3330326002
83333.3332711422
83333.333264179
83333.3332752846
83333.3332774906
83333.3332527124
83333.3332345359
83333.3331881776
83333.3331385109
83333.3330989145
83333.3330647593
83333.3330351725
83333.3330114764
83333.3329823599
83333.3329571587
83333.3329288504
83333.3330031394
83333.3330175382
83333.3328982928
83333.3328660842
83333.3328327198
83333.3330233821
83333.333019732
83333.3327987021
83333.3330081296
83333.3329929903
83333.3329664433
83333.3329446454
83333.332983607
83333.3329948086
83333.3329193336
83333.3328913765
83333.3328614487
83333.3329990205
83333.332996539
83333.3328300806
83333.3329889251
83333.3329791485