/*--------------------------------*- C++ -*----------------------------------*\
  =========                 |
  \\      /  F ield         | OpenFOAM: The Open Source CFD Toolbox
   \\    /   O peration     | Website:  https://openfoam.org
    \\  /    A nd           | Version:  12
     \\/     M anipulation  |
\*---------------------------------------------------------------------------*/
/*   Windows 32 and 64 bit porting by blueCAPE: http://www.bluecape.com.pt   *\
|  Based on Windows porting (2.0.x v4) by Symscape: http://www.symscape.com   |
\*---------------------------------------------------------------------------*/
FoamFile
{
    format      ascii;
    class       surfaceScalarField;
    location    "100";
    object      phi;
}
// * * * * * * * * * * * * * * * * * * * * * * * * * * * * * * * * * * * * * //

dimensions      [0 3 -1 0 0 0 0];

internalField   nonuniform List<scalar> 
28876
(
-1.11381658501108e-07
9.23739223346195e-08
1.43173053021389e-05
1.72722060430562e-05
4.13331097737016e-07
2.49677941920651e-07
9.08978447349235e-08
5.51171490996339e-08
5.39407604006352e-06
2.74112627606392e-07
1.386869501508e-07
1.3904489048748e-05
1.97819579360952e-07
8.0256603463437e-07
1.65458413221236e-05
1.92274356079111e-05
4.74330053693194e-08
2.58838079798646e-07
6.23272710037397e-06
2.03422790264093e-07
1.23048854915736e-08
1.90049672186154e-07
-1.80910000423964e-07
4.77531127934775e-06
1.75619076002494e-07
-4.76128091396952e-08
5.40472878017234e-06
6.57003344406143e-07
6.16594088145699e-08
1.31857850962575e-05
6.33214037877253e-06
3.95422566407317e-07
-1.2144109287064e-07
1.69896166472089e-07
1.10606264483065e-06
1.87539327754602e-05
2.0565892138413e-08
1.28842464131942e-06
1.58937418997774e-05
2.37229569139348e-05
1.47167290790701e-06
3.87135111333658e-07
7.00249149158119e-06
2.31045783418203e-07
-4.11604505030021e-08
5.51039317630804e-06
3.2892931151057e-07
-1.83154725647849e-07
2.3908714042852e-07
-9.541892479231e-08
4.64399251542813e-06
2.31055561863947e-07
-1.27859402925089e-07
4.62449741449394e-06
2.61312802144416e-07
-9.42935659026416e-08
5.29934250243404e-06
7.40988620200261e-07
3.67884138942478e-08
1.2407970607444e-05
-1.94848849508148e-07
5.17841858458472e-07
6.29097850101228e-06
7.22726334642739e-06
-2.08486684696364e-07
5.48961619400841e-07
5.3875836240796e-06
4.48897134291927e-07
-2.16486897438962e-07
1.92116256983819e-07
2.35837978372602e-06
2.22783677110398e-05
-1.59897952686649e-08
1.97235145985882e-06
1.80858473471595e-05
-1.97656231932109e-08
1.46298244904271e-06
1.51914384032964e-05
2.8451323802148e-05
2.30896972293594e-06
2.16951216034138e-07
8.09815870781883e-06
4.09621071676645e-07
-8.27315523163555e-08
6.2528857543522e-06
3.90821638539768e-07
-2.46183380586171e-07
5.24646055078017e-06
3.8818649440531e-07
-2.18059712900176e-07
2.32409499539109e-07
-1.51135797941464e-07
4.42418176693035e-06
2.58060748971936e-07
-1.12375361404875e-07
4.37044515398068e-06
2.28318810911893e-07
-1.26588158068695e-07
4.42846837009643e-06
2.67476718894833e-07
-9.29165488130373e-08
5.16155407790243e-06
6.98207789619306e-07
-7.97715013234226e-08
1.17895184671487e-05
-2.46622937006154e-07
5.21319206236008e-06
4.54470560141323e-07
-3.00998746360531e-07
7.25173498999489e-06
7.78305641510379e-07
-1.81016136245743e-07
5.37663682991804e-07
6.1820092774111e-06
6.2267586727156e-06
-3.29932875898543e-07
5.96449206028537e-07
8.35230206321457e-06
-3.25582448332702e-07
8.12422475234391e-07
5.04265611708987e-06
4.7689164121002e-07
-2.31522492920471e-07
4.34685477559973e-08
4.32541463782221e-06
2.64406401255298e-05
-3.95875717311503e-08
3.0228747872826e-06
2.12672373810973e-05
-5.52883400824935e-08
2.27324532636361e-06
1.73307554329145e-05
-1.26809917193446e-07
1.45528919442008e-06
1.45611260375007e-05
3.24761033989498e-05
3.31097958865747e-06
-9.37521974192001e-07
9.3337559551081e-06
5.95589847871661e-07
-1.88621995440839e-07
7.11611451535773e-06
4.42430946414193e-07
-3.38229253610434e-07
5.94014689008475e-06
4.51059648957976e-07
-3.28901004646157e-07
4.98052651863943e-06
3.81352130946713e-07
-2.11972766040015e-07
2.23511392874138e-07
-4.56207580108586e-08
4.2534992753579e-06
2.51681488125832e-07
-1.01960483845621e-07
4.16208418878782e-06
2.20925256993863e-07
-1.09481332112503e-07
4.13240997266845e-06
2.03449297516237e-07
-1.14557872157061e-07
4.24665651382169e-06
2.46220382332793e-07
-1.01376262517025e-07
4.93692839613645e-06
6.82204447172078e-07
-1.31203154836997e-07
1.12385068537947e-05
4.26212215515996e-07
4.8105986241962e-06
-2.19860930510158e-07
-2.13877948682598e-07
5.03294882757659e-06
4.1654332307621e-07
-3.72432732352165e-07
6.0850440416974e-06
6.67596877520903e-07
-2.68535670441733e-07
7.15671075934273e-06
8.45890067193107e-07
-4.20698568646409e-07
8.3886774966018e-06
1.12294112460998e-06
-1.68952040442301e-07
5.34309280849786e-07
5.93604457099547e-06
5.82983205877877e-06
-3.49801182804667e-07
6.07062191301599e-07
7.13562330313746e-06
-4.66743354267026e-07
7.18069896835287e-07
9.5463551398339e-06
-4.58194884255668e-07
1.10137274059869e-06
4.74116910957638e-06
4.53892105203122e-07
-1.94382071062916e-07
-1.10438193502978e-06
6.18401062367012e-06
3.17216901873559e-05
-1.26954250528956e-07
4.63198145870902e-06
2.49582484426908e-05
-8.96696466928225e-08
3.42138527689826e-06
2.02086189472965e-05
-1.75913268713115e-07
2.33120809532121e-06
1.66306877684529e-05
-1.75705540604745e-07
1.50871830117392e-06
1.39102830452054e-05
3.88764364499472e-05
2.34713076490361e-06
-1.6948640263764e-06
1.18017843178155e-05
7.61581770965222e-07
-4.37574067534539e-07
7.89999782145785e-06
4.54602991658041e-07
-4.19237351387027e-07
6.72342347636336e-06
4.78360812373461e-07
-4.32267009747147e-07
5.62156895096596e-06
4.41883644291057e-07
-2.96022326398649e-07
4.72730330989689e-06
3.56850673209388e-07
-1.30450892168273e-07
2.0563846657946e-07
-1.08884639833512e-08
4.05610150953415e-06
2.34870000355161e-07
-4.78696004298858e-08
3.96453735545233e-06
2.04263485541023e-07
-7.37702099755417e-08
3.92210738661598e-06
1.7774451403618e-07
-8.95335549908881e-08
3.92963834826391e-06
1.86690762675182e-07
-9.38773429571933e-08
4.05246429013031e-06
2.42481799037648e-07
-8.94416925346839e-08
4.65267967566146e-06
6.43739515551383e-07
-6.30118967170334e-08
1.06577708852475e-05
5.61225558706083e-06
-3.34529804099081e-07
6.05871831994044e-07
3.55974442841537e-07
-1.73989589872685e-07
4.59247426626525e-06
3.83900817608699e-07
4.50036217579286e-06
-1.58696848105679e-07
-1.6308173719621e-07
4.81712321376714e-06
3.96640245315959e-07
-3.1284812521813e-07
5.89428920002434e-06
6.51595561381028e-07
-5.09082720478955e-07
6.98846903761875e-06
9.03106221168467e-07
-2.33841829258509e-07
6.87175667360336e-06
8.77162146930828e-07
-3.6365825771262e-07
8.23563629091999e-06
1.27285084876029e-06
-5.3707721856375e-07
9.51992346261051e-06
1.55938209339905e-06
-1.41470545547305e-07
5.41925480012974e-07
5.60235619862483e-06
5.44857886371449e-06
-2.88610268835662e-07
5.65682382980793e-07
6.64480937890592e-06
-4.65771675968307e-07
6.84686615996212e-07
7.95030591103666e-06
-5.87591647305453e-07
7.97123696103866e-07
1.11179454794213e-05
-6.26807332265202e-07
1.30750485191954e-06
4.47719626198124e-06
4.15572387877628e-07
-1.24981199728289e-07
-3.3488469705685e-06
7.29277272985415e-06
4.11163677577397e-05
-4.7423161562885e-07
7.29638041919419e-06
2.95312706910101e-05
-1.53347637440396e-07
5.23103153339758e-06
2.33017558666806e-05
-2.16934499163829e-07
3.53828012172801e-06
1.9218386976348e-05
-2.2139403666721e-07
2.48469404348394e-06
1.58760717473103e-05
-9.31272622505008e-08
1.44457566472561e-06
1.32025626433607e-05
4.4747486956022e-05
2.07131708981517e-06
-2.98477682972651e-06
1.4675677385532e-05
7.03870219964479e-07
-6.35892612624133e-07
9.04381669545109e-06
4.45638035472006e-07
-4.81712760796659e-07
7.46742407394317e-06
4.67799354324899e-07
-5.02603541953898e-07
6.31708525979713e-06
4.63662799497331e-07
-3.81204195887246e-07
5.30936829001213e-06
4.05469953900787e-07
-2.03351502688945e-07
4.50608873185275e-06
3.27013689951329e-07
-5.82817388407748e-08
1.92290215447828e-07
5.13093198491588e-08
3.90421768191672e-06
2.17156876919582e-07
1.64503553139887e-09
3.78942949439066e-06
1.83674475690968e-07
-2.81336225456974e-08
3.73522512956178e-06
1.53842595570473e-07
-4.85626189143376e-08
3.72729255873052e-06
1.55834753957067e-07
-6.33994379801274e-08
3.74332485897072e-06
1.82866486790399e-07
-6.51268467639725e-08
3.84528190532682e-06
2.3853016167923e-07
-4.88208584518556e-08
4.39995723811612e-06
5.78217889490981e-07
-2.46771359761189e-08
1.01042283505357e-05
-2.56414903117827e-07
5.47191185371871e-07
5.36459511098951e-06
5.20817301334208e-06
-2.44749206778454e-07
5.34516912344198e-07
6.40234331116293e-06
-4.51365218456722e-07
7.90603794647085e-07
3.01656529610361e-07
-1.08217285679718e-07
4.2867719988261e-06
3.21938917299566e-07
-1.19059989963589e-07
4.38234465444931e-06
3.39528681099277e-07
4.24709258284798e-06
-8.44509100319634e-08
-1.12594172871763e-07
4.57528600012817e-06
3.95823653352642e-07
-2.25908247568067e-07
5.6353329299585e-06
6.47653275628718e-07
-4.16578229663721e-07
6.73794928126129e-06
9.55012961990513e-07
-6.24858825379911e-07
7.78189364570403e-06
1.15926691312636e-06
-1.84986739254131e-07
6.47452531060185e-06
9.02733304036912e-07
-3.00577938944297e-07
7.85363350424009e-06
1.34276258645676e-06
-4.56019004087109e-07
9.21084722211934e-06
1.8844989507166e-06
-6.11773369686433e-07
1.09071997889279e-05
1.90753703383536e-06
-8.50752125130594e-08
5.33707270688301e-07
5.29912360141009e-06
5.11718777317851e-06
-1.92257687131683e-07
5.11395118037167e-07
6.1654610742954e-06
-3.77886539158734e-07
6.29408741613567e-07
7.3723770958693e-06
-5.5764685960158e-07
7.49773076971216e-07
9.01066865820685e-06
-6.25202249164925e-07
8.28633256861275e-07
1.2613711093651e-05
-4.6285115536477e-07
4.83360877862913e-07
4.26392379202516e-06
3.80577055603053e-07
-4.62406341464329e-08
-8.5744853861321e-06
7.53739965712964e-06
5.30772200087666e-05
-2.41508552850372e-06
1.08342453795431e-05
3.99933471093532e-05
-3.90824792245679e-07
8.64839704544365e-06
2.65045054939898e-05
-2.54870415270994e-07
5.35300904245125e-06
2.17417684863064e-05
-2.64265100323093e-07
3.76856181827037e-06
1.81987200142425e-05
-1.1618864700139e-07
2.39994431831317e-06
1.50368748739329e-05
-4.97548170538451e-08
1.30751851351227e-06
1.25230215053416e-05
4.08755970819329e-05
-1.92767142481761e-06
2.21605097108164e-05
2.95843853259154e-06
-6.3342539566881e-07
1.06821469369319e-05
6.08217858825093e-07
-5.55527550841188e-07
8.14563384438344e-06
3.72274661954381e-07
-5.28786084095204e-07
6.9307818656231e-06
4.45161780978091e-07
-4.34139674351472e-07
5.93241744150659e-06
4.23016319261505e-07
-2.60783284156158e-07
5.0499067554628e-06
3.68988080708692e-07
-1.01455315431025e-07
4.32604828601147e-06
3.03105377923014e-07
1.33114479292428e-08
1.80949584946743e-07
8.9107048444257e-08
3.77939940542529e-06
2.02504743844768e-07
5.52299501071158e-08
3.64812715273232e-06
1.64945602478731e-07
2.1794180000157e-08
3.57455512615429e-06
1.3111249160347e-07
-2.35276756257827e-09
3.55790195082186e-06
1.29950203385238e-07
-2.25894354942905e-08
3.55653158873337e-06
1.49517773642112e-07
-3.47224071702453e-08
3.56340239298143e-06
1.78387688688132e-07
-3.15285157980546e-08
3.64960188087654e-06
2.28442964997118e-07
-1.76577025545151e-08
4.16449702198865e-06
5.15358881862186e-07
-2.33584937319944e-09
9.59120951071243e-06
-1.63600081035007e-07
4.95923088533019e-06
4.57777078582566e-07
-3.38894683570319e-07
7.89736456161304e-07
6.08209803862976e-06
-1.65801262956109e-07
5.17945846409303e-07
5.10847391092434e-06
4.88431552522217e-06
-1.39042447821358e-07
4.66687282026247e-07
5.88691144485845e-06
-3.27449331056791e-07
6.89138558276984e-07
7.05719261007932e-06
-5.41344671774998e-07
1.02225109815078e-06
2.54600573633388e-07
4.05329606535343e-06
-3.79108886854539e-08
2.62897055332776e-07
-6.00622841054426e-08
4.09482560246962e-06
3.15624328133858e-07
-7.09246187743291e-08
4.1745677737754e-06
3.02735062246845e-07
4.0521691865051e-06
-1.04884403397098e-08
-6.45662269252704e-08
4.34219616037191e-06
3.90967927781557e-07
-1.48555615972022e-07
5.34160868524818e-06
6.53112311251678e-07
-2.89611494207664e-07
6.39315423516064e-06
9.81465432286517e-07
-5.07830671752701e-07
7.40995182743845e-06
1.37873416858997e-06
-6.82440657488974e-07
8.74979699870444e-06
1.49076368557104e-06
-1.10029358511128e-07
6.11007724061475e-06
8.91988789287352e-07
-2.28253031047914e-07
7.3479465928845e-06
1.37238511053766e-06
-3.64955884584637e-07
8.63629287186108e-06
2.02734185411778e-06
-5.52991105596563e-07
1.02669923764105e-05
2.68675028510403e-06
-9.66269885789345e-08
1.20428342120607e-05
-4.32581792610511e-08
5.08416493513471e-07
5.01265562147853e-06
4.86251113712925e-06
-8.91100878567996e-08
4.64820397246048e-07
5.75444569383877e-06
-2.50719707717754e-07
5.62193180219001e-07
6.76738921644552e-06
-4.44425772843964e-07
6.79568656355192e-07
8.12127568653543e-06
-6.1771939474747e-07
7.66629385646809e-07
1.10175207386707e-05
-6.83747576595422e-07
7.14119897975588e-07
-3.3428618312042e-07
8.74671325544012e-06
4.10161638693047e-06
3.53916330006366e-07
2.67766695757904e-08
-4.82230602502771e-06
5.32352856198887e-05
6.5309173585983e-06
5.86623288143798e-05
-1.60289253309571e-06
1.94250198662307e-05
3.08194024297308e-05
-3.20415921993004e-07
8.45319648956398e-06
2.37245642677268e-05
-2.90136044669501e-07
5.53846164715357e-06
2.02619201565181e-05
-1.43509115385739e-07
3.6221533035322e-06
1.71199948096296e-05
-6.16931545417398e-08
2.17794668204498e-06
1.42281371484562e-05
-1.55188482038392e-08
1.16375103301704e-06
1.18901625587805e-05
4.20466373064431e-05
-1.72439763963454e-06
1.52483628452374e-05
2.14309451717913e-06
-9.50245664917436e-07
9.20745938131246e-06
3.86205958865647e-07
-5.34615394443215e-07
7.51360671355528e-06
3.21526245923443e-07
-4.37839362630328e-07
6.48123095094057e-06
4.1016929266704e-07
-2.89654273148526e-07
5.62633696485653e-06
3.88438236941097e-07
-1.33915306742797e-07
4.84699284710577e-06
3.40259507995361e-07
-1.26749126562122e-08
4.18799177763521e-06
2.84417627974985e-07
6.92072723033137e-08
1.73277836948255e-07
1.2303015143984e-07
3.69720212008977e-06
1.90726757427456e-07
9.88438870427836e-08
3.54505817119489e-06
1.50414269438878e-07
6.99312490406529e-08
3.44957534049352e-06
1.12254634611302e-07
4.42338465617189e-08
3.41571335142042e-06
1.08038288640333e-07
2.09372973323682e-08
3.40633677418906e-06
1.22960417775805e-07
1.70308239356659e-09
3.39714593735502e-06
1.45211025838564e-07
-7.31189984357623e-09
3.39397499676929e-06
1.71444381031047e-07
-4.80458828496224e-09
3.46530524029551e-06
2.13611929838066e-07
4.27601854894106e-09
3.94427746651166e-06
4.59677647862131e-07
1.05900704224316e-08
9.12094298514356e-06
4.65750370602734e-06
-6.73544487314355e-08
3.85161422745243e-07
-8.67229004946813e-08
4.72449367147193e-06
4.18551885404479e-07
-2.1621922978445e-07
5.56503856585768e-06
6.56961193289962e-07
-4.04507016618574e-07
6.60807077210713e-06
1.1355097329453e-06
-2.10499041156497e-07
7.7731754994173e-07
5.74360115962814e-06
-9.34361532675063e-08
5.13619623601743e-07
4.85535647147775e-06
4.65082788792015e-06
-3.84344415711435e-08
4.13804258758189e-07
5.48373060129501e-06
-1.8780092252252e-07
5.97744469433671e-07
6.4122304389889e-06
-3.88591898749867e-07
8.91528654863849e-07
7.75846294308943e-06
-6.06518803054232e-07
1.3091164236849e-06
2.16519268361948e-07
3.64562343940577e-10
3.8843878646517e-06
2.18302715908171e-07
3.88060856043624e-06
2.75998312701444e-08
2.5527245865044e-07
-2.15544746451217e-08
3.91314385295978e-06
3.12181979222641e-07
-3.15605131473986e-08
3.97459257439549e-06
2.75753457650306e-07
3.90985885322878e-06
5.5927430877539e-08
-2.75376912000653e-08
3.78115374555874e-07
4.11980575169196e-06
-8.36304474092472e-08
5.05937041977347e-06
6.46805978993579e-07
-1.82151081694296e-07
6.01589104163742e-06
9.84264538926122e-07
-3.47775613527893e-07
6.90997008558633e-06
1.46424205598331e-06
-5.93788732287039e-07
8.11379686487509e-06
2.05549039827221e-06
-7.62955459328389e-07
1.17028582301305e-05
1.47170727946052e-06
-5.75015202626068e-08
5.76854543717512e-06
8.45754329689029e-07
-1.32904278854275e-07
6.88965307171708e-06
1.3396647615067e-06
-2.64532985815297e-07
7.96497111156991e-06
2.01806990259369e-06
-4.81819177526207e-07
9.21716172142152e-06
3.23848320369676e-06
-7.34394758408474e-07
1.14375020814033e-05
-1.18731219346407e-08
4.76467097548077e-07
4.74615773733557e-06
4.67633884897714e-06
4.70801633506312e-09
4.30747637079517e-07
5.45028822452681e-06
-1.20579877022644e-07
5.1072169661861e-07
6.27826267944029e-06
-2.85538228098366e-07
6.06263623835158e-07
7.33881407485717e-06
-4.78791047357159e-07
7.15419680137949e-07
9.15536478970712e-06
-6.78390280052458e-07
8.13344709946986e-07
1.35762548858733e-05
-1.08706412042259e-06
3.13896967053601e-06
-3.36781505138718e-06
4.93387932527804e-05
3.98464190430184e-06
3.34022703221e-07
8.68281319128285e-08
-2.13289228870469e-06
6.18989137535317e-05
4.24562826387657e-05
3.56892375335822e-05
-2.74551399204789e-07
1.56606826069965e-05
2.38862291263944e-05
-3.14821611906663e-07
8.00769939268306e-06
2.15700420836709e-05
-1.58745259863264e-07
5.22041890347724e-06
1.88223666355223e-05
-7.34916701425048e-08
3.2530944382231e-06
1.61183290130519e-05
-2.55596633833946e-08
1.92980174929483e-06
1.34876469957948e-05
4.42346308182959e-09
1.03229632495051e-06
1.13131371157894e-05
4.12226539862048e-05
-2.71773541428522e-06
1.27242914374325e-05
1.17262687451046e-06
-8.11303443472417e-07
8.23068437607086e-06
1.24963016062715e-07
-3.76732793824805e-07
7.00069284416991e-06
3.0319236137026e-07
-2.79833214776244e-07
6.11253650390273e-06
3.87121889041397e-07
-1.44769313862896e-07
5.3897206968225e-06
3.61990750913383e-07
-2.68683074715434e-08
4.69478303441917e-06
3.19693140029284e-07
5.75422795575903e-08
4.0917011131586e-06
2.72302797091692e-07
1.13530981333318e-07
1.69180076870176e-07
1.51188748410604e-07
3.65082254933182e-06
1.83076275109792e-07
1.34658810812699e-07
3.47831013253368e-06
1.39864315408535e-07
1.12577743550668e-07
3.36254673794914e-06
9.84306562291038e-08
8.81804961524543e-08
3.3071975297854e-06
9.113628745543e-08
6.33110037079122e-08
3.28220335951565e-06
1.02272365824952e-07
3.9905264949596e-08
3.26586237707803e-06
1.19783942378295e-07
2.24444561786828e-08
3.2476062179306e-06
1.40233300351395e-07
1.46399966252822e-08
3.23429781206514e-06
1.63028769937985e-07
1.48084694756626e-08
3.29174511675102e-06
1.97706763505472e-07
1.85545520457907e-08
3.73861200470772e-06
4.09823674619119e-07
1.82473541264921e-08
8.692881095607e-06
4.45079026820609e-06
-8.49499749921403e-09
3.45001862661257e-07
4.45135116909845e-06
1.8689894440202e-08
3.31731345521672e-07
5.19105312469915e-06
-9.28396560475977e-08
5.5445025094558e-07
-2.96742173320653e-08
4.11474129773012e-07
4.50452896695681e-06
-1.09739068424185e-07
5.25724217443748e-06
6.25579021928213e-07
-2.53305111273577e-07
5.97391719494816e-06
9.44053000329766e-07
-2.45096899493551e-07
6.13160544296974e-06
1.15108529572419e-06
-4.60076931613576e-07
7.08108518471572e-06
1.67914319264037e-06
-1.11357967703354e-07
7.67093623075416e-07
5.41932845784745e-06
-4.00334669843239e-08
5.1009797801107e-07
4.61384424276522e-06
4.48900241014763e-06
4.81631556819442e-08
3.76487513698438e-07
5.20548837751036e-06
-6.01066057912033e-08
5.3090221873427e-07
5.92787876786704e-06
-2.17984307871316e-07
7.77507554395589e-07
6.89058997692437e-06
-4.2626102553588e-07
1.15947593355701e-06
8.72290718449554e-06
-6.90623325353631e-07
1.66921232431909e-06
1.82192906200353e-07
5.64133245325144e-08
3.73350330509701e-06
2.09960567238071e-07
2.89275388961522e-08
3.7262185777368e-06
1.92411082454997e-07
3.75824134403497e-06
8.52352887035667e-08
2.53920269971331e-07
8.67506290124903e-09
3.73877349282347e-06
3.04785303207201e-07
-1.08695928331964e-09
3.78359094022761e-06
2.56791764769734e-07
3.81201413591258e-06
1.11625537651703e-07
-3.59813961136613e-08
6.24090739371593e-07
4.79187465131527e-06
5.74900815982279e-10
3.59789597476942e-07
3.91059932197543e-06
-9.72798319876595e-08
5.66525154492433e-06
9.61819532337851e-07
-2.08319028811986e-07
6.40438611431072e-06
1.43362290079165e-06
-4.35797781851421e-07
7.24823987970488e-06
2.28374169230073e-06
-7.01147516180328e-07
9.71024782720021e-06
4.01479858449814e-06
-1.40960298940618e-06
1.47240572020108e-05
1.94695092501688e-06
-1.84026287927393e-08
5.45254352067554e-06
7.85311395345843e-07
-6.57866600071606e-08
6.47578950483169e-06
1.25190699525975e-06
-1.44834880577439e-07
7.38582847154328e-06
1.90488758827739e-06
-3.26873232482242e-07
8.26717051807856e-06
2.98006700954662e-06
-1.07382594630668e-06
9.32415518178399e-06
6.15095680193624e-06
9.80687370694921e-09
4.390582319562e-07
4.49942908226196e-06
4.545256261888e-06
8.15757332531294e-08
4.0667781636057e-07
5.23267097632596e-06
-7.39239122796394e-09
4.74602398046294e-07
5.9186085453964e-06
-1.32582185762612e-07
5.51687255230211e-07
6.76547596201276e-06
-2.93865067100133e-07
6.56544830055875e-07
8.12610222783182e-06
-4.67137613579006e-07
6.0874052016691e-07
1.17976461872909e-05
-9.73445829184844e-07
1.62635336511132e-06
4.42110848626019e-05
-3.21725996542798e-06
-3.03188047245001e-06
5.12255265039983e-05
3.90730678340847e-06
3.20796775533445e-07
1.3349978981623e-07
1.99878728424104e-05
-6.3109007027903e-06
4.82219242795409e-05
3.9288220721097e-05
2.31256192503922e-05
1.75667923794076e-06
2.51928314904034e-05
2.44000566009329e-05
-4.34085866068932e-07
1.09314893254983e-05
2.13963626792545e-05
-1.75806104402815e-07
7.18460010643557e-06
1.97816325292618e-05
-7.03386067088848e-08
4.56015709593829e-06
1.75856357561856e-05
-3.11035373647824e-08
2.84919189664281e-06
1.52300394805833e-05
2.15062190203782e-09
1.7003307193278e-06
1.2817464588893e-05
1.6286873825659e-08
9.15950645641429e-07
1.07907342472806e-05
3.40172891463822e-05
-2.2840904299818e-06
1.08633631866739e-05
2.81726247739728e-08
-3.97553209800895e-07
7.49654099955317e-06
6.72538545701933e-08
-2.07466439029202e-07
6.59621279766128e-06
3.12694311322915e-07
-1.28173552412231e-07
5.83288827582991e-06
3.72156635425668e-07
-2.79369648922585e-08
5.21227034834857e-06
3.44031652265498e-07
5.53149224045498e-08
4.58710085290491e-06
3.06293392855014e-07
1.12435375993675e-07
4.0349978533298e-06
2.65852898710212e-07
1.49164819383434e-07
1.67407504305694e-07
1.76455052864034e-07
3.6285904368698e-06
1.78895630145392e-07
1.64599833547921e-07
3.44198566713483e-06
1.33043254313211e-07
1.48449039886423e-07
3.30939478757685e-06
8.90302530004018e-08
1.27556354197599e-07
3.23414025725889e-06
7.84970531930244e-08
1.02941798711992e-07
3.18907005141946e-06
8.583177148214e-08
7.73733757311446e-08
3.15890391097277e-06
9.92076923850599e-08
5.49663159499484e-08
3.1341333963561e-06
1.16733432769262e-07
3.92313832936913e-08
3.10628193488893e-06
1.34650150165566e-07
3.10527101825352e-08
3.08340421841287e-06
1.53507142691978e-07
2.82121550308893e-08
3.12858139825937e-06
1.81891572413449e-07
2.74313671117945e-08
3.54754091866447e-06
3.65578043780983e-07
2.3053859265885e-08
8.30425672196619e-06
3.38705447005607e-07
3.28324784863291e-08
4.25953887049414e-06
4.27067197938325e-06
6.14095875628736e-08
2.92965494989633e-07
4.92104859454102e-06
-1.32117915671837e-08
5.1847236603993e-07
4.31416125807436e-06
9.15524002926909e-08
2.94385773309412e-07
4.94837865355012e-06
1.39489331975094e-08
4.82044984082384e-07
5.53134851559838e-06
-1.04808725459641e-07
8.02469835109559e-07
-3.24921230211652e-08
4.97838527804834e-06
6.11461701354539e-07
1.10456899172496e-08
4.11335233734324e-07
4.29603508854776e-06
-1.21592697664663e-07
5.55299013030427e-06
9.2298676320966e-07
-2.7661600583856e-07
6.26460078759522e-06
1.38655666625764e-06
-1.19396791568255e-07
1.10878979557355e-06
5.70097812726901e-06
-2.79222954951358e-07
6.33974029843401e-06
1.73582948985377e-06
-5.33515394083203e-07
7.52338483799676e-06
2.71100303326259e-06
-4.15659990224728e-08
7.51417096454295e-07
5.12229469849459e-06
-6.07111968715059e-10
4.98260401497144e-07
4.38499594684937e-06
4.38032457883335e-06
1.18720413596566e-07
3.51162571518087e-07
5.01841522490265e-06
4.57464918438969e-08
4.84884080352629e-07
5.6053234209949e-06
-6.73421152287819e-08
6.93533867819179e-07
6.31778829910261e-06
-2.26953281721223e-07
1.02587323519949e-06
7.59975836828295e-06
-4.54292595668292e-07
1.44947286406452e-06
1.28887258284606e-05
-1.11646282436684e-06
2.84980975027944e-07
1.57766393983392e-07
3.62917197279156e-06
1.06213295978862e-07
1.76804411702007e-07
7.6527561660053e-08
3.59493154658485e-06
2.10529868207162e-07
5.05885147414866e-08
3.57298408042345e-06
1.74818957709373e-07
3.67702496014539e-06
1.34434655122668e-07
2.5062840407733e-07
3.20523648979417e-08
3.57174031280825e-06
2.93438672959143e-07
2.22807234258882e-08
3.60309809466192e-06
2.44580606445412e-07
3.75064388674768e-06
1.56749129044953e-07
-3.63990258976103e-08
9.15447245905534e-07
5.34450853639478e-06
-4.15205462783753e-11
5.90888843985083e-07
4.54241632736949e-06
2.08193966855245e-08
3.37793065146582e-07
3.71530300631826e-06
-9.88419434733989e-08
5.96971939587191e-06
1.35049020116413e-06
-2.48860605309202e-07
6.51914290525675e-06
2.08469107558015e-06
-5.98663767979656e-07
7.34155580733337e-06
4.17722493208999e-06
-1.11716936130634e-06
1.00971412159993e-05
9.02309953787052e-06
-1.7662639194008e-06
4.48924369985554e-05
9.78777334427369e-09
5.16473260663318e-06
7.19234642927104e-07
-1.72341239751409e-08
6.10162935927173e-06
1.14559992083101e-06
-5.90024106374103e-08
6.89668744376139e-06
1.72970890992604e-06
-1.55088288791285e-07
7.55394034572141e-06
2.59739418068065e-06
-4.78470900940864e-07
8.18885479207998e-06
4.15969426027467e-06
-2.42017680949539e-06
8.20269839159176e-06
6.85018068013421e-06
2.40141163900834e-08
4.01768147245165e-07
4.27182894103315e-06
4.45822809265436e-06
1.40312142352527e-07
3.90929199916425e-07
5.08037383484863e-06
8.26894455323368e-08
4.48488126157241e-07
5.66489083656823e-06
-7.63251924401505e-09
5.17646204528615e-07
6.35897382442045e-06
-1.2120138509403e-07
6.16254835056002e-07
7.41473490367064e-06
-2.51413761969095e-07
5.22621061070582e-07
1.03219607845582e-05
-5.40394805833769e-07
7.17091992991839e-07
3.4952296060913e-05
-2.52588198026312e-06
-2.85050256689919e-06
4.40785958215609e-05
3.86296477007822e-06
3.13547059670517e-07
1.70879774698945e-07
1.19778800679262e-05
-5.18012456816953e-06
4.14238852259083e-05
3.59642903945012e-05
1.68058292808814e-05
-1.50443691791592e-06
9.27141225821168e-07
2.63821918337581e-05
2.10087659226139e-05
-1.94943561900063e-07
1.43767125174224e-05
2.11495868492818e-05
-2.29865202619703e-07
9.00349685131254e-06
1.98072848579123e-05
-5.65786109362499e-08
6.06017506226126e-06
1.83381963765732e-05
-1.76566176175018e-08
3.91260056824708e-06
1.65398792128781e-05
5.49503019975812e-09
2.4814762420468e-06
1.4443398360636e-05
1.77075382707388e-08
1.49889217532693e-06
1.2216821283913e-05
2.39538899570552e-08
8.13482116260098e-07
1.03188805747051e-05
2.9827497712402e-05
-9.268642121598e-07
9.77030364699814e-06
-5.51784657406082e-08
-1.21323197373808e-07
6.99502268846408e-06
1.12444565130442e-07
-7.32095974992735e-08
6.27529404081718e-06
3.19857222896051e-07
-8.93311425150402e-09
5.64906555395769e-06
3.67660683255046e-07
6.20096116862013e-08
5.09448434594699e-06
3.34797333462773e-07
1.17968520423705e-07
4.52220189694715e-06
3.00048325349446e-07
1.55846438370431e-07
4.00733840447042e-06
2.63579761614002e-07
1.78970248561645e-07
1.6678421328055e-07
1.97973665212803e-07
3.62107443405437e-06
1.7659860107402e-07
1.90161478703192e-07
3.42642989324342e-06
1.29179653552771e-07
1.78638954534031e-07
3.28261539447436e-06
8.31276474139099e-08
1.61672767705756e-07
3.19215057391075e-06
6.97717410083104e-08
1.38821857290839e-07
3.12848855971031e-06
7.35900616469466e-08
1.12713967751403e-07
3.08013981150923e-06
8.38390069098204e-08
8.7523082352705e-08
3.04250858726206e-06
9.81529399155104e-08
6.66718043838631e-08
3.00854037768502e-06
1.13353396707873e-07
5.19761297112872e-08
2.97200544005267e-06
1.28288507207893e-07
4.26579823384787e-08
2.94067039474205e-06
1.43363075455074e-07
3.70837673884007e-08
2.97556676907717e-06
1.66569764249209e-07
3.31129306332426e-08
3.37091486748652e-06
3.25990202432483e-07
2.62637407112525e-08
7.95200655617285e-06
4.20134209448574e-08
4.68005026356541e-06
5.05195627364641e-07
2.87924810232392e-07
9.00123782272919e-08
4.10237204340675e-06
3.41503410319155e-07
6.21330007535326e-08
4.0774787191417e-06
4.15477885470038e-06
2.5669090117824e-07
1.21866033339666e-07
4.71179339307587e-06
7.05982855630882e-08
4.45735440561687e-07
5.16640470204911e-06
-7.57874022051427e-09
7.69390600336806e-07
4.22541317499695e-06
1.52135790273238e-07
2.6914403256179e-07
4.79267692948048e-06
1.01641913899699e-07
4.32424793135413e-07
5.25600044111672e-06
2.03507024276524e-08
7.06195500623737e-07
5.75280458038256e-06
-1.00787466950865e-07
1.19160561371394e-06
2.03549035181888e-08
4.72524005609529e-06
6.02558872842299e-07
-2.499385481759e-08
5.19083984349366e-06
8.79203169617828e-07
4.13538000281329e-08
4.06708619775884e-07
4.09799495173539e-06
-1.23948234859463e-07
5.66623539953269e-06
1.36605895554673e-06
-2.96236351968581e-07
6.52374284341229e-06
2.22526641061648e-06
-1.23372611959737e-07
5.73980949470005e-06
1.58322333091429e-06
-3.10870618552817e-08
1.04647410288118e-06
5.33816549665881e-06
-3.22139796026338e-07
6.3656987228941e-06
2.61695952874047e-06
-7.56822615822528e-07
7.69630432605529e-06
7.54303621475983e-06
8.43676119681024e-09
7.2495728870052e-07
4.85076294224386e-06
2.93153638569019e-08
4.78552093901741e-07
4.17052632817013e-06
4.31191397651175e-06
1.74678397579421e-07
3.34933321733369e-07
4.89418181776621e-06
1.29645606643384e-07
4.53449803774522e-07
5.39214945480546e-06
5.29051997761091e-08
6.37369861633281e-07
5.94870541803692e-06
-5.476989151824e-08
9.31607826576313e-07
6.9137074345043e-06
-2.14103625739878e-07
1.28669849544111e-06
1.10010662488043e-05
-6.36124649775078e-07
2.90017551723469e-07
-1.20493277708305e-06
3.46759384567547e-05
1.53098666859132e-07
3.50638557490986e-06
1.19806465383734e-07
1.41080817599957e-07