/*--------------------------------*- C++ -*----------------------------------*\
  =========                 |
  \\      /  F ield         | OpenFOAM: The Open Source CFD Toolbox
   \\    /   O peration     | Website:  https://openfoam.org
    \\  /    A nd           | Version:  12
     \\/     M anipulation  |
\*---------------------------------------------------------------------------*/
/*   Windows 32 and 64 bit porting by blueCAPE: http://www.bluecape.com.pt   *\
|  Based on Windows porting (2.0.x v4) by Symscape: http://www.symscape.com   |
\*---------------------------------------------------------------------------*/
FoamFile
{
    format      ascii;
    class       volVectorField;
    location    "100";
    object      U;
}
// * * * * * * * * * * * * * * * * * * * * * * * * * * * * * * * * * * * * * //

dimensions      [0 1 -1 0 0 0 0];

internalField   nonuniform List<vector> 
10176
(
(-3.72815337108121e-05 0.00218831669301898 0.000315816318213328)
(-3.19817161875246e-05 0.00197515504374394 0.000421492955086968)
(3.73738817811535e-08 0.0019329242255149 0.000163771324565882)
(-6.47621784062197e-06 0.00267978290367339 0.000278630860059259)
(1.80226796737651e-05 0.00252775293405851 0.000340837319244402)
(-2.19782368932421e-05 0.00187585015624734 0.0004607947144376)
(4.82621392769051e-06 0.00172183750060184 0.000223812906990018)
(9.22567090065493e-06 0.00213074795844078 3.96350172452693e-05)
(1.40606923757951e-05 0.00211895559875603 0.000124966818347898)
(1.72734219486773e-05 0.00302925548491427 0.000114968591844758)
(3.72127645838708e-05 0.00195413894926958 0.000158490155446633)
(4.3236128554671e-05 0.00248663751606003 0.000368786969790673)
(9.81969088034256e-05 0.00295690842229065 0.00014443168925671)
(1.17212872718862e-05 0.00200697304470863 0.000503908095226668)
(1.14332022751904e-05 0.00161193345347438 0.000251059722083183)
(2.43498288091558e-05 0.00206142225874226 6.34046652275576e-05)
(1.17710886802257e-05 0.00214547106378199 -2.44142399272362e-05)
(1.49655507953611e-05 0.00217620942405418 1.47856762169417e-05)
(2.52234244357896e-05 0.00225311935809733 4.55902606302831e-05)
(3.10617908243345e-05 0.0030226580637504 7.07546232590253e-05)
(6.94978157906586e-05 0.00214142816275015 6.41736729644902e-05)
(5.72515769743743e-05 0.00187850485343151 0.000173529911477524)
(4.26196506157633e-05 0.00211261691781643 2.78562323478648e-05)
(0.000108793499669303 0.00258307192773321 0.000400382282993279)
(0.000152295866121782 0.00294207462892446 0.000158347662516295)
(0.000129295486993397 0.00295391106913377 8.33088791628526e-05)
(0.000182943493091682 0.00224822390714805 0.000531890004335732)
(2.24514185730902e-05 0.00152707527861438 0.00026833103223968)
(3.69760304058738e-05 0.00201898609919861 7.52709675406249e-05)
(3.11962772688272e-05 0.00211648540575278 -1.73958091640955e-05)
(1.02734040447611e-05 0.00210085468684495 -4.14486512928185e-05)
(1.47336186803795e-05 0.00213518590029132 -2.76796681232205e-05)
(2.07308102006964e-05 0.00218682954262816 -8.80279475086698e-06)
(2.91192468070973e-05 0.00227277837354787 1.92662339955631e-05)
(4.25551303321944e-05 0.00291266989334595 3.67568528166301e-05)
(6.11162465735578e-05 0.00214383338943181 -1.50079733068855e-06)
(0.000105881928982929 0.00209426326757034 7.15933454542678e-05)
(8.61985095107991e-05 0.00217975744185852 3.29630455983837e-05)
(7.01171396164552e-05 0.00208172405320703 3.15802657466204e-05)
(8.72162432017959e-05 0.00183672680929532 0.000186044728860426)
(4.11657668123428e-05 0.00210751709192997 -2.38398137547729e-05)
(0.000316015063127782 0.00276675395066663 0.00042152816391402)
(0.0002396882313815 0.00305251979822756 0.000168502594104401)
(0.000205383716449341 0.00293079110676839 9.06621632310543e-05)
(0.000149457823954972 0.00287275852237086 4.66415880684289e-05)
(0.000333977541695537 0.00228772600489875 0.000330550330010352)
(3.11691275317798e-05 0.00143764895300585 0.000270798748853921)
(4.94014359459308e-05 0.00198535723215069 8.11381529916788e-05)
(4.44267939869735e-05 0.00209893260339971 -1.51756006361604e-05)
(2.77874283077596e-05 0.00208558821831319 -4.23161492382467e-05)
(8.65718886765291e-06 0.002048792304662 -3.50891559816484e-05)
(1.25639886872387e-05 0.00206709779653618 -3.1070354136921e-05)
(1.76459644330127e-05 0.00210851989097246 -2.63951176771234e-05)
(2.36924403348353e-05 0.00215581187304988 -9.2768538606175e-06)
(3.09864123752057e-05 0.0022407409058398 7.05566030560268e-06)
(4.90382110063412e-05 0.00283285480366489 1.73175666512884e-05)
(5.23324536498612e-05 0.00209023831940252 -2.44180826316425e-05)
(7.30364731991308e-05 0.00212050074291458 -4.0583755444996e-06)
(0.000100511522360696 0.00212567564932246 -1.46151120591309e-06)
(0.000139456053836934 0.00214409587653351 3.96536451002588e-05)
(0.000157863222104747 0.00208191001882369 7.48289120650177e-05)
(9.66448487256365e-05 0.00215696893526151 1.69126423372106e-05)
(6.55755551581325e-05 0.00209570792299059 -2.56380608951947e-05)
(0.00010073159633525 0.00206374382071748 2.89769822610645e-05)
(0.000124412433612397 0.00179033392036613 0.000184544526408304)
(3.50124937867401e-05 0.00205180992040318 -3.19220157237381e-05)
(0.000691570024781105 0.00318809869632521 0.000325459183344205)
(0.000389425535997553 0.00322038970562236 0.000184189544916811)
(0.00031350283555532 0.00301457205202618 9.58492550616249e-05)
(0.000239431119483462 0.00286074483886349 4.31285683078693e-05)
(0.000169207665635559 0.00280529366694409 3.23377366175831e-05)
(0.000484833869781358 0.00301805846456828 0.000151917548109691)
(3.85368773156415e-05 0.00143424209211835 0.000227821397833239)
(4.92483444930781e-05 0.00192293381696625 7.85449226217283e-05)
(5.42795786467499e-05 0.00208615644429943 -1.72386905592415e-05)
(4.01231614450476e-05 0.00207699017141738 -4.51706847287003e-05)
(2.31941456590017e-05 0.00203761003475142 -3.85846852013688e-05)
(6.66533252496019e-06 0.00200551366278086 -1.36480821440358e-05)
(1.03206850627025e-05 0.00200562138027807 -1.80878390474451e-05)
(1.43842905221462e-05 0.00202913466964991 -1.96472284075469e-05)
(1.93488989975138e-05 0.00205776448071215 -1.55407608883273e-05)
(2.57647231785841e-05 0.00209736751955988 -3.67165972676208e-06)
(3.41671444574499e-05 0.00214986560946766 8.79320362709963e-06)
(5.15462409917015e-05 0.00265608283040865 2.87599842662055e-05)
(8.6934934161998e-05 0.00208283737819944 -2.70115788317903e-05)
(6.05829051840165e-05 0.00204173947048795 -1.34902538574466e-05)
(4.32591162928201e-05 0.00201851226681058 -2.01268921152843e-05)
(8.14437696363329e-05 0.00206511377837652 1.18102147855393e-06)
(0.000123700079012798 0.00210512669965526 -3.73817225643229e-06)
(0.000148153968883357 0.00211960781750476 -6.64158955042916e-06)
(0.000162257197095266 0.00212525615604329 2.03171410085051e-05)
(0.000208498833734969 0.00213543117568083 4.19028281339789e-05)
(0.00022605724008888 0.00206882118306627 7.26897900065965e-05)
(0.000105897077527074 0.00207147541874016 1.75703154362924e-05)
(5.54909832148969e-05 0.00204551887111102 -3.56154997731379e-05)
(9.1026052553207e-05 0.00208875889464005 -3.2455121014342e-05)
(0.000122074706527631 0.00202835350825515 1.70967503634957e-05)
(0.00017790873151639 0.00172400657137944 0.000133166902730729)
(2.87978005060501e-05 0.00199466984544048 -2.09648809633229e-05)
(0.00116120125199539 0.00388697564819644 8.89862766137183e-05)
(0.000713953678558054 0.00341919232331112 0.000215778310089956)
(0.000457357092935512 0.00312931013147786 9.96133252668426e-05)
(0.0003421943362386 0.00292594610033414 4.32366990761218e-05)
(0.000271328470339872 0.0027964196466347 3.16035694128559e-05)
(0.000159372500685441 0.00263250922439519 4.07147256924744e-05)
(0.00056739204250047 0.00426994106734599 -0.000226581251287766)
(-5.13118432261659e-05 0.00142731887309241 9.61822770073779e-05)
(1.58968823573195e-05 0.00184023038763038 5.514628449325e-05)
(5.07876947031921e-05 0.00205652668428782 -2.44931334957175e-05)
(4.7814457867351e-05 0.00206810994913851 -4.94288554436839e-05)
(3.24510203293154e-05 0.00202950409533213 -4.29668736640264e-05)
(1.80599523195926e-05 0.00199658610693269 -1.85577194141213e-05)
(5.2507697574298e-06 0.00197085952751444 1.33671704868476e-05)
(8.30150705890556e-06 0.00195844349830224 4.8010384287144e-06)
(1.15682350170203e-05 0.00196505511197539 -2.15465673960608e-06)
(1.56628921349413e-05 0.00197558959843873 -5.09371930014457e-06)
(2.09592749623865e-05 0.0019915592618284 -2.13179554147752e-06)
(2.7654517975237e-05 0.00201428334410846 6.81566975600246e-06)
(3.48560468214612e-05 0.00204411588224701 1.86545078381381e-05)
(4.7006835010561e-05 0.00252251190520194 3.10105023348432e-05)
(0.000104141207134479 0.00203342133244721 -1.48152466947382e-05)
(7.24145921670231e-05 0.00201350425778955 -2.32664937964859e-05)
(0.000127525157997209 0.00207974328651001 -3.35493441791929e-05)
(4.98298931873431e-05 0.00196548508176338 -4.34044006165672e-06)
(6.70532414444405e-05 0.00197576606398625 7.62330785677604e-07)
(3.5332645139843e-05 0.00195705336973612 -3.7606308353134e-06)
(8.7055267369559e-05 0.00198366578697811 1.22782758657591e-05)
(0.000140406752413534 0.00204904265381701 2.05053735202778e-06)
(0.000184938624356865 0.00209739743523827 -7.37639260379538e-06)
(0.000199606709984558 0.00210498193453392 -1.81203537313157e-05)
(0.000177930581377665 0.00204064725386675 2.15118583097762e-05)
(0.000238538070847233 0.00211379090029006 2.31988902394018e-05)
(0.000291927593295321 0.00211848726792629 4.20997623084102e-05)
(0.000318570981531487 0.00205406584441388 6.0625102476282e-05)
(0.00010649405071013 0.00196962545209957 2.83041819326578e-05)
(4.53464592730534e-05 0.00198877315360063 -2.5133472701153e-05)
(7.69822148781755e-05 0.00204039297156458 -4.12364640977661e-05)
(0.000111859628743169 0.00207071437255941 -4.41436139296673e-05)
(0.00013108616911719 0.00196319643969798 -1.10852847130352e-05)
(0.000163921342612335 0.0017030692525505 6.34763567180709e-06)
(2.33135312524217e-05 0.00194966167819035 7.83950537748383e-07)
(0.00194136771728856 0.00547786256525629 -0.000760348602609514)
(0.00120866597530081 0.0037243563526467 9.72081553023109e-05)
(0.000715846797276822 0.00325781757342728 0.000138550364902653)
(0.000469560200450605 0.00300642156347532 5.28947591184087e-05)
(0.000380758496963492 0.00284664127287099 3.33805987509089e-05)
(0.000271176570823597 0.00262064979180341 4.87791776546836e-05)
(0.000145538584265516 0.00250566518251732 4.19447334840836e-05)
(0.00028756649775252 0.00527288344071284 -0.000137872603441465)
(0.000223329251263084 0.00232781522296477 -0.000284409470267102)
(-8.69996058374621e-05 0.00158603162149869 -1.3689051132676e-05)
(1.06337584951091e-05 0.00197226449154064 -3.70719268380479e-05)
(4.18408061779087e-05 0.00203987262152184 -5.4215969731457e-05)
(3.75952644248491e-05 0.00201989339454223 -4.68784333231409e-05)
(2.53066274435065e-05 0.00198834138288669 -2.30930846900706e-05)
(1.43794921637851e-05 0.00196378380256743 8.05312390661247e-06)
(4.24833043721413e-06 0.0019420529513305 4.13016063571341e-05)
(6.64477150384698e-06 0.00192428964219633 3.20530613489679e-05)
(9.29112429202586e-06 0.00191870432118773 2.09867038314069e-05)
(1.26460661956552e-05 0.00191366859067882 1.31206940360418e-05)
(1.70397707984271e-05 0.00191172525775175 9.60988967280054e-06)
(2.23963067492611e-05 0.00191412187680773 1.2011843685865e-05)
(2.83969212997895e-05 0.00192417536218177 1.91661538148391e-05)
(3.41126879071877e-05 0.00194460633498516 2.49013134035566e-05)
(4.45451948248611e-05 0.00238646398559581 3.30328364181405e-05)
(8.63406273790909e-05 0.00195825403784369 -5.62698007738712e-06)
(0.000156535911382575 0.00202629410333378 -1.86568075051869e-05)
(0.000117287768877803 0.00196485352028844 1.18992375071468e-06)
(5.9516593947616e-05 0.00195160267934172 -6.64720679783356e-06)
(0.000106958944790081 0.00200916629665898 -2.80607857818165e-05)
(0.000172689100720421 0.00206784371746967 -4.28929668665875e-05)
(4.09897577513449e-05 0.00190548087609814 1.31480092987776e-05)
(5.52345707333904e-05 0.00190097913101864 1.17375699006917e-05)
(7.13230343048324e-05 0.00189850064958756 1.60834127771559e-05)
(2.88814771093976e-05 0.00191151106344103 1.86691371882257e-05)
(8.85471705815866e-05 0.00189550508844284 2.55203003658612e-05)
(0.0001508949330113 0.0019656593621318 1.48486618543048e-05)
(0.000210242991139227 0.00203636704604068 1.42693031554086e-06)
(0.000255626002270686 0.00207909666210423 -1.32661487830197e-05)
(0.000254097854939334 0.00207393545448561 -3.87332281237229e-05)
(0.000182286739268774 0.00193635902374621 3.54490722281135e-05)
(0.000258487165755029 0.00202579346064984 2.65581143151945e-05)
(0.000327355642586089 0.00208988913157319 3.04449436263749e-05)
(0.000392955833519918 0.00209049602879807 4.76091054712329e-05)
(0.000366785092878514 0.00203993767028575 1.29451222625803e-05)
(0.000103362386938408 0.00187616224609276 3.42110576919843e-05)
(3.67705784243104e-05 0.00194331636678538 -3.13214404473836e-06)
(6.27452409986885e-05 0.00198170635680271 -2.91777828316241e-05)
(9.41461798544931e-05 0.00202233473080721 -4.73374565620342e-05)
(0.000111999936595586 0.00201197351062092 -5.65316585075877e-05)
(7.96579449745023e-05 0.00178107702699267 -8.85654245814908e-05)
(0.000430432553817095 0.00174700335151695 -0.000327388410574251)
(1.89447068703673e-05 0.00191630793210038 2.77023285573315e-05)
(0.00134429103659936 0.00616966017952287 -0.000438589338530399)
(0.0020799538663775 0.00548159975557542 -0.000191256466958129)
(0.00109301113726672 0.00338393056493913 6.34598336619625e-05)
(0.000653280093802135 0.00307931126218444 0.000103299349565223)
(0.000528790598036091 0.0029077664490325 4.86476902906779e-05)
(0.000397580853370141 0.00265800557640528 5.45455007803972e-05)
(0.000256822067566259 0.00249248290650606 4.85758714774168e-05)
(0.000134865669162217 0.00237576979284766 4.36285395851327e-05)
(0.000311295381839513 0.00451786903863365 -0.000464768116626328)
(-0.000185051548548985 0.00126307279783565 -0.000127055629000373)
(-0.000128678981766304 0.0017500595338615 -5.23574655034642e-05)
(3.73431687218893e-06 0.00197189363092571 -5.67095372013763e-05)
(3.12390383626343e-05 0.00199477497557057 -4.80410752916331e-05)
(2.95341466027657e-05 0.0019785391663601 -2.58170579360604e-05)
(1.99140477922166e-05 0.00195620993818535 3.82098412493388e-06)
(1.16452162694879e-05 0.00193619344670036 3.6080011346425e-05)
(3.47076910060487e-06 0.00192198777274558 6.70644505513824e-05)
(5.35343588722456e-06 0.0019007050161075 5.86350155211243e-05)
(7.55994971919761e-06 0.00188730072468829 4.60267725975416e-05)
(1.02907032215856e-05 0.00187092943879696 3.47233659483559e-05)
(1.38980647656679e-05 0.00185496726260035 2.6598586446992e-05)
(1.83595391688021e-05 0.00184136574428215 2.30168388981877e-05)
(2.32353563197047e-05 0.00183339977630665 2.43288347000737e-05)
(2.82605464323271e-05 0.00183459111969409 2.71164544452009e-05)
(3.29481413949162e-05 0.00184513577536991 2.84859864264488e-05)
(4.13607515260655e-05 0.00225284933875939 3.16426427251522e-05)
(7.15137306188057e-05 0.00189752528708347 1.22637917439159e-05)
(9.73521924227468e-05 0.00189064469464926 1.25679550212939e-05)
(0.000130657442820192 0.00194903594569984 -7.83114487022725e-06)
(0.0002177621120834 0.00200757086286564 -2.27563336464465e-05)
(0.000177447629559081 0.00195174940100263 6.25878362888407e-07)
(0.000125638893796583 0.00188491865793001 1.85079523264407e-05)
(4.90978677915597e-05 0.00190488511420886 1.62209634007746e-05)
(8.85254283633141e-05 0.00194446821020585 -9.49056901453401e-06)
(0.000145389082041548 0.00199442175291908 -3.25237276151342e-05)
(0.000214152805814833 0.00203376251259588 -5.27944517249772e-05)
(4.58257782174233e-05 0.00184571902535409 2.81039372579163e-05)
(3.40168611203923e-05 0.00186296472672178 3.4187695854141e-05)
(5.90324380089122e-05 0.0018301716919402 2.64344936701749e-05)
(7.31687985628561e-05 0.00181849901776999 2.94842863093597e-05)
(2.39628446649711e-05 0.00187993715071668 4.3465244415706e-05)
(8.73998270879182e-05 0.0018083710378271 3.37914601638742e-05)
(0.000154634670128691 0.00187572232290751 3.02327441732016e-05)
(0.000225255427979329 0.00194775020309876 1.72788087831351e-05)
(0.000292211425765629 0.00200958512200347 3.08513595939654e-06)
(0.00033317853960736 0.00204298147982849 -1.99107737966563e-05)
(0.000286790003454103 0.00200893551981847 -8.69517527645102e-05)
(0.000179183249710422 0.00184365819907552 4.19005817036395e-05)
(0.000268483282918698 0.00191609105076864 4.26345834136065e-05)
(0.000354887922960743 0.00199791303182293 3.779121074317e-05)
(0.000435750519363265 0.00204485873248046 4.84108765521676e-05)
(0.000527406185341987 0.00207420015663048 2.49795464862942e-05)
(9.94868849687625e-05 0.00178208935479168 3.73315630572748e-05)
(3.02410213025373e-05 0.00190926388209391 2.42401673203185e-05)
(5.1627989394203e-05 0.00193443177606234 -5.57193629161297e-06)
(7.74976640918776e-05 0.00196340237238455 -3.13621741377735e-05)
(9.58837354012057e-05 0.00197546066787067 -5.14202121903257e-05)
(4.58298743615221e-05 0.00185237319571813 -8.46605442881209e-05)
(7.50214642547324e-05 0.00160661301350249 -0.00028523377481368)
(0.00150086080761601 0.00535234858740765 -0.00130561850132949)
(1.55489475517697e-05 0.001892652165926 5.46306762976575e-05)
(0.0043381230228528 0.00688165217586394 -0.000365491010924132)
(0.00294823348869969 0.00448252742328628 0.000400202281501602)
(0.000882334847596627 0.00301904677726591 0.0001504922207004)
(0.000746821581960819 0.00295172742742323 9.9901193090171e-05)
(0.000559521972563566 0.00269796063276592 6.19494273286942e-05)
(0.000384854433216374 0.00251663995608576 5.35585338525775e-05)
(0.000239978191034319 0.00236327002071754 5.13833531718859e-05)
(0.000126069493397056 0.00224485235992379 4.19972206574873e-05)
(-0.00011445447334777 0.0026923135887512 -0.000667572017882786)
(-0.000339343947297386 0.00120297886334204 -0.000113546702643458)
(-0.000133264886120084 0.0017758591099154 -5.10975640720976e-05)
(-2.18146222781469e-06 0.00193903198959931 -4.31855561335095e-05)
(2.52510476720979e-05 0.00195480489206425 -2.43681392362826e-05)
(2.35025075548005e-05 0.00194621660600057 2.10043458786324e-06)
(1.60276819383861e-05 0.00192924032641849 3.22659623324653e-05)
(9.66369081193053e-06 0.00191564823899131 6.22906058477441e-05)
(3.02226622143233e-06 0.00191153461062953 9.01689549356021e-05)
(4.54414896217738e-06 0.00188625435755069 8.2160281244102e-05)
(6.30228917421928e-06 0.00186745188920159 7.00982921940571e-05)
(8.54814154820645e-06 0.001843820957202 5.69823783042169e-05)
(1.14691227581873e-05 0.00181769452135876 4.57230254799982e-05)
(1.51604253016797e-05 0.00179174679526106 3.76800305023863e-05)
(1.92805620146184e-05 0.00176906738975915 3.35422877271044e-05)
(2.34298908343162e-05 0.0017530619038589 3.23901125624479e-05)
(2.75655772593911e-05 0.00174597263281964 3.18269959439729e-05)
(3.13391047240327e-05 0.00174808827129864 2.99556084550282e-05)
(3.80862398359955e-05 0.00212607734429699 2.92004950567894e-05)
(8.13359025063092e-05 0.0018345851666259 2.93067254806254e-05)
(5.98352908630256e-05 0.00185367073803801 3.36940834708918e-05)
(0.00010904909906887 0.00188559096091699 1.17916502601451e-05)
(0.000104763046360216 0.00181705612246611 2.92384707515293e-05)
(0.000148280853350077 0.00187544146640456 1.33763088293065e-05)
(0.0001828809159282 0.00192688144585838 -8.36385364892607e-06)
(0.00024840256020758 0.00192338281985515 2.32969750485766e-06)
(0.000284614482268354 0.00196691816850416 -2.38458956034555e-05)
(0.000189920807575574 0.0018661700987694 2.10102848620637e-05)
(0.000129355764414969 0.00180305860878697 3.37817908718694e-05)
(4.12332876147664e-05 0.00187190584223459 4.15388630331945e-05)
(7.40605175210274e-05 0.00189505309121462 1.50706978814186e-05)
(0.000121961182764771 0.00192681709049911 -1.01697115887987e-05)
(0.000183521123905299 0.00196022645088767 -3.44929858146532e-05)
(0.000229485114113624 0.00195523179489669 -7.36495534392528e-05)
(3.85090744242554e-05 0.00180833090737342 4.67105695237243e-05)
(4.94204460064444e-05 0.00178173740811865 4.05051657019766e-05)
(2.87760638675172e-05 0.00183518388880256 5.61528413817323e-05)
(6.11190844073597e-05 0.00175793343914657 3.80988599797386e-05)
(7.30756387210107e-05 0.00173914559065905 3.82224173280183e-05)
(2.03620271208317e-05 0.00185935824028944 6.77073570558144e-05)
(0.000153245697217416 0.00178809365394721 3.97127080092215e-05)
(8.48253146924522e-05 0.0017219059977909 3.85873978702666e-05)
(0.000231233770307754 0.00185322577405365 3.51401053124225e-05)
(0.000312322449530477 0.00191299644990767 2.37937294371421e-05)
(0.000387137185666025 0.00195995304028741 1.1166578808977e-05)
(0.000420848791851158 0.00198929735247738 -3.8195882432492e-05)
(0.00022442736843436 0.00212628917630564 -0.0002000386374359)
(0.000172883284437316 0.00175097499795943 4.51676345150613e-05)
(0.000265969200960931 0.00181953533684536 5.01653350161371e-05)
(0.000369705378973228 0.00188236778729208 5.37150284374299e-05)
(0.000476597270978948 0.00194892755183574 5.79104660999715e-05)
(0.00058936027391639 0.00198865044929648 5.33121130835665e-05)
(9.45109016620979e-05 0.00168930627677304 3.82521367564118e-05)
(2.53538519413954e-05 0.0018847571692775 5.18718831834715e-05)
(4.34230494043287e-05 0.00189877753107589 2.30774775358149e-05)
(6.52349417095573e-05 0.00191473771989135 -4.45436920523781e-06)
(8.17984628687528e-05 0.00192217403063926 -2.86035239712559e-05)
(3.18876184572615e-05 0.00184063893269325 -4.85205754497497e-05)
(-5.58965855148573e-05 0.001531740079654 -0.000178010356498894)
(0.000339637186299396 0.00413098219740123 -0.00135667226666189)
(0.00306038646967102 0.00670336947833872 -0.00125799285037389)
(1.33905834098383e-05 0.00187748806235651 7.86804571172463e-05)
(0.00496973864759052 0.00350954178639716 -0.000614245115577752)
(0.00470060504403222 0.000883697382859174 0.000638237740039757)
(0.0017379892152551 0.0032343879790281 0.000485413169468556)
(0.000955210247897196 0.00287010826482407 0.000127058244204095)
(0.000773045389646295 0.00271656531611526 8.67039510008485e-05)
(0.000538579350813073 0.00252985604129877 6.05307307764628e-05)
(0.000360892349802897 0.00237910531691129 5.60461144555914e-05)
(0.000223043655837155 0.00223159145319168 4.95991116065369e-05)
(0.000117069163231198 0.00211967528223593 3.83287176399428e-05)
(-0.000503042202793458 0.00185956695399485 -0.000443679795329522)
(-0.00036930763380959 0.00119753043607915 -4.80437247795141e-05)
(-0.000121300357546371 0.00176517387910154 -2.57179171871455e-05)
(-2.54999870741478e-07 0.00191110779544142 -1.61876665713406e-05)
(2.1313812164992e-05 0.00192239978445937 4.66802364527723e-06)
(1.97758399473908e-05 0.00191840073772302 3.13127638048631e-05)
(1.35236740461207e-05 0.00190835015914237 5.89887488300652e-05)
(8.60707798086818e-06 0.00190403080326725 8.58706988446818e-05)
(2.85917111272421e-06 0.00190744330452989 0.000110165544935903)
(4.08296603569595e-06 0.00187987267551156 0.00010282527228099)
(5.49541654036751e-06 0.00185691347372882 9.16317636891089e-05)
(7.31278711789249e-06 0.00182854938383597 7.82112403328531e-05)
(9.70039642149341e-06 0.00179577806847375 6.50824430488631e-05)
(1.27436729230172e-05 0.00176093378700175 5.40017666171868e-05)
(1.62191768780901e-05 0.0017270314209228 4.58204299435875e-05)
(1.96895921895049e-05 0.00169720717966223 4.04819856185566e-05)
(2.30788270191393e-05 0.00167426167726034 3.71603390546597e-05)
(2.64035418734086e-05 0.00166030596534404 3.39415196625494e-05)
(2.93974159547101e-05 0.00165523341001765 2.97078216742048e-05)
(3.47840448515276e-05 0.00200784349322483 2.6626122932316e-05)
(8.83249083857788e-05 0.00176778228899017 4.35392518388304e-05)
(6.89005464844103e-05 0.00179579175747025 4.81572441467023e-05)
(0.00012461475388551 0.00181697860620388 3.14348757974171e-05)
(5.10598322476158e-05 0.00182425989560223 5.60451474914282e-05)
(9.21760697503618e-05 0.00183910773658508 3.46385977540096e-05)
(0.000154073493020172 0.00186039329683385 1.42840822206428e-05)
(0.000159336026911466 0.00179652774192878 3.27470360716842e-05)
(0.000108712818304995 0.0017429290323331 4.25224690351028e-05)
(0.000208552460614241 0.0018441960814498 1.7148134670513e-05)
(0.000240943411898574 0.00188339770269534 -3.90696124813611e-06)
(0.000264852040750431 0.00182922259820816 2.71203577543678e-05)
(0.000329939907291731 0.00187085336023906 1.00559045646685e-05)
(0.000347745311744972 0.00188606909731177 -1.93943551345074e-05)
(0.000195098259442303 0.0017800592154959 3.87095414967852e-05)
(0.000129256214165632 0.00172273831887703 4.38068036149504e-05)
(3.55649946175832e-05 0.00184986353921808 6.6378952402248e-05)
(6.32592681845647e-05 0.00185970487252149 4.16932411601719e-05)
(0.000103870203024896 0.00187471757008458 1.73864625610766e-05)
(0.000157977380616468 0.00189188430161559 -5.68579779459259e-06)
(0.000201933115371245 0.00188514252525893 -2.93839276332615e-05)
(0.00018894344024368 0.00194954398098044 -0.000134513967757924)
(3.30514946617585e-05 0.00178544317811883 6.57504643851459e-05)
(4.20584652731591e-05 0.00175052220843139 5.63363443624951e-05)
(5.18011634565797e-05 0.00171667595624642 4.97870617490997e-05)
(2.50005540265593e-05 0.00181881931957156 7.73656355274497e-05)
(6.17083953176471e-05 0.00168641138585572 4.57908283376283e-05)
(7.15819717309016e-05 0.00166124648422398 4.33302719283048e-05)
(1.80176699014803e-05 0.00184777265478175 8.95832309215839e-05)
(0.000229011748510168 0.00176254253893531 4.62323246655206e-05)
(0.000148640318991132 0.00170173232991456 4.50048079820293e-05)
(8.10785548993868e-05 0.00163798518612552 4.06143344925792e-05)
(0.000319306982300068 0.0018123512184364 4.37779354737826e-05)
(0.000413901233502855 0.00185259757271932 3.75710907155388e-05)
(0.000500772472354573 0.00187967922253971 1.91656897970108e-05)
(0.000583796481388385 0.00196853145908841 -0.000101503451699357)
(0.0018689661526975 0.00474718638599651 -0.000798156342567137)
(0.000164035422011104 0.00165919583327095 4.58413911309742e-05)
(0.000256027054294687 0.00172487963955218 5.35165557282327e-05)
(0.000364807346844129 0.00177881162119806 6.17060353863907e-05)
(0.000489405649148319 0.00182491189526088 7.2363634657162e-05)
(0.000610031902714995 0.00185835768518837 7.65799994113309e-05)
(0.000864496995930697 0.00183796755024932 4.74639237815035e-05)
(8.87026252915697e-05 0.00160001380217587 3.73491381118878e-05)
(2.22411385502988e-05 0.00186848392389022 7.66406111105103e-05)
(3.74924589806605e-05 0.0018726799547236 5.16737223809333e-05)
(5.7042770412255e-05 0.00187797899221698 2.58832003974769e-05)
(7.3545744800931e-05 0.00187768658837243 2.75568751240167e-06)
(2.98620003729421e-05 0.00180922431067615 -1.42507512761587e-05)
(-7.08549556738992e-05 0.00154662192671115 -5.68486108073637e-05)
(-0.000180250976497553 0.00332411674950187 -0.000646680812169909)
(0.00417237074201637 0.00351562055846222 -0.00162947595803725)
(1.22443426403176e-05 0.0018701207213917 9.97639326641543e-05)
(0.00404308641113457 0.00018263990497212 -0.000843103096570519)
(0.00411493640440929 0.00047028076649261 0.000211392364354751)
(0.00271055242966595 0.00249611281926268 0.000540225904441857)
(0.00138988313557388 0.00292361947873116 0.000200259903336094)
(0.000981624802465507 0.00266023822935221 0.000111400103208615)
(0.000724660421134709 0.00250860261745362 7.70393939387981e-05)
(0.000501016027685353 0.00237659725608689 6.1096560914069e-05)
(0.000333570394077224 0.00224147472632494 5.40373165534438e-05)
(0.000205604992639142 0.00210537157948127 4.50237205970057e-05)
(0.000107606759696362 0.00200261642861398 3.4449270278133e-05)
(-0.000694520927381404 0.00173930137643347 -0.000131589194744796)
(-0.000321331811213726 0.00127815931910375 1.0471919307411e-05)
(-9.61934139268757e-05 0.0017636401221826 3.80754244105869e-06)
(2.88867340182766e-06 0.00188396491807604 1.41124372824217e-05)
(1.99148414989758e-05 0.00189792933793845 3.43067842182982e-05)
(1.77930384053224e-05 0.00189788233115874 5.84242484346496e-05)
(1.24094495421855e-05 0.00189601051375408 8.30453589357707e-05)
(8.21205699568678e-06 0.00189963120182213 0.000106332983010604)
(2.73929166213602e-06 0.00190746160824216 0.000126870802083894)
(3.80907008911979e-06 0.00187918832940608 0.000120848053751494)
(5.03024039351997e-06 0.00185370177145626 0.000110518142103041)
(6.50353669472313e-06 0.00182215045369224 9.74832970496184e-05)
(8.45905682600292e-06 0.00178525396486426 8.36123666753018e-05)
(1.09794669449793e-05 0.00174456596679093 7.06404800236289e-05)
(1.38609911337058e-05 0.00170270576098176 5.96852495060167e-05)
(1.67963146684293e-05 0.00166255881471673 5.10483741764889e-05)
(1.96161034713495e-05 0.00162683232419315 4.45567163053615e-05)
(2.22962856864124e-05 0.00159816369020055 3.94952044782826e-05)
(2.49218198144497e-05 0.0015785004276519 3.42848383073725e-05)
(2.7274962005887e-05 0.001567439691331 2.85875244021561e-05)
(3.15743974615821e-05 0.00189849222175137 2.41639959932113e-05)
(0.000134905960539134 0.00174521602315062 4.7954273156266e-05)
(7.56429227527644e-05 0.0017351228811597 5.94491914025385e-05)
(9.2545120736994e-05 0.00170079599500706 5.42694494970272e-05)
(5.95537495391934e-05 0.00177119048164158 6.7393047862757e-05)
(0.000106251279060154 0.00177580454633528 5.13121353391149e-05)
(0.000176238114161682 0.0017832310779856 3.72154043328787e-05)
(4.47632624518544e-05 0.0018062127805439 7.76544369644787e-05)
(7.95758498742054e-05 0.00180728692383403 5.80520779113316e-05)
(0.000131823847344495 0.00181130799306013 3.94272472715998e-05)
(0.000205747787266891 0.00181483970732149 2.30837013034039e-05)
(0.000164686787477385 0.00171855604356253 4.81166224625919e-05)
(0.000222866161179334 0.00175748584295623 3.99738526824996e-05)
(0.000109684848346429 0.00167031765949246 5.13808441784768e-05)
(0.000277391672396333 0.00178901136183074 2.74512663350545e-05)
(0.00029994683829396 0.00179943427762537 1.18498978085532e-05)
(0.000349978679860002 0.0017661260443443 4.03061067336017e-05)
(0.000270177707339875 0.00173728423179207 4.73732680113782e-05)
(0.000419436174179253 0.00178006484570349 2.85265107040855e-05)