/*--------------------------------*- C++ -*----------------------------------*\
  =========                 |
  \\      /  F ield         | OpenFOAM: The Open Source CFD Toolbox
   \\    /   O peration     | Website:  https://openfoam.org
    \\  /    A nd           | Version:  12
     \\/     M anipulation  |
\*---------------------------------------------------------------------------*/
/*   Windows 32 and 64 bit porting by blueCAPE: http://www.bluecape.com.pt   *\
|  Based on Windows porting (2.0.x v4) by Symscape: http://www.symscape.com   |
\*---------------------------------------------------------------------------*/
FoamFile
{
    format      ascii;
    class       volScalarField;
    location    "300";
    object      k;
}
// * * * * * * * * * * * * * * * * * * * * * * * * * * * * * * * * * * * * * //

dimensions      [0 2 -2 0 0 0 0];

internalField   nonuniform List<scalar> 
10166
(
4.60332963550953e-08
4.66527958591275e-08
4.83918114063795e-07
5.83897761784725e-07
4.71340364790186e-08
4.90904342223855e-07
5.90908605389913e-07
2.08091349899855e-06
9.25071982918715e-06
2.54440534544792e-06
4.72223723474569e-08
4.96943977257262e-07
5.94484497279112e-07
2.10844310852882e-06
9.35402836814514e-06
2.55824419258106e-06
5.06212295710326e-06
3.08376491374799e-05
3.15435992919111e-05
6.26382819971563e-06
4.69371449701618e-08
4.97912770034571e-07
5.93256640981136e-07
2.12347484831491e-06
9.39916977267961e-06
2.55599751621941e-06
5.11485018168247e-06
3.10482523431983e-05
3.16807633828481e-05
6.2737339075994e-06
8.94967578466973e-06
5.69403434673564e-05
7.52222629466459e-05
5.83417681206868e-05
1.11634137615247e-05
4.63607991071841e-08
4.94887768533955e-07
5.87855923062471e-07
2.11845372478105e-06
9.37283301718488e-06
2.53536708632332e-06
5.13066516627408e-06
3.1071500698921e-05
3.16330159878893e-05
6.24775523988331e-06
9.01762529481506e-06
5.71885678128066e-05
7.54303198429732e-05
5.84191853547223e-05
1.11718518100666e-05
1.34039389610505e-05
8.3078541363349e-05
0.000117638006350103
0.000117794063746348
8.52693078361832e-05
1.6799018173121e-05
4.5516996666589e-08
4.88842729333848e-07
5.79056955114762e-07
2.09749215601121e-06
9.28824776388098e-06
2.49876849194267e-06
5.10610332158357e-06
3.09134585077353e-05
3.1419870408805e-05
6.1838234437218e-06
9.02185631271335e-06
5.71428734716986e-05
7.52906493746418e-05
5.82327352557871e-05
1.11184330964094e-05
1.34755420930008e-05
8.33240816983057e-05
0.000117866847860597
0.000117939849533002
8.53165000204729e-05
1.68104232880286e-05
1.82726932792999e-05
0.000108103414452886
0.000157937947968798
0.00017156036463565
0.000158700257829547
0.000110986934869796
2.30229540129659e-05
4.43930776029403e-08
4.80327478127461e-07
5.6716048577762e-07
2.06348285167839e-06
9.15476661716571e-06
2.4487045533461e-06
5.04638758814111e-06
3.06010796109183e-05
3.10627023028071e-05
6.08487284157027e-06
8.96308074803674e-06
5.68235688066412e-05
7.48429762377058e-05
5.78073737702263e-05
1.10016830219253e-05
1.34573525152893e-05
8.31920938217452e-05
0.000117629204447895
0.000117643707472331
8.50262924151388e-05
1.67313890857462e-05
1.83421780392986e-05
0.000108328145129792
0.000158162133596965
0.000171734748420846
0.000158810656974425
0.000111030685413099
2.30425902926806e-05
2.33680613797438e-05
0.000131860943299444
0.000195910742847023
0.000221917399738766
0.0002225295561686
0.000197717429198388
0.000135448174321386
2.97474148608485e-05
4.29585017072973e-08
4.69264476864817e-07
5.52168171260598e-07
2.01752205924192e-06
8.97848434447548e-06
2.38651165434265e-06
4.95485023793394e-06
3.01507398630145e-05
3.05765698956229e-05
5.95451577585799e-06
8.84705215439586e-06
5.62565903050769e-05
7.41135895798703e-05
5.71586114640329e-05
1.08250473033429e-05
1.33524735222781e-05
8.27072108441234e-05
0.000116965061121047
0.000116938519807148
8.44190367243459e-05
1.65596420264186e-05
1.8294941787266e-05
0.000108103310712808
0.000157815050446784
0.000171323546162942
0.000158384168195076
0.000110663952607225
2.29361263041531e-05
2.34326908583321e-05
0.000132060458712159
0.000196122709153141
0.000222094441507601
0.000222667211365825
0.000197812872806873
0.00013550366316811
2.97755530944749e-05
2.852684464588e-05
0.000154232770604943
0.000231525427912761
0.00026927565456221
0.00028135052168613
0.000271231352919181
0.000234878021881428
0.000158833113319911
3.66104029325467e-05
4.117384816827e-08
4.55170404535134e-07
5.33920349304822e-07
1.95914030095596e-06
8.76036470482008e-06
2.3127083984501e-06
4.83298054264264e-06
2.9571321666234e-05
2.99700982946493e-05
5.79501477333304e-06
8.67758996503294e-06
5.54572972610389e-05
7.31183047506171e-05
5.62978458221742e-05
1.05922260516288e-05
1.31675507411088e-05
8.18919382341811e-05
0.000115897319764571
0.00011584126968199
8.35061875718215e-05
1.62979111071083e-05
1.81375538297227e-05
0.000107453785234042
0.00015693343059157
0.000170357981771387
0.000157443323542125
0.000109900839850061
2.27020996349647e-05
2.33537464816263e-05
0.000131743500416726
0.000195664215070895
0.000221554892977604
0.000222099622756237
0.00019726619404532
0.000135063059697796
2.96326994006206e-05
2.85889313298084e-05
0.000154409908045521
0.000231723554852882
0.00026944879907119
0.000281491472386079
0.000271343075742549
0.000234962046152982
0.000158901213010693
3.66446880067631e-05
3.36340494399073e-05
0.000175225310487865
0.000264850930169034
0.000313699424872143
0.000336318422522849
0.000337743885783119
0.000317716614527583
0.000270412654148327
0.000180955275573679
4.25422800662984e-05
3.90154226910211e-08
5.1216294170262e-07
4.3770940950661e-07
1.88811721738307e-06
8.49827365118898e-06
2.22747983133853e-06
4.68145515965083e-06
2.88645804198908e-05
2.9247700743985e-05
5.60787581106132e-06
8.45633622397232e-06
5.44335377317603e-05
7.18666280895064e-05
5.52336531074014e-05
1.03066083420666e-05
1.29056900636237e-05
8.07588421873473e-05
0.000114439124043264
0.000114363174871141
8.22964161065713e-05
1.59502455134909e-05
1.78761358688675e-05
0.000106399142745401
0.000155536785312874
0.000168853417231254
0.000155999425339494
0.000108748635414492
2.23418357455882e-05
2.31407807467893e-05
0.000130937933219697
0.000194570643090655
0.00022032872660471
0.000220849221626195
0.000196095957227722
0.000134141015583997
2.93192372982385e-05
2.84813018869372e-05
0.000154006176559247
0.000231158145274271
0.000268781568121964
0.000280773450456358
0.000270622488653543
0.000234292625592531
0.000158377709382764
3.64550583285617e-05
3.36979325112785e-05
0.000175394231223492
0.000265042446276047
0.000313869723603086
0.000336455357881886
0.000337850592462044
0.000317797940739499
0.000270480616658994
0.000181034093011471
4.25698180809378e-05
3.86282857389923e-05
0.00019486826238219
0.000296013628042358
0.000355335959383904
0.000387836661873988
0.000399295671058206
0.000391399959361533
0.000362194916016273
0.000304562213456841
0.000201436932937204
4.54770131710161e-05
3.64759718477989e-08
4.86727985504617e-07
4.16573646894476e-07
2.13089855624826e-06
8.1893613318911e-06
1.80411417608469e-06
4.49990818497195e-06
2.80298248771919e-05
2.84113108560787e-05
5.3942583303301e-06
8.18394346007549e-06
5.31879696307946e-05
7.03641679159236e-05
5.39735909475388e-05
9.97111013917085e-06
1.25689302350307e-05
7.93139721655538e-05
0.000112598411275224
0.000112512915488535
8.07992442733133e-05
1.55207632100144e-05
1.75131893039816e-05
0.000104949416015068
0.000153636140796378
0.000166819619216732
0.000154060855585468
0.000107214712823192
2.18590920862339e-05
2.28009561949396e-05
0.000129660013172687
0.000192859833497952
0.000218429777015939
0.000218926619338092
0.000194309857091719
0.000132741406386342
2.88360334160691e-05
2.8216173760305e-05
0.000153056938429276
0.000229866147163067
0.000267304906469172
0.000279220380322486
0.000269088757208321
0.000232886947668672
0.000157279202324184
3.60443550796727e-05
3.35646638501779e-05
0.000174921854144347
0.000264382114753753
0.000313083471761712
0.000335590848657298
0.000336954830875796
0.000316918580600721
0.000269679111125958
0.000180418175769025
4.23244719028385e-05
3.86925989215787e-05
0.0001950381415604
0.000296205304361074
0.00035550745469779
0.000387971079626776
0.000399392609796296
0.00039146413520289
0.000362236374574306
0.000304604739753924
0.000201508472409366
4.54715547002272e-05
4.34605288147743e-05
0.00021320341721768
0.000325109671880267
0.000394330137605384
0.0004361849294216
0.000456769047465271
0.000458839723772661
0.000442590746523419
0.000405028781431332
0.000337839130386329
0.000221389132289982
4.27172049419679e-05
3.35747221785217e-08
4.57550510778482e-07
3.9164231008399e-07
2.02300545479691e-06
7.8310545772243e-06
1.70697885175444e-06
5.15562110342074e-06
2.74617696350206e-05
2.70655795993441e-05
4.28865374191491e-06
7.8611632457761e-06
5.17205846578566e-05
6.86144378065626e-05
5.25238250960137e-05
9.58837559783755e-06
1.21591363837145e-05
7.75598574766225e-05
0.000110380055040707
0.000110297799437563
7.90240298621006e-05
1.50138061731188e-05
1.70518048440994e-05
0.000103109978351168
0.000151238104359447
0.000164263842117085
0.000151635840293871
0.000105308542095822
2.12589347663447e-05
2.23375959639147e-05
0.000127917819353996
0.000190541168492685
0.000215866835497718
0.000216339273316705
0.000191914055274097
0.00013086972672495
2.81852448001878e-05
2.78011220885715e-05
0.000151577632450832
0.000227863595689675
0.000265032430923657
0.000276842577279387
0.000266749563918995
0.000230750284675438
0.000155607871558424
3.54124016649338e-05
3.32496593277101e-05
0.000173847242670265
0.000262909571662822
0.000311373926082665
0.000333751606652657
0.000335078077944299
0.000315095902581656
0.000268024393532383
0.000179126671977284
4.18064826057168e-05
3.85356175571941e-05
0.000194508935828214
0.000295462005236218
0.000354613877456806
0.000386971585768972
0.000398331054850864
0.000390384736651389
0.000361188611776316
0.000303659100276473
0.000200778881298371
4.51770364019728e-05
4.3528053945809e-05
0.000213377583818841
0.00032530741032379
0.000394507248095982
0.000436320983597723
0.000456859128188258
0.000458886079682504
0.00044260059876191
0.000405018150787537
0.000337839453105243
0.000221382124094605
4.26820126774651e-05
4.81227060306082e-05
0.000230290231862465
0.0003522385592542
0.000430808553988395
0.000481563617869767
0.000510684011482305
0.000521459492508275
0.000515333319449154
0.000491614169103357
0.00044675156521159
0.00037225599149457
0.000252208304420482
3.03915799756119e-08
4.24732522557853e-07
3.63032024062299e-07
1.90380127932304e-06
7.42146812993001e-06
1.59718852407614e-06
4.89302160367751e-06
2.63985908227237e-05
2.59701103660885e-05
4.04877143690227e-06
9.16171978494016e-06
5.08905321879796e-05
6.66198682473568e-05
5.00313972377456e-05
7.48950074997042e-06
1.16781886739959e-05
7.54973797309796e-05
0.000107787330922099
0.000107724336267877
7.6980097733341e-05
1.44347560329204e-05
1.64951266856235e-05
0.000100883503432277
0.000148346917334112
0.000161192179418289
0.000148732798740773
0.000103041017387631
2.05474049835992e-05
2.17540863530221e-05
0.000125716571816508
0.000187620440851018
0.000212646040704383
0.000213093857024012
0.000188916010728551
0.000128535477024524
2.73700468576048e-05
2.72399595264839e-05
0.000149575367753868
0.000225159491319169
0.000261972159563238
0.000273646710849995
0.000263610069914409
0.000227885739826573
0.000153364332583455
3.45576821196853e-05
3.27623367987908e-05
0.000172186324490792
0.000260641687022705
0.000308755154332092
0.000330948348626897
0.000332228055426406
0.000312334740552795
0.000265518068064425
0.000177159672473984
4.10132576698431e-05
3.8173812396087e-05
0.000193323191025571
0.000293826414488233
0.000352691363689871
0.000384868111271366
0.000396135847162629
0.000388181461032476
0.00035906672288485
0.000301739693214998
0.000199271252960097
4.45727700563292e-05
4.33507965041679e-05
0.000212800031935016
0.000324492603717604
0.000393518361569158
0.000435200203579415
0.000455646805786174
0.00045762276512921
0.000441328853090291
0.000403789836424559
0.00033672893545173
0.00022047486771818
4.24072020678486e-05
4.81937960474483e-05
0.000230472523543402
0.000352446278986347
0.000430995539201379
0.000481706088888271
0.000510772953050316
0.000521493887584423
0.000515317290734102
0.000491557832041197
0.000446676358399553
0.000372191205059321
0.000252087912825265
5.26018363583676e-05
0.000246202504011698
0.000377502669797476
0.000464890561819259
0.000524122808315732
0.000561353910700351
0.000580089351951885
0.000582446038270289
0.000569025836181013
0.000538704891570882
0.000488229441980411
0.00041298156102766
2.70362382758478e-08
3.8889038825441e-07
3.3135186869272e-07
1.77375822401927e-06
6.96045329577775e-06
1.47563800662248e-06
4.60773615980958e-06
2.52197560404694e-05
2.47425842685799e-05
3.78212735419111e-06
8.69451957308114e-06
4.90773226688521e-05
6.43820685506034e-05
4.81212948376042e-05
7.07157935427213e-06
1.37902673202512e-05
7.46783332438847e-05
0.000104798993098095
0.00010482339735981
7.31279920592096e-05
1.11289279431301e-05
1.58461389658848e-05
9.82717178202563e-05
0.000144965916589799
0.00015761040073988
0.000145360914958049
0.000100427091227138
1.97337242491241e-05
2.10543174113775e-05
0.000123059455967448
0.000184101499687433
0.000208772758918352
0.000209197287478946
0.000185325103953849
0.000125751325490961
2.63984776502874e-05
2.65360147937816e-05
0.000147054735737997
0.000221759263760293
0.000258129692138142
0.000269638290635552
0.00025967640097904
0.000224298578052952
0.000150552664770256
3.34764283886614e-05
3.21072138886931e-05
0.000169946010252532
0.000257587079320855
0.000305235166087036
0.00032718750898595
0.000328409510639012
0.000308637405985266
0.000262158919602916
0.000174507808285725
3.99358826299794e-05
3.76172790105056e-05
0.000191498140286672
0.000291316437075711
0.000349755143173022
0.000381672363107216
0.000392815381415743
0.000384859297726857
0.000355871844246071
0.00029884310426632
0.000196979233941349
4.36525263477206e-05
4.29459073501531e-05
0.000211515413685026
0.00032271104140227
0.000391402713187465
0.000432855758780538
0.000453160445013966
0.000455073074242595
0.00043879288770182
0.000401355422073869
0.000334519686232903
0.000218685930240984
4.18197757378861e-05
4.79981126734946e-05
0.000229853986286742
0.000351569768683892
0.000429923121476276
0.000480477823188098
0.000509426362499006
0.000520066217728134
0.00051384605963933
0.000490084285731065
0.000445251953112839
0.000370878321667506
0.00025092751399041
5.26773159393858e-05
0.000246394500428227
0.000377723379819072
0.000465091024065453
0.000524276322882089
0.000561447987668797
0.000580119743472615
0.000582413906413328
0.000568937319217008
0.000538574814097984
0.00048808961694402
0.000412867162344381
0.000328532045312468
5.68852098180987e-05
0.000261006576620926
0.000401001713327452
0.000496689013593735
0.000563988110552122
0.000608975967383575
0.000635205585620383
0.000645118314587028
0.00064000553184019
0.000619958760325832
0.000583885139648565
0.000529843398376862
2.36228241790167e-08
3.50913529250123e-07
2.97450875458624e-07
1.63435043351801e-06
6.45207567833009e-06
1.34467494179331e-06
4.3013064719269e-06
2.39242181685803e-05
2.33845739714121e-05
3.4920359709926e-06
8.19200707190382e-06
4.70864468532984e-05
6.19018348251571e-05
4.59924136980178e-05
6.61133152099807e-06
1.30862144722943e-05
7.21278414030355e-05
0.000101527196879959
0.000101491831767974
7.04548895449972e-05
1.0515740145995e-05
1.88323291135996e-05
9.74847591089146e-05
0.000141530711788576
0.000153524759514619
0.000141098909184672
9.52772321118022e-05
1.5109289805532e-05
2.02419923602831e-05
0.000119948872485569
0.000179987671836214
0.000204252363669974
0.000204657512192483
0.000181154333031043
0.00012253772259513
2.52843834090658e-05
2.56941115486128e-05
0.000144018974270721
0.000217666533046563
0.0002535099091723
0.000264823409373141
0.000254955745928773
0.000219998395304341
0.000147186356904144
3.21772528903474e-05
3.12880793988817e-05
0.000167130702833671
0.000253750918029965
0.000300819404721002
0.00032247419971007
0.000323627152813259
0.000304006971458695
0.000257947867093763
0.000171158478279799
3.85556959224297e-05
3.68701653464246e-05
0.000189041338080239
0.000287940939872639
0.000345813509983307
0.000377391026088584
0.000388374400376038
0.000380420502808431
0.000351602191977966
0.000294958500823617
0.000193874618271566
4.24015793095546e-05
4.23244689332977e-05
0.000209541653698332
0.000319981784464043
0.000388176804333201
0.00042930060437751
0.000449409554688193
0.000451242905226784
0.000434994376886162
0.000397711143882749
0.000331201016872367
0.000215999656175413
4.0905017303454e-05
4.75537200424309e-05
0.00022848111187703
0.000349657535806444
0.000427633485480145
0.000477915061609689
0.000506675944649579
0.000517203565726895
0.000510940963762916
0.000487207659445567
0.000442486731069721
0.000368334984581392
0.00024874374371052
5.24647458037448e-05
0.000245740696519785
0.000376793732614707
0.000463945837396555
0.000522953693150961
0.000559983147781601
0.000578547350073543
0.000580767919820749
0.000567252579052894
0.000536890393958878
0.000486450268294924
0.000411306411407087
0.000327119032627633
5.69661082620006e-05
0.000261209448599797
0.000401237323806
0.000496905856564629
0.000564156761108529
0.000609081037323215
0.000635239954688439
0.000645080475943737
0.000639898786089545
0.000619794243158325
0.000583691578393914
0.000529680132090809
0.000458923214214574
0.00039416126913723
6.09580564386253e-05
0.000274758438740793
0.000422825785446967
0.000526308322829886
0.000601270125179198
0.000653689870095685
0.000687082572995578
0.000704019384874896
0.000706138467110615
0.000694135922799449
0.000667891724276579
0.000626563449777998
2.0262556106112e-08
3.11744905414486e-07
2.62295576834386e-07
1.48752560008329e-06
5.90346334718405e-06
1.20714663174906e-06
3.97633946811545e-06
2.25142376072617e-05
2.19025769215893e-05
3.18302235906452e-06
7.65598760518858e-06
4.491866320459e-05
5.91818846416112e-05
4.36503600354404e-05
6.11430508945888e-06
1.23284231516068e-05
6.933986426895e-05
9.79124162411759e-05
9.77970592761943e-05
6.74833111276484e-05
9.84485184324413e-06
1.78543043900249e-05
9.42275525780709e-05
0.000137252098302754
0.000148942044780096
0.000136751116421068
9.19059817722025e-05
1.42901696427016e-05
2.40609784613506e-05
0.000118926633495464
0.000176420806729673
0.000199484190173122
0.000199091038834924
0.000175283075164536
0.000116388301990358
1.93224107353932e-05
2.47194538107253e-05
0.000140470852384757
0.000212884679747354
0.000248117764619249
0.000259209056357138
0.000249458426079027
0.000215002697917408
0.000143292661196375
3.06789871785731e-05
3.0310198473261e-05
0.000163743966289744
0.000249136565899186
0.000295512287681644
0.000316813746935779
0.000317887025238015
0.000298450481900525
0.000252892145272279
0.000167119872218226
3.68805564545547e-05
3.59380266031492e-05
0.000185957189769574
0.000283705115761167
0.00034087182058437
0.000372029101525997
0.000382817171251084
0.000374867842556586
0.000346257163497433
0.000290074512658444
0.000189919596531573
4.07666714988206e-05
4.1492978879862e-05
0.00020688700368856
0.000316314077905105
0.00038384937212809
0.000424541862419275
0.000444399246069618
0.000446134906789861
0.000429932274041534
0.000392848564193557
0.000326748412102134
0.00021235805387557
3.96588257987485e-05
4.68724765223746e-05
0.000226372814428472
0.000346729652561618
0.000424144297247365
0.000474031989497409
0.000502532466203247
0.000512913181272406
0.000506605174924061
0.000482925920230403
0.000438371595810822
0.000364540410352996
0.000245491941433789
5.19837675289992e-05
0.000244289320548716
0.000374764591716535
0.000461499821263485
0.000520193939148887
0.000556994148579804
0.000575402817730031
0.000577533635871202
0.000563990466741399
0.000533663939345295
0.000483330775585898
0.000408372016960493
0.000324522392770679
5.67384314783727e-05
0.000260525151762907
0.000400261851383836
0.000495697525169892
0.000562751765772962
0.000607512739761631
0.000633541042183214
0.000643282492823624
0.000638032784352891
0.000617892594347839
0.000581788470518932
0.000527804005539962
0.000457100162714156
0.000392519517024315
6.10459458352033e-05
0.000274972223637668
0.00042307731703976
0.000526543593433566
0.000601457251370291
0.000653810967504535
0.000687128047724883
0.000703985394821881
0.000706026115568608
0.000693954153759529
0.000667667118152929
0.000626358880966406
0.00056910785026284
0.000501844012391299
0.000437892140028876
6.47997440418093e-05
0.000287496499682354
0.000443052836783341
0.000553842825973107
0.000636067762115594
0.000695604358292101
0.00073588914348762
0.000759517741017772
0.000768286239863191
0.000763194994688748
0.000744582248917725
0.000712239494426942
1.70377255004437e-08
2.72368901855518e-07
2.26938080008293e-07
1.33575348517991e-06
5.3237531717014e-06
1.06627816648857e-06
3.63671856094781e-06
2.09948317862691e-05
2.03066276939058e-05
2.86111513522951e-06
7.08932215758709e-06
4.25749873493079e-05
5.62265414505369e-05
4.11047500634184e-05
5.58830132835496e-06
1.15237228946078e-05
6.63157032570758e-05
9.39618150239267e-05
9.37458850670644e-05
6.42216111962713e-05
9.12443246657535e-06
1.68108089273615e-05
9.06676154773693e-05
0.000132531406343872
0.000143870128182556
0.000131928976357482
8.81660867358112e-05
1.33974143682892e-05
2.27485181156515e-05
0.000114942703645768
0.000171142654497974
0.000193688350601914
0.000193296169536953
0.000169994631271403
0.000112383041390486
1.83014433168753e-05
2.90552683735199e-05
0.000138932402317741
0.000209339001257852
0.000243198969594831
0.000252804077504567
0.000241958748048452
0.000207418058431401
0.000136412887322564
2.3617595055416e-05
2.91789614378997e-05
0.000159788993872091
0.000243747466749382
0.000289318255256838
0.000310212372549172
0.000311197617097386
0.00029198117270887
0.000247014166201241
0.000162431355724663
3.4917218639082e-05
3.48300863649325e-05
0.00018224957998018
0.000278612373118466
0.000334934144935064
0.00036559135775121
0.000376148953331289
0.000368206758773893
0.000339841355862205
0.000284193179416652
0.000185100787230859
3.87771821397151e-05
4.04571427308021e-05
0.000203556669806348
0.000311713044509145
0.000378425765884405
0.000418584502770288
0.000438133716335703
0.000439751911202946
0.000423606463462864
0.000386759563813317
0.000321132582998999
0.000207683907477312
3.79741182084766e-05
4.59610356978362e-05
0.000223538283158401
0.000342795863125918
0.000419464666219407
0.000468836177999218
0.000497001550568828
0.000507198399486
0.000500838883594666
0.000477233650571363
0.000432889019171679
0.000359449617933443
0.000241062412918336
5.12466909005006e-05
0.000242059933325693
0.000371656899774963
0.000457771618485007
0.000516012300691711
0.000552492940563863
0.000570694840777041
0.000572716133871147
0.000559151711631725
0.000528890811733449
0.000478718785131545
0.000404027904108386
0.000320622897340122
5.62237124210303e-05
0.00025900359962052
0.000398128182133245
0.000493111105303016
0.00055981457965661
0.000604308544210861
0.000630142702066538
0.000639753863053926
0.000634431327296993
0.000614272471838639
0.000578203188140256
0.000524309799608005
0.000453790862295935
0.000389475216003638
6.08058191612824e-05
0.000274260823380203
0.000422062211279497
0.000525280551534207
0.000599980625651939
0.00065215251217864
0.000685318930342395
0.000702055509793205
0.000704004305685886
0.000691869221876513
0.000665547085242529
0.000624224156620631
0.00056696019869072
0.000499799818174325
0.00043602592564855
6.4897743661812e-05
0.000287722588946836
0.000443320285369649
0.000554097614747877
0.000636275796209663
0.000695745525946566
0.000735951687380753
0.000759495779102286
0.000768179068469132
0.000763010123002156
0.000744345353815839
0.000712014174914617
0.000665329340932786
0.000605257074259906
0.00053879832417819
0.000469760863147983
6.83871313147026e-05
0.000299246763508499
0.000461747145199098
0.000579376426648608
0.000668470244667457
0.000734809947496667
0.000781738174336556
0.000811820053789145
0.000826904364779093
0.000828139066923525
0.000816097354877795
0.000790903918371727
1.39886766892499e-08
2.33444065382188e-07
1.92270174191786e-07
1.18157338746071e-06
4.72337532058028e-06
9.25357716521628e-07
3.28715410374695e-06
1.93734578492163e-05
1.8610660764526e-05
2.53362414859443e-06
6.4994527912647e-06
4.00605927826359e-05
5.30411212758757e-05
3.83690556875267e-05
5.04235864560658e-06
1.06746736899966e-05
6.30538058545097e-05
8.96806554687887e-05
8.93461966161762e-05
6.06830005613734e-05
8.36457410026503e-06
1.57167361858938e-05
8.68196537285983e-05
0.000127381098571664
0.000138319701091262
0.000126640071967467
8.40685809585236e-05
1.24436555492805e-05
2.13804715066578e-05
0.000110612435127215
0.000165338677263806
0.000187282561083007
0.0001868766825556
0.000164130034006051
0.000107940379341476
1.71874472921323e-05
2.7324311437838e-05
0.000134147723554798
0.000203038750312938
0.00023619514414442
0.000245619557505687
0.000235039594287783
0.000201273372161599
0.000131846745921965
2.2397753612037e-05
3.2825272862804e-05
0.000157201007395804
0.000240357455969202
0.000284620172007692
0.000303571342081101
0.000302677927481367
0.000282242525390098
0.000237586368754902
0.000155269456448893
2.79024093801312e-05
3.35500979864628e-05
0.000177921847494729
0.000272665776633675
0.000328004506570313
0.000358083281459213
0.00036837707688071
0.000360447430540054
0.000332369997242812
0.000277340792452557
0.000179458273569723
3.63497216321197e-05
3.92235457492216e-05
0.000199555030968227
0.000306182149969664
0.000371909762676765
0.000411432859111066
0.000430617695676381
0.000432098702043077
0.000416020708856939
0.000379443587422986
0.000314339318995297
0.00020191697477671
3.5942136342915e-05
4.48256589885291e-05
0.000219983082186187
0.000337861478386788
0.000413599861360835
0.000462332565416001
0.000490087431799657
0.000500062316778982
0.000493642954417262
0.000470126130176438
0.00042601950204213
0.000353007186044553
0.000235366406925016
5.02602749762646e-05
0.000239061950731019
0.000367480815202322
0.000452770653186715
0.000510416683507542
0.000546485621301341
0.000564427507680101
0.000566316984822605
0.000552733894869957
0.000522560457433703
0.000472584743431393
0.000398200415771503
0.000315286237429036
5.54344883181285e-05
0.000256664685672069
0.000394857879019964
0.000489166002985162
0.000555361287603131
0.000599481390418184
0.000625054931847257
0.000634501551051364
0.000629098087785624
0.000608934319801117
0.0005729331212233
0.000519183963816412
0.00044892635907008
0.000384960860142417
6.0259715715173e-05
0.00027267618170835
0.000419835011285938
0.000522568161689575
0.000596883774886891
0.000648754324766516
0.000681691879739139
0.000698262718589373
0.000700101351182871
0.000687906076684001
0.000661568955854488
0.00062027405497275
0.00056310015981236
0.000496130446838755
0.000432654526371363
6.46476102025618e-05
0.000286989186168384
0.000442270687539713
0.000552787149371955
0.000634737019316106
0.00069400872509421
0.000734046776864286
0.000757451472351115
0.000766022901285574
0.000760769050253643
0.000742044024111668
0.000709665970523335
0.000662916734112967
0.000602888377271356
0.000536528558033651
0.000467703413097778
6.84893198114751e-05
0.000299484030778009
0.000462029684529517
0.000579650755731096
0.00066870063725561
0.000734974197780744
0.000781822541242685
0.000811816827051425
0.000826811277733649
0.000827962590817195
0.000815863069311285
0.000790677115010286
0.000752189865468627
0.000700246392177722
0.000637510747864469
0.000568161405360373
0.000492431871125464
7.17089163135933e-05
0.00031002230732303
0.000478959564337224
0.000602982652845135
0.000698558688049119
0.000771386243751355
0.000824712897266996
0.00086104724797739
0.000882232537480009
0.000889474553670905
0.000883470579976489
0.000864527344931562
1.11760765489657e-08
1.95464158523999e-07
1.5886267613291e-07
1.02632912562542e-06
4.11077729636058e-06
7.87024739255555e-07
2.9311995609328e-06
1.76570810133491e-05
1.68279633948108e-05
2.20648390156239e-06
5.89469486011397e-06
3.73804333680168e-05
4.96315763153838e-05
3.54614848997379e-05
4.48651666349861e-06
9.79411319137423e-06
5.95658641243102e-05
8.50733978624538e-05
8.46054875491403e-05
5.68847151479233e-05
7.57702132988887e-06
1.4570529096459e-05
8.26775445317695e-05
0.000121808294680847
0.000132299654883167
0.000120894774661543
7.96290366521729e-05
1.14381767074114e-05
1.99879128348127e-05
0.000105977318143765
0.000159028168768501
0.000180279919841898
0.000179841971228947
0.000157697681722859
0.000103077582795435
1.59937741236889e-05
2.55675199841768e-05
0.000129007893687086
0.000196138762046061
0.00022846708521869
0.000237669005657983
0.000227369481740361
0.000194455655886404
0.000126774678034194
2.10702819487185e-05
3.05574182772728e-05
0.000151481632110931
0.000232972935261783
0.000276395366268328
0.000295023960417965
0.000294220558601223
0.00027429205299514
0.000230656834411258
0.000150190619298707
2.64896982573257e-05
3.38556542334736e-05
0.000173163650617686
0.000269580269162748
0.000323872699548671
0.000351606231253135
0.000359511925215133
0.000349511857864209
0.000320087518735964
0.00026586858514762
0.000172978071021549
3.21061372139142e-05
3.77988694692976e-05
0.000194885109886535
0.000299724271077454
0.00036430485683077
0.000403091695578107
0.000421857525497983
0.000423183616324984
0.000407186034683759
0.000370915548510544
0.000306389076467334
0.000195061804172955
3.32806281040719e-05
4.34740061228919e-05
0.000215711258565238
0.000331929754083141
0.000406553363418726
0.000454525048855622
0.000481794403909061
0.000491509367896063
0.000485021140103561
0.000461603662356716
0.000417751586410295
0.00034516666181389
0.000228246185292162
4.90312742988035e-05
0.000235300993358093
0.000362241701288712
0.000446502096002456
0.000503411890740799
0.000538976420243829
0.000556604195067425
0.000558338035157816
0.000544735289341927
0.00051466164414804
0.000464893025010864
0.000390803425794326
0.000308347395411516
5.43783059019753e-05
0.000253517864131882
0.000390461211606225
0.00048387181041119
0.000549399975051681
0.000593037694876183
0.000618282456547941
0.000627528395265898