/*--------------------------------*- C++ -*----------------------------------*\
  =========                 |
  \\      /  F ield         | OpenFOAM: The Open Source CFD Toolbox
   \\    /   O peration     | Website:  https://openfoam.org
    \\  /    A nd           | Version:  12
     \\/     M anipulation  |
\*---------------------------------------------------------------------------*/
/*   Windows 32 and 64 bit porting by blueCAPE: http://www.bluecape.com.pt   *\
|  Based on Windows porting (2.0.x v4) by Symscape: http://www.symscape.com   |
\*---------------------------------------------------------------------------*/
FoamFile
{
    format      ascii;
    class       volScalarField;
    location    "300";
    object      nut;
}
// * * * * * * * * * * * * * * * * * * * * * * * * * * * * * * * * * * * * * //

dimensions      [0 2 -1 0 0 0 0];

internalField   nonuniform List<scalar> 
10166
(
1.2317106441337e-08
1.24828715037909e-08
1.21379184828755e-07
1.91571974650374e-07
1.26116302550126e-08
1.2313152008156e-07
1.93873324896249e-07
4.95018300799669e-07
1.00772227147773e-05
8.40190866768418e-07
1.263531131953e-08
1.24646359064431e-07
1.95047595732767e-07
5.01566686773117e-07
1.02222703131454e-05
8.447653197836e-07
1.16711310287391e-06
3.72609815690764e-05
4.34841056522037e-05
2.09321720563552e-06
1.25590523064132e-08
1.24889844061817e-07
1.94643367049364e-07
5.05140096488415e-07
1.02691089978036e-05
8.44027597415089e-07
1.179266831764e-06
3.76068152600254e-05
4.37420958146099e-05
2.09652719756548e-06
2.03112080019953e-06
6.52046896668105e-05
0.000152340707165777
8.01117610295584e-05
3.75247468631293e-06
1.24049477546348e-08
1.24131889643064e-07
1.92871200102484e-07
5.03949878766072e-07
1.02403509874675e-05
8.37207969299063e-07
1.1829082551467e-06
3.76654983217587e-05
4.36068544172558e-05
2.08784206889867e-06
2.04653784228791e-06
6.55833886426025e-05
0.000153432350627849
8.01113742533354e-05
3.7553049704042e-06
3.02225338246736e-06
9.01864272603363e-05
0.000250304202393584
0.000270929226104945
0.000113066055212026
5.64892494386375e-06
1.21793413498182e-08
1.22616597967683e-07
1.89983763600441e-07
4.98968160489028e-07
1.01533258473047e-05
8.2511808836765e-07
1.17725410876018e-06
3.75145093011414e-05
4.32672152680938e-05
2.06646328532251e-06
2.04750043689622e-06
6.55904485505212e-05
0.000153287595184291
7.97391782379918e-05
3.73732889566387e-06
3.03839863906568e-06
9.05192276984119e-05
0.000251701398157193
0.000271418963435741
0.000112938063206885
5.65273330344287e-06
4.11572395092869e-06
0.000112460254630073
0.000330135694105477
0.000460344618075593
0.000368889653800134
0.000141106269880392
7.74665034763007e-06
1.18788715151913e-08
1.20481600673752e-07
1.86079534427223e-07
4.90877029975365e-07
1.00151689918014e-05
8.08579058412063e-07
1.16349553083869e-06
3.71956867566818e-05
4.27684986712258e-05
2.03336971858485e-06
2.03416400418229e-06
6.5315263750551e-05
0.000152564114871096
7.90996566495524e-05
3.69803213390462e-06
3.03429880840309e-06
9.04486204790055e-05
0.000251591394938337
0.00027081917344127
0.000112463955745059
5.62608835840422e-06
4.13137699255889e-06
0.000112727347839185
0.000331322617160559
0.000461366929353551
0.000368882482439308
0.000140973579952187
7.75318327055518e-06
5.27125311796901e-06
0.000132606058120008
0.000396756381734383
0.000618842116707897
0.000644730602220641
0.000447033681328267
0.000165535651033997
1.00426122297679e-05
1.14953640790973e-08
1.17709698712997e-07
1.81158772980545e-07
4.79941483467562e-07
9.83250716946355e-06
7.88029332285478e-07
1.14238428048222e-06
3.67274234768729e-05
4.21258996966648e-05
1.98976240779688e-06
2.00783562306165e-06
6.47938887499508e-05
0.000151403081167484
7.82252163991515e-05
3.63855613243811e-06
3.01065587103203e-06
9.00476437647203e-05
0.000250687396512502
0.000269495391715597
0.000111657803402969
5.5681811063244e-06
4.12073997188795e-06
0.000112573308221732
0.000331084928241651
0.000460800112542729
0.000367988041221305
0.000140475039260486
7.71717921307756e-06
5.28583571439873e-06
0.000132812918277064
0.000397627720779173
0.000619922286023689
0.000645174493858801
0.000446929145140351
0.000165459628795749
1.00519531650092e-05
6.44736261988764e-06
0.000150877454686909
0.000453444537560632
0.000749512713375763
0.000889774235071447
0.000794909485110946
0.000511420966608994
0.000187197250610892
1.23966587042201e-05
1.10182722300487e-08
1.14178269923445e-07
1.75169470447239e-07
4.66063635271779e-07
9.60651479852599e-06
7.63639703143254e-07
1.11428077637052e-06
3.61190633558875e-05
4.13469339026674e-05
1.9363879654299e-06
1.969371715338e-06
6.40418070222327e-05
0.000149847218397769
7.71257168047322e-05
3.56011977996869e-06
2.96895948166967e-06
8.9343509967047e-05
0.000249138889148394
0.000267552225772952
0.000110539360005469
5.479868212025e-06
4.0852951958593e-06
0.000112049028822564
0.000329948458075433
0.000459127407007729
0.000366280255116199
0.000139578389303037
7.63803967183852e-06
5.26803157364369e-06
0.00013257873073196
0.000397201320873143
0.000619251640178003
0.000644131948359202
0.000445923793407736
0.000164949126549914
1.00033190461847e-05
6.46140014144133e-06
0.000151041605970912
0.000454038398879558
0.000750430223074059
0.000890461619100386
0.000795161298474115
0.000511398060357727
0.000187190342785288
1.24079646416867e-05
7.61248367367221e-06
0.000167445840557501
0.000502439446473021
0.000858362782784815
0.00109652790013154
0.00112045175035988
0.000917840380972074
0.00056656954416841
0.00020552598703921
1.42580900615456e-05
1.04412597069057e-08
1.68028608233585e-07
1.09801754814726e-07
4.4917759369879e-07
9.33483638655672e-06
7.35472401100713e-07
1.0793569174838e-06
3.5370693263874e-05
4.04385710389384e-05
1.87374616802802e-06
1.91915567587903e-06
6.30649041504825e-05
0.000147913955053017
7.58088010261993e-05
3.46383360831378e-06
2.90991174295351e-06
8.83465363932699e-05
0.00024699132284579
0.000265024448971314
0.000109115260707663
5.36243221709574e-06
4.02641192397547e-06
0.000111174607496678
0.000328026554201763
0.00045648705934603
0.000363806200400998
0.000138293210764024
7.51604992535276e-06
5.21999784711921e-06
0.000131942311977292
0.000395808368718369
0.000617227989506382
0.000641794559723905
0.000443992152091592
0.000163970807933397
9.89660875209325e-06
6.43708012384952e-06
0.000150737144510055
0.000453420105563874
0.000749546672937279
0.000889258235876117
0.000793831729321303
0.000510351499396307
0.000186660404385131
1.23429656485978e-05
7.62694977029946e-06
0.000167589871995738
0.000502871790416674
0.000859088712526315
0.00109725676437238
0.00112096378933883
0.000918120810024991
0.000566681965641292
0.0002055937003733
1.42668525037136e-05
8.74993867054745e-06
0.000182443820953485
0.000545344037267808
0.000950528747468653
0.00126969032311799
0.00140441723869291
0.00131316594592752
0.00102228003740304
0.000614554679751095
0.000218239428494157
1.4165763262183e-05
9.76242890743217e-09
1.59681044992234e-07
1.04504335201779e-07
7.03553400288863e-07
9.01388447469903e-06
4.29199749026798e-07
1.03750701892487e-06
3.44783942958506e-05
3.94061089028245e-05
1.80222880923006e-06
1.85734055786624e-06
6.18618929734176e-05
0.000145611309687621
7.42884576766109e-05
3.35066445763277e-06
2.83397599573181e-06
8.70588886630361e-05
0.00024425895386299
0.0002619312519439
0.000107399581026881
5.21717945837957e-06
3.94465563798776e-06
0.000109956263172308
0.000325351902327021
0.000452927612581351
0.000360587106577162
0.000136627074235339
7.35227241329194e-06
5.14334004122245e-06
0.000130917356957716
0.000393524761845399
0.000613970700635334
0.000638238799056222
0.000441151148969793
0.000162526724734865
9.73175619080272e-06
6.37717154810779e-06
0.000150002559300141
0.000451787951349481
0.000747141161806903
0.000886365951766244
0.000791013716590995
0.000508244700080386
0.000185581594534631
1.22021897935747e-05
7.59680034816807e-06
0.000167235698833587
0.000502100859217295
0.000857965906185298
0.00109581741174343
0.00111934373849619
0.000916630570403483
0.000565604276405625
0.000205042927765304
1.4183405606123e-05
8.76451648727237e-06
0.000182579867635461
0.000545698552306001
0.000951111108048063
0.00127037402785888
0.00140503747147212
0.00131367024320397
0.00102266682932833
0.0006148006352128
0.000218355002278214
1.41635689860929e-05
9.84832896340891e-06
0.000196008821052915
0.000583228935652666
0.00102969311373066
0.00141578147919342
0.00164644799134396
0.00166850267706623
0.00147801633106091
0.00111561699352614
0.000657132184637982
0.000222428097293964
8.75783335363159e-06
8.98688313346118e-09
1.50105607253806e-07
9.82576860563506e-08
6.67899126174269e-07
8.64086077438187e-06
4.06099768502046e-07
1.72233697493571e-06
3.82528919803989e-05
3.34369920632612e-05
9.88805273677679e-07
1.7840909324373e-06
6.04265722441918e-05
0.000142941517746766
7.25775576951905e-05
3.22151996887417e-06
2.74158169266624e-06
8.54774302922989e-05
0.00024094065005251
0.000258289836259372
0.000105408917030272
5.04553740394771e-06
3.84072469337168e-06
0.000108394219968906
0.000321930095082129
0.000448467790104961
0.000356644215925323
0.000134593760703287
7.14822529892713e-06
5.03880867565255e-06
0.000129506885830621
0.000390369716441011
0.000609520287856697
0.000633497373010978
0.000437414793411446
0.000160623260906229
9.50904949359858e-06
6.28335236514194e-06
0.000148849040945957
0.000449188417868615
0.000743300463213778
0.000881862952629635
0.000786748950811433
0.000505083851760731
0.000183953848551577
1.19848472952002e-05
7.52550663345824e-06
0.000166421539449292
0.000500265046504081
0.000855191936722496
0.00109238295358609
0.00111572584032165
0.000913440720446175
0.000563314412268605
0.000203854347818029
1.40070574320269e-05
8.72898168309174e-06
0.000182187670908686
0.00054481544253148
0.000949771682034058
0.00126866323117328
0.00140309587591636
0.00131175153338811
0.00102105497097053
0.000613678191604396
0.000217754940133652
1.40704916008724e-05
9.86365203400558e-06
0.000196140072219915
0.000583545585949777
0.00103018730436054
0.00141639716311187
0.00164708387430617
0.00166909975250042
0.00147857178449386
0.00111610947817383
0.000657466337136019
0.000222365736843381
8.75033762950984e-06
1.09065426112171e-05
0.000208296909655492
0.000616875057236238
0.00109846663215146
0.00154030212985104
0.00185204292905146
0.00197728963744872
0.00189699228758057
0.00162604022580327
0.00120652825333307
0.000703281799239578
0.000230722801239661
8.13603715035923e-09
1.39336059277354e-07
9.10871574081544e-08
6.28512137866044e-07
8.21369059208766e-06
3.79997538985512e-07
1.63444491089968e-06
3.69802224581533e-05
3.22408473853815e-05
9.33504327207369e-07
3.07757653277708e-06
7.06907681807332e-05
0.000139902954110277
5.87524334029297e-05
1.699742529102e-06
2.6331425572994e-06
8.35957212218702e-05
0.000237025804980587
0.000254114379587291
0.000103157757824088
4.8493857980022e-06
3.71534674150378e-06
0.00010648473752865
0.000317752396605431
0.000443112819557912
0.000351999674002761
0.0001322101129468
6.90588234165183e-06
4.90717223093116e-06
0.000127710308698477
0.000386341804815794
0.000603885265991866
0.000627588194051672
0.00043280264956849
0.000158276960311539
9.22917413748797e-06
6.15651725728461e-06
0.000147278032937752
0.000445630744755404
0.000738050203227977
0.000875778260248087
0.0007810565883337
0.000500874641895575
0.000181774304842313
1.16895695995774e-05
7.41519912664721e-06
0.000165157888181042
0.000497397458065269
0.000850827457300257
0.00108701740124489
0.0011101606012276
0.000908577495096529
0.000559811417918748
0.000202029370299849
1.37357313067095e-05
8.64701223360656e-06
0.000181306680047348
0.000542812606704077
0.00094666938953541
0.00126471091849444
0.00139872657174365
0.00130752708377777
0.0010175149924408
0.000611178597632189
0.000216440089254246
1.38789957233974e-05
9.82351268646714e-06
0.000195717943546983
0.000582579107761166
0.0010286722385708
0.00141442116282531
0.00164479919783177
0.00166673441599193
0.00147639812050714
0.00111435600130176
0.000656244044755047
0.000221563961288548
8.69325896757837e-06
1.09226894743411e-05
0.00020842835219633
0.000617172187429528
0.00109891264154552
0.00154085928378135
0.00185265122422949
0.00197789723989285
0.0018975892203688
0.00162663344705176
0.00120707109772103
0.000703389463974893
0.000230252466481239
1.19223960976753e-05
0.000219467882642586
0.000646910355744679
0.00115875463853065
0.00164749532529713
0.00202735611578576
0.00224240184057011
0.00226688053949092
0.00210149588143179
0.00176959908206188
0.00131270503648787
0.000799939603327983
7.23920476214922e-09
1.27574252149677e-07
8.31473929719517e-08
5.85547598509628e-07
7.73125238583257e-06
3.51093811715914e-07
1.53899571727962e-06
3.5582984784019e-05
3.08850269810733e-05
8.72037305681174e-07
2.92006356312253e-06
6.86326892932116e-05
0.000136488945639135
5.68334280489046e-05
1.60489575736308e-06
4.63117346519265e-06
0.000100666453407251
0.000249417832452849
0.000232499804167393
8.14069024556662e-05
2.50930070703722e-06
3.56917249515124e-06
0.000104221442495738
0.000312801335064481
0.000436859584828572
0.000346674521667489
0.000129502861249647
6.62855868146615e-06
4.74933103863678e-06
0.00012552407287353
0.000381427602160754
0.000597057487846447
0.000620522125732807
0.000427338905651048
0.000155506307790999
8.8947616660726e-06
5.99740431806443e-06
0.000145287905606512
0.000441108906092675
0.000731388072497287
0.000868118021608712
0.000773950980519912
0.00049563279304519
0.000179049633842296
1.13143704579061e-05
7.26691515431524e-06
0.000163445914284209
0.000493501337402708
0.000844885064146295
0.00107973868393793
0.00110266424166974
0.000902048249423644
0.000555087511512699
0.000199546945997709
1.33648806129435e-05
8.52094216241659e-06
0.000179948347716143
0.000539717474970353
0.000941850030152309
0.00125856761826707
0.00139197417262468
0.00130103209501271
0.00101206272698102
0.000607296151953288
0.000214403396562562
1.35853524676204e-05
9.73174455883797e-06
0.000194781052001916
0.000580439541546983
0.0010252921945435
0.00140999879821797
0.0016397267622539
0.00166152959481714
0.00147160565282941
0.00111042917542108
0.000653474989216359
0.000219994636893032
8.57077030964424e-06
1.08783714990863e-05
0.000207982765486618
0.000616142383009675
0.00109726059792437
0.00153865034902155
0.00185003241170009
0.00197508036069655
0.00189483038358105
0.00162417985482184
0.0012050998952024
0.000701842883372269
0.000229111521657927
1.19395423384911e-05
0.000219601506649585
0.00064719990949839
0.00115917757748439
0.00164801506163152
0.00202792744329546
0.00224298116881871
0.00226744929421319
0.00210206128108261
0.00177016149062109
0.00131306259668254
0.000799327052841834
0.000599867228689269
1.2893497611417e-05
0.000229652517470252
0.000673851859265102
0.00121199420104486
0.00174060343117552
0.00217780146335129
0.00246951390566236
0.00258763656447607
0.00252526737940393
0.00229457262139515
0.00192565222601388
0.0014735396556014
6.32680807898358e-09
1.15110877285694e-07
7.46498596909929e-08
5.39486850091185e-07
7.19672842342667e-06
3.19946865854115e-07
1.43650252035944e-06
3.40538494854562e-05
2.93663307159352e-05
8.05164194124066e-07
2.75082052070207e-06
6.64009562450045e-05
0.000132684364948546
5.46641929143115e-05
1.50044745450584e-06
4.39319913364775e-06
9.79447425340496e-05
0.000244199780927121
0.000227344765962021
7.89053633174981e-05
2.3710387376122e-06
6.32169683784165e-06
0.00012650372350116
0.000340691691314572
0.00042969966971341
0.000307055639105034
0.000101597803711866
3.40321246164018e-06
4.56609505255835e-06
0.000122941911156404
0.000375606005569901
0.000589018188884035
0.000612305776094806
0.000421057128912417
0.000152341975825338
8.51102279547334e-06
5.80713748317758e-06
0.000142874782480867
0.000435607273014136
0.000723295207496931
0.000858876100999484
0.000765445165056742
0.000489383215832723
0.000175802931179804
1.08620512309407e-05
7.08150106948757e-06
0.000161283352009367
0.000488567571549605
0.00083735377216665
0.0010705397133834
0.00109323725791765
0.000893857068167486
0.00054914156612755
0.000196378204907409
1.28871408178377e-05
8.35169917970744e-06
0.000178113762986936
0.000535530928321465
0.000935317678742612
0.00125024001204582
0.00138284485232132
0.00129226918160719
0.00100468822489743
0.000601992380464341
0.000211585075805546
1.3183427293215e-05
9.59091575407657e-06
0.000193340990374287
0.000577152804271916
0.00102008600749126
0.00140317210873526
0.00163190302960127
0.00165351503569749
0.00146421518588516
0.00110433054237759
0.000649136904538321
0.000217637473290148
8.377728537206e-06
1.07776324251391e-05
0.000206998634680496
0.000613890769862197
0.00109365054098403
0.0015338202414448
0.00184432283425474
0.00196896347234924
0.00188882981008492
0.00161878166425652
0.00120069130626282
0.000698583422862939
0.000227074640723861
1.18913979001542e-05
0.000219137035858367
0.000646121855394565
0.00115742004180696
0.0016456140095431
0.0020250086532988
0.00223973623979363
0.00226411351412087
0.00209887934835321
0.00176733927815122
0.00131066043268432
0.000797115256950549
0.000597425646564322
1.29118629386178e-05
0.000229789939882076
0.00067414098904031
0.00121241059763668
0.00174110649066079
0.00217834590013027
0.00247005724468867
0.00258815254732562
0.00252575126759826
0.00229503152130766
0.00192602422228152
0.00147330235961193
0.00113814450380493
0.00101424604196641
1.38167336670785e-05
0.000238952681157401
0.000698110990089532
0.00125929260933046
0.00182211060608736
0.00230783418997474
0.00266457133954411
0.00286399333906254
0.00289534414291569
0.00276348565679286
0.00248976919117681
0.00211719123012137
5.4283447130808e-09
1.02253304415469e-07
6.58349772525469e-08
4.90963202598143e-07
6.61635816886022e-06
2.87233289828525e-07
1.32780959356079e-06
3.23849515746335e-05
2.76877278349411e-05
7.33912306900934e-07
2.57046198362094e-06
6.39895730500411e-05
0.000128472546212616
5.2242830398687e-05
1.38764396952064e-06
4.13772009284891e-06
9.49995513439268e-05
0.000238444245244671
0.000221539366398339
7.60869559605622e-05
2.21976822894823e-06
5.98993304520126e-06
0.000123226084951054
0.000334056356617145
0.000421615755274827
0.00030049286861535
9.86098792633899e-05
3.2187070694929e-06
8.0905390249974e-06
0.00014883709402679
0.000413997956579269
0.000602942312815654
0.000579741410298071
0.000368852341791367
0.000119957286638118
4.35866932737768e-06
5.58686041417231e-06
0.000140032220368572
0.000429103036844836
0.000713741172743288
0.000848037800271415
0.000755556007746774
0.000482169378220123
0.000172070946814808
1.03401256107115e-05
6.86019026661299e-06
0.000158666350887869
0.000482578901042689
0.000828207183214815
0.00105939782536121
0.0010818725461606
0.000884014799662545
0.000541995527702093
0.000192538794054918
1.23048211354127e-05
8.14053467743237e-06
0.000175800513958832
0.000530242249727594
0.00092705515515679
0.00123970931206604
0.00137132301548463
0.00128122688939412
0.000995375333530197
0.000595220459136607
0.000207916714257078
1.26528472009059e-05
9.40248613396963e-06
0.000191399079537385
0.00057271879710985
0.00101305312733103
0.00139393923347854
0.00162132292331761
0.00164268159029844
0.00145420886338509
0.00109601686451043
0.000643138205925651
0.000214364644281366
8.11430085038272e-06
1.06232253540327e-05
0.000205488072915861
0.000610442595331473
0.00108811902030761
0.00152640693557802
0.00183555337655134
0.00195956768409455
0.00187959930666192
0.00161043779687517
0.00119381868381966
0.000693533634640702
0.000224086576296952
1.17823582481952e-05
0.000218113106974364
0.000643778185195684
0.00115362137750585
0.00164044058545746
0.00201874238304129
0.00223279670331183
0.00225698751451829
0.0020920500541356
0.00176122455542662
0.00130554248246331
0.000792914287564396
0.000593756731642935
1.28602950754939e-05
0.000229310326173672
0.000673026000708264
0.0012105726353651
0.00173855282772365
0.00217517380137205
0.00246643151613152
0.00258428246723317
0.00252186489230854
0.00229133921808395
0.00192264920894439
0.00147014675063474
0.00113470241750994
0.00101246351407479
1.38366713485583e-05
0.000239094792307953
0.000698404569587138
0.00125971346785181
0.00182261419308647
0.00230836920570801
0.00266509021380198
0.00286446110167758
0.00289574197706814
0.00276381053007271
0.00249000723383611
0.0021170829642311
0.00175089008443668
0.0014935026960533
0.00130201506242686
1.46875365665827e-05
0.000247442897421755
0.000720009044193973
0.00130150888449059
0.00189393076565089
0.00242101576895702
0.00283291947219679
0.00310202020987335
0.00321584143669481
0.00317452721165694
0.00299197794159248
0.0026998115544179
4.56589497177789e-09
8.93208249279926e-08
5.6963556458892e-08
4.40778264147833e-07
5.99811436326955e-06
2.53709914079045e-07
1.21417047187122e-06
3.05691490335495e-05
2.58562479570663e-05
6.59673075134853e-07
2.37985209617933e-06
6.13819004883226e-05
0.000123832456948336
4.95721166714074e-05
1.26825061860884e-06
3.86709080125971e-06
9.18271125405367e-05
0.000232141636073076
0.000215063712507019
7.29501541731309e-05
2.05732348598191e-06
5.63790820502227e-06
0.000119674672553307
0.000326741177154063
0.000412583615744059
0.000293088771090098
9.525470142002e-05
3.01761973416733e-06
7.64231739205866e-06
0.000145020137176698
0.000406183131053531
0.000592423522363135
0.000569194428617225
0.000361144157066257
0.000116563472925178
4.12835539865936e-06
9.7762100313598e-06
0.000167961536023075
0.000474062237422217
0.000744304295494063
0.000835582265326109
0.000702686390386365
0.000421568844972659
0.000136751898741224
5.33784038140849e-06
6.60416163033574e-06
0.000155588716412722
0.000475511127536407
0.000817407029359331
0.00104627881607748
0.00106856017247977
0.000872547750553417
0.00053370916745131
0.000188099180776502
1.16222274535847e-05
7.88958732354636e-06
0.000173004809116131
0.000523833391629371
0.000917030913638282
0.00122693910218474
0.00135737943270802
0.00126789055776582
0.000984122947531753
0.000586985278448828
0.000203377084864484
1.20065411598037e-05
9.16773914137489e-06
0.000188953488955089
0.000567126065554347
0.00100417245525724
0.00138227225972466
0.00160795569418801
0.00162899838148783
0.00144155133665405
0.00108542784061377
0.000635367143926759
0.000210060599690227
7.74864809338347e-06
1.04166446260188e-05
0.000203453164726888
0.000605797701246497
0.00108066345005053
0.00151640311860366
0.00182370969916469
0.00194687050791712
0.00186710594418241
0.00159909409591718
0.00118438011126746
0.000686508954708922
0.000219990391168068
1.16152867673136e-05
0.000216542094206135
0.000640194011195029
0.0011478175962343
0.00163253174184909
0.0020091569027625
0.00222217738888048
0.00224607158665931
0.00208155784682874
0.00175177901632537
0.00129761259989303
0.000786520165463188
0.000588057347455659
1.27436016881282e-05
0.0002282525063723
0.000670606688453358
0.00120662005655347
0.00173309556026383
0.00216843524486664
0.00245877408842574
0.00257614524959021
0.00251370559516698
0.00228357708758658
0.00191560856654154
0.0014639339022789
0.00112905502181512
0.00100781555698789
1.37822801046116e-05
0.000238602856814024
0.000697261561807365
0.0012578147744984
0.0018199424300348
0.00230499245084682
0.00266114323272227
0.00286012347029752
0.00289121667764645
0.00275929696070846
0.0024856529572201
0.00211290989972458
0.00174668689377012
0.00148991440114807
0.00129972927719859
1.47097662566598e-05
0.000247590851097426
0.000720310243253375
0.00130194153067034
0.0018944480477095
0.00242155944865868
0.00283343407792078
0.00310246090223006
0.0032161756215224
0.00317473735425908
0.00299205740507672
0.00269959830763873
0.00235962134940172
0.00204796358417641
0.00178413749104503
0.00149082763955695
1.55006179031471e-05
0.000255175552951978
0.00073979663981959
0.0013393121526039
0.00195754745854423
0.00252015598185642
0.00297905111096458
0.00330764396097968
0.00349290379078951
0.00353207589883099
0.0034333377076924
0.00321860058602942
3.74911539686561e-09
7.65256425337527e-08
4.82570949180144e-08
3.89752173587844e-07
5.3509311439241e-06
2.20146730476007e-07
1.09711081725229e-06
2.85982708513559e-05
2.38833084655513e-05
5.8410780305923e-07
2.18132522308968e-06
5.85686864516471e-05
0.000118738626387859
4.66595115068299e-05
1.1442992149679e-06
3.58185149418877e-06
8.83995151327507e-05
0.000225256901469105
0.000207896515969586
6.94989969713153e-05
1.88596694601672e-06
5.27087145180402e-06
0.000115871667395605
0.000318756908794776
0.000402580674571998
0.000284818420360654
9.15311047273374e-05
2.80278522289791e-06
7.18001818667389e-06
0.000140913735702144
0.00039762406658452
0.000580729604551706
0.000557340373956792
0.000352454743179793
0.000112753772631711
3.87706036615924e-06
9.18102436756905e-06
0.000163523207012101
0.000465112232613336
0.000731701237489289
0.000821481013681121
0.000690080949211282
0.000412973382444724
0.000133022887214824
5.06213197810193e-06
1.08970578633244e-05
0.000183258685655944
0.000524414651045875
0.000859502010094711
0.00105328963242885
0.00103113955560155
0.000804905425721549
0.000467332296332326
0.000152043281816209
6.31525044642417e-06
7.59965789921077e-06
0.000169720255678223
0.000516279707086155
0.000905201425188167
0.00121187935200708
0.00134097629230529
0.00125225185563876
0.00097096518640447
0.000577378876835197
0.000198058374647202
1.12134658653044e-05
8.88822335200439e-06
0.000186001043497538
0.000560355964430512
0.000993408928301475
0.0013681244105995
0.00159175232018371
0.00161242266884476
0.00142620798604658
0.00107253026685933
0.000625777838602087
0.000204626465522364
7.3153012713398e-06
1.01592972957176e-05
0.000200892109583889
0.000599944602736491
0.00107126055532199
0.00150377436748601
0.00180874863286115
0.00193082219314793
0.00185129120989239
0.00158466888356966
0.00117223982523889
0.000677314570412424
0.000214694486231884
1.13917006031353e-05
0.000214426042164828
0.00063536943276472
0.00114000530307957
0.00162187717936001
0.00199623137280646
0.002207844665287
0.00223131666223557
0.00206733040747603
0.00173888602552424
0.00128666839292619
0.000777658131507128
0.000580055959090113
1.25646942761169e-05
0.000226628942235158
0.000666907970325188
0.00120058891416141
0.00172477198413791
0.00215815805979241
0.00244709667131002
0.00256373314031742
0.0025012432010219
0.00227168737825519
0.00190479499279985
0.00145443022673497
0.00112048321939332
0.00100004107304157
1.36584660476373e-05
0.000237515989180087
0.000694779877014127
0.00125373689444905
0.00181425298674375
0.00229786138668109
0.00265287645222603
0.00285110738891362
0.0028818696089939
0.00275002086866599
0.0024767821807186
0.00210465084682804
0.0017390092211552
0.00148311238533527
0.00129491039583716
1.4653106392257e-05
0.00024708948563246
0.000719146311172095
0.00129999747797154
0.00189168670356711
0.00241802266738409
0.00282922719880572
0.00309773305007017
0.00321110109741546
0.00316949501281021
0.0029867964767773
0.00269440697257114
0.0023545228905005
0.00204312104611785
0.00178015064704234
0.00148872545148366
1.55237991721326e-05
0.000255329792597738
0.000740105822392747
0.00133976065532857
0.00195808748570004
0.00252072365159258
0.00297958295115629
0.00330808527431252
0.00349320928654835
0.00353221341055493
0.00343329312436671
0.00321822401356006
0.00292737159985877
0.00261373332388929
0.00230970567442737
0.00199294556038873
0.00161402842000153
1.62535019073026e-05
0.0002621870530075
0.000757662705251743
0.00137322635364637
0.00201411793189029
0.0026074626031846
0.00310661840570825
0.00348607058228872
0.00373284163112327
0.00384249988378333
0.003819193367001
0.00367748635228892
2.9964225658913e-09
6.40229398528318e-08
3.98571460782654e-08
3.38307380921306e-07
4.68200599843972e-06
1.87161481474496e-07
9.77772302364366e-07
2.64599651482306e-05
2.17783001441331e-05
5.085558690337e-07
1.97752392960589e-06
5.55280693261847e-05
0.000113157914429472
4.35177300076469e-05
1.01803278252877e-06
3.28573336041855e-06
8.47233274212078e-05
0.000217746874261867
0.000200011873481225
6.57412325742138e-05
1.7083191117813e-06
4.88735228306015e-06
0.000111758382550528
0.000310063007563166
0.000391564159104703
0.00027566322732149
8.74439045411052e-05
2.5762784547167e-06
6.71505019209958e-06
0.000136601050825378
0.000388344998615995
0.000567838006389603
0.000544136074021146
0.000342755872311623
0.000108528842529329
3.60778505845346e-06
8.5879845082499e-06
0.000158863390836278
0.000455380833608636
0.000717750364364891
0.000805698666137455
0.000675874112789442
0.000403275075031624
0.000128833607857731
4.76210329247068e-06
1.01213899618699e-05
0.000178076309471459
0.000514205074966226
0.000844919413684273
0.00103604382388315
0.00101392818010575
0.000790646959842841
0.000458005463434447
0.000148022617936581
5.9954931574227e-06
1.0405603516919e-05
0.000192289227656164
0.00056662598683699
0.000955986043454898
0.00123431278538552
0.00132206983842657
0.00119446897063157
0.000891512840123501
0.000507551058354692
0.000165940149587128
7.27259414505198e-06
8.56539602585867e-06
0.0001825346293663
0.000552383193816357
0.000980715658229305
0.00135143355493584
0.00157265032766451
0.00159290818535527
0.00140816299088471
0.00105735880181241
0.000614480789954067
0.00019806713814474
6.7304845753837e-06
9.85298237453227e-06
0.000197800968096765
0.000592864368817651
0.00105987259310345
0.00148846619384711
0.00179060515088317
0.00191135426684708
0.00183208524992865
0.00156708290245166
0.00115729337008352
0.000665790521814149
0.000207926139469181
1.11131152310108e-05
0.000211763012460242
0.000629292747139498
0.00113015993099428
0.0016084380542602
0.00197991319081097
0.00218973309993205
0.0022126421840014
0.00204926031994175
0.00172238247571073
0.00127245683727512
0.000766023867506026
0.000569320928674273
1.23253160717161e-05
0.000224441542608686
0.000661929741028262
0.00119247538109542
0.00171357013586212
0.00214431723945581
0.00243135764967459
0.00254698423685738
0.00248438768864598
0.00225553385663981
0.00188998777000833
0.0014412903454932
0.00110849115220922
0.000988952030698199
1.34683865269317e-05
0.000235846436039909
0.000690984076728549
0.00124751588056969
0.00180558385875939
0.00228700449545382
0.00264030082091853
0.00283740127596308
0.00286766169963955
0.00273590884501269
0.00246327141364334
0.00209208213664527
0.00172737936537027