/*--------------------------------*- C++ -*----------------------------------*\
  =========                 |
  \\      /  F ield         | OpenFOAM: The Open Source CFD Toolbox
   \\    /   O peration     | Website:  https://openfoam.org
    \\  /    A nd           | Version:  12
     \\/     M anipulation  |
\*---------------------------------------------------------------------------*/
/*   Windows 32 and 64 bit porting by blueCAPE: http://www.bluecape.com.pt   *\
|  Based on Windows porting (2.0.x v4) by Symscape: http://www.symscape.com   |
\*---------------------------------------------------------------------------*/
FoamFile
{
    format      ascii;
    class       volScalarField;
    location    "300";
    object      omega;
}
// * * * * * * * * * * * * * * * * * * * * * * * * * * * * * * * * * * * * * //

dimensions      [0 0 -1 0 0 0 0];

internalField   nonuniform List<scalar> 
10166
(
3.73734663854203
3.73734487653419
3.98682949425404
3.04792891992872
3.73734683985718
3.98682922048463
3.04791082376153
4.20371023785781
0.917983068452172
3.02836587028651
3.73733350554384
3.9868310714185
3.04789451541668
4.20371440953088
0.915063687575966
3.02834897772128
4.33730282406928
0.827612366580075
0.725405267483351
2.99244062338665
3.73731582805764
3.98681553151847
3.04791604242378
4.20373449479993
0.915285812497453
3.02833405453493
4.33731369687676
0.825601746080355
0.72426258488206
2.99244098282366
4.40627449819359
0.873255340349227
0.493776511518941
0.728254720292077
2.97494712016125
3.73728289906442
3.98678993735601
3.04791966218962
4.20369924479019
0.915284351938299
3.02835995272
4.33733144049942
0.824932685968781
0.725413846300541
2.99244628363054
4.40628319129144
0.871997757304924
0.491619397958191
0.729224606358442
2.97495194081776
4.43508113476163
0.92118674491374
0.469980149055295
0.434777987741789
0.754154796293928
2.97384340207409
3.73722973675161
3.98675821574082
3.04792864474771
4.20365931556736
0.914798550107268
3.02837681923328
4.33729921483224
0.824040060329264
0.726181942011291
2.99246712372956
4.40627808919517
0.871207237250164
0.491172487141723
0.730290135195325
2.97496779298961
4.43508034783237
0.920512512279947
0.468280465359142
0.434530616579135
0.755427334221114
2.97385749258504
4.43972761467074
0.96125884481128
0.4784031257109
0.372678115262505
0.430210650243749
0.786548570548095
2.97198827619854
3.73714603665576
3.98672889006615
3.04794660801047
4.20366553265275
0.914090079224823
3.02840461655663
4.33726426478276
0.822705057473395
0.726298637265603
2.9925068648141
4.4062724193371
0.869989119597819
0.490567367699421
0.730816999956641
2.97501011985772
4.43507820588433
0.91977183710674
0.467540650492935
0.434399477619862
0.756031493395824
2.97389376417328
4.43972507770049
0.960974840677799
0.477365943057003
0.372230295442878
0.430518293859492
0.787599246970645
2.97201671733868
4.43311312448366
0.994380989593332
0.493780949384148
0.358600996518009
0.345151223475577
0.442287544443881
0.818241710926478
2.96211923553839
3.73702837175999
3.98662541825878
3.04797919623742
4.20368342545717
0.913142923745799
3.02845535891562
4.33728853117834
0.820932616795192
0.725837789003797
2.99257627570269
4.40626316854833
0.868239140919283
0.489511765601949
0.730692915854342
2.97509421576225
4.43507132474127
0.918482787403342
0.466577349911623
0.433916584111965
0.756051383347396
2.973976907398
4.4397224556938
0.960292563312444
0.476660327864874
0.371795799305618
0.430405748158063
0.787783745708858
2.97208677819551
4.4331099421991
0.994334439942538
0.493231982842714
0.358261747504129
0.345127114424577
0.442604549194823
0.818953022887427
2.96216591996503
4.42457580373805
1.02223868320815
0.510592605566017
0.35926762782903
0.316204392750862
0.341210361682028
0.459265531170535
0.848479947229895
2.95324762954746
3.73686974768893
3.98648889005166
3.04802171258283
4.20358970897507
0.911919139099672
3.0285334679832
4.33730945120029
0.818717843673368
0.724844516045622
2.99269303300306
4.40627327865508
0.865954598092248
0.487952365966011
0.729949077357812
2.97524429128111
4.43507256411048
0.916596384722133
0.465191605215593
0.432966944480942
0.755443016566135
2.97414289477697
4.43971682832276
0.958988992258033
0.475630137831079
0.371047293564244
0.429843873217182
0.787377189254251
2.97224164973474
4.43310677909879
0.993700118332531
0.492607161126198
0.357778451606391
0.344804544041003
0.442376470961142
0.818816458885135
2.96228674341069
4.42457218311683
1.02230049166226
0.510361139993252
0.359059098082992
0.316118591018515
0.341242809808836
0.459450405401664
0.848875057582203
2.95331982843092
4.41827541203547
1.04645961885027
0.52713004925909
0.365462519069614
0.30671214337775
0.301435457327491
0.346156718656345
0.477280603822834
0.880449612141541
2.98372922899652
3.73665858203077
3.04806989170938
3.98636078489982
4.20349822402139
0.910382710448734
3.02863823034674
4.33726331282912
0.816059221812646
0.723262469285137
2.99286846145398
4.40627945416626
0.863135185330237
0.485867801072232
0.728591566674598
2.97549175495297
4.43507955005009
0.914114412226119
0.463332568629202
0.431519338366852
0.754215455957678
2.97444235521348
4.43971858975062
0.95704536441543
0.474159129255148
0.369897489477918
0.428798149035247
0.786362792603427
2.97255020489231
4.43310158826218
0.992387743230028
0.491577890888656
0.35696489846631
0.344112018838555
0.441665367966388
0.818078640183829
2.96255394475781
4.42456849052
1.02168697078492
0.509810090990126
0.3585921702096
0.31573893738497
0.340906616172819
0.459080899869355
0.848480479320018
2.95350885406564
4.41827119964832
1.04656820328589
0.527057694082294
0.365351935168712
0.306633204557492
0.301392958162651
0.346139568202195
0.477305848886335
0.880542996613047
2.98382688612343
4.41469217024529
1.06810009439493
0.542801622119858
0.373829787189705
0.305457681146669
0.28431413404597
0.298058261848299
0.354301074817404
0.49558196120188
0.923008891322296
3.21034682913428
3.73636235343333
3.04812625398518
3.986185320352
3.02876591225821
0.908527433968976
4.20343716457309
4.33723155881398
0.812967815051793
0.720987472428222
2.9931040402326
4.4062697201193
0.859785678618818
0.483232848237375
0.726540739107738
2.97586053908107
4.43508704871196
0.91103818787006
0.460979667252577
0.429551321782072
0.752323645034423
2.97493374223225
4.43972577360782
0.954465102643636
0.472215283505409
0.368314085038851
0.42725003965859
0.784725234169294
2.97310693313206
4.43310300547819
0.990395896967013
0.490083095644484
0.355765799230987
0.343016782530024
0.440460956625604
0.816735872841141
2.9630862971394
4.42455931245526
1.02036218010803
0.508792114699964
0.357770285099425
0.315017042076231
0.340182163171586
0.458218152854005
0.847493538993351
2.95392513060668
4.41826325714508
1.04596001550129
0.526551807072961
0.364913651585235
0.306247049062104
0.301028914789381
0.34574297523289
0.476798218075276
0.879904407020249
2.98408387084178
4.41468721951374
1.06823465306598
0.542800238537147
0.373781203572932
0.305399095950247
0.284257621526517
0.297992694306702
0.354207611106558
0.495452870910732
0.922847978323927
3.21045880066497
4.41298508368783
1.08772358342038
0.557430628019939
0.382958895565197
0.308087749297369
0.27742695175717
0.275000891565515
0.299449158458033
0.363053614082334
0.514111374064637
0.995328984887151
4.87759965474274
3.73596959923866
3.04819066488856
3.98586946022099
3.02890867126104
0.906281767719432
4.20334849746619
2.9933869959525
0.717900483160652
0.809450190619337
4.33720759393207
4.406257048253
0.855924516930182
0.480017554648606
0.723692374943257
2.97635143984174
4.43508082076865
0.907372357959272
0.45812134655008
0.42703112532389
0.749690178862247
2.97566046411067
4.4397363012057
0.951249784174343
0.469785542482021
0.366277903879429
0.425173978780079
0.782417710490872
2.97401576997516
4.43311056279028
0.987729868829497
0.488104380201014
0.354158573222865
0.341499874401145
0.438746147054922
0.81476198395294
2.96404438941682
4.42456836302916
1.01833126695029
0.507278430665868
0.356561638314803
0.313929252219823
0.339052964282795
0.456855399100642
0.845907127160729
2.95476452829866
4.41826191207949
1.04461984455585
0.525540557950369
0.364098295028363
0.305526194414708
0.300322951960762
0.344954954961659
0.475798928085265
0.878699296309254
2.98467274861935
4.41467503956831
1.06762952102123
0.5423157681863
0.373367498910217
0.305023095381344
0.283894395021804
0.297605702539617
0.353740613429462
0.494818138286109
0.922040534075317
3.21076460464053
4.41297541678713
1.08788368130914
0.557467005417101
0.382947107216449
0.308049885273077
0.277374537699672
0.274930290412579
0.299343328070758
0.362883891506975
0.513850571539376
0.995576599332525
4.87775609177905
4.4122787345199
1.10558640665072
0.57100470366288
0.392190842560792
0.312642311230421
0.275740914787464
0.263724384446332
0.271658099415055
0.302338257874585
0.370278577378877
0.529312704945687
1.09312258288032
3.73542787649022
3.04825990314831
3.98554565091521
3.02906048208857
0.903548538470538
4.20315491605601
2.99369013360271
0.713857004310783
0.805503343496601
4.33717479276652
2.97692671079507
0.719903510708345
0.476186286923179
0.851562979436538
4.40625601921441
4.43507649884831
0.903124928255635
0.454749350733885
0.423920662981896
0.746236631709393
2.97661531463781
4.43972738839098
0.947398714347526
0.466863252390576
0.36377232231536
0.422536751382349
0.779373189319441
2.97534825632207
4.4331206098495
0.98438859867862
0.485633287706141
0.352129870820937
0.339544081682433
0.436494579959026
0.812092150187407
2.96560087065976
4.42457291811416
1.01559862506506
0.505260227147823
0.354951680004235
0.31246118255148
0.337504444430579
0.454975598213821
0.843707435528345
2.95628353339328
4.41826797085682
1.0425558620733
0.524010894700839
0.362888094034713
0.304455428448416
0.299261255586834
0.34376235625296
0.474299129252419
0.8769005823809
2.98588089371035
4.41468236250721
1.06627726554303
0.541303593283007
0.372560228088667
0.304313108745457
0.283211783607433
0.296882157049415
0.352885928514457
0.493701340956619
0.920676264950244
3.21152704018689
4.41296284616072
1.0872791123719
0.556993203832213
0.382549802370381
0.307687847875594
0.277022755353251
0.274562498223128
0.298922659789554
0.362352637714395
0.513115415130996
0.995084518420625
4.878170801768
4.41226459478338
1.10576378460406
0.571066367158017
0.392201821061249
0.312621726045054
0.275698386382869
0.263660759045639
0.271564195876887
0.302193363189559
0.370049750377492
0.529139579310795
1.09483262732304
4.4120188532089
1.12181564357939
0.583547111968738
0.401198447333734
0.318133108038534
0.276889642786207
0.258691079117381
0.256937243989527
0.270771806506385
0.304421999893445
0.371926235071563
0.516265927214425
3.73469727188945
3.04834542787007
3.98511434753578
3.02922978171877
0.900300876030474
4.20297355686943
2.99398894231777
0.708758868699405
0.801119075717255
4.33711646227885
2.97751038124107
0.71507212050492
0.471701706311251
0.846707588994919
4.40625462546618
2.97770477048577
0.741839319020907
0.420174420038339
0.450853701727597
0.898302107724031
4.43507145712729
4.43972348980385
0.942912662375352
0.463444046873762
0.360780457184492
0.419300830816378
0.775481640004394
2.97707619369816
4.43311220887664
0.980365384506241
0.482664334318005
0.349669442504411
0.337131068826746
0.433672435397634
0.808657393242028
2.96786790263076
4.42458326744023
1.01216088926404
0.502731322576613
0.352931230142667
0.310600959689656
0.335520475475848
0.4525499143728
0.840843187106767
2.95875307541032
4.41827284437568
1.03976909424007
0.521958219356676
0.36127418869152
0.303024716862658
0.297832738406126
0.342151770908559
0.472283944721603
0.874520065507438
2.98812116520537
4.41468540608391
1.06418393231789
0.539757281514209
0.371349081038371
0.303259322397586
0.282200193898036
0.295810763779118
0.351630224845485
0.492087926632057
0.918731872253111
3.21320528501289
4.41297108555438
1.08591370418795
0.555977011046117
0.381747481615945
0.306990161500565
0.276363388977729
0.273888034051345
0.298172874545683
0.361441711869352
0.511908935694778
0.994051188381087
4.87934855643354
4.41225165710933
1.10515881327451
0.57059825517371
0.391814963819478
0.312272260876971
0.275360777074639
0.263313953233135
0.271183143405274
0.301742620607016
0.369473065996787
0.528434968073597
1.09521997049566
4.41200461843188
1.12200733131306
0.583627059082603
0.401225000465226
0.318125929239421
0.276858025431335
0.258637812718749
0.256858624313991
0.270656866351676
0.304251796771953
0.371718468089167
0.516518439950859
0.547674601311898
4.41193006990807
1.13652826233327
0.595088828225215
0.409811377946809
0.324018728476958
0.279628780507135
0.257218873788852
0.249307929654197
0.253440699808691
0.270184850348683
0.303214221010827
0.359571862462443
3.733766519248
3.04848279784358
3.98461399244282
3.02945369890253
0.89652899188573
4.20280704486236
2.99429093298815
0.702540785551949
0.796305612628776
4.33704826478476
2.97802310628868
0.709123023463097
0.466534507280959
0.841362713799011
4.40623995271829
2.97874375237542
0.736413609724492
0.415754659953026
0.446422557117187
0.892903683384638
4.43507732673533
2.97899908785081
0.770607824108996
0.415421671254952
0.357283866699298
0.459522285915114
0.937788304774884
4.43971393964926
4.43310796803096
0.975654854860458
0.47919274230752
0.346767498058004
0.334240701594811
0.430236945516066
0.804359546548229
2.97078083523798
4.42457434890165
1.00800835367856
0.499685259018849
0.35049300278044
0.308337150218714
0.333081659624662
0.449542175102995
0.837223565707265
2.96235510275352
4.41828350964943
1.0362551419688
0.519377324256572
0.359250074126534
0.301225816920795
0.296026457632525
0.340106916737757
0.469729270200336
0.871575734998183
2.99179596680304
4.4146902987131
1.0613516603661
0.537673782493093
0.369728401208239
0.301854861828524
0.280851752620037
0.294381780686981
0.349961493789639
0.489970488656524
0.91629628192559
3.2162789209887
4.41297473761125
1.08379321577221
0.554414328572316
0.380533407460279
0.305950069635047
0.275389864799748
0.272899184757906
0.297083639808854
0.360137774534867
0.510217512757072
0.992474562905114
4.88259044462856
4.41226033386616
1.10378076758667
0.569576141183771
0.391014743242733
0.311584792465323
0.274721938718672
0.262678090777276
0.27050661792549
0.300971817387946
0.368526638580381
0.527259841168117
1.09542722568043
4.41199144493048
1.1214019371815
0.583162029683413
0.400844827839895
0.317786364310399
0.276533706100155
0.258310483080298
0.256510071689694
0.270264500671734
0.303784565078251
0.371148968996219
0.51599365063038
0.547547689840285
4.41192014915384
1.13673143712838
0.595183100166022
0.409849482950111
0.324021973460347
0.279607126346092
0.257176207577531
0.249243606838518
0.253349882190903
0.270059141847943
0.303055159764547
0.359518959998359
0.403220516094702
0.388624902467485
4.41190066389366
1.14984455252798
0.605671292171951
0.417939658289357
0.329985525121503
0.283248195617918
0.257858576649381
0.245817396036731
0.243887576832064
0.251181301083727
0.26825447380562
0.295940886616124
3.73273201631518
3.04875140413872
3.98413712255424
3.02981077239884
0.892252685921478
4.20266965737053
2.99466089671193
0.69520677081687
0.791057216834852
4.33706088470618
2.97844809764655
0.701968478043489
0.460657832247429
0.835528238082166
4.40624917036253
2.9795208170107
0.729896755174336
0.410630234085569
0.441443256185675
0.88692352421914
4.43508097595793
2.98071852478028
0.764672127784456
0.410865099807265
0.353264893250987
0.455089390477744
0.93201596491888
4.43972357041891
2.9739648232348
0.799038937659302
0.426139317660844
0.330851204058908
0.343413520749815
0.475212043695473
0.970247871156621
4.43309856382663
4.42456979022045
1.00313236493023
0.496115528132076
0.347629888949239
0.305657432102882
0.330165366327989
0.445906993743709
0.832753372076196
2.96698399357859
4.41827373517233
1.03200184143306
0.516260792506442
0.356809616809367
0.299050780878994
0.293830383593841
0.337608015176276
0.466594524025816
0.86798025841254
2.99724441734583
4.41470100272142
1.05777386869938
0.535048114153327
0.367693139602594
0.300093818692052
0.279159006979691
0.292585057072802
0.347865927387811
0.487339620481476
0.913440736162979
3.22193660063339
4.41297953420582
1.08091953309603
0.552302595097878
0.37890349654156
0.30456267549041
0.274096689609663
0.271589399567575
0.295646852984201
0.358432955654416
0.50805318218011
0.990639359337811
4.88752223142897
4.41226416274612
1.10163481128738
0.567997147009936
0.389795867300858
0.310554137594968
0.273777092305216
0.261748132221014
0.269528283570059
0.299872445348373
0.367201151860213
0.525627586240792
1.09552274612144
4.41200024935264
1.12001210719275
0.582133101640623
0.400044442884074
0.317106235824947
0.275911455200478
0.257704974607208
0.25588694317366
0.26958746308507
0.303007323910508
0.370214513949746
0.51502668493324
0.546557833328002
4.41190743643911
1.13612481439494
0.594719744798295
0.40947359182656
0.323689770479849
0.27929388418453
0.256865450364052
0.248921122586242
0.253000383287318
0.269664390794363
0.302597305744793
0.359014503356268
0.402837039615412
0.387687567569294
4.41189533937756
1.15005526044041
0.605776845489231
0.417986793720226
0.32999701947441
0.283235006725886
0.257825436514825
0.245765388264337
0.243815271236092
0.251086008323904
0.268138625896407
0.295859393112585
0.325039164549235
0.336018149627356
0.336318797428255
4.41188648266875
1.16187008266529
0.615343432636079
0.42553902825633
0.335845308419706
0.287319218326186
0.259763523358105
0.244846161414526
0.238906754262369
0.240412175988373
0.248859538222872
0.263810817929663
3.73151936383886
3.04933258369582
3.98391698334467
3.03044318159007
0.887571134738991
4.20274536909253
2.99522896100666
0.686798044761646
0.785366373637215
4.33717130965915
2.97889191053866
0.693608164794563
0.454053346240196
0.829190940864688
4.4063068027397
2.97994629214653
0.722179990444555
0.404760716833874
0.43589819953473
0.880349218232708
4.43509857771369
2.98174576740827
0.757617410124794
0.405615868493312
0.34870538405433
0.450133165684898
0.925582521612744
4.43972917349245
2.97665183852349
0.792598227277349
0.421343579813556
0.326942370264613
0.339596032249539
0.470711287847903
0.964136007363345
4.43310750882022
2.97203806795449
0.827167967186573
0.441585481256983
0.326746696300332
0.302548400073933
0.344333903941719
0.492014675431846
0.997520974686422
4.42456000326934
4.41826882368661
1.02699602873661
0.512600973214281
0.35394637538608
0.296491114779678
0.291230784294721
0.334630594742442
0.462825413662726
0.863541005623316
3.004348243788
4.41469052012171
1.0534364964262
0.531872113482206
0.365237572642155
0.29797025549208
0.277114080460802
0.290408944619573
0.345324084469883
0.48415725206544
0.910135905203859
3.22967136193527
4.41299017204963
1.07728452611282
0.549636250988492
0.376853362092534
0.302823484899906
0.272478724332608
0.269952331567881
0.293854580611805
0.356319922284854
0.50542837486733
0.988685683005665
4.90074110358715
4.41226876292143
1.09872109120777
0.565858639642536
0.388154763816424
0.309176479688945
0.272522293869725
0.26051984321681
0.268243419799073
0.298440005369189
0.365498386078457
0.523590574409694
1.09578610064914
4.41200393301636
1.11784239555413
0.58053792018642
0.398819132923942
0.316081021559342
0.274987453595192
0.256817859650959
0.254985699152614
0.268621750043408
0.301916398589406
0.368922731769874
0.513690458108534
0.545223860780513
4.41191696013283
1.13472401130204
0.593683583817902
0.408671397947349
0.323014259855001
0.278684155148947
0.256283285655574
0.248337652217278
0.252388875020525
0.268995723935836
0.301837858860775
0.358151279092461
0.401920945860017
0.386454856052911
4.41188386099748
1.14944484337827
0.605314037655358
0.417613596360945
0.329670112499365
0.282930432999488
0.257528013492658
0.245463357468331
0.243497594327302
0.250741124180731
0.267755433560951
0.295433400497578
0.32459177469808
0.335455391121261
0.33547442017183
4.41188136707677
1.16208893693579
0.615457422023231
0.425593317130442
0.335863417832418
0.28731300663791
0.259738418873258
0.24480430311188
0.238848607435656
0.240338030476297
0.248773754324661
0.263748192795912
0.281964452093756
0.295540935852778
0.30199372351208
0.315100720353956
4.41189710900607
1.17270937614002
0.624154153108484
0.43259252559023
0.341483544498369
0.291573201336285
0.262411803362258
0.2454375571755
0.236738374231655
0.234462421149447
0.237697955854831
0.245729128927865
3.731193950697
3.05053388188442
3.98428820712146
3.03160179091188
0.882720258126215
4.20336797426333
2.99619149866702
0.677434588612472
0.779232943851542
4.33759681915687
2.97958906928088
0.683993362489168
0.446704858304636
0.822320132560975
4.40650363091269
2.98021113028143
0.713282259069193
0.398126116819949
0.429762837532337
0.873149300074351
4.4351647402578
2.98180980689912
0.749274224493394
0.399618314323896
0.343582565751116
0.444634415874886
0.918470078657479
4.43974638071427
2.97777400429709
0.784965600238015
0.415816574394048
0.322495288022348
0.335300816678477
0.465676905140486
0.95731057881356
4.43311314988855
2.97617241212844
0.820358932569555
0.436537110993876
0.32280271242247
0.298996024759047
0.340597135099032
0.487376137827815
0.991158353893191
4.42456927415691
3.01230600722809
0.857809313829405
0.458334746159058
0.331145440807438
0.288212598638302
0.293537306213407
0.350653028754384
0.508388507748139
1.02121879108466
4.41825856580717
4.41468529655091
1.04832417782858
0.5281357622452
0.362355269714837
0.295477665219863
0.274708120489907
0.287839406200115
0.342308871519476
0.480344542517303
0.906087782904352
3.24161343769632
4.41297930934378
1.07287049156188
0.546406515509897
0.374377310371726
0.300727664767547
0.270530590856422
0.26798103896211
0.291697082702602
0.353783570634425
0.502317754967951
0.986758845006985
4.91328176513121
4.41227947994238
1.09503097280347
0.563154459337947
0.386087081528469
0.307448095547022
0.270953864398735
0.258989314787034
0.266647922152645
0.296671522392376
0.363423501633133
0.52118646411165
1.0962852891844
4.41200806861372
1.11489233451995
0.578373456845856
0.397165392093895
0.31470735885744
0.273758657811819
0.255646385162124
0.25380395100676
0.267366016032619
0.300514495926299
0.367293349265092
0.512050732369733
0.54354451926259
4.41192496211379
1.13253269039991
0.592072514634109
0.407438380627424
0.321991134312583
0.277774553025948
0.255427151356731
0.247491262282004
0.251514162048937
0.268053749661989
0.300784663645692
0.356967253755391
0.400654245686202
0.384945049278405
4.411894828087
1.14803294990639
0.604270539743053
0.416808473933612
0.328996991736079
0.282329616802318
0.256963297015634
0.244909301313774
0.242933042146653
0.250145765991113
0.267108250779867
0.294715893568559
0.323805160410995
0.334519792123912
0.334119277876098
4.41187066223193
1.16147874699643
0.614994029266286
0.425221709071699
0.335540244650025
0.287014978997288
0.259451336101302
0.244517994322964
0.238554588612027
0.240028473677614
0.248441442154211
0.263384847852489
0.281550345841849
0.295082064969626
0.301395030204368
0.314163644231155
4.41189164147544
1.17293022381385
0.624275165186223
0.432652469249397
0.341507027719215
0.291572698703561
0.26239327921355
0.245403839301009
0.236691022469662
0.234403331447382
0.237632803188564
0.245687407613251
0.256950591959325
0.267910419849467
0.276013846665776
0.285086264598994
0.305094919657608
4.41190561409876
1.18244704979449
0.632154072012933
0.439099243357816
0.346831075275471
0.29583789344063
0.265469648847644
0.246996504417328
0.236343414658749
0.231483300084092
0.231323867393033
0.235086486287969
3.7298065620599
3.05303316238381
3.98580158802538
3.03371780665983
0.877994880341994
4.20505722147108
2.99783452020969
0.667313086560505
0.772694070861362
4.33872468280604
2.98084628553079
0.673180858286923
0.438604551573968
0.814874417703007
4.40704537269833
2.98079975367405
0.703063323140916
0.390698595104252
0.42300232519487
0.865282151254275
4.43536648254679
2.98127252806418
0.739788306209508
0.392850135971259
0.337874781965911
0.438559672380787
0.910629929782485
4.43980606462401
2.97658427904664
0.775816273033208
0.409502296502476
0.317484771736475
0.330509186608272
0.460087468842796
0.949771327079059
4.43312832237986
2.97712693352157
0.812068110896863
0.430713696252369
0.318309953657567
0.294984980920194
0.336408034333451
0.482191109557553
0.98401869001596
4.4245747424321
3.01909306848083
0.85065572484368
0.453073971074838
0.327126305529074
0.284760116914937
0.29017889469305
0.346921024080914
0.503611534852949
1.01464641952931
4.4182684496154
3.25359833078647
0.900537449384964
0.475764040875702
0.338783920294702
0.28485991186044
0.271931114957587
0.292608570383713
0.359038596338806
0.523826284609622
1.0424124086421
4.41467467777754
4.41297394249885
1.06766102718762
0.542602082092127
0.371468380028241
0.298269710786664
0.268246232539479
0.265667299732408
0.289161153445692
0.350794401933158
0.498614572621931
0.984826690586157
4.94475958325401
4.4122687395912
1.09054703139628
0.55987468895307
0.383587014197889
0.305364710824134
0.269067920234356
0.257152416180201
0.264737211394748
0.294562375503268
0.360972936689464
0.518431324124859
1.09772723080829
4.41201888755579
1.11115246531672
0.575633046678691
0.395078682014178
0.312981833156355
0.272222248301233
0.25418814516011
0.252339957718832
0.265820444597011
0.298807989169577
0.365350722627575
0.510171343703272
0.541605586377331
4.41191979058141
1.12954964212615
0.58988316645158
0.405770901506328
0.320617151030863
0.276562480571525
0.254295149309149
0.246380949746348
0.250376901883262
0.26684302360434
0.299452650234917
0.355501460747454
0.399105342356165
0.383044337493608
4.41190741383031
1.1458217047235
0.602644224104008
0.415566903862721
0.327973339816578
0.281429302224432
0.256129124864809
0.244102096252496
0.242121856527519
0.249302835617552
0.266206494507609
0.293732334602953
0.322736181541378
0.333296460289911
0.332492625716157
4.41188249753167
1.16005565303904
0.613943154181849
0.424413008553128
0.334867864117577
0.286420160856449
0.258899304912304
0.243985535798991
0.23802393787457
0.239484243569477
0.247869043953949
0.262769542037348
0.28088014311761
0.294329073907718
0.300442339155889
0.312891218543932
4.41188081903914
1.17231922161256
0.623811690701256
0.432281760408861
0.341186514061597
0.291279560980563
0.262114057731029
0.245129434290758
0.236414533384753
0.234119124477472
0.237336022762767
0.245369775613976
0.256583314718682
0.267514830657595
0.275547513802856
0.284452873412609
0.304182550767656
4.41189588093348
1.18266822104046
0.632279291934572
0.439163912007094
0.346859085560761
0.295842157384253
0.265456508489593
0.246969254285714
0.236304275366636
0.231435064530084
0.231273011117221
0.235060947285391
0.241794874747212
0.249647422192618
0.256939484809206
0.264388406898193
0.27656958820475
0.300193614905281
1.19110394009068
0.639388114323879
0.445068457012435
0.351847572438325
0.300001721933164
0.268718291760788
0.249139054014112
0.237075482601515
0.230393466105055
0.227908875569451
0.228827601348737
3.73222320489146
3.05702380190891
3.98802051525758
3.03739652445437
0.873677885636638
4.20832057970983
3.00059481333845
0.656653022115889
0.765828537237958
4.34115841868069
2.98300005580319
0.661278576698206
0.429759449564923
0.806837847046867
4.40834416575644
2.98228932108568
0.691499232235838
0.382477048397134
0.415570003819081
0.856699208958137
4.43591088554615
2.98122128376853
0.728853831457976
0.385266245903065
0.331558211660753
0.431864486403785
0.902019419488595
4.43999219447007
2.97372011087351
0.765576317496596
0.40239927120049
0.311892289998692
0.325198097040485
0.453900399133463
0.941436079477029
4.43318060999153
2.97269098582843
0.801779908215677
0.424032939360775
0.313241447893307
0.290498002111579
0.331746028605579
0.476448320348618
0.976068866392666
4.42458798589638
3.02013578781071
0.841466782430316
0.446950724320936
0.322542864074789
0.2808567318982
0.286404078889295
0.342739310456825
0.498257470371273
1.00724897744991
4.41827377245796
3.26799754122462
0.893456840895084
0.470361605367336
0.334718869546297
0.281452966264094
0.26877200017011
0.28935429216977
0.355278030324361
0.518927321686137
1.03567271284563
4.4146852410754
4.96589618098066
0.980947978875581
0.494115117704464
0.347307279065631
0.286229590343773
0.263001246610398
0.265618631722499
0.295443170326188
0.368117999710865
0.538207871560686
1.06163074791983
4.41296324740387
4.41226359148473
1.08525040366577
0.556006817240434
0.380647195301986
0.302921269058844
0.266860043361022
0.255004267265231
0.262505126905746
0.292103236937087
0.358121699319295
0.515263580657929
1.10129298335739
4.41200883858908
1.1066040966272
0.572306177184712
0.392552811897196
0.310900426980419
0.270375219631689
0.252440676097434
0.250591954916621
0.263985312859268
0.296803109960394
0.363117003835068
0.508183966352691
0.539625708961638
4.41193427130898
1.12576465140185
0.587108394335392
0.403664157459493
0.318888957768888
0.275045573592939
0.252885752520145
0.245006313317028
0.24897901171317
0.265371089105021
0.297863153772841
0.353804938929826
0.397366021064769
0.380816681272173
4.41188836110891
1.1428078446001
0.600431329646845
0.413885039335114
0.326595869193335
0.280227064889116
0.255024034321959
0.243041464808314
0.241065691319936
0.248217817369056
0.265063832958401
0.292512797168017
0.321441853705678
0.331836718332647
0.330556583592524
4.41189915727732
1.15782414344327
0.612302374759773
0.423162537602234
0.333841819132513
0.285525255037758
0.258080284612928
0.243206138295552
0.237257493778692
0.238709136036944
0.24706664548478
0.261923903014914
0.279979613579549
0.293337844706731
0.299234834188898
0.311326349961142
4.411892337025
1.17089126379672
0.622753924049643
0.431469277533925
0.340513823055461
0.290688585058028
0.261571050438007
0.24461266304497
0.235908346563176
0.233611027421708
0.236815011323366
0.244824246976513
0.256000509712723
0.266883624017924
0.274810301028969
0.283500298202884
0.30287143149441
4.41188509807234
1.1820575780016
0.631815858723697
0.438794162276779
0.346540700065103
0.295552801452275
0.265183291277416
0.24670382971518
0.236040755110692
0.231169135663866
0.231001279186054
0.234775943039826