/*--------------------------------*- C++ -*----------------------------------*\
  =========                 |
  \\      /  F ield         | OpenFOAM: The Open Source CFD Toolbox
   \\    /   O peration     | Website:  https://openfoam.org
    \\  /    A nd           | Version:  12
     \\/     M anipulation  |
\*---------------------------------------------------------------------------*/
/*   Windows 32 and 64 bit porting by blueCAPE: http://www.bluecape.com.pt   *\
|  Based on Windows porting (2.0.x v4) by Symscape: http://www.symscape.com   |
\*---------------------------------------------------------------------------*/
FoamFile
{
    format      ascii;
    class       volScalarField;
    location    "300";
    object      p;
}
// * * * * * * * * * * * * * * * * * * * * * * * * * * * * * * * * * * * * * //

dimensions      [0 2 -2 0 0 0 0];

internalField   nonuniform List<scalar> 
10166
(
83333.3332588321
83333.3332585955
83333.3332587289
83333.3332586035
83333.3332583656
83333.3332584892
83333.3332583552
83333.3332586441
83333.3332585415
83333.3332583049
83333.3332581362
83333.3332582717
83333.3332581165
83333.3332584092
83333.3332582929
83333.3332580633
83333.3332588542
83333.3332585498
83333.3332583449
83333.3332579605
83333.333257877
83333.3332580561
83333.3332578812
83333.3332582016
83333.3332580674
83333.3332578294
83333.3332586333
83333.3332583084
83333.3332581102
83333.333257736
83333.3332592644
83333.3332588558
83333.3332585037
83333.3332582018
83333.3332577149
83333.3332575742
83333.3332578051
83333.3332576182
83333.333257988
83333.333257845
83333.3332575979
83333.3332584287
83333.333258095
83333.3332578911
83333.333257516
83333.3332590465
83333.3332586376
83333.3332582694
83333.3332579764
83333.3332575136
83333.333259731
83333.3332592026
83333.3332588536
83333.3332587401
83333.3332582192
83333.3332577986
83333.3332572183
83333.3332575067
83333.3332573132
83333.3332577351
83333.3332575887
83333.3332573396
83333.3332582086
83333.3332578743
83333.3332576688
83333.3332572951
83333.3332588291
83333.3332584359
83333.3332580583
83333.3332577616
83333.3332573179
83333.3332595077
83333.33325899
83333.3332586373
83333.3332585138
83333.3332580152
83333.3332576289
83333.3332601827
83333.3332596001
83333.3332590633
83333.3332592637
83333.3332591946
83333.333258579
83333.3332584835
83333.3332568009
83333.3332571535
83333.3332569575
83333.3332574334
83333.3332572877
83333.333257042
83333.3332579453
83333.333257615
83333.3332574155
83333.3332570478
83333.3332585884
83333.3332582149
83333.3332578342
83333.3332575421
83333.3332571225
83333.333259273
83333.3332587786
83333.3332584347
83333.3332583068
83333.3332578214
83333.3332574662
83333.3332599476
83333.3332593815
83333.3332588511
83333.3332590499
83333.3332589904
83333.3332584093
83333.3332583538
83333.3332605219
83333.3332599785
83333.3332592905
83333.3332594073
83333.3332600171
83333.3332599814
83333.3332595186
83333.3332599091
83333.3332563159
83333.3332567378
83333.333256543
83333.3332570762
83333.3332569338
83333.3332566962
83333.3332576293
83333.3332573082
83333.3332571216
83333.3332567642
83333.3332583002
83333.3332579507
83333.3332575731
83333.3332572946
83333.3332569048
83333.3332590064
83333.3332585403
83333.3332582091
83333.3332580857
83333.333257624
83333.3332573072
83333.3332596928
83333.3332591515
83333.3332586384
83333.3332588494
83333.3332588011
83333.3332582498
83333.3332582329
83333.3332602688
83333.333259748
83333.3332590731
83333.3332591977
83333.3332598184
83333.3332598061
83333.3332593914
83333.3332598293
83333.3332606719
83333.3332602438
83333.3332595209
83333.3332594534
83333.3332602732
83333.333261149
83333.3332614071
83333.3332614427
83333.3332623264
83333.3332557587
83333.3332562525
83333.3332560626
83333.3332566555
83333.3332565189
83333.3332562933
83333.3332572531
83333.3332569463
83333.3332567774
83333.3332564354
83333.3332579546
83333.3332576345
83333.3332572666
83333.333257009
83333.3332566528
83333.3332586871
83333.3332582548
83333.3332579413
83333.3332578294
83333.3332574019
83333.3332571308
83333.3332593987
83333.3332588876
83333.3332583968
83333.3332586273
83333.3332585997
83333.3332580899
83333.3332581198
83333.333259989
83333.3332594963
83333.3332588439
83333.3332589895
83333.333259632
83333.3332596447
83333.3332592803
83333.3332597635
83333.3332603989
83333.3332599947
83333.333259293
83333.3332592389
83333.3332600756
83333.3332609724
83333.3332612664
83333.3332613718
83333.3332623033
83333.3332606073
83333.3332603366
83333.3332596754
83333.3332594829
83333.3332602536
83333.3332616175
83333.3332628846
83333.3332636591
83333.3332646706
83333.3332660945
83333.3332551287
83333.3332555117
83333.3332556938
83333.3332561653
83333.3332560366
83333.333255824
83333.333256811
83333.3332565235
83333.3332563737
83333.3332560506
83333.3332575452
83333.3332572592
83333.3332569065
83333.3332566747
83333.3332563558
83333.3332583068
83333.3332579128
83333.3332576225
83333.3332575287
83333.3332571445
83333.3332569214
83333.3332590467
83333.3332585719
83333.3332581091
83333.333258364
83333.3332583653
83333.3332579099
83333.3332579941
83333.3332596654
83333.3332592037
83333.33325858
83333.3332587545
83333.3332594265
83333.3332594736
83333.3332591723
83333.3332597093
83333.3332600934
83333.3332597178
83333.3332590446
83333.3332590155
83333.3332598808
83333.3332608082
83333.3332611448
83333.3332613261
83333.3332623014
83333.3332603123
83333.3332600667
83333.3332594314
83333.3332592579
83333.3332600483
83333.3332614397
83333.3332627361
83333.3332635616
83333.3332646688
83333.333266137
83333.3332603202
83333.3332602306
83333.3332596936
83333.333259464
83333.3332601185
83333.3332616292
83333.3332635358
83333.3332653861
83333.3332669446
83333.333269637
83333.3332718669
83333.333254433
83333.3332548896
83333.3332550624
83333.3332552819
83333.333255482
83333.333255603
83333.3332562984
83333.3332560335
83333.3332559016
83333.3332555976
83333.3332570673
83333.3332568182
83333.3332564852
83333.3332562811
83333.3332559994
83333.3332578599
83333.3332575078
83333.3332572451
83333.3332571738
83333.3332568379
83333.3332566646
83333.3332586297
83333.3332581963
83333.3332577668
83333.3332580498
83333.3332580875
83333.3332576963
83333.333257836
83333.3332592799
83333.3332588546
83333.333258266
83333.3332584745
83333.3332591808
83333.3332592718
83333.3332590489
83333.3332596428
83333.3332597397
83333.3332593961
83333.3332587557
83333.3332587603
83333.3332596609
83333.333260627
83333.3332610172
83333.3332612885
83333.3332623139
83333.3332599812
83333.3332597646
83333.3332591607
83333.3332590161
83333.3332598362
83333.3332612656
83333.3332626039
83333.3332634928
83333.3332647045
83333.3332662103
83333.3332600044
83333.3332599395
83333.3332594308
83333.3332592242
83333.3332599004
83333.3332614401
83333.3332633824
83333.3332652753
83333.3332668999
83333.3332697107
83333.3332720404
83333.3332598117
83333.3332599172
83333.3332595424
83333.3332593524
83333.3332599078
83333.333261385
83333.3332635851
83333.3332661217
83333.3332688116
83333.3332716861
83333.3332771576
83333.3332817291
83333.3332536844
83333.3332542026
83333.333254365
83333.3332546659
83333.3332548548
83333.3332549697
83333.3332550658
83333.3332553545
83333.3332554722
83333.3332557127
83333.333256518
83333.3332563064
83333.3332559953
83333.3332558175
83333.333255568
83333.3332573426
83333.333257035
83333.3332568027
83333.3332567546
83333.3332564681
83333.3332563423
83333.3332581432
83333.3332577553
83333.333257364
83333.333257676
83333.3332577533
83333.3332574328
83333.3332576251
83333.3332588268
83333.3332584427
83333.3332578953
83333.3332581399
83333.3332588837
83333.3332590268
83333.3332588932
83333.3332595418
83333.3332593221
83333.3332590148
83333.3332584129
83333.3332584567
83333.3332593965
83333.3332604071
83333.3332608602
83333.3332612365
83333.3332623149
83333.3332596
83333.3332594142
83333.3332588463
83333.3332587372
83333.3332595941
83333.3332610673
83333.3332624578
83333.3332634225
83333.3332647553
83333.3332662989
83333.3332596501
83333.333259613
83333.3332591374
83333.3332589614
83333.3332596673
83333.3332612452
83333.3332632366
83333.3332651883
83333.3332668962
83333.3332698377
83333.333272256
83333.333259477
83333.3332596064
83333.3332592592
83333.3332590959
83333.3332596742
83333.3332611793
83333.3332634166
83333.3332660001
83333.3332687478
83333.3332717012
83333.3332773222
83333.3332820676
83333.3332591004
83333.3332594104
83333.3332592094
83333.3332591143
83333.3332596169
83333.3332609935
83333.3332632443
83333.3332661371
83333.3332694615
83333.3332732776
83333.3332783428
83333.3332891375
83333.3332529035
83333.3332534628
83333.3332536149
83333.3332539817
83333.3332541623
83333.333254272
83333.333254452
83333.333254731
83333.3332548403
83333.3332550558
83333.3332550452
83333.3332552736
83333.3332554318
83333.3332557211
83333.3332558962
83333.3332567528
83333.3332564908
83333.3332562896
83333.3332562617
83333.3332560205
83333.3332559322
83333.3332575846
83333.3332572447
83333.3332568953
83333.3332572341
83333.3332573487
83333.3332571001
83333.3332573386
83333.3332583031
83333.3332579635
83333.3332574626
83333.3332577438
83333.3332585237
83333.3332587227
83333.3332586831
83333.3332593839
83333.3332588364
83333.3332585685
83333.3332580115
83333.3332580966
83333.3332590764
83333.3332601345
83333.3332606586
83333.3332611514
83333.3332622798
83333.3332591552
83333.333259002
83333.3332584753
83333.333258407
83333.333259304
83333.3332608242
83333.333262274
83333.3332633245
83333.3332647936
83333.3332663764
83333.3332592449
83333.3332592364
83333.3332587974
83333.3332586581
83333.3332593995
83333.333261021
83333.3332630692
83333.3332650912
83333.3332668961
83333.3332699872
83333.3332724837
83333.3332591024
83333.3332592583
83333.3332589433
83333.3332588117
83333.3332594191
83333.3332609593
83333.3332632448
83333.3332658921
83333.3332687184
83333.3332717737
83333.3332775638
83333.3332824449
83333.3332587481
83333.3332590807
83333.3332589083
83333.3332588396
83333.3332593666
83333.3332607692
83333.3332630547
83333.3332659944
83333.333269378
83333.3332732623
83333.333278415
83333.3332893981
83333.3332582127
83333.3332587133
83333.3332587054
83333.3332587306
83333.3332592284
83333.3332604999
83333.3332626687
83333.3332656543
83333.3332693005
83333.3332736051
83333.333278842
83333.3332870533
83333.3332521167
83333.3332526926
83333.3332528334
83333.3332532402
83333.3332534193
83333.3332535228
83333.3332537613
83333.3332540379
83333.3332541444
83333.3332543354
83333.3332544245
83333.3332546454
83333.3332547945
83333.3332550644
83333.333255205
83333.3332554109
83333.3332554789
83333.3332556865
83333.3332557026
83333.3332558741
83333.3332560917
83333.3332569535
83333.3332566626
83333.333256357
83333.3332567161
83333.3332568596
83333.3332566757
83333.3332569492
83333.3332577075
83333.3332574141
83333.3332569637
83333.3332572796
83333.333258089
83333.3332583401
83333.3332583933
83333.3332591377
83333.3332582809
83333.3332580538
83333.3332575466
83333.3332576743
83333.333258691
83333.3332597946
83333.333260392
83333.3332610089
83333.3332621867
83333.3332586426
83333.3332585243
83333.3332580434
83333.3332580191
83333.333258956
83333.3332605229
83333.3332620356
83333.3332631795
83333.3332647976
83333.3332664209
83333.3332587759
83333.3332587976
83333.3332583988
83333.3332583012
83333.3332590812
83333.3332607482
83333.3332628566
83333.3332649565
83333.3332668674
83333.3332701279
83333.333272685
83333.3332586768
83333.3332588594
83333.3332585798
83333.3332584838
83333.3332591255
83333.3332607052
83333.3332630447
83333.3332657657
83333.3332686844
83333.3332718573
83333.3332778402
83333.3332828269
83333.3332583559
83333.333258713
83333.3332585721
83333.3332585342
83333.3332590899
83333.3332605238
83333.3332628521
83333.3332658522
83333.3332693161
83333.3332732965
83333.3332785621
83333.3332897438
83333.3332578441
83333.3332583661
83333.333258386
83333.3332584386
83333.3332589608
83333.3332602569
83333.3332624566
83333.3332654845
83333.333269187
83333.3332735595
83333.333278863
83333.3332871485
83333.3333008317
83333.3332571733
83333.3332578466
83333.3332580328
83333.3332581986
83333.3332587272
83333.3332599162
83333.3332619511
83333.3332648602
83333.3332685766
83333.3332730741
83333.3332785244
83333.3332855735
83333.3332513494
83333.3332519199
83333.3332520453
83333.3332524685
83333.3332526486
83333.333252742
83333.3332530052
83333.33325329
83333.3332533981
83333.3332535648
83333.3332537117
83333.3332539383
83333.3332540904
83333.3332543441
83333.333254453
83333.3332547682
83333.3332548348
83333.3332550261
83333.3332550438
83333.3332551882
83333.3332553637
83333.3332564214
83333.3332561341
83333.3332562716
83333.3332561158
83333.3332557481
83333.33325601
83333.3332562521
83333.3332570407
83333.333256794
83333.3332563963
83333.3332567418
83333.3332575672
83333.3332578576
83333.3332579947
83333.3332587686
83333.3332576553
83333.3332574692
83333.3332570155
83333.3332571851
83333.3332582307
83333.3332593701
83333.3332600349
83333.3332607765
83333.333261994
83333.333258061
83333.3332579794
83333.3332575478
83333.3332575689
83333.3332585424
83333.3332601508
83333.333261723
83333.3332629629
83333.3332647453
83333.3332664092
83333.3332582406
83333.3332582935
83333.3332579387
83333.3332578856
83333.333258704
83333.3332604143
83333.3332625819
83333.3332647638
83333.3332667899
83333.3332702367
83333.333272855
83333.3332581888
83333.3332583989
83333.3332581569
83333.3332581009
83333.3332587795
83333.3332603999
83333.3332627948
83333.3332655943
83333.3332686128
83333.3332719134
83333.3332781082
83333.3332831685
83333.3332579137
83333.3332582946
83333.3332581875
83333.3332581836
83333.3332587718
83333.3332602404
83333.3332626155
83333.3332656832
83333.3332692408
83333.3332733353
83333.3332787333
83333.3332901678
83333.3332574362
83333.3332579807
83333.3332580306
83333.3332581137
83333.3332586634
83333.3332599876
83333.3332622236
83333.3332653036
83333.3332690791
83333.333273546
83333.3332789501
83333.3332873147
83333.3333010368
83333.3332567899
83333.333257483
83333.3332576977
83333.3332578896
83333.3332584429
83333.333259655
83333.3332617172
83333.3332646627
83333.3332684283
83333.333272988
83333.333278506
83333.3332856112
83333.3332961667
83333.3333084545
83333.333256007
83333.3332568357
83333.3332572056
83333.3332575183
83333.3332581065
83333.3332592419
83333.3332611369
83333.3332638858
83333.3332674961
83333.3332719651
83333.3332773927
83333.3332841318
83333.3332506247
83333.3332511704
83333.3332512755
83333.3332516964
83333.3332518746
83333.3332519528
83333.3332522191
83333.3332525129
83333.3332526219
83333.3332527631
83333.3332529153
83333.333253167
83333.3332533338
83333.3332535737
83333.3332536537
83333.333254005
83333.3332540908
83333.3332542868
83333.3332543212
83333.3332544418
83333.3332545779
83333.3332557353
83333.3332554588
83333.3332555767
83333.3332554325
83333.3332550718
83333.3332552914
83333.3332554865
83333.3332582209
83333.3332574475
83333.3332572514
83333.3332569463
83333.3332561271
83333.3332557616
83333.3332561059
83333.3332563067
83333.3332569613
83333.3332568163
83333.3332564183
83333.3332566257
83333.3332576861
83333.3332588423
83333.3332595587
83333.3332604198
83333.3332616564
83333.3332574117
83333.3332573671
83333.3332569874
83333.3332570533
83333.3332580561
83333.3332596936
83333.333261313
83333.3332626419
83333.3332645961
83333.333266292
83333.3332576391
83333.3332577237
83333.3332574166
83333.3332574082
83333.3332582623
83333.3332600087
83333.3332622285
83333.333264489
83333.3332666378
83333.3332702929
83333.3332729714
83333.333257637
83333.3332578752
83333.3332576727
83333.3332576591
83333.3332583744
83333.3332600326
83333.3332624795
83333.333265357
83333.3332684793
83333.3332719176
83333.3332783487
83333.3332834746
83333.3332574112
83333.3332578159
83333.3332577447
83333.3332577772
83333.3332584
83333.333259904
83333.3332623256
83333.3332654631
83333.3332691209
83333.3332733383
83333.3332788822
83333.33329059
83333.3332569801
83333.3332575456
83333.3332576278
83333.3332577425
83333.3332583227
83333.3332596774
83333.333261952
83333.3332650885
83333.3332689469
83333.3332735262
83333.3332790547
83333.3332875284
83333.3333012968
83333.3332563678
83333.3332570819
83333.3332573254
83333.3332575463
83333.3332581264
83333.3332593639
83333.3332614565
83333.3332644447
83333.3332682714
83333.3332729138
83333.3332785309
83333.3332857135
83333.33329628
83333.333308573
83333.3332556093
83333.3332564564
83333.3332568557
83333.3332571939
83333.3332578059
83333.3332589636
83333.3332608828
83333.3332636625
83333.3332673139
83333.333271836
83333.3332773255
83333.3332841237
83333.3332931265
83333.3333034295
83333.3333141719
83333.3332547477
83333.3332557024
83333.3332562416
83333.3332566989
83333.333257364
83333.3332584748
83333.3332602455
83333.3332628064
83333.3332662157
83333.3332705013
83333.3332757308
83333.3332821042
83333.3332499629
83333.3332504669
83333.3332505478
83333.3332509526
83333.3332511223
83333.3332511807
83333.3332514358
83333.3332517351
83333.3332518398
83333.3332519538
83333.3332520859
83333.3332523643
83333.3332525485
83333.3332527733
83333.3332528256
83333.3332531211
83333.3332532592
83333.3332534842
83333.3332535493
83333.3332536487
83333.3332537478
83333.3332548772
83333.333254647
83333.3332547779
83333.3332546741
83333.3332543372
83333.333254516
83333.3332546671
83333.333257462
83333.3332567247
83333.3332565054
83333.3332562198
83333.3332554372
83333.3332550644
83333.3332553556
83333.3332555126
83333.333261089
83333.333259876
83333.3332589258
83333.333258191
83333.3332570493
83333.3332559955
83333.3332557572
83333.333256099
83333.3332562034
83333.3332566977
83333.3332566897
83333.3332563632
83333.3332564713
83333.3332574908
83333.333259136
83333.3332607796
83333.3332621812
83333.3332643049
83333.3332660244
83333.3332569745
83333.3332570894
83333.3332568318
83333.333256868
83333.3332577509
83333.3332595204
83333.3332617768
83333.333264102
83333.3332663684
83333.3332702504
83333.3332729949
83333.3332570228
83333.3332572885
83333.3332571276
83333.3332571576
83333.3332579063
83333.3332595951
83333.3332620844
83333.3332650315
83333.3332682566
83333.3332718439
83333.3332785375
83333.3332836668
83333.3332568478
83333.3332572757
83333.333257242
83333.3332573126
83333.3332579697
83333.3332595058
83333.3332619691
83333.3332651725
83333.3332689315
83333.333273277
83333.3332789789
83333.333290993
83333.3332564664
83333.3332570524
83333.3332571686
83333.3332573161
83333.3332579281
83333.3332593131
83333.3332616251
83333.3332648177
83333.3332687625
83333.3332734635
83333.3332791292
83333.333287731
83333.3333015846
83333.3332558999
83333.3332566328
83333.3332569064
83333.3332571572
83333.3332577656
83333.33325903
83333.333261154
83333.3332641868
83333.3332680806
83333.3332728194
83333.3332785586
83333.3332858454
83333.3332964374
83333.3333087162
83333.333255174
83333.3332560413
83333.3332564684
83333.3332568344
83333.3332574719
83333.333258653
83333.3332605979
83333.3332634117
83333.3332671118
83333.3332717011
83333.3332772758
83333.3332841609
83333.3332931974
83333.3333034968
83333.3333142268
83333.3332543295
83333.3332553084
83333.3332558762
83333.3332563603
83333.3332570483
83333.3332581805
83333.333259973
83333.3332625598
83333.3332660029
83333.3332703322
83333.3332756141
83333.3332820437
83333.333290031
83333.3332991952
83333.3333087349
83333.3333177367
83333.3332534402
83333.333254474
83333.3332551571
83333.3332557548
83333.3332565046
83333.333257614
83333.3332592845
83333.3332616607
83333.3332648317
83333.3332688511
83333.3332737761
83333.3332797207
83333.3332493777
83333.3332498279
83333.3332498826
83333.3332502628
83333.3332504136
83333.3332504506
83333.3332506908
83333.3332509863
83333.3332510772
83333.3332511619
83333.3332512589
83333.3332515642
83333.3332517615
83333.3332519663
83333.3332519903
83333.3332521993
83333.3332523859
83333.3332526497
83333.3332527501
83333.3332528277
83333.3332528919
83333.3332538279
83333.3332537031
83333.3332538901
83333.3332538567
83333.3332535582
83333.3332536983
83333.333253808
83333.3332564523
83333.3332558112
83333.3332556166
83333.3332553925
83333.3332546806
83333.3332543135
83333.3332545532
83333.333254669
83333.3332602405
83333.333259104
83333.333258108
83333.3332574018
83333.3332563176
83333.3332552979
83333.3332550379
83333.333255324
83333.3332553901
83333.3332654675
83333.3332637735
83333.3332615212
83333.3332600902
83333.333258463
83333.3332568423
83333.3332558244
83333.3332556791
83333.3332559526
83333.3332559247
83333.3332562497
83333.3332563944
83333.3332561867
83333.3332562654
83333.3332571666
83333.3332589385
83333.3332612045
83333.3332635687
83333.3332659365
83333.3332700566
83333.3332728932
83333.333256349
83333.333256639
83333.3332565229
83333.3332565963
83333.3332573725
83333.3332590794
83333.3332615933
83333.3332645916
83333.3332679066
83333.3332716417
83333.3332786353
83333.333283813
83333.3332562258
83333.3332566754
83333.33325668
83333.3332567902
83333.3332574786
83333.3332590399
83333.3332615342
83333.3332647923
83333.3332686451
83333.3332731199
83333.3332789864
83333.3332913277
83333.3332558954
83333.3332565006
83333.3332566514
83333.333256833
83333.3332574759
83333.3332588881
83333.3332612318
83333.3332644743
83333.3332685026
83333.3332733282
83333.3332791372
83333.3332878836
83333.3333018613
83333.3332553776
83333.3332561281
83333.3332564325
83333.3332567142
83333.3332573512
83333.3332586418
83333.3332607951
83333.3332638704
83333.3332678314
83333.3332726722
83333.3332785458
83333.3332859538
83333.3332965971
83333.3333088742
83333.3332546961
83333.3332555802
83333.3332560352
83333.3332564295
83333.3332570934
83333.3332582984
83333.3332602688
83333.333263117
83333.3332668685
83333.3332715337
83333.3332772108
83333.3332842082
83333.3332933026
83333.3333036
83333.3333142996
83333.3332538795
83333.3332548803
83333.333255475
83333.3332559863
83333.3332566985
83333.3332578524
83333.333259667
83333.3332622811
83333.333265762
83333.3332701437
83333.3332754935
83333.3332820007
83333.3332900452
83333.3332992259
83333.3333087507
83333.3333177521
83333.3332530014
83333.3332540599
83333.3332547761
83333.333255402
83333.3332561747
83333.3332573046
83333.3332589953
83333.3332613937
83333.3332645922
83333.3332686468
83333.3332736147
83333.333279608
83333.333286818
83333.3332950664
83333.3333038119
83333.3333123292
83333.3333198645
83333.3332520811
83333.3332531969
83333.3332539777
83333.3332547012
83333.3332555386
83333.3332566626
83333.333258257
83333.3332604675
83333.3332633974
83333.3332671192
83333.33327169
83333.3332771817
83333.3332488759
83333.333249265
83333.3332492925
83333.3332496434
83333.333249767
83333.3332497818
83333.3332500112
83333.3332502905
83333.3332503567
83333.3332504098
83333.3332504789
83333.3332508029
83333.3332510008
83333.3332511763
83333.3332511717
83333.3332512761
83333.3332515112
83333.333251816
83333.3332519492
83333.3332520006
83333.3332520323
83333.3332527268
83333.3332526966
83333.3332529579
83333.3332530091
83333.3332527548
83333.333252856
83333.3332529274
83333.3332551301
83333.3332546874
83333.333254593
83333.3332544817
83333.3332538723
83333.3332535231
83333.3332537125
83333.3332537898
83333.3332590155
83333.3332580537
83333.3332570885
83333.3332564734
83333.3332554973
83333.3332545417
83333.33325427
83333.3332545016
83333.3332545322
83333.3332645757
83333.3332629547
83333.3332606196
83333.3332592187
83333.3332576648
83333.3332561112
83333.3332551171
83333.3332549415
83333.3332551624
83333.3332551015
83333.333272404
83333.3332695525
83333.3332652502
83333.3332628393
83333.3332604861
83333.333258253
83333.333256508
83333.3332556031
83333.3332554861
83333.3332556444
83333.3332554705
83333.3332556201
83333.3332559327
83333.3332558623
83333.3332559765
83333.3332567717
83333.3332584782
83333.3332609887
83333.3332640073
83333.333267386
83333.3332712493
83333.3332786054
83333.3332837963
83333.3332555487
83333.333256018
83333.3332560614
83333.3332562112
83333.3332569258
83333.3332585011
83333.3332610086
83333.3332643004
83333.3332682277
83333.3332728197
83333.3332788435
83333.3332916113
83333.3332552699
83333.3332558924
83333.3332560775
83333.333256294
83333.3332569655
83333.3332583985
83333.3332607631
83333.3332640425
83333.3332681426
83333.3332730879
83333.3332790377
83333.3332879334
83333.333302103
83333.3332548018
83333.3332555681
83333.3332559034
83333.3332562161
83333.3332568808
83333.3332581943
83333.3332603711
83333.3332634813
83333.3332675031
83333.3332724444
83333.333278457
83333.3332859941
83333.3332967099
83333.3333089992
83333.3332541669
83333.3332550661
83333.3332555493
83333.333255972
83333.3332566624
83333.33325789
83333.3332598834
83333.3332627624
83333.3332665628
83333.333271305
83333.3332770928
83333.3332842169
83333.3332933907
83333.3333037027
83333.33331437
83333.333253392
83333.3332544088
83333.3332550293
83333.3332555676
83333.3332563046
83333.3332574801
83333.3332593158
83333.333261956
83333.333265475
83333.3332699133
83333.3332753421
83333.3332819456
83333.3332900695
83333.3332992794
83333.3333087801
83333.3333177549
83333.3332525366
83333.3332536181
83333.3332543621
83333.3332550146
83333.3332558106
83333.3332569609
83333.3332586712
83333.3332610915
83333.3332643191
83333.3332684136
83333.3332734337
83333.3332794892
83333.3332867586
83333.3332950441
83333.3333037904
83333.3333122993
83333.333319853
83333.3332516383
83333.3332527559
83333.3332535763
83333.3332543338
83333.3332551947
83333.3332563388
83333.3332579526
83333.3332601825
83333.3332631351
83333.3332668848
83333.3332714902
83333.3332770224
83333.3332835754
83333.3332910483
83333.333299083
83333.3333071107
83333.333314602
83333.3333210417
83333.3332518683
83333.3332527571
83333.3332535563
83333.333254477
83333.3332556271
83333.3332571659
83333.3332592352
83333.3332619407
83333.3332653648
83333.3332695701
83333.3332746094
83333.333248462
83333.3332487833
83333.3332487841
83333.3332491052
83333.3332491953
83333.3332491863
83333.3332494145
83333.3332496635
83333.3332496959
83333.3332497167
83333.3332497788
83333.3332501076
83333.3332502892
83333.3332504253
83333.3332503917
83333.3332504062
83333.3332506861
83333.3332510191
83333.3332511724
83333.33325119
83333.3332511914
83333.3332516091
83333.3332516724
83333.3332520224
83333.3332521613
83333.3332519496
83333.3332520086
83333.3332520459
83333.3332537294
83333.3332534637
83333.3332535013
83333.3332535282
83333.3332530367
83333.333252711
83333.3332528513
83333.3332528924
83333.3332572744
83333.3332566557
83333.3332558559
83333.3332554186
83333.3332546051
83333.3332537414
83333.3332534673
83333.333253646
83333.3332536439
83333.3332631431
83333.3332617369
83333.3332594304
83333.3332581504
83333.3332567431
83333.3332553048
83333.3332543587
83333.3332541605
83333.33325433
83333.3332542392
83333.3332715786
83333.3332687145
83333.3332642572
83333.333261871
83333.3332596012
83333.3332574593
83333.333255778
83333.3332548869
83333.3332547367
83333.3332548473
83333.3332546459
83333.3332831329
83333.333278174
83333.3332705554
83333.3332666219
83333.3332632396
83333.3332602527
83333.333257786
83333.333256105
83333.3332553023
83333.3332551512
83333.3332551763
83333.3332548435
83333.3332548218
83333.3332553087
83333.3332553909
83333.3332555784
83333.3332563118
83333.3332578851
83333.3332603798
83333.3332636717
83333.3332676401
83333.3332723219
83333.3332784823
83333.333291863
83333.3332545942
83333.3332552317
83333.3332554508
83333.3332557018
83333.3332563976
83333.3332578415
83333.3332602104
83333.3332635046
83333.3332676537
83333.3332727002
83333.3332787716
83333.3332878185
83333.3333022987
83333.3332541759
83333.3332549558
83333.3332553212
83333.333255665
83333.3332563551
83333.3332576857
83333.3332598758
83333.333263007
83333.3332670751
83333.333272106
83333.3332782525
83333.3332859124
83333.3332967243
83333.333309059
83333.3332535882
83333.3332545007
83333.3332550112
83333.333255462
83333.3332561773
83333.3332574245
83333.3332594349
83333.3332623367
83333.3332661772
83333.3332709906
83333.3332768885
83333.3332841447
83333.3332934092
83333.3333037499
83333.3333143867
83333.3332528573
83333.3332538874
83333.3332545332
83333.3332550984
83333.3332558594
83333.333257055
83333.3332589089
83333.3332615709
83333.3332651235
83333.3332696162
83333.333275127
83333.3332818361
83333.3332900552
83333.3332993103
83333.3333087926
83333.3333177381
83333.3332520412
83333.3332531374
83333.3332539057
83333.3332545838
83333.3332554032
83333.3332565732
83333.3332583014
83333.3332607417
83333.3332639968
83333.3332681322
83333.3332732105
83333.3332793404
83333.3332866847
83333.3332950201
83333.3333037668
83333.3333122532
83333.3333198164
83333.3332511715
83333.3332522987
83333.3332531487
83333.3332539338
83333.3332548172
83333.3332559808
83333.3332576125
83333.3332598607
83333.3332628355
83333.3332666152
83333.3332712597
83333.33327684
83333.3332834444
83333.3332909608
83333.3332990148
83333.3333070411
83333.3333145398
83333.3333210174
83333.3332514273
83333.3332523269
83333.3332531723
83333.33325412
83333.3332552896
83333.3332568474
83333.3332589343
83333.3332616586
83333.3332651051
83333.3332693376
83333.3332744101
83333.3332803712
83333.33328716
83333.3332945338
83333.3333020552
83333.3333092903
83333.3333159282
83333.3333216855
83333.3332514809
83333.3332523574
83333.3332533333
83333.3332545136
83333.333256016
83333.3332579681
83333.3332604742
83333.3332636194
83333.3332674705
83333.3332720754
83333.3332481387
83333.3332483877
83333.3332483638
83333.3332486506
83333.3332487035
83333.3332486703
83333.3332489083
83333.3332491145
83333.3332491077
83333.3332490967
83333.3332491836
83333.333249495
83333.3332496432
83333.3332497316
83333.3332496694
83333.333249643
83333.3332499486
83333.3332502858
83333.333250441
83333.3332504176
83333.3332503894
83333.3332505574
83333.3332507099
83333.3332511369
83333.3332513469
83333.3332511653
83333.3332511782
83333.3332511848
83333.3332522802
83333.3332521786
83333.3332523911
83333.3332525717
83333.3332522003
83333.3332518982
83333.3332519895
83333.333251996
83333.3332553607