/*--------------------------------*- C++ -*----------------------------------*\
  =========                 |
  \\      /  F ield         | OpenFOAM: The Open Source CFD Toolbox
   \\    /   O peration     | Website:  https://openfoam.org
    \\  /    A nd           | Version:  12
     \\/     M anipulation  |
\*---------------------------------------------------------------------------*/
/*   Windows 32 and 64 bit porting by blueCAPE: http://www.bluecape.com.pt   *\
|  Based on Windows porting (2.0.x v4) by Symscape: http://www.symscape.com   |
\*---------------------------------------------------------------------------*/
FoamFile
{
    format      ascii;
    class       surfaceScalarField;
    location    "300";
    object      phi;
}
// * * * * * * * * * * * * * * * * * * * * * * * * * * * * * * * * * * * * * //

dimensions      [0 3 -1 0 0 0 0];

internalField   nonuniform List<scalar> 
29038
(
8.61220629068415e-07
1.74572302167645e-07
-1.78096708335428e-07
8.68542304214288e-07
1.66339519289845e-07
-1.73664489031796e-07
8.25167706695115e-07
2.66255359195832e-07
-7.19032039138254e-08
8.03241036365316e-07
2.45367350614071e-07
-4.00382716070143e-07
8.832172089188e-07
1.65454478339812e-07
-1.80124001382094e-07
8.14275863598652e-07
2.51703069720299e-07
-7.44622352817962e-08
7.92016807099989e-07
2.37455258518638e-07
-3.99872586379294e-07
9.0521697942788e-07
4.25485825848855e-07
-1.45008015599001e-07
9.10399449237297e-07
4.03289552748355e-07
-2.00064794068622e-07
8.15135003969857e-07
3.64184424255649e-07
-7.39759589394179e-07
9.05485952291611e-07
1.63613640090144e-07
-1.85871821886774e-07
8.14616755445837e-07
2.5431174574476e-07
-8.91848070459835e-08
7.88457480679276e-07
2.43493290658857e-07
-4.20048823749436e-07
8.97935619103239e-07
4.12808075313954e-07
-1.53812838979101e-07
8.92089459045491e-07
4.00003604934576e-07
-2.18723259289206e-07
8.0239421149344e-07
3.66896257582923e-07
-7.54041337775759e-07
9.91167665649937e-07
6.82350984575097e-07
-2.52528748637473e-07
8.85577808552066e-07
5.0445032441244e-07
-2.22639168417783e-07
7.7000391874804e-07
5.09444596793969e-07
-3.14581560116039e-07
8.79180334544496e-07
4.90626527694505e-07
-1.2109223627597e-06
9.34066620366341e-07
1.61834886777838e-07
-1.9040666516787e-07
8.21576698034668e-07
2.56413844412496e-07
-9.9756800701896e-08
7.92230669275721e-07
2.46729931900121e-07
-4.36383308385604e-07
9.01069290975171e-07
4.20701859487261e-07
-1.69519848865688e-07
8.8279640859626e-07
4.16642440887242e-07
-2.53034380372008e-07
7.95770523832584e-07
3.80145478643983e-07
-7.93574670505635e-07
9.92469698037313e-07
6.75204231953261e-07
-2.63694181979672e-07
8.67671044047692e-07
5.08768061174338e-07
-2.44662646483254e-07
7.45137949096606e-07
5.1768082485056e-07
-3.44646873245131e-07
8.68522616750693e-07
4.97601540827478e-07
-1.24100870806234e-06
1.06244193101227e-06
9.81402460637132e-07
-3.03470501671405e-07
8.14434988104114e-07
6.04150994904047e-07
-3.28561906037713e-07
6.41192654804956e-07
5.84179757895233e-07
-2.55439162878447e-07
7.05661914262964e-07
6.9041739564535e-07
-4.80508825097119e-07
9.2184419472722e-07
6.12770010273193e-07
-1.80972982204856e-06
9.69566937920227e-07
1.60717352601953e-07
-1.96215343647773e-07
8.34810632350331e-07
2.57139446906358e-07
-1.08524366994043e-07
8.04109246817844e-07
2.47771118669189e-07
-4.50070140984496e-07
9.10828035932945e-07
4.27982846183864e-07
-1.81309544035558e-07
8.80158510296577e-07
4.31432138701466e-07
-2.81827324632745e-07
7.96112113874611e-07
3.90904160440359e-07
-8.27627637820325e-07
1.00255661650242e-06
6.87877318865728e-07
-2.77260573616335e-07
8.58165148609792e-07
5.30162010295567e-07
-2.73513313143536e-07
7.25549534870355e-07
5.37462539570703e-07
-3.9075809519169e-07
8.60841113700944e-07
5.12119002654068e-07
-1.29800627579266e-06
1.0725045122545e-06
9.79250380286054e-07
-3.14106303636605e-07
7.94079763371311e-07
6.11803757432698e-07
-3.46364097602065e-07
6.0142221197516e-07
5.92326355177299e-07
-2.79541843146518e-07
6.74015030660929e-07
6.99500693531768e-07
-5.14903104191309e-07
9.13556895451133e-07
6.18937376276008e-07
-1.85165623548544e-06
1.12549762331219e-06
1.28968586206226e-06
-3.21790119803487e-07
7.80669327660058e-07
7.28075787204699e-07
-4.06346229058924e-07
6.24069264111369e-07
6.92431546770769e-07
-3.93814003409855e-07
6.03931444340007e-07
8.5178269535569e-07
-3.69325477811052e-07
6.6949567823789e-07
8.91249850418292e-07
-7.23584494320684e-07
8.95963233666589e-07
7.40828355098992e-07
-2.53960668315626e-06
1.01271356843104e-06
1.60622263671235e-07
-2.0378445449304e-07
8.54850016981532e-07
2.58155323847482e-07
-1.17468985681802e-07
8.24725138773041e-07
2.49049076513586e-07
-4.65886453848489e-07
9.25973229533836e-07
4.33455503918315e-07
-1.91458647107094e-07
8.85098039644091e-07
4.42324797525616e-07
-3.08008933820047e-07
8.05450543271616e-07
3.99158016577097e-07
-8.58575463287819e-07
1.01947306522863e-06
6.99833060734878e-07
-2.88762072431997e-07
8.56999125048385e-07
5.51453730418111e-07
-3.00150638442566e-07
7.13149203529127e-07
5.56315466311402e-07
-4.34852119067355e-07
8.59171850186921e-07
5.24496204648327e-07
-1.35045484942996e-06
1.09014678912115e-06
9.95178901360676e-07
-3.24929358382639e-07
7.80923388271214e-07
6.32979165729007e-07
-3.6691494622601e-07
5.66764369588269e-07
6.09984574483527e-07
-3.11378020896462e-07
6.46127728458442e-07
7.1543689079596e-07
-5.66196085084836e-07
9.07776664653898e-07
6.30188258768953e-07
-1.92242966646222e-06
1.14390076616277e-06
1.29100796598774e-06
-3.30158100726318e-07
7.6224086164042e-07
7.36020423274349e-07
-4.19888513358668e-07
5.82564434537962e-07
6.99412262829837e-07
-4.11943821211773e-07
5.57364106536884e-07
8.58854481663437e-07
-3.92329657114955e-07
6.35419190458941e-07
8.97079355891798e-07
-7.58981220266416e-07
8.89421586818862e-07
7.4558201351003e-07
-2.59070292156018e-06
1.1725467647965e-06
1.58796144133273e-06
-3.18996210298831e-07
7.7154034770862e-07
8.66187134241125e-07
-4.43285694010277e-07
6.37678795791976e-07
8.25586421118664e-07
-5.0132487175002e-07
6.13986758471791e-07
1.00248122965976e-06
-4.96826898900202e-07
5.97474851739098e-07
1.12286715843419e-06
-5.53785604298874e-07
6.20543179639548e-07
1.09111234364653e-06
-1.03880514305105e-06
8.16514879770758e-07
8.66907209754373e-07
-3.39711968269276e-06
1.06375205497192e-06
1.61647923383998e-07
-2.12682924446748e-07
8.83057295975991e-07
2.60378433827395e-07
-1.2796407194474e-07
8.55305031735895e-07
2.50284671071226e-07
-4.84654050683677e-07
9.46924289754948e-07
4.38581526631843e-07
-2.01378487722805e-07
8.98224053038854e-07
4.520804491595e-07
-3.3362721093235e-07
8.25191092529124e-07
4.05626237352477e-07
-8.91241238156215e-07
1.04198135283899e-06
7.09789701400189e-07
-2.98840277814645e-07
8.6356490589493e-07
5.6988768790309e-07
-3.255762989492e-07
7.09063564313099e-07
5.72375696184663e-07
-4.77130966427467e-07
8.67359987513662e-07
5.34085516984436e-07
-1.40086898988361e-06
1.11436230103624e-06
1.00992786211354e-06
-3.34309034841372e-07
7.75653089791678e-07
6.54858199072197e-07
-3.86888660461528e-07
5.38613902360309e-07
6.27981742576349e-07
-3.43670175015202e-07
6.24319672336051e-07
7.30385861089785e-07
-6.18934047237988e-07
9.08005619051322e-07
6.39949319578909e-07
-1.99064472999336e-06
1.1685743467572e-06
1.30828036967315e-06
-3.37766366825982e-07
7.49694631862668e-07
7.54535212141461e-07
-4.33935327951767e-07
5.45686796801545e-07
7.13457993142961e-07
-4.33509687922067e-07
5.14561219788252e-07
8.70978307646734e-07
-4.24115757579311e-07
6.04446118242262e-07
9.06844850894435e-07
-8.11873807395627e-07
8.85476793585882e-07
7.53575155783457e-07
-2.67207665041887e-06
1.19816280350657e-06
1.59077780234911e-06
-3.253732014589e-07
7.57494147866445e-07
8.72794411531429e-07
-4.52896254587249e-07
6.00832354415173e-07
8.30653776924357e-07
-5.14278485263517e-07
5.67478548485557e-07
1.00709504883158e-06
-5.13676045785828e-07
5.51144363991771e-07
1.12644732136591e-06
-5.75371934218531e-07
5.86749907806555e-07
1.09328789427762e-06
-1.0729047792209e-06
8.10971167721132e-07
8.69578107424579e-07
-3.45474552626765e-06
1.20730369328741e-06
1.86471881447623e-06
-3.01970016817407e-07
7.72628404107519e-07
1.00702396611574e-06
-4.47958276612675e-07
6.60167176600161e-07
9.65098727294967e-07
-5.51146933812963e-07
6.40499138753795e-07
1.14393475135356e-06
-6.00204309930898e-07
6.18608633061975e-07
1.30848543040834e-06
-6.35704198890922e-07
5.81058150811779e-07
1.37048014115148e-06
-7.89193497975485e-07
5.62346224292052e-07
1.29880106727479e-06
-1.43781119437957e-06
7.08072496228569e-07
1.02566343896267e-06
-4.4143396401768e-06
1.12218322135054e-06
1.63840517243906e-07
-2.22255363506602e-07
9.20207917698317e-07
2.6393397596801e-07
-1.39431289005243e-07
8.96606966775535e-07
2.5119231545895e-07
-5.0517175702788e-07
9.74493239627365e-07
4.43856148216843e-07
-2.11042418380462e-07
9.19902875769192e-07
4.60508823998275e-07
-3.59858064393701e-07
8.56398346694999e-07
4.10706353885817e-07
-9.26568694815772e-07
1.06983373112918e-06
7.18482402382104e-07
-3.0773935742249e-07
8.77967331673742e-07
5.86550750635072e-07
-3.50245401335768e-07
7.13825485439255e-07
5.86162227502329e-07
-5.18928402552414e-07
8.88116351951148e-07
5.41347849133648e-07
-1.45335195493356e-06
1.14436992147358e-06
1.02205903678365e-06
-3.42255028796954e-07
7.778031135655e-07
6.74635349306574e-07
-4.05732502617406e-07
5.17083727832535e-07
6.43336069407673e-07
-3.75008638578818e-07
6.10053260454584e-07
7.42545535740742e-07
-6.71329826340823e-07
9.1828022352899e-07
6.4715721494204e-07
-2.05831046001284e-06
1.19906642767338e-06
1.32356504846858e-06
-3.44135011351645e-07
7.43974143147884e-07
7.73699983920573e-07
-4.47425979973509e-07
5.14466371913174e-07
7.27845654017395e-07
-4.55531603846164e-07
4.7660325697812e-07
8.82637054611316e-07
-4.57966498086112e-07
5.78492997847079e-07
9.15561782968164e-07
-8.68594348375529e-07
8.87776476991203e-07
7.60654019266515e-07
-2.75361157336091e-06
1.22850418173575e-06
1.60806534547715e-06
-3.30118558756802e-07
7.48356161667732e-07
8.87769193744169e-07
-4.6185662915157e-07
5.67945920673301e-07
8.40787882318869e-07
-5.28385130039675e-07
5.24433981540702e-07
1.01512566745699e-06
-5.34614779415953e-07
5.07645837226328e-07
1.13238005526289e-06
-6.06160282531895e-07
5.55245994242332e-07
1.0976113470995e-06
-1.12441213770683e-06
8.07819800443542e-07
8.74920675079113e-07
-3.54384975557165e-06
1.23741686701663e-06
1.86743867719657e-06
-3.06779596347211e-07
7.63273372037121e-07
1.01131768305243e-06
-4.54544588677299e-07
6.30050390993131e-07
9.67604825662511e-07
-5.59732080950481e-07
5.99433229534912e-07
1.14557126522888e-06
-6.11692368703621e-07
5.73228280419272e-07
1.30902585597788e-06
-6.50878037153085e-07
5.38038388530919e-07
1.36978712076077e-06
-8.08852050891571e-07
5.30578626048247e-07
1.29791448191304e-06
-1.46947103635262e-06
7.03402314963875e-07
1.0263934033513e-06
-4.4764703952637e-06
1.23672729566718e-06
2.11350947729668e-06
-2.77009004531317e-07
7.78897252155629e-07
1.14427476097687e-06
-4.31675852694333e-07
6.84628409962904e-07
1.10226241645428e-06
-5.59895349673198e-07
6.700970069731e-07
1.27696001299184e-06
-6.48508233822045e-07
6.49417171832187e-07
1.45708874106869e-06
-7.07374070747855e-07
6.12417402590196e-07
1.57875945525143e-06
-8.01329310292274e-07
5.54576906019699e-07
1.61240884229691e-06
-1.06365481218893e-06
5.01052499129035e-07
1.52436233236691e-06
-1.90704486850646e-06
5.88080663010131e-07
1.24871828459379e-06
-5.65529453059934e-06
1.18631206003036e-06
-2.31024299367577e-07
1.66900985183183e-07
9.65722536194381e-07
2.68401640552095e-07
-1.50076637074102e-07
9.482992412058e-07
2.5148304042706e-07
-5.25438982771658e-07
1.00857412563939e-06
4.48832126010511e-07
-2.18980736304672e-07
9.50086622049371e-07
4.67025866698118e-07
-3.85463520594157e-07
8.99607780950453e-07
4.13929973417117e-07
-9.62318099691041e-07
1.10292150119936e-06
7.257722878574e-07
-3.15005823678202e-07
9.00019257491787e-07
6.01181814681972e-07
-3.73759013782021e-07
7.27510026105774e-07
5.97525254902433e-07
-5.60357309117086e-07
9.22376348456731e-07
5.46403514242088e-07
-1.50723427106843e-06
1.17965923361123e-06
1.03216332632222e-06
-3.48958710859948e-07
7.8725789366446e-07
6.9246199116081e-07
-4.23092431774875e-07
5.02294081894575e-07
6.55929551568901e-07
-4.05224041781848e-07
6.04202760286965e-07
7.51880042319265e-07
-7.23619468757194e-07
9.41271261850308e-07
6.52058230726553e-07
-2.12840003959768e-06
1.23498136737971e-06
1.33576042182273e-06
-3.49611754126153e-07
7.44983443763313e-07
7.91044746213566e-07
-4.59663359594165e-07
4.88838761408453e-07
7.39690489693122e-07
-4.76462491992165e-07
4.43963699368884e-07
8.91447270655495e-07
-4.91269447523143e-07
5.59169518067462e-07
9.21454886415815e-07
-9.26318263292448e-07
9.00469916388007e-07
7.65686444626175e-07
-2.83669139607808e-06
1.26342121753039e-06
1.62269395105325e-06
-3.34034836267305e-07
7.44949971269087e-07
9.02950213184494e-07
-4.69981318969073e-07
5.39931971911836e-07
8.50778765968241e-07
-5.42346442416539e-07
4.8565917951831e-07
1.02244980228745e-06
-5.56568554316173e-07
4.67857904367877e-07
1.13714793643516e-06
-6.39769854723516e-07
5.27873649051287e-07
1.10062687259457e-06
-1.18120124725173e-06
8.11095127958598e-07
8.79268784974968e-07
-3.63614805186598e-06
1.27183351955824e-06
1.88336820618229e-06
-3.09715270666244e-07
7.58076960617491e-07
1.0225857907925e-06
-4.59747442243468e-07
6.0336475979197e-07
9.73900894281766e-07
-5.68285973449996e-07
5.6156635446466e-07
1.14942889406879e-06
-6.24822197557666e-07
5.30578520508661e-07
1.31085507894629e-06
-6.70440097053623e-07
4.97117174347098e-07
1.370099247377e-06
-8.37727218757967e-07
5.00542129230681e-07
1.2986639872883e-06
-1.51812043275674e-06
7.01260080902622e-07
1.02945049139315e-06
-4.5711635004647e-06
1.26942820122917e-06
2.11541378053986e-06
-2.80669667445843e-07
7.73843885113257e-07
1.14571906144054e-06
-4.36129021698147e-07
6.61036474415919e-07
1.10178480948648e-06
-5.65132466738186e-07
6.36031830679776e-07
1.27553353660493e-06
-6.55630116994834e-07
6.09557109873087e-07
1.45450023469897e-06
-7.1730850894048e-07
5.71082816535306e-07
1.57482181263783e-06
-8.14578944134196e-07
5.16202699510838e-07
1.60770420427626e-06
-1.08026779763802e-06
4.72882768800324e-07
1.52009342999343e-06
-1.9349982334221e-06
5.84780332829488e-07
1.24633184481967e-06
-5.71949837922549e-06
1.26353090115204e-06
2.33177659777781e-06
-2.48285321344676e-07
7.87471120420648e-07
1.27399434188924e-06
-4.03014203185092e-07
7.08501248038724e-07
1.23302761443397e-06
-5.43114425344519e-07
6.99874855574312e-07
1.40175998214925e-06
-6.55889223269285e-07
6.80396670161713e-07
1.58159582413027e-06
-7.38322093217078e-07
6.46666183871545e-07
1.73009326560574e-06
-8.21342345320485e-07
5.97190229289466e-07
1.83219729766467e-06
-9.84038558123001e-07
5.23694526401754e-07
1.87082234519571e-06
-1.37686172002583e-06
4.43336919999427e-07
1.81364834604893e-06
-2.44751618038045e-06
4.64789664345038e-07
1.58464572057352e-06
-7.23163312414851e-06
1.2535300980464e-06
-2.37705945434746e-07
1.70490084191793e-07
1.00884655080348e-06
-5.42734484205947e-07
2.51158501152907e-07
1.01828346624233e-06
-1.58885021465333e-07
2.73239279024558e-07
1.04843853864194e-06
4.53122009971474e-07
-2.24580602008944e-07
9.8816570396299e-07
4.71070568348239e-07
-4.07738838798974e-07
9.54311018016473e-07
4.14519227247038e-07
-9.94656650533533e-07
1.14059378950463e-06
7.31141280200292e-07
-3.19987049760979e-07
9.29242670807111e-07
6.13252862941626e-07
-3.94426642369612e-07
7.49748664305018e-07
6.0540880803686e-07
-5.99184094870673e-07
9.70590486386227e-07
5.48379444058927e-07
-1.55893714948807e-06
1.21956654554151e-06
1.03977026520203e-06
-3.5391197660597e-07
8.03806270616964e-07
7.0792122210224e-07
-4.38283551349127e-07
4.94284259675203e-07
6.65333642140383e-07
-4.33562389620536e-07
6.07126586350366e-07
7.57809688354477e-07
-7.74701081024551e-07
9.7919677015466e-07
6.53966898524341e-07
-2.19912890030872e-06
1.27558527784173e-06
1.3452103858824e-06
-3.53654131617182e-07
7.52371723922299e-07
8.0614136516963e-07
-4.70021806005003e-07
4.68832771935086e-07
7.48392746289497e-07
-4.95557489989492e-07
4.17086311068257e-07
8.96819053211782e-07
-5.23283052906663e-07
5.47785261790642e-07
9.24262497039899e-07
-9.8444176070272e-07
9.26835968584357e-07
7.68455831077535e-07
-2.92323763236737e-06
1.30280744060537e-06
1.6335660362685e-06
-3.37183655954919e-07
7.47117414417895e-07
9.16043890298926e-07
-4.76787182134965e-07
5.16760627872743e-07
8.58071705075441e-07
-5.54875744440749e-07
4.51427434968908e-07
1.02672451219816e-06
-5.77507650087843e-07
4.32453228557208e-07
1.13879309541581e-06
-6.7320635912425e-07
5.06371413577886e-07
1.10098349890108e-06
-1.24012033892103e-06
8.25038992380632e-07
8.81697162725879e-07
-3.73235645378247e-06
1.30978308859752e-06
1.89640069292618e-06
-3.1165483550253e-07
7.57604500024295e-07
1.0334456792133e-06
-4.64067217086365e-07
5.80745981002068e-07
9.79526345700614e-07
-5.76113100297379e-07
5.27473971806269e-07
1.15216850968892e-06
-6.3797501092744e-07
4.91247175795961e-07
1.3111747391609e-06
-6.91268569720332e-07
4.59046354525605e-07
1.36874399302342e-06
-8.69818590068093e-07
4.7381363813633e-07
1.29801605242685e-06
-1.57322076213628e-06
7.06002270762226e-07
1.03164899096461e-06
-4.67253980704508e-06
1.30572090286111e-06
2.12950130266553e-06
-2.82427780580487e-07
7.72405396852354e-07
1.15319564392824e-06
-4.38887772188542e-07
6.40596633974088e-07
1.10426631968624e-06
-5.69678977510245e-07
6.04827759970825e-07
1.27540490882652e-06
-6.63058320598311e-07
5.72240367056374e-07
1.45228881331112e-06
-7.28940668455798e-07
5.31859775144398e-07
1.57100398031577e-06
-8.32120778760769e-07
4.79463086651744e-07
1.60353725258732e-06
-1.10586365259699e-06
4.46045126182076e-07
1.51753035896574e-06
-1.97936998869844e-06
5.84698961158809e-07
1.24654767701248e-06
-5.81763548110773e-06
1.29796031393074e-06
2.33267328623383e-06
-2.51692383463759e-07
7.8600424377417e-07
1.2724230054793e-06
-4.05911377849181e-07
6.90749018543923e-07
1.22942764327575e-06
-5.46022513693792e-07
6.72691609568311e-07
1.39732187309139e-06
-6.5974064175881e-07
6.47326580802173e-07
1.57599992371483e-06
-7.44060912784585e-07
6.10744308624075e-07
1.72314448092136e-06
-8.29708732330811e-07
5.61154904458122e-07
1.82418542061546e-06
-9.95025284204449e-07
4.91004189296782e-07
1.86258880690645e-06
-1.39007243677633e-06
4.20196079816656e-07
1.80612300666814e-06
-2.47164934106117e-06
4.62823525776887e-07
1.57791163260573e-06
-7.29543419843749e-06
1.28888635609403e-06
2.52098365823331e-06
-2.20656517513346e-07
7.9652716632795e-07
1.3938700615178e-06
-3.67775805536196e-07
7.30362917560033e-07
1.35508746660418e-06
-5.1092803146581e-07
7.28068854905385e-07
1.51784678090325e-06
-6.36629040129577e-07
7.10771701436673e-07
1.69013672335636e-06
-7.36319147798011e-07
6.78321972702251e-07
1.84460907465978e-06
-8.21757935902821e-07
6.36111944769463e-07
1.97942716177731e-06
-9.36594090748649e-07
5.77959502538592e-07
2.0919341040466e-06
-1.17443468434344e-06
4.937456908732e-07
2.17186233083867e-06
-1.70864100766264e-06
3.95490302611938e-07
2.20734452653993e-06
-3.05181033568376e-06
3.40423140552218e-07
2.16506663322876e-06
-9.38735302694353e-06
1.3200857426889e-06
-2.40763306400161e-07
1.74202966142367e-07
1.07558403604614e-06
-5.5414271074879e-07
2.49695860243041e-07
1.07563347299622e-06
-1.64454786866878e-07
2.77587085407397e-07
1.01915050909405e-06
-1.01924864387705e-06
4.11683094528312e-07
1.03245768996097e-06
-4.23918221518377e-07
4.71937469618772e-07
1.09233578153006e-06
-2.26603379181816e-07
4.559415632649e-07
1.18149789588059e-06
7.3367780246244e-07
-3.21454553531071e-07
9.64343277741896e-07
6.21677990010202e-07
-4.10293315166749e-07
7.79802629947675e-07
6.08650846633189e-07
-6.31920222976628e-07
1.03270437489223e-06
5.46313201875783e-07
-1.6030931096579e-06
1.26295417133806e-06
1.04386385177868e-06
-3.5610755609128e-07
8.26940992841457e-07
7.20161186485492e-07
-4.50012041134214e-07
4.92860627725076e-07
6.706870359664e-07
-4.58273491482824e-07
6.18900007702927e-07
7.59254768624367e-07
-8.21828348010062e-07
1.03434413092604e-06
6.51920453486246e-07
-2.26600551885197e-06
1.31985000979586e-06
1.35119325716725e-06
-3.5569036824467e-07
7.65711872136991e-07
8.18399110980369e-07
-4.7772282039602e-07
4.54418116230201e-07
7.53305308689295e-07
-5.11841537386061e-07
3.96219457934173e-07
8.97967539465107e-07
-5.52847513331604e-07
5.45297469703325e-07
9.23104811799807e-07
-1.04135865898937e-06
9.7086655852896e-07
7.68316057169808e-07
-3.01147776089217e-06
1.34584612057189e-06
1.64096585343697e-06
-3.38807355253308e-07
7.54553072202718e-07
9.26557447675258e-07
-4.81504259756828e-07
4.98345756766905e-07
8.61869681433023e-07
-5.65084808702963e-07
4.22006998310302e-07
1.02706164515203e-06
-5.96380870689512e-07
4.02169201016516e-07
1.13659962591886e-06
-7.05335106897569e-07
4.92375759884072e-07
1.0981255934351e-06
-1.30011759795055e-06
8.5411532596935e-07
8.8168495472291e-07
-3.83399367524664e-06
1.35077756499725e-06
1.90545547269966e-06
-3.12884990720585e-07
7.61707923404729e-07
1.04180829199995e-06
-4.67052994871667e-07
5.6217743031141e-07
9.82112683736884e-07
-5.82257316682492e-07
4.97300663279237e-07
1.15159767776561e-06
-6.49578549487778e-07
4.55642491617136e-07
1.30802994642016e-06
-7.11142329898077e-07
4.24624628722914e-07
1.36411057346773e-06
-9.01911486716334e-07
4.52480307491376e-07
1.2941927115364e-06
-1.63128225385893e-06
7.21834645259e-07
1.03202036897277e-06
-4.78020839969321e-06
1.34483377117037e-06
2.14053474001303e-06
-2.83251502527176e-07
7.74874227082117e-07
1.15987187537509e-06
-4.40558585699226e-07
6.23654463880808e-07
1.10563226701279e-06
-5.73233821168286e-07
5.76955852508743e-07
1.27368912704838e-06
-6.69762182156142e-07
5.37941453678531e-07
1.44810113370059e-06
-7.40604742354877e-07
4.95238379027456e-07
1.56511822084034e-06
-8.51021758877288e-07
4.45122919721729e-07
1.597527220462e-06
-1.13498960204439e-06
4.22077245294694e-07
1.51355888291249e-06
-2.03116197945905e-06
5.91094517379362e-07
1.24638652530101e-06
-5.92531578826805e-06
1.33514425157088e-06
2.34470331321034e-06
-2.52379287193578e-07
7.87652335019218e-07
1.2760882327051e-06
-4.06975621470101e-07
6.75780286937987e-07
1.22819518317163e-06
-5.47853427258977e-07
6.48078190902554e-07
1.39351788421606e-06
-6.63181573535362e-07
6.1658401891227e-07
1.57011279934392e-06
-7.50141004719455e-07
5.76840162747398e-07
1.71560031561153e-06
-8.39633492344508e-07
5.26777780426385e-07
1.81578011987853e-06
-1.00998603297051e-06
4.59606610698484e-07
1.85482138290435e-06
-1.41175730701369e-06
3.98079481620074e-07
1.80079883688509e-06
-2.51149958196108e-06
4.65368273048689e-07
1.57569940047377e-06
-7.39588038616393e-06
1.32401377173066e-06
2.52036127555374e-06
-2.22809619938338e-07
7.98034008064528e-07
1.38921433810192e-06
-3.69984802711147e-07
7.17628557996625e-07
1.34842902412985e-06
-5.12177034590188e-07
7.07045588118843e-07
1.51044134819131e-06
-6.38120815332373e-07
6.84246364116746e-07
1.68170041005583e-06
-7.38917306310085e-07
6.48699039947125e-07
1.83490395021177e-06
-8.26198002325035e-07
6.05310082254149e-07
1.96857747430626e-06
-9.43299935526741e-07
5.47969064568841e-07
2.08043580382587e-06
-1.18288140180347e-06
4.67643692372991e-07
2.16050172744686e-06
-1.71835143947736e-06
3.78438078519304e-07
2.19656325866952e-06
-3.07324528503931e-06
3.39160455985892e-07
2.16248069403985e-06
-9.45664952886193e-06
1.3120024123155e-06
2.68027344201625e-06
-1.91339511008485e-07
8.0516861355331e-07
1.50126025100027e-06
-3.30283430934013e-07
7.49549600192233e-07
1.46705694795056e-06
-4.7012250039934e-07
7.53401208222444e-07
1.62462634413618e-06
-6.00624694247253e-07
7.39307045439664e-07
1.78662972946882e-06
-7.10959058195408e-07
7.08275340673867e-07
1.93600257091247e-06
-8.02634576536522e-07
6.69143544270068e-07
2.08033991048228e-06
-8.96396011984351e-07
6.2238758889762e-07
2.22568889427775e-06
-1.04437706303291e-06
5.58855850757835e-07
2.37399534025468e-06
-1.35281375981371e-06
4.72129188864656e-07
2.53699652053605e-06
-2.0193625882106e-06
3.68445155345891e-07
2.78984682131071e-06
-3.66509043567362e-06
2.10268509391304e-07
3.62676849873344e-06
1.38091589096003e-06
-2.38381334047674e-07
1.77547216281848e-07
1.14464706367302e-06
-5.56246929566539e-07
2.46411182577591e-07
1.13421750397189e-06
-1.65641350522408e-07
2.81258765801464e-07
1.09126501680009e-06
-1.03069823333342e-06
4.04443953613761e-07
1.08026851066185e-06
-4.31212340617216e-07
4.68650766038332e-07
1.13766780483919e-06
-2.23696560595943e-07
4.55962336173525e-07
1.10733426183767e-06
-1.63276763385375e-06
5.38882794231845e-07
8.16209318164271e-07
-6.54679798636841e-07
6.06027934536948e-07
1.00349931281199e-06
-4.18960431066573e-07
6.25148543172751e-07
1.22348021649245e-06
-3.18287801453537e-07
7.32259730309181e-07
1.30803694822161e-06
1.04320181862386e-06
-3.54607511842052e-07
8.55632404543131e-07
7.28041604898117e-07
-4.56503192922271e-07
4.97366303204411e-07
6.70809081567651e-07
-4.76952724729816e-07
6.39233652399295e-07
7.5497714863855e-07
-8.60919492370119e-07
1.10780304749611e-06
6.4527995195668e-07
-2.32184854453887e-06
1.36630668898138e-06
1.35249658423134e-06
-3.55088850920246e-07
7.84457221004701e-07
8.26943597734269e-07
-4.81635277185438e-07
4.453555175321e-07
7.53520241411886e-07
-5.23779961630809e-07
3.81345690348156e-07
8.93789441737936e-07
-5.77940968779259e-07
5.52522445092513e-07
9.16786608045483e-07
-1.09392164991409e-06
1.03673341383156e-06
7.6440013561399e-07
-3.0962742565775e-06
1.39143076096701e-06
1.64414051889601e-06
-3.38524052866156e-07
7.66814970525485e-07
9.33857530872776e-07
-4.83417102819958e-07
4.84512507793746e-07
8.61423322930169e-07
-5.72009891130663e-07
3.97521896328484e-07
1.02258170632455e-06
-6.1197201899222e-07
3.77541605109253e-07
1.12958595257029e-06
-7.3470557052952e-07
4.87589797676293e-07
1.0910909472146e-06
-1.35935083303996e-06
9.04276950865469e-07
8.78074535057489e-07
-3.93972234717975e-06
1.3941848188456e-06
1.91045629174641e-06
-3.12894476140246e-07
7.70075156079811e-07
1.04726690234406e-06
-4.67889064944216e-07
5.47562331006874e-07
9.80853905052053e-07
-5.85877400698791e-07
4.71176450698729e-07
1.14671248371293e-06
-6.5861502259341e-07
4.24234781935895e-07
1.30044758940521e-06
-7.28819858629788e-07
3.94828964484403e-07
1.35536700249652e-06
-9.3278526420486e-07
4.38590684417471e-07
1.28699765560038e-06
-1.69153367838685e-06
7.53421259909865e-07
1.03012604865277e-06
-4.89570365175222e-06
1.38631660008766e-06
2.14739238545857e-06
-2.83415906098644e-07
7.80966090487915e-07
1.16371533696089e-06
-4.40883825439306e-07
6.10038022678516e-07
1.10366874248376e-06
-5.74997055083833e-07
5.52488751730292e-07
1.26840008013339e-06
-6.74593182372138e-07
5.06947656089007e-07
1.44015304085389e-06
-7.5070928428112e-07
4.61743480008082e-07
1.55552729824745e-06
-8.69064155895069e-07
4.13903536883995e-07
1.58807001924221e-06
-1.16456746896531e-06
4.02898623831809e-07
1.50686907487203e-06
-2.08695595855899e-06
6.07903049747599e-07
1.24414421878446e-06
-6.04116295907651e-06
1.37418929462689e-06
2.35361946714166e-06
-2.5214559125808e-07
7.92571457493181e-07
1.27866273460211e-06
-4.06960776517645e-07
6.63826007147851e-07
1.22548241839642e-06
-5.4845648191008e-07
6.26324252250947e-07
1.38768141818563e-06
-6.654751489123e-07
5.88524355801014e-07
1.56182879135373e-06
-7.55432249520993e-07
5.45339258674229e-07
1.70552783988189e-06
-8.49514773273729e-07
4.94531452245705e-07
1.80500909971735e-06
-1.0262563416049e-06
4.30148087393999e-07
1.84520868792169e-06
-1.43718301919175e-06
3.78319815410132e-07
1.79439207947857e-06
-2.5594084244151e-06
4.73231235714653e-07
1.572616926776e-06
-7.50579537095009e-06
1.36109053061735e-06
2.53025948664081e-06
-2.22636661548907e-07
8.02198926387533e-07
1.38932436353925e-06
-3.69785895599361e-07
7.07352528032907e-07
1.34366109667235e-06
-5.12166294684492e-07
6.88306332883721e-07
1.50321463423499e-06
-6.38813473516201e-07
6.59834788237393e-07
1.67248141458728e-06
-7.41139550931138e-07
6.20968034510196e-07
1.82406082344959e-06
-8.30872017488041e-07
5.76122782487708e-07
1.95664670787715e-06
-9.51313009084947e-07
5.19307010267118e-07
2.06836167852864e-06
-1.19486318945642e-06
4.42630910441032e-07
2.14986988309967e-06
-1.73581446529992e-06
3.62340403922696e-07
2.18928040299164e-06
-3.10898060549068e-06
3.46422139954482e-07
2.16786219315355e-06
-9.57099780079697e-06
1.34717454185121e-06
2.67819999517991e-06
-1.93002767826702e-07
8.09061973207476e-07
1.49378044897337e-06
-3.31270208713159e-07
7.40997214487099e-07
1.45729995956872e-06
-4.70304413283301e-07
7.37717195255089e-07
1.61438093566547e-06
-6.00435156807851e-07
7.18638154887683e-07
1.77551538782355e-06
-7.11269256608528e-07
6.8460525875508e-07
1.92378401430406e-06
-8.0412936482891e-07
6.44081359484897e-07
2.06702567666365e-06
-8.99584272699629e-07
5.97308062585787e-07
2.21152551084026e-06
-1.04931042271919e-06
5.35525375175293e-07
2.35949894685956e-06
-1.35854748738587e-06
4.53325220183583e-07
2.52269003643984e-06
-2.02567652178159e-06
3.58747220349422e-07
2.77738697237301e-06
-3.67845511692995e-06
2.1175745625415e-07
3.63426179623873e-06
1.33260956783974e-06
2.81279258609367e-06
-1.64632288134051e-07
8.12812616811211e-07
1.59726594228823e-06
-2.91806272879915e-07
7.65655329464466e-07
1.56801839577229e-06
-4.25397380825033e-07
7.75341199355524e-07
1.72176196321861e-06
-5.54950493617832e-07
7.64862636597212e-07
1.872938036028e-06
-6.70018041770009e-07
7.36034839023181e-07
2.01191971883002e-06
-7.67182994204773e-07
6.98964246846534e-07
2.15325034163461e-06
-8.54592145646974e-07
6.57539389375281e-07
2.30708633543637e-06
-9.5685665945308e-07
6.0815352515879e-07
2.47984020207369e-06
-1.13066230687179e-06
5.44521184324932e-07
2.68556780666512e-06
-1.48505711048943e-06
4.70072308141171e-07
2.9818760809152e-06
-2.20049690662699e-06
4.17865247184233e-07
3.69515533215696e-06
1.43111566765968e-06
-2.30405175464798e-07
1.80210429377211e-07
1.21039252831642e-06
-5.45171803150993e-07
2.41042835781416e-07
1.18942611078076e-06
-1.61730276858592e-07
2.84073791287002e-07
1.16540965616462e-06
-1.02279606767142e-06