/*--------------------------------*- C++ -*----------------------------------*\
  =========                 |
  \\      /  F ield         | OpenFOAM: The Open Source CFD Toolbox
   \\    /   O peration     | Website:  https://openfoam.org
    \\  /    A nd           | Version:  12
     \\/     M anipulation  |
\*---------------------------------------------------------------------------*/
/*   Windows 32 and 64 bit porting by blueCAPE: http://www.bluecape.com.pt   *\
|  Based on Windows porting (2.0.x v4) by Symscape: http://www.symscape.com   |
\*---------------------------------------------------------------------------*/
FoamFile
{
    format      ascii;
    class       volVectorField;
    location    "300";
    object      U;
}
// * * * * * * * * * * * * * * * * * * * * * * * * * * * * * * * * * * * * * //

dimensions      [0 1 -1 0 0 0 0];

internalField   nonuniform List<vector> 
10166
(
(-0.000121591128772735 -6.60387147976216e-05 -0.000170145684300045)
(-0.000124961630186426 -6.87059881477421e-05 -0.000199741969061378)
(-0.00015094625911226 -0.000213267361491087 -0.000157348888235194)
(-0.000294545584375822 -4.68625842242344e-05 -0.000191021686319136)
(-0.000124806650862927 -7.03298902380469e-05 -0.000232025333748664)
(-0.000151376639758904 -0.000218392012151462 -0.00019879900499987)
(-0.000296253990741812 -5.08238177366928e-05 -0.000229199902979063)
(-0.00010156667021504 -0.000377106422846678 -7.69773460257498e-05)
(-0.000312191251398586 -0.00013143561259009 -7.22017247532246e-05)
(-0.000397716297846301 1.55237101067897e-06 -0.00014897757747995)
(-0.000124383611898913 -7.24445601322089e-05 -0.000259192494292657)
(-0.000147519037519555 -0.000217855931507886 -0.000237880281067329)
(-0.000292019427048235 -5.13260876617291e-05 -0.000270575313041205)
(-9.84242969424701e-05 -0.000383807860805367 -0.00011640700724118)
(-0.000309029720845565 -0.00013711967347933 -0.000118769853834505)
(-0.000395949753261172 1.31183793772016e-06 -0.000186756628828959)
(-2.5492534363708e-05 -0.000456296216493308 -1.69118218927868e-05)
(-0.000178268422305776 -0.000180100462378496 5.48090293770532e-05)
(-0.000328179508532431 1.57993364294088e-05 2.23038435748197e-05)
(-0.000446634886432931 6.02135777294694e-05 -9.2680729879414e-05)
(-0.000124496549927284 -7.43643041019696e-05 -0.00028143357520463)
(-0.000145767001353784 -0.00021793694697553 -0.000273054598582551)
(-0.000289705807728959 -5.27045560074613e-05 -0.000308332066538351)
(-9.3351345553612e-05 -0.000380985178736288 -0.000154641513247108)
(-0.000300539807179086 -0.000133398649752187 -0.000165380821646704)
(-0.00038561093403969 4.59274642850504e-06 -0.000229456389602317)
(-2.07967642390264e-05 -0.000463006512285874 -5.10492313225598e-05)
(-0.000173317134145936 -0.000183261816612765 1.45863888721706e-05)
(-0.000322926643717626 1.53782209328509e-05 -1.7792879295111e-05)
(-0.000442478933443325 6.17990803435509e-05 -0.000127958781338552)
(1.3617133065515e-05 -0.000442199470863361 2.64329470348988e-05)
(-4.60339790962447e-05 -0.000161490265681934 0.000110086666440653)
(-0.000145592757331643 4.35794763321427e-05 0.000125385501504031)
(-0.00027833918432964 0.000136719589908896 8.55343488894445e-05)
(-0.000441722379722283 0.000110121248635466 -4.24606185075384e-05)
(-0.000124204733074432 -7.60891200037924e-05 -0.000300810583136676)
(-0.0001447636275382 -0.000218539843681063 -0.000302882687885298)
(-0.000288602603625241 -5.44313426119789e-05 -0.000340093081698686)
(-9.10161060401996e-05 -0.00037851095790016 -0.000188122738318965)
(-0.000295433977480093 -0.000130980300438019 -0.000209254419692745)
(-0.000378811618776212 6.70330731234482e-06 -0.000269662774229997)
(-1.62071798178244e-05 -0.000459490702187309 -8.45067426926411e-05)
(-0.000166094027568333 -0.00017744489021937 -2.57404096756263e-05)
(-0.000311636422478158 1.98433316314219e-05 -6.04767862388804e-05)
(-0.000429335581889857 6.57278789337365e-05 -0.000169847424494523)
(1.7987206215037e-05 -0.000447743860342326 -2.24091285954001e-06)
(-4.12294083492472e-05 -0.00016346163756867 7.54550569737871e-05)
(-0.000140211811183747 4.37326204770091e-05 8.99396402106637e-05)
(-0.000273345226126943 0.000138052949981769 4.99691647221954e-05)
(-0.000438353369469025 0.000111628544912939 -7.56551750901141e-05)
(3.97154906495295e-05 -0.000372492737687286 6.57330929899797e-05)
(3.47852084779507e-05 -9.31685853466876e-05 0.00014536327541141)
(-9.36072934861424e-06 9.27212987001573e-05 0.000168676934158483)
(-8.30521225459219e-05 0.000202526972210247 0.000163500852168691)
(-0.000206119692590898 0.000232715422294456 0.000119704699561293)
(-0.000359184856831147 0.000158114908946857 -5.9747753573392e-06)
(-0.000123173572429752 -7.73440029305746e-05 -0.000318093955634815)
(-0.000143274829531831 -0.000219246195415011 -0.000329918475519385)
(-0.000286474317697374 -5.59662428199551e-05 -0.000368720922930568)
(-8.94615273307153e-05 -0.00037695313742763 -0.000217457623442168)
(-0.000291607192193406 -0.000130844244987102 -0.000248136459485977)
(-0.000373792464156536 7.50444435569133e-06 -0.000304791915198357)
(-1.35552710303067e-05 -0.000456056807094511 -0.000113482977094328)
(-0.00016129984648975 -0.000172122336095717 -6.24002722431646e-05)
(-0.00030327007716974 2.35290646964122e-05 -0.000101241365551815)
(-0.00041966902992472 6.84632122320447e-05 -0.000210868784623264)
(2.17690019348181e-05 -0.000443635801966704 -2.98077228522072e-05)
(-3.57186247105607e-05 -0.000158006077534956 4.14648491818485e-05)
(-0.000132352264521867 4.83730541696698e-05 5.41354258848179e-05)
(-0.000262285359506998 0.000141832060953204 1.2174236440998e-05)
(-0.000425168196353559 0.000114585940038612 -0.000115009229236771)
(4.26099508684201e-05 -0.000377019049574113 4.2568099410536e-05)
(3.88394045974782e-05 -9.4105590470321e-05 0.00011620366246755)
(-5.13184078549782e-06 9.27810836807672e-05 0.00013799372427582)
(-7.85819071110542e-05 0.000203227655986427 0.000132161028144064)
(-0.000201916665265358 0.000233565206513723 8.77529972594325e-05)
(-0.000358669874452652 0.000158759829523108 -3.69572187721008e-05)
(5.37585968863322e-05 -0.000278304286080247 9.90699088666372e-05)
(8.15619058786218e-05 -1.21548056435261e-05 0.000174076573793606)
(7.62988912174642e-05 0.000164075167620789 0.000196932545726489)
(4.30705212908883e-05 0.000268321509900221 0.000196258739573761)
(-1.42822264861236e-05 0.000323656004299881 0.000182065468855136)
(-0.000109050201785245 0.000318842779175801 0.000135938179670311)
(-0.000197606573369146 0.000218086338286563 2.11842441676107e-05)
(-0.00012144622548019 -7.79845023228331e-05 -0.000333220494871773)
(-0.000140678280795187 -0.000219710619296049 -0.000354616974476709)
(-0.000282791380020405 -5.73264229914957e-05 -0.000395026876389052)
(-8.7839316873628e-05 -0.000375346563844626 -0.000244900162610952)
(-0.00028783340084071 -0.000131337130950216 -0.000284134683031253)
(-0.000367808718219538 7.10693489429393e-06 -0.000336974062595664)
(-1.17977250441253e-05 -0.000453267610850555 -0.000138776461857129)
(-0.000157616707131845 -0.000168806962112467 -9.55722152845658e-05)
(-0.000296577427285697 2.56710401361636e-05 -0.000138798942269992)
(-0.000411584823072347 6.95946901151092e-05 -0.000248447370428062)
(2.41885203783378e-05 -0.000439922694135572 -5.35710009473298e-05)
(-3.16250510219626e-05 -0.000152699998522462 1.09236246911472e-05)
(-0.000125546929238762 5.29200685604294e-05 2.06492961100697e-05)
(-0.000252380857450135 0.000144793266204907 -2.46850524793536e-05)
(-0.000414384308802158 0.000116421071096194 -0.000154517594845841)
(4.50276088761675e-05 -0.000373154678939514 2.06793962576846e-05)
(4.29176782879345e-05 -8.93529970025072e-05 8.81076695769364e-05)
(-3.45705835032013e-08 9.63327308310679e-05 0.000107979498703948)
(-7.11023843441532e-05 0.000205995408697218 0.000100789498944346)
(-0.000191521722614996 0.000235538958743791 5.40405282024418e-05)
(-0.00034781282029201 0.00016017665932619 -7.34975326420199e-05)
(5.58955726353832e-05 -0.000282736843532595 8.13607063384165e-05)
(8.44885412724956e-05 -1.32911334811891e-05 0.000150102749215144)
(7.9390745116011e-05 0.000163935028029933 0.000170945731977635)
(4.65073428415158e-05 0.000268238469949863 0.000169241707503334)
(-1.05559845628259e-05 0.000323548955932527 0.000154234893465069)
(-0.000106535007686347 0.000318464073633761 0.000107254201954853)
(-0.000201094755014013 0.000217425188704866 -7.04176435329499e-06)
(5.8854364562459e-05 -0.000174901687060716 0.000127069208097072)
(0.000105066040034496 7.1816312777292e-05 0.000198246639581561)
(0.000124724566848287 0.000237677386933674 0.000220528058610227)
(0.00012235127279293 0.000338763231239368 0.000218938548255918)
(9.86843406951182e-05 0.000402166193027819 0.000209306557615184)
(6.68476101079377e-05 0.000429237082150105 0.000190258007858424)
(2.25539288211511e-05 0.000404438326129327 0.000143035283212009)
(2.85839946605811e-05 0.000285984750128727 4.1377882752587e-05)
(-0.000118747456126345 -7.81829143936636e-05 -0.000345744623397113)
(-0.00013722531189434 -0.000219646303990788 -0.000376504582110956)
(-0.000277515325098962 -5.88205549018588e-05 -0.000418926541324914)
(-8.60653010920465e-05 -0.000373352649181256 -0.000270484940431163)
(-0.000283057639812106 -0.000132675576077718 -0.000318005388713908)
(-0.000359707666734985 5.76617206223828e-06 -0.000366945416359896)
(-1.05635486557327e-05 -0.000450654667933976 -0.000162425762995199)
(-0.000154209274636825 -0.000166674067647751 -0.000126701887664414)
(-0.000290039167660901 2.64325502773645e-05 -0.000174192892619701)
(-0.000402597124564603 6.92354255945062e-05 -0.00028339233429235)
(2.55144231379769e-05 -0.000437182476580908 -7.40869453565901e-05)
(-2.85577127946018e-05 -0.000149124112054928 -1.6875468300522e-05)
(-0.000119754838208803 5.59014091501301e-05 -1.06483210961176e-05)
(-0.000243782496988514 0.000146214640937111 -5.95998221593876e-05)
(-0.000404500010527023 0.000116738133678499 -0.000191920005545829)
(4.63915533199432e-05 -0.000370176613612681 2.10381405804835e-06)
(4.59617220423561e-05 -8.48672880076954e-05 6.28881227673059e-05)
(4.62318783329138e-06 9.98500012246256e-05 8.01898403285933e-05)
(-6.35458860258482e-05 0.000208437260754235 7.087114588502e-05)
(-0.000181218597484453 0.000236763259211627 2.06080580953165e-05)
(-0.00033859883617986 0.000160790313687337 -0.00011102207025803)
(5.73604797557779e-05 -0.000279797573378053 6.46945177539095e-05)
(8.71030291387059e-05 -1.00777460037172e-05 0.000127380459794435)
(8.26110885010331e-05 0.000166304981929413 0.000146044010431505)
(5.12320826525935e-05 0.00026965417769765 0.000142897833439133)
(-3.62038502136433e-06 0.000324249940584679 0.000126437479536994)
(-9.7935273814984e-05 0.000318594357138277 7.69375823528815e-05)
(-0.000194546551816796 0.000218004720933804 -4.05436796279191e-05)
(6.0531441233021e-05 -0.000180171099590828 0.000113418912744067)
(0.000107068036774356 6.97601727445664e-05 0.00017891849967278)
(0.000126740501443153 0.000236761580743385 0.000198992257199162)
(0.000124639301363321 0.000337906633852975 0.00019602791488072)
(0.000101521147841376 0.000400952458615368 0.000185460208126948)
(6.94358841582559e-05 0.000427776452652095 0.000165673611394593)
(2.26891968773773e-05 0.000402433794544496 0.000117565834809045)
(2.02256963067445e-05 0.000284004679713222 1.64874512280769e-05)
(6.03938484901496e-05 -6.9889248943559e-05 0.000150116245959942)
(0.000113289045754126 0.000154400484342462 0.00021817560144539)
(0.000148288142781919 0.000309017531245383 0.000240612105939622)
(0.000167764703298231 0.000404561002132945 0.000238579080942221)
(0.00016814407341082 0.000473216411189879 0.000229121643121537)
(0.000160877694964047 0.000517292595673615 0.00021539015527159)
(0.000163825538616549 0.000531377858123747 0.000192585711695091)
(0.000186707902949792 0.000496462214868988 0.00014539036889341)
(0.000322541162223778 0.000378016484571737 5.58471472273204e-05)
(-0.000115207914060267 -7.78164639425231e-05 -0.000355938336396901)
(-0.000133593720114105 -0.000218882595272734 -0.00039530386868088)
(-0.000270494344388163 -6.04601395549115e-05 -0.000440310421707787)
(-8.49738072056365e-05 -0.000370788418907935 -0.000293888864692015)
(-0.000277035543152664 -0.000134762630584884 -0.000350010175827681)
(-0.000349570940441064 3.45046721990185e-06 -0.000394873915825533)
(-1.00109051325027e-05 -0.000447771936188542 -0.000184576529129508)
(-0.000150964933592169 -0.000165625744315116 -0.000156059709388562)
(-0.000282670914446011 2.60555362070156e-05 -0.000207843814116345)
(-0.000391779236050622 6.76183621925511e-05 -0.000316175194939528)
(2.63807695428535e-05 -0.000434735108744715 -9.26775329210219e-05)
(-2.62158701467644e-05 -0.000146857123176242 -4.27052584237533e-05)
(-0.000114583527428821 5.74227266921685e-05 -4.02225198145732e-05)
(-0.000235659960054475 0.000146200046164497 -9.30469174866641e-05)
(-0.000393688402517006 0.000115693178593448 -0.000227892957487963)
(4.72129588275821e-05 -0.000368415783660949 -1.35146344404199e-05)
(4.8094481444232e-05 -8.19136149454153e-05 4.01359505465932e-05)
(8.4761983295719e-06 0.000101949871237551 5.42447840087318e-05)
(-5.67605449636438e-05 0.000209512963445358 4.24110010249955e-05)
(-0.00017184189407368 0.000236507857241455 -1.17688296093501e-05)
(-0.000330040782405605 0.000160140752873658 -0.000147463357063414)
(5.82299211778679e-05 -0.000278360270053181 5.07877467274793e-05)
(8.88569331456717e-05 -7.27348834159581e-06 0.000107105844473506)
(8.54019690402152e-05 0.000168478236764248 0.000123106537296705)
(5.60420877025414e-05 0.000270721161825331 0.000118053122657639)
(3.83869159341531e-06 0.000324363764554653 9.9497870501459e-05)
(-8.87966442702739e-05 0.00031789398639946 4.6420378406235e-05)
(-0.000189030280812258 0.000217651202492479 -7.57550216734684e-05)
(6.15145560875951e-05 -0.000178665403253341 0.000101238493976809)
(0.00010847257525818 7.1159277405061e-05 0.000160861606096631)
(0.000128531478718608 0.000237634921059799 0.000178680912008786)
(0.000127340861187992 0.000337998265466051 0.000174072452589112)
(0.000105752457576846 0.000400177972206136 0.000162153744458137)
(7.51893029276972e-05 0.000426540653561701 0.000140988707408889)
(2.86308487663267e-05 0.00040072598725776 9.04023965271845e-05)
(2.21184854844663e-05 0.000283361870119393 -1.35940623983839e-05)
(6.15968811710221e-05 -7.62599675552159e-05 0.000139784181877274)
(0.000114643519964943 0.00015105056345022 0.000202717793932767)
(0.000149426545400429 0.000306976535813746 0.000223050762114751)
(0.000169013519759651 0.000402747064634323 0.000219513869303657)
(0.000169852641108241 0.0004709724609539 0.000208975234028847)
(0.00016296214675952 0.00051454624436311 0.000194559247918022)
(0.000164917338545491 0.000528368360481913 0.000171159711339891)
(0.00018413727802654 0.000492582565796376 0.000123456076243615)
(0.000309411391279564 0.000373404307926211 3.54125513199912e-05)
(6.03010483468412e-05 2.91204600681003e-05 0.000168726694522713)
(0.000112503489940246 0.000233262601353897 0.000234432996500261)
(0.000155825856316369 0.000376617303012157 0.000257412143565177)
(0.000189423467473033 0.000464887136237238 0.000255612619191946)
(0.000207634984268075 0.000533753830665047 0.000246403469330351)
(0.000215499648090693 0.000588826117030466 0.000233925103951095)
(0.000229797702455095 0.000626023787508876 0.000217016714331685)
(0.000272291822701602 0.00064082020753707 0.000191481745237332)
(0.000373231621257925 0.00060966219490018 0.000145106076256187)
(0.000691678136116308 0.00052189804887719 6.34044860399917e-05)
(-0.000110687355847988 -7.6914162451168e-05 -0.000363889822383569)
(-0.000261715978092729 -6.22809923957084e-05 -0.000459294226677197)
(-0.000129165762394686 -0.000217478178943885 -0.000411028146005631)
(-8.40082489365437e-05 -0.000367374908269356 -0.000314877230949428)
(-0.000270121366731143 -0.000137447975777556 -0.000379833099898548)
(-0.000337772789627412 2.03831814857642e-07 -0.000420954637077616)
(-1.00524052771473e-05 -0.000444421091367119 -0.000205072565559726)
(-0.000148044102180056 -0.000165579040443688 -0.000183777191118436)
(-0.000274704125902422 2.43040793708546e-05 -0.000240107718661854)
(-0.000379318749858799 6.44472084216187e-05 -0.000347527443478336)
(2.68035647443703e-05 -0.000432369820870928 -0.000109728291154668)
(-2.46072347370711e-05 -0.000145780464509462 -6.67599109575442e-05)
(-0.00010991995055606 5.74622059390609e-05 -6.82160380347946e-05)
(-0.000227626003116904 0.000144723885130253 -0.000125329793042108)
(-0.000381566562951475 0.000113052782749741 -0.00026333376612667)
(4.74777012188227e-05 -0.000367378146711289 -2.72515006595693e-05)
(4.93624286862695e-05 -8.03975539650524e-05 1.931558040682e-05)
(1.14645874675479e-05 0.00010249858217704 2.99259152898805e-05)
(-5.07424022682887e-05 0.000209073624340738 1.52843722785857e-05)
(-0.000163104050646143 0.000234765894317135 -4.33321515123579e-05)
(-0.000320858312634502 0.000158148412150846 -0.000183521580160141)
(5.86725384981465e-05 -0.000278652807797603 3.94907983664326e-05)
(8.98065222809917e-05 -6.01568621958101e-06 8.89687667004759e-05)
(8.74166961793124e-05 0.000169241781503463 0.000101839967018697)
(6.0203644877831e-05 0.000270447900301609 9.45661506969345e-05)
(1.06875063837696e-05 0.000323126472768022 7.34975756991293e-05)
(-8.03505591358225e-05 0.000315797284416067 1.63526059204666e-05)
(-0.00018432898997666 0.000216232737798288 -0.000110558593942613)
(6.17365586652353e-05 -0.000178936637669367 9.16111210299496e-05)
(0.000109171801447388 7.18992405645177e-05 0.00014492587733098)
(0.000129814095219394 0.000238104888094538 0.000160104352238102)
(0.000129871748398379 0.000337575884331687 0.000153517086249024)
(0.000110204800786224 0.00039872662257869 0.000139860534653967)
(8.16519243228093e-05 0.000424522619280132 0.000116735267480745)
(3.547190814758e-05 0.000398093456524332 6.26456007671978e-05)
(2.32965186591647e-05 0.0002815658743314 -4.56378934877651e-05)
(6.2468919496563e-05 -7.64428391046786e-05 0.000130981415192983)
(0.000115308425422385 0.000150583055366942 0.00018857943987599)
(0.000150160199020268 0.000306251710628601 0.000206757300359034)
(0.000170235888559044 0.000401462697758657 0.000201510270937534)
(0.000172016923208943 0.000468836980564263 0.000189577172967172)
(0.000166373389434625 0.000511728938048604 0.000174065791164307)
(0.000169047338070877 0.00052538730424346 0.000149456862736844)
(0.00018693338551962 0.00048912411867394 9.96676520574644e-05)
(0.000304512120903895 0.000370040295763777 9.72607147376895e-06)
(6.12876230497381e-05 2.15617695428685e-05 0.000161162059401722)
(0.00011336114691831 0.000228471819190712 0.000222207409272225)
(0.000156333229564827 0.000373308632749249 0.000243286795485923)
(0.000189842138817089 0.000461998049026223 0.000240005564866312)
(0.000208313324653653 0.000530516330560157 0.000229662118880727)
(0.000216628591833477 0.000584960997441936 0.00021646326365906)
(0.000230965303796085 0.000621686235275135 0.000199158706551455)
(0.000271765425699628 0.000636202502760547 0.000173385820331671)
(0.000367970028959544 0.000603367933343656 0.000127269530494595)
(0.00067546110072975 0.000513336648546097 4.83151339252414e-05)
(5.59602711356735e-05 0.000120033335051676 0.000183705368779117)
(0.000106376163839022 0.000306589500624714 0.000247481925293957)
(0.000153451474858737 0.000439689443600212 0.000271314434645637)
(0.000195244901108019 0.000520095032867081 0.000270116068599484)
(0.000225611963228186 0.000585760053365645 0.000261468122915965)
(0.000245194875346216 0.000645056169530086 0.000249887600864918)
(0.000264096230426966 0.000696096570943462 0.000235151649786485)
(0.000301266189098323 0.000736821293989825 0.000215734515207761)
(0.000385906951728555 0.000768253681062101 0.000188593763599568)
(0.000571668916891 0.000756402565569622 0.000142883615594236)
(0.00118182543341454 0.000826396746418395 6.05139288079443e-05)
(-0.000105210091367384 -7.54893376209978e-05 -0.000369601062269162)
(-0.0002511784594288 -6.43468591651249e-05 -0.000476047291835365)
(-0.00012392405295465 -0.000215226433319351 -0.000423699878816586)
(-0.000324566308399905 -3.99821029658384e-06 -0.000445395186167722)
(-0.000262705245876364 -0.000140220160280669 -0.000407576298456788)
(-8.32067334985575e-05 -0.000363105041516189 -0.00033352961029866)
(-1.08265699073112e-05 -0.000440656851261839 -0.000224047243077828)
(-0.000145689896675625 -0.000166522403372917 -0.000210016889727915)
(-0.000266705163618716 2.09794027607258e-05 -0.000271121774738014)
(-0.000365557260200661 5.96772734179406e-05 -0.000377756971642845)
(2.64313979701599e-05 -0.00043022695341934 -0.000125428951492016)
(-2.39799815656699e-05 -0.00014593666356464 -8.91424891739344e-05)
(-0.000106053653066351 5.58309440710253e-05 -9.47600220093514e-05)
(-0.000219902162552582 0.000141522212312736 -0.000156751553008798)
(-0.0003682901526236 0.000108499836192448 -0.000297934328198029)
(4.70666760995589e-05 -0.00036711511163118 -3.95983092293907e-05)
(4.9645623190103e-05 -8.03627251602497e-05 1.48900348318604e-07)
(1.34545742755558e-05 0.000101355584982212 7.17007152928444e-06)
(-4.55940585389095e-05 0.000206915969399619 -1.05697353498089e-05)
(-0.000155014378378241 0.000231367869417301 -7.43606420698025e-05)
(-0.000311073141903138 0.000154559650160468 -0.000220043479981686)
(5.84269560232186e-05 -0.00028014784293607 2.98264704980356e-05)
(8.98327673732282e-05 -6.37974858897285e-06 7.25383918290583e-05)
(8.84619948858417e-05 0.000168321459198116 8.20980877510897e-05)
(6.34481772770177e-05 0.000268532433452649 7.23996043670237e-05)
(1.66791618196938e-05 0.000320319966314784 4.84298235591469e-05)
(-7.26911038648577e-05 0.000312140056068837 -1.34391392761437e-05)
(-0.000179508483813373 0.000213471114264843 -0.000145980777094503)
(6.1507464873398e-05 -0.000181232491181029 8.40352011562935e-05)
(0.000109167450150792 7.09425685994978e-05 0.000130838984724764)
(0.00013030634917149 0.000237081930180729 0.000143012717849204)
(0.000131682025297853 0.00033572932682719 0.000134228285273057)
(0.000114049158537349 0.000395855537524729 0.000118552460778464)
(8.7567505799358e-05 0.000421116340223292 9.30305175596912e-05)
(4.16884090373476e-05 0.000394100290018039 3.4920829918466e-05)
(2.35680288033376e-05 0.000278400246099598 -7.75594863984747e-05)
(6.26574706502587e-05 -7.85840468938948e-05 0.000124493429358007)
(0.000115241381041635 0.0001492701105767 0.000176374170284843)
(0.000150351389385661 0.000304906876053403 0.000192017544026377)
(0.000171074819751324 0.000399468527905427 0.000184792702670799)
(0.00017403646403048 0.000465869749951565 0.000171193647548085)
(0.000169996031884777 0.00050800111494442 0.000154227928037532)
(0.0001739474374855 0.000521511313381406 0.000127897217615362)
(0.000190816399168604 0.000484684977549617 7.50537960895331e-05)
(0.000299073159281578 0.000365626649619572 -1.83061094236882e-05)
(6.17640499312725e-05 1.94386463542249e-05 0.000155088985890163)
(0.000113528601648172 0.000226145247102855 0.000211277277996071)
(0.0001563488238906 0.000370996208620184 0.000230417407435757)
(0.000190008229026987 0.000459339825059098 0.000225483521641377)
(0.000208989723693812 0.000527120889201137 0.000213759435659349)
(0.000218150335509667 0.000580778738565326 0.000199540120772488)
(0.00023333992689777 0.000617054886561715 0.000181442199673528)
(0.000274009856351194 0.000631629949105809 0.000154819359719971)
(0.000367323247550175 0.000597735975807391 0.000107376311787478)
(0.000666190538440454 0.0005068813810726 2.76964994547977e-05)
(5.66843076627176e-05 0.000111095697269734 0.000178352349764957)
(0.000107281512408543 0.000300375181763465 0.000237989661568505)
(0.000153504360511892 0.000435040236927957 0.000260109938301141)
(0.000195052323786889 0.000516069447002146 0.000257539478236938)
(0.000225482069428888 0.000581537499146433 0.000247775636574662)
(0.000245378516602499 0.000640246651177202 0.000235459013211259)
(0.000264604589184026 0.000690652017660201 0.000220369284092697)
(0.000301460441332556 0.000730948242545759 0.00020093949173447)
(0.000383865226982293 0.000761877592062839 0.000174168854308697)
(0.000564699962030602 0.000746913776537962 0.000129748641421311)
(0.00116138262318086 0.000813847643961724 5.20732372236435e-05)
(4.94512783098272e-05 0.000202004559120747 0.000195481707179262)
(9.74299767889026e-05 0.000373562644897952 0.000257790896189338)
(0.000145147041582965 0.000497613302401822 0.00028264429536354)
(0.00019097333536792 0.000570454012280123 0.000282288101764461)
(0.000228811501186402 0.000631124966108626 0.000274393292135818)
(0.000256956436148799 0.000690082839684518 0.000263704206558713)
(0.000280390541484034 0.000747102447650803 0.000250490514755997)
(0.000311039027275789 0.000801724517246743 0.000233921101253351)
(0.000369141790181998 0.000856516160081011 0.000212814939362771)
(0.000491594408841608 0.000921996452626075 0.000184873833359137)
(0.000766340123210491 0.000955222549932478 0.000137974157819881)
(0.00180354165911445 0.00195681624605256 5.54331794516195e-05)
(-9.93797636277123e-05 -7.36798078685783e-05 -0.00037308455592049)
(-0.000239327991275413 -6.63163674554212e-05 -0.000490288268994049)
(-0.000118250190523713 -0.000211952387045864 -0.000433258058238413)
(-0.000309979642914341 -9.14480762984034e-06 -0.000467872471382794)
(-0.000254968466859998 -0.000142948081623223 -0.000433106161255843)
(-8.27392443856033e-05 -0.000358489608419264 -0.000349859937968416)
(-0.000350488237435668 5.31748671660461e-05 -0.000407136749159381)
(-0.000259010858066513 1.60695187221365e-05 -0.000301038823405551)
(-0.000144266136064245 -0.00016873675342307 -0.00023488100213349)
(-1.24979102472918e-05 -0.000436640420640139 -0.000241567609177876)
(2.51152579052049e-05 -0.000428490832107913 -0.000139927984487448)
(-2.46937260811153e-05 -0.000147582000622876 -0.000110025549831515)
(-0.000103387926520899 5.22468141465669e-05 -0.000119981118611661)
(-0.000212983871248518 0.000136337279991137 -0.00018750953798421)
(-0.000354275224871885 0.000102285889977576 -0.000332204229625426)
(4.58435391677436e-05 -0.000367809115569491 -5.08192473371122e-05)
(4.86720077473714e-05 -8.20368007722097e-05 -1.75353482974541e-05)
(1.41331933067774e-05 9.82808586703402e-05 -1.41036058438241e-05)
(-4.16914853956647e-05 0.000202735490523907 -3.52540292629893e-05)
(-0.000147973366323873 0.000225988543208289 -0.000104980899630535)
(-0.000300964028949796 0.000149368689827316 -0.000256579507793208)
(5.74760352933654e-05 -0.000282860595752434 2.13077476026712e-05)
(8.87955485582511e-05 -8.5112946095621e-06 5.75886519497949e-05)
(8.83177319141277e-05 0.000165481336061185 6.3801217623843e-05)
(6.54937295510631e-05 0.00026467872885395 5.15480470890436e-05)
(2.15231214388235e-05 0.000315637393869242 2.42850741080984e-05)
(-6.60898188804318e-05 0.000306683442159085 -4.31645888058817e-05)
(-0.000174127109695001 0.000208683301118264 -0.000182193422927073)
(6.07957518373721e-05 -0.000185162956144699 7.76725960251535e-05)
(0.000108274902884075 6.8196550960465e-05 0.000118235980196766)
(0.000129779070765091 0.000234243187829657 0.000127284748714242)
(0.000132452465692243 0.000332089038879856 0.00011618154655514)
(0.000116906392115541 0.000391235168393753 9.82548487371307e-05)
(9.25179195346979e-05 0.000416060430953028 6.99009488106743e-05)
(4.69610422786112e-05 0.000388440111789444 7.07692732731031e-06)
(2.31195305629001e-05 0.000273863613574871 -0.000110448296281208)
(6.23583638347227e-05 -8.29697322460505e-05 0.000119926900473979)
(0.000114533498722011 0.000146101440541215 0.000165752226904925)
(0.000149762135621153 0.000301943464395366 0.00017858028291073)
(0.000171106656934348 0.000395936586875602 0.000169227223406472)
(0.000175314473991791 0.000461364556208165 0.000153777215608333)
(0.000172993236580574 0.000502746215452416 0.000135079271715542)
(0.000178306579507771 0.000516191357020631 0.00010662324254291)
(0.000194079463711945 0.000478587555397491 5.02321731260612e-05)
(0.000291666493456217 0.000359262856902831 -4.65477629982983e-05)
(6.16037686399286e-05 1.5216781029767e-05 0.000151042295755454)
(0.000113061173853564 0.000222820833945055 0.000202124141258682)
(0.000155790195507745 0.000367872169874945 0.000218955309909705)
(0.00018966912504097 0.000455786871332094 0.000212140556541707)
(0.000209268100247879 0.000522730413323941 0.000198829312566848)
(0.000219476331120747 0.000575539904124494 0.000183346787368363)
(0.000235866285696326 0.000611370300735412 0.0001641335629238)
(0.000276995957544851 0.000626138068407451 0.00013621566103906)
(0.000367746652364815 0.000591124637491076 8.64460966706176e-05)
(0.000655506773038767 0.00049871806509391 4.33621007667359e-06)
(5.66310526778283e-05 0.000107192082197305 0.000174394667063953)
(0.000107045049423381 0.000296226988197222 0.000229721357281602)
(0.000153032263906638 0.000431170273264778 0.00025011463011764)
(0.00019449168019274 0.000512068190764207 0.000246018588984285)
(0.000225113503327052 0.000576956033156149 0.000234943170998915)
(0.00024551437381422 0.000634921142943864 0.000221665463652437)
(0.000265407894241173 0.000684671565355043 0.000205936934692379)
(0.000302681755546098 0.000724703788251575 0.000186120973125767)
(0.00038419459704065 0.000755723165329614 0.000159106259198165)
(0.000561372555224271 0.000738699811298791 0.000114335012740381)
(0.00114503507073283 0.000804583984728833 3.74473460373276e-05)
(5.00108865643715e-05 0.000191750666379783 0.000191905227321217)
(9.77076815928854e-05 0.000365767532756021 0.00025056325413496)
(0.000144928354784192 0.000491627001728714 0.000273924981118785)
(0.000190345638471299 0.000565282333739567 0.000272327424409534)
(0.000228087493485088 0.000625928566102362 0.000263377707344781)
(0.000256385373819077 0.000684414934160497 0.0002519623332643)
(0.000280114660660583 0.000740803821377484 0.000238403642506541)
(0.000310933832852929 0.000794836711542083 0.000221879974028109)
(0.000368413923980091 0.000849140635522407 0.000201273727167606)
(0.000488484909091224 0.000913620608202446 0.000174514689478989)
(0.000759318376916352 0.000942864373018154 0.000130569187148241)
(0.00177853131137977 0.00191710421788638 5.85446895553029e-05)