/*--------------------------------*- C++ -*----------------------------------*\
  =========                 |
  \\      /  F ield         | OpenFOAM: The Open Source CFD Toolbox
   \\    /   O peration     | Website:  https://openfoam.org
    \\  /    A nd           | Version:  12
     \\/     M anipulation  |
\*---------------------------------------------------------------------------*/
/*   Windows 32 and 64 bit porting by blueCAPE: http://www.bluecape.com.pt   *\
|  Based on Windows porting (2.0.x v4) by Symscape: http://www.symscape.com   |
\*---------------------------------------------------------------------------*/
FoamFile
{
    format      ascii;
    class       volScalarField;
    location    "100";
    object      k;
}
// * * * * * * * * * * * * * * * * * * * * * * * * * * * * * * * * * * * * * //

dimensions      [0 2 -2 0 0 0 0];

internalField   nonuniform List<scalar> 
10107
(
0.000444482954277553
0.000259026693783358
0.00134249630058975
0.000408025680397195
0.000117194809775454
0.00083383615677194
0.000187093165861212
0.00147033192473851
0.00135791701446693
0.00106368051060368
3.76577523406005e-05
0.000365414772320267
9.432358276535e-05
0.00103452252245908
0.000856423574046925
0.000207547565423392
0.000651828364663214
0.00152001571796772
0.00202584194320517
0.00147734821587097
0.00139447439936865
0.00156422476838142
0.00134456148078029
0.00127727533652312
0.00132097959423579
2.92177562155981e-05
9.91142076039494e-05
0.000580303624981765
0.000335248047111818
7.21677034030923e-05
0.00110107132376541
0.00100867871090908
0.00069221544375751
0.000886346030786728
0.00107032962140473
0.000210324168993655
0.000731882989015948
0.000792029658800106
0.00102287799274449
0.00156208926379166
0.0020305101054187
0.0015013880656432
0.00252855085446605
0.00204167337842966
0.0014732781383117
0.0012810874186744
0.00143405313933816
0.00160193720329697
0.00145951977254675
0.00131013053265274
0.00137202066340433
1.95017989845024e-05
8.38684063525721e-05
0.000187202609834966
0.000669949138921514
0.000547816730534062
0.00028388669242235
7.75573839880801e-05
0.0011285409194314
0.0010597247337223
0.000887886470753957
0.00112856378536318
0.000445027993348831
0.000311021883306044
0.00137664399649231
0.00108742427587485
0.00121524018802592
0.00157900535384063
0.00204750816585352
0.00153392192760277
0.00252210224189982
0.0020253475486968
0.00141630420454624
0.00295138563059987
0.0025257045730371
0.00198920570370728
0.00127309949885468
0.00143498859355912
0.00148274178699492
0.0014009439286917
1.80679147677006e-05
6.63895725625563e-05
0.000162709938736548
0.000237958326828587
0.000704779969640679
0.000624277227015978
0.000431727035972739
0.000129973092784825
0.00113522553503794
0.00108147394477717
0.000920355775074523
0.000486405506583377
0.000465831155429065
0.00132425652603727
0.000355798079104495
0.00124590089706933
0.00158104711287047
0.00205318190086572
0.00154881946357167
0.00251722355449682
0.002036116515211
0.001450053955256
0.00294552107570874
0.00251757815566517
0.00199346644223312
0.00134225238240054
0.00332248560098921
0.00294586128054415
0.00250019617706117
0.00196308862732138
2.34632285013823e-05
0.000108696048526854
0.000209470992811123
0.000254661191044414
0.000713125765658562
0.000650951098494499
0.000479550382302413
0.000156955221359339
0.00112915593390854
0.00108643948039125
0.000934741893952688
0.000476017245541176
0.00048701890392719
0.00133222208442741
0.000476819939928105
0.000360385101734499
0.00157255900381036
0.00205012404869223
0.00155029377232791
0.00251302753320023
0.00204139126160838
0.00146327786908643
0.00293864222263006
0.00251198782935078
0.00200932580206593
0.00136099236582134
0.00331745789126276
0.00294003382932895
0.00249536456491638
0.00196838570574091
0.00133604598602365
0.00331527070593298
0.00292141471962584
0.0024604255748754
0.00192977982142007
2.57224541230204e-05
0.000130429698524265
0.00022551725263367
0.000257727488108578
0.000710017600994444
0.000657155349263673
0.000494965817109381
0.000164674402044338
0.00111399923498244
0.00108031371289311
0.000937438433192118
0.00045440101694351
0.000475829923693019
0.00130514256065883
0.000489056063286646
0.000480440428542783
0.000369057503494458
0.00155535226581465
0.00203985324775803
0.00154179670628867
0.00250587546272542
0.00203847437218556
0.00146341421493802
0.00293111819305528
0.0025080759667225
0.00201484577551745
0.00136846371651078
0.00331131910757872
0.00293325344091505
0.00249220506614387
0.00197561285665682
0.00134009828370414
0.00331040349007724
0.00291662724351853
0.00245939254850866
0.00193148774645556
0.00130557912394598
0.00328808561013965
0.00287795523335578
0.00240962876460443
0.00188143142351338
2.70545000013278e-05
0.000137969528482606
0.000228163954509809
0.000262344992245104
0.000698377771577245
0.000653272169668969
0.000498866552329025
0.000169325232197032
0.00108914331870046
0.00106541916854027
0.000930870866688518
0.000429740933706989
0.000454398211753659
0.00125705658090452
0.000475589397503257
0.000488521925430414
0.000480040915940051
0.000357608899643848
0.0015291336185798
0.00202304463933359
0.00152479758415194
0.00249478787992989
0.00202841807633706
0.00145485356087546
0.00292212122659624
0.00250125702306547
0.00201181579596726
0.00136647940021853
0.00330307081095498
0.00292595143113002
0.00248915773098189
0.00197799907906678
0.00133997210716185
0.00364246622899444
0.00330438640792504
0.00291087693792589
0.00245806851901843
0.00193276041818747
0.00130510738518675
0.00328372244509632
0.00287470005265805
0.00240883252878007
0.0018812941543723
0.00125664423169885
0.0032402179559547
0.00281740001351845
0.00234453031665002
0.00181612474533486
2.65509435583558e-05
0.000138387354040357
0.000226074481836894
0.000255865861436965
0.000678907380925417
0.000642370771658293
0.000493995486633234
0.00016662091018948
0.00104895463137577
0.00104160952335829
0.000917172561255576
0.000403484388148212
0.000429411941770919
0.00119798335913949
0.000453652838523814
0.000473677839038453
0.00048539220092718
0.000474121094891926
0.000360699849115351
0.00149071445351615
0.0019998789806438
0.00149949317605841
0.00247978310283981
0.00201191457510464
0.0014385573028785
0.00291092181807576
0.00249045276090664
0.00200202203198489
0.00135770830599578
0.00329344953167766
0.00291719809768561
0.00248276188412185
0.00197395449403901
0.00133532783828868
0.00363362650636244
0.00329630912858306
0.00290424364575685
0.00245509109562881
0.00193125118354143
0.00130237310137717
0.00393637200244295
0.00363417755631784
0.00327819483335565
0.0028703042863085
0.00240695544448853
0.00187998839138481
0.00125499850893952
0.00323662260918712
0.00281492039008556
0.00234320129442453
0.00181516807140111
0.00119710482716507
0.00317322086960317
0.00274136774741869
0.00226500107872155
0.00173768335523026
2.57700224199651e-05
0.000136167195037677
0.000219077464941204
0.000245163095438393
0.000642585913055084
0.000623448297640041
0.00048535653990116
0.000162718146678384
0.000976604624888381
0.00100571148091614
0.000895790261088552
0.00037626920821445
0.000403043438131679
0.00113189699972159
0.000428760428422217
0.000452088226512848
0.000470958385083928
0.000480880876430756
0.000470677244902518
0.00034723679484302
0.00143469662375058
0.00197028247350112
0.00146333846792145
0.00246157229330957
0.00198930700551974
0.00141628276004257
0.00289744412496443
0.00247573806180654
0.00198625129801665
0.00134444344665863
0.00328230400036321
0.00290621671595179
0.00247238066861985
0.00196433278914599
0.00132671895626645
0.00362371954986372
0.00328684968596111
0.00289593146357462
0.00244877207476846
0.00192581779273549
0.00129700106287559
0.00392762415100391
0.0036255475060268
0.00327054889845896
0.0028643989101253
0.00240313770148608
0.00187659090134647
0.00125166772965138
0.00419720205014193
0.00392725781138391
0.00360476544653848
0.00323184754274208
0.00281121618256664
0.00234060369836873
0.00181289906532422
0.00119511911849771
0.00317028173275334
0.00273906119608174
0.00226329098927188
0.0017362905112761
0.00113070213226702
0.00308940224953951
0.00265079518112049
0.00217208554203418
0.00164887195778012
2.42084048297215e-05
0.000131246507183846
0.000207722478505697
0.000218571756343788
0.000570580858596798
0.000591590416163778
0.000468545232409938
0.000153207066170856
0.000817054518660351
0.000948750976833228
0.000867273744636637
0.000347460053454943
0.0003757108909742
0.00106020137790111
0.000402505623693924
0.000427566566215365
0.000449837280923042
0.000467231843954147
0.000475667580635335
0.000486015319009292
0.000335850166598907
0.00135595599767602
0.00193788273043944
0.00140906491884543
0.0024421113522875
0.00196033094301571
0.00138713774786712
0.00288227351376574
0.00245784527914815
0.00196530321200504
0.00132960268983418
0.00326954006245416
0.00289293154943811
0.00245821382791176
0.00194993454424701
0.00131497260430166
0.00361257061116557
0.00327584558285264
0.00288531550995847
0.00243880219526249
0.00191646049210791
0.00128903226863274
0.00391772601941647
0.00361577501087793
0.0032614223308703
0.00285652704749245
0.00239656646014294
0.00187054431221655
0.00124644573568828
0.00418874658271774
0.00391871364429531
0.00359648563666633
0.00322479109157352
0.00280567613270953
0.0023361644015853
0.00180890535014374
0.00119181865248477
0.00442754768943624
0.00418756945471261
0.0038955301203674
0.00355378909879467
0.0031661587953969
0.00273552693307891
0.00226030620823026
0.00173367713696788
0.00112866004590995
0.00308689173750609
0.00264853013358335
0.00217017795366405
0.00164723881027364
0.00105891787484899
0.0029902027657905
0.00254623084763527
0.00206688611580898
0.00155085996738502
2.23930794597134e-05
0.000122970507560761
0.000187258904562965
0.00017626004383338
0.000411376257378649
0.000530695158281776
0.000442478389053864
0.000142063477157263
0.000324171042878966
0.000805160278425549
0.000829548418312325
0.000316973069774764
0.000346908985197353
0.000983072021627935
0.000375133692088729
0.000401418939781436
0.000425690909685571
0.000446774618394774
0.000462726024288524
0.000470013724985259
0.000487971346406445
0.000329746165999794
0.00132866870963381
0.00191418125318235
0.00135929470686046
0.00242604540556239
0.00192560225913061
0.00135680682318987
0.00286669483368259
0.00243885005751279
0.00193964578842977
0.00130681543419728
0.00325529199640892
0.0028779146940311
0.00244102619286375
0.00193144382626272
0.00130122543970487
0.00359994509501319
0.00326318714706224
0.00287235377222431
0.00242540711897329
0.00190356418808847
0.0012789999192858
0.00390658460671971
0.00360472130667995
0.00325067355704721
0.00284632875640803
0.00238699127436365
0.00186173858060039
0.0012394495310433
0.00417902708833926
0.00390893132522086
0.0035869729426231
0.00321609653525009
0.00279810618675608
0.00232948615056845
0.0018029186938196
0.00118715238872477
0.00441951203440423
0.00417930702587833
0.00388728229444802
0.0035459683406571
0.00315962986418856
0.0027301269690769
0.0022556618029526
0.00172963170487649
0.00112562240665511
0.00462936628691834
0.00441755448032683
0.00415418635929257
0.00384099284817073
0.00348267505375775
0.00308319801674195
0.00264506233778773
0.00216706518030411
0.00164454218745611
0.00105696489649618
0.00298800411220127
0.00254404870493735
0.00206493024187748
0.00154919732548117
0.000981867489785983
0.00287604430474759
0.00242793093126296
0.00194994980438907
0.00144397696971791
2.07503835177573e-05
0.000109781270752352
0.000149963769426077
0.000100547088534054
0.000168631599316899
0.000380567987560532
0.000392527615962864
0.000130770509956879
0.000473678330366519
0.000318689918074544
0.000774977256703617
0.00076998751026435
0.000284724948260886
0.000316520402261755
0.000900260414607271
0.000346377814894048
0.000374158205402404
0.000399862187897037
0.000423240645727903
0.000443133066327306
0.000457924073819636
0.000465541158134367
0.000478323180433698
0.000285354152372703
0.00130535932872282
0.00190886713989906
0.00132257617929687
0.00241673876880855
0.00191784798495769
0.00130030182126444
0.00135689609246044
0.00285192824408393
0.0024245353457263
0.00191438810442449
0.00135089262134209
0.00127797237080344
0.00323973462303687
0.00286251247927721
0.00242290030581716
0.00190791848965634
0.00128533335591021
0.00358560360660212
0.0032489900758604
0.00285755542336266
0.00240913980690923
0.00188762918426436
0.00126763429485742
0.00389387931660382
0.00359215136123336
0.00323818203783053
0.00283378592681759
0.0023745184438038
0.00185037543346503
0.0012310003359807
0.00416795617003219
0.00389786173821129
0.00357609549382238
0.00320568115959028
0.0027883280517041
0.00232040644513785
0.00179487040061729
0.00118119424862785
0.00441010286086058
0.00416968935059375
0.00387771143058572
0.00353681353913962
0.00315135991086629
0.00272281203533835
0.00224915365381937
0.00172401934560062
0.00112157268599476
0.00462188879835964
0.00440970158658942
0.00414618371507251
0.00383311734910413
0.00347533928522699
0.00307706920822098
0.00263981075748607
0.00216248543869704
0.0016406881085657
0.00105424661100559
0.00480437968721578
0.00461910042167336
0.00438296542865806
0.00409692797683741
0.00376543690989359
0.00339364999589148
0.00298462171562926
0.00254069960176705
0.00206186157256792
0.00154662116279346
0.000980128404697972
0.00287413825027031
0.00242590613936735
0.00194807831572703
0.00144245332299614
0.000899260933450686
0.00274684995069506
0.00229595693762311
0.00182138564910213
0.00132805538282607
1.99255452672726e-05
8.62977591194498e-05
8.91442707439504e-05
3.29473018863026e-05
0.000158814363227601
0.00027986042614841
9.4031111598496e-05
0.00044505933901976
0.000432928473000645
0.000260029419007538
0.000963842846670667
0.000604971754201372
0.000629823769627944
0.000971075128307027
0.000627523732681467
0.00025176002878145
0.000284415603990126
0.000811508711312211
0.000316108383615432
0.000345550430842829
0.000372836092601341
0.000397899094123114
0.000420343746452011
0.000439237070759018
0.000453191615905541
0.000459155439616731
0.00046920849091941
0.00123634300273847
0.0018780590635348
0.00130528190694583
0.0024041924431011
0.00193193128555048
0.00132287627401269
0.00101588806714743
0.00150105810002481
0.00283635244706001
0.0024179290104252
0.00192261314172097
0.00128414772172472
0.00110925308607471
0.0014856088410997
0.00130854505403492
0.00322244180551702
0.00284804118818888
0.00240988494604027
0.00187993225996343
0.00109616640511608
0.00131902159051027
0.00126933352798328
0.00127053569718981
0.00356913352190117
0.00323342467038833
0.00284215570012127
0.0023912899579903
0.00186899554140597
0.00125575132648691
0.00387916774946028
0.00357781455567222
0.00322401094817137
0.0028192333463324
0.00235947695619308
0.00183691252192039
0.00122162510047672
0.00415515940842433
0.00388519299026974
0.00356361080300018
0.00319341662846857
0.00277630042390081
0.00230895300160848
0.00178492614429573
0.00117413180482164
0.00439919054688953
0.00415867888368866
0.00386677307845443
0.00352619105708675
0.0031413203930098
0.00271348922383901
0.00224068708899319
0.00171683463684945
0.00111654625482805
0.00461293563664435
0.00440038364964379
0.00413674477255279
0.00382384157651916
0.00346658686818158
0.00306919176660903
0.00263280743811487
0.0021563300124172
0.00163560036081422
0.00105075357093451
0.00479768763036919
0.00461179706412587
0.00437534456503555
0.00408924022308181
0.00375798404850456
0.00338676865876646
0.00297883770842929
0.00253567619360585
0.00205749998490046
0.00154308912507876
0.000977774411198361
0.00495422429299563
0.00479390268885392
0.00458362697857936
0.00432363699876837
0.00401778264414423
0.00367126960900608
0.0032882142816682
0.00287104972459552
0.00242275529956728
0.00194518922031474
0.00144012318300842
0.000897817231069672
0.00274525326680984
0.00229416241568871
0.00181973605598955
0.00132678256925565
0.000810806629784007
0.00260242711710252
0.00215023578671658
0.00168110500895526
0.00120278666734545
1.53860456948053e-05
5.32165606771362e-05
3.07547468956953e-05
0.000102906049431982
0.000442796405201267
0.000401804438785953
0.000507005540343236
0.000422908515327158
0.000916129879383594
0.000915780237901104
0.00023082399951154
0.000251637032993683
0.000716875234692727
0.000284161980890832
0.000315445041424609
0.000344462825572671
0.000371229995912365
0.000395576531266074
0.000417170256377008
0.000435348345967669
0.000449183939956889
0.000451572443715819
0.000498207545609662
0.00121482071773674
0.00182751697929745
0.0012377835886603
0.00237161878452793
0.00189872466587467
0.00127904517969456
0.0010183888623868
0.00148445312307864
0.00131578997273765
0.0028139382112298
0.00240527932825136
0.00191266972431879
0.00138849089435848
0.00120906935620546
0.00320152204724227
0.00283259205417502
0.00240281459004348
0.00187118951687669
0.00129793588495909
0.00128077910611481
0.00108550409925531
0.00129370692737865
0.00354964836399558
0.00321606953393363
0.00282731434351597
0.00237600776918197
0.00185041845039027
0.00108347248232805
0.00124458604167698
0.00126062084763909
0.00124769437665502
0.00386179824221228
0.00356129427233778
0.00320826664382001
0.00280348721923205
0.00234261474084971
0.00182204821156174
0.00121192080820161
0.00414009863268121
0.00387048080231329
0.00354924460233953
0.00317927132253274
0.00276215174353669
0.00229531326013601
0.00177340571448457
0.00116626103891655
0.00438637147029235
0.00414591530205431
0.00385415766492053
0.00351384633865205
0.00312936688719956
0.00270208284784103
0.00223025565395092
0.00170815936880976
0.00111062764657146
0.00460227035248825
0.00438952568508218
0.00412584096351173
0.0038131066452817
0.00345628612345573
0.00305956797368122
0.00262400245383411
0.00214854115222263
0.00162926467849164
0.00104650600776141
0.00478942419603451
0.00460292707700655
0.00436618139212034
0.00408005102240408
0.00374906463865253
0.00337843104030651
0.00297135740608421
0.00252906159216514
0.00205179576748404
0.00153855701857603
0.00097480659421746
0.00494879685724411
0.004787375916263
0.00457653339982876
0.0043162886524054
0.00401046469331585
0.00366425856724962
0.00328176479957606
0.00286562195053131
0.00241804013825025
0.00194116508520064
0.00143697985411703
0.000895858644906507
0.00494360881744513
0.00475779538425906
0.00452274043867028
0.00424164216217887
0.00391931052937271
0.00355994765992774
0.00316677019409408
0.00274248102310754
0.00229128333848073
0.00181714067745259
0.00132478035500893
0.000809706975366606
0.00260115991161153
0.00214873381269895
0.00167975153606969
0.00120182640076012
0.000716508346881387
0.00244260225709093
0.00199069601079187
0.00152890571856262
0.00106786676153952
1.78327568009622e-05
0.000423908066205742
0.000441765690954119
0.00046181976441582
0.00098844965889752
0.00103375002344723
0.000175827034077233
0.000230908211994584
0.000617224631850894
0.000251561791738271
0.000283680401287131
0.000314574831522461
0.000343156964126232
0.00036935593971394
0.00039297786128896
0.000413863762917921
0.000431553532873439
0.000446823290182837
0.000459736677987942
0.000440638653029522
0.00119229311442012
0.00179647636603367
0.00121654874780079
0.00232255656684738
0.00183027018851179
0.00123230959284111
0.00277886872594432
0.00237026735648324
0.001856161968895
0.00127303537629757
0.00119994390767201
0.00137839271638273
0.00317378890933148
0.00280970609135815
0.0023854804888355
0.00185219471511924
0.00147842531662726
0.00352557408573302
0.00319501537824289
0.00281084768444656
0.00236321559601873
0.00183676043239479
0.00129204130217861
0.0012836652640901
0.00127419856484792
0.00384078678750641
0.00354171871989134
0.00319050376344906
0.00278722149821197
0.00232569100598094
0.0018070103963566
0.00120240555217001
0.00123528566213854
0.00124947862267605
0.00122957966371283
0.00412203209945486
0.00385307672163944
0.00353256528399252
0.00316320572483864
0.00274621963333439
0.00227990149202383
0.0017607116344272
0.00115786266629185
0.00437107225957688
0.00413086438963981
0.0038394170129466
0.00349946911306677
0.00311535896654071
0.00268856547610913
0.0022179248002765
0.0016981354027227
0.00110394288646192
0.00458950789724314
0.00437674123337057
0.00411312191252626
0.00380059824914816
0.00344416970995507
0.00304803368868054
0.0026132963118828
0.00213908448507071
0.00162169424281272
0.00104152737906594
0.0047790465960231
0.00459231201674153
0.00435541476789723
0.00406931867545776
0.00373860911529915
0.00336851134915054
0.00296220082311003
0.00252082988257699
0.0020447138578886
0.00153300267833752
0.000971229553752415
0.00494165660941537
0.00477918596748496
0.00456779971575831
0.00430734104236125
0.00400158988586083
0.0036557366503051
0.00327385834752405
0.00285857401473166
0.00241187906052236
0.00193598272208417
0.00143299982318486
0.000893386326791435
0.00493831649008443
0.00475145933838675
0.00451588553669592
0.00423461937335584
0.00391240415135821
0.00355338824221363
0.00316075804159728
0.00273744685798305
0.00228694334368463
0.00181352574051486
0.00132206484310315
0.00080815385661914
0.00490709528421888
0.0046957660277394
0.0044385247159378
0.00413963941206051
0.00380298181230924
0.00343173384630825
0.00302911527932698
0.00259873189036969
0.00214619649530742
0.00167751223805934
0.00120019825014233
0.000715794088228981
0.00244167192073145
0.00198952696695988
0.00152787733701678
0.00106723593758927
0.000617174123203917
0.00226726981594377
0.00181726650628938
0.00136459558679066
0.000923022191673765
0.000418416713803971
0.000428402109058207
0.000450959258878758
0.00125361120764724
0.000116164979472188
0.000175923971528169
0.000504531187430381
0.000231170202718967
0.000251274447904204
0.000283019644998667
0.000313516638305253
0.000341645641294376
0.000367226988620098
0.000390161229592486
0.000410503502083617
0.000428076842952173
0.000443610676331866
0.000450857575728285
0.000436807777546934
0.00116136288116669
0.00175726577381234
0.00119325670396498
0.00227154705959328
0.00179417242493951
0.00121491289959698
0.002731877655071
0.00231886883484938
0.00181016111137724
0.00122251936685179
0.00313656150978821
0.00277396324358245
0.00234719812478032
0.00181836283675616
0.00349489174962067
0.0031670974340844
0.00278648647705405
0.00234098125513447
0.00181823590140375
0.00381477638266646
0.00351755015795346
0.00316888121654638
0.00276846593510639
0.00230830986960151
0.00179209397781661
0.00409996251838172
0.00383201326556037
0.00351272747899944
0.00314471402824056
0.00272861663222274
0.00226321716810819
0.00174714161642197
0.00114900877997996
0.00119257022274402
0.00122345238974217
0.00123053137488493
0.00435251997301397
0.00411278988843152
0.00382190864143077
0.00348259667789745
0.00309908885363766
0.00267293642299531
0.00220380729817991
0.00168688736723629
0.00109656989572945
0.00457408608535245
0.00436146306218816
0.00409805899821187
0.00378586144535151
0.0034298885846773
0.00303436260567608
0.00260056206471394
0.00212792564069658
0.00161290172425435
0.00103583027134349
0.00476637631557773
0.00457958556019239
0.00434267248707911
0.00405669520708366
0.00372629784372488
0.00335673303868026
0.00295119040567262
0.00251086661882988
0.0020361866509022
0.00152639368300182
0.000967031541919195
0.00493142651102032
0.00476885619996195
0.00455726401597241
0.00429672344566291
0.00399110570884911
0.00364563294856855
0.00326437879971987
0.00284993952535119
0.00240425956000008
0.00192960851043142
0.00142815686472792
0.000890393972265905
0.0050719465088488
0.00493121381744247
0.00474338630425838
0.00450734034766165
0.00422595024338971
0.00390389888381493
0.00354529893580768
0.0031533132471281
0.00273087563826895
0.00228128751543277
0.00180888985404119
0.00131862662504468
0.000806158397072957
0.00490195656298103
0.00468964082679135
0.00443195704732354
0.00413299320877246
0.00379651723797957
0.00342564107263579
0.0030235630168658
0.00259413081506577
0.00214229612978758
0.0016743438315932
0.00119792895248956
0.000714668249042342
0.00484428021262044
0.00460986021323357
0.00433368248178053
0.00401912023851687
0.00366897527306733
0.00328627813040365
0.00287491942562765
0.00243960774205047
0.00198736814729646
0.00152602062757509
0.00106600049441872
0.000616858285356654
0.00226668227445229
0.00181642960759778
0.00136388596523379
0.000922696713669416
0.000504769596258306
0.00207642283327503
0.0016298804449676
0.00118812134658986
0.000767748518702712
0.000407165077664534
0.000421075565047048
0.000433030320333845
6.1977096621512e-05
0.000116290561926957
0.000382028831155936
0.000176213747168282
0.000231391840771674
0.000250801267165379
0.000282193750898184
0.00031227462461104
0.000339912231008018
0.000364835168650305
0.000387096868100288
0.000406765842451273
0.000423490665300947
0.00043527729782585
0.000435992891925782
0.000431752733303604
0.00112373224315741
0.00171014652892885
0.00116222049420451
0.00221808561163671
0.00175513255725687
0.00119105001337777
0.00267719098800274
0.00226734492038886
0.00178192088434902
0.00120594638088687
0.00308929274707546
0.00272657790670091
0.00229783752497362
0.00179198670249429
0.00121003358742763
0.00345580371955979
0.00312977305232787
0.00275001368748866
0.00230477964233654
0.00179174794861169
0.00378217541912768
0.00348682116348526
0.00314046183370169
0.00274237741808002
0.00228485659732503
0.00177337464612305
0.00407263343974221
0.00380596248152296
0.00348827949781157
0.0031221831363263
0.00270790361377431
0.00224452054322251
0.0017321031847705
0.0043297158588675
0.00409070637253075
0.00380069613458059
0.00346241528208617
0.00307998765671734
0.00265495829569821
0.00218783597594606
0.00167431934715847
0.00108837691652657
0.00113903359253025
0.00117987163573852
0.00120518755902402
0.0045552267829772
0.00434292360831142
0.00407992736741364
0.00376825961472278
0.00341294430271185
0.00301822201466532
0.00258561005482038
0.00211497284385699
0.00160283330437666
0.00102936246240423
0.00475091546887848
0.00456419215171674
0.0043273965290761
0.00404165736620629
0.00371166926680346
0.00334271807957474
0.00293804841603798
0.00249898415834803
0.00202609976213496
0.00151866111392775
0.000962161988031765
0.00491879652578583
0.00475622274674602
0.00454457696725987
0.0042840702590037
0.00397866492300551
0.00363362685644449
0.0032530473925393
0.00283953652050931
0.00239505959028824
0.00192195442304862
0.0014223938527743
0.000886857519547344
0.00506129784847545
0.00492104384940897
0.00473312547119712
0.00449693477813409
0.00421555540028094
0.00389374052986799
0.00353561471847101
0.0031443326435578
0.00272281266818558
0.00227431471173045
0.00180320321804898
0.00131443916313914
0.000803708015840771
0.00518051389709355
0.00506125260643188
0.0048949253597505
0.00468172969881561
0.00442365911322985
0.00412466317082511
0.00378842934352899
0.0034180213124195
0.00301661754035874
0.00258807624389306
0.00213718730822049
0.00167026090644627
0.00119502015582492
0.000713130576550645
0.004839315417376
0.00460398876266934
0.00432745545561531
0.00401289189714372
0.00366297789810354
0.00328067214207849
0.00286985303448566
0.00243547520495765
0.0019839353605027
0.0015233120082194
0.00106418209865774
0.000616184662034501
0.00475713715540389
0.00450278111019478
0.00420971310485222
0.00388020746955952
0.00351682635613474
0.00312313154544909
0.00270391374320418
0.00226499746635451
0.00181465458017319
0.00136241235098492
0.000921848564762558
0.000504816631683355
0.00207615050838728
0.00162934821828188
0.00118769972077712
0.000767708087290963
0.000382541629520505
0.00186999854682649
0.00142853765567732
0.0010000516576996
0.000603167470755545
0.000394572604938329
0.000410351878241501
0.000423802654496974
2.11962602266423e-05
6.21218609928683e-05
0.000255198931992843
0.000116618716701165
0.000176293577846921
0.000231148449229453
0.000250161940815457
0.000281193769113533
0.000310840160656639
0.000337912074430478
0.000362113576079911
0.000383547804260986
0.000401992555905068
0.000416407669892235
0.000424217823861245
0.000424858765525628
0.000421852346963279
0.00107914497064902
0.00165468630731447
0.0011242487110107
0.00215784253465219
0.00170818155289348
0.00115938216527178
0.00261584837615801
0.0022143067169362
0.00174409661103175
0.00118038333699609
0.00303265874597187
0.00267195600895786
0.00224891685224185
0.00176110351573645
0.0011867632314058
0.00340721686913191
0.00308257960256443
0.00270313729908509
0.00226192441838731
0.00176249782494219
0.00118205017397779
0.00374142219299186
0.00344778502177611
0.00310303091965054
0.00270625449652334
0.00225286520146666
0.00174854765027164
0.00403860120619519
0.00377336591868776
0.00345738390905022
0.00309319527939751
0.00268110348770092
0.0022211415513718
0.0017135557665145
0.00430143913683941
0.00406337518018971
0.00377451022551103
0.00343761325470076
0.00305675885235526
0.00263358853475584
0.00216925276302826
0.00165975923402129
0.00453192673806569
0.00432013206321114
0.00405776569709237
0.00374689620129227
0.0033925569314628
0.00299901213290172
0.00256803550473874
0.00209992981068435
0.00159123745755784
0.00102192567886271
0.00107882694269806
0.0011265257703796
0.00116236592940791
0.00473188649160672
0.00454535834601035
0.00430883059548386
0.0040234952872542
0.00369409276294791
0.00332594367879269
0.0029223738403576
0.00248489287836765
0.0020142487958419
0.00150965472898006
0.000956516839548605
0.00490334001472369
0.00474079410133417
0.00452919290623798
0.00426883314622699
0.00396375063207194
0.00361925482059885
0.00323947210147961
0.00282706278583738
0.00238406058758508
0.00191286227950652
0.00141559952935945
0.000882718459173812
0.0050486286169095
0.00490845612469521
0.00472052730128856
0.00448432899803462
0.00420307349882544
0.00388158606771474
0.00352402011068419
0.00313354263561553
0.00271307898956089
0.00226589652309932
0.0017963694681391
0.00130943595933898
0.000800767967991738
0.00517018860563302
0.00505074605051357
0.00488482519014705
0.0046715810387118
0.00441345296558345
0.00411456929265752
0.00377866939411542
0.00340881983772403
0.00300819051572359
0.00258062463381323
0.00213087712687902
0.00166523922275616
0.00119144732822807
0.000711167029765431
0.00527006816374964
0.00516968972939078
0.00502457924424223
0.00483240432961602
0.00459629439986146
0.00431946584601393
0.0040049556439206
0.00365535130847021
0.00327355982330558
0.00286344323916914