/*--------------------------------*- C++ -*----------------------------------*\
  =========                 |
  \\      /  F ield         | OpenFOAM: The Open Source CFD Toolbox
   \\    /   O peration     | Website:  https://openfoam.org
    \\  /    A nd           | Version:  12
     \\/     M anipulation  |
\*---------------------------------------------------------------------------*/
/*   Windows 32 and 64 bit porting by blueCAPE: http://www.bluecape.com.pt   *\
|  Based on Windows porting (2.0.x v4) by Symscape: http://www.symscape.com   |
\*---------------------------------------------------------------------------*/
FoamFile
{
    format      ascii;
    class       volScalarField;
    location    "100";
    object      nut;
}
// * * * * * * * * * * * * * * * * * * * * * * * * * * * * * * * * * * * * * //

dimensions      [0 2 -1 0 0 0 0];

internalField   nonuniform List<scalar> 
10107
(
6.90900915886102e-05
3.5589128834904e-05
0.00073201666578286
6.83659347535878e-05
2.82446758273401e-05
0.000429033471602257
2.04685221100348e-05
0.00119403563408202
0.000736377236851435
0.000373254855991564
9.25788133394775e-06
0.000200479443151368
2.02018842398453e-05
0.000887291769066885
0.000408216292570647
2.26046775345025e-05
0.000171950068478389
0.00158517907492779
0.00231341616814404
0.00113663885834253
0.000814491999262743
0.00103075093221584
0.000736698456957467
0.000632490746376342
0.000704108885745289
7.13654060294802e-06
2.79972477333376e-05
0.000412452490892401
0.000177542434741946
1.4162434963442e-05
0.0010981077633054
0.000838141492354428
0.00032615380731987
0.000499798766584287
0.00056288453125765
4.7467625645705e-05
0.000323631310618959
0.000347571207157797
0.000429956704565354
0.00182499509775418
0.00256236595438564
0.0015135621489477
0.00357313303511714
0.00233733921395971
0.00119169083299863
0.000793158477001779
0.000941006546166558
0.00132843018397981
0.000928815264415506
0.00072734899277285
0.000799472275562738
4.28871239840091e-06
2.35530892107938e-05
5.83322452735372e-05
0.000509853024069235
0.000381194473745471
0.000142141039735385
1.96192749201828e-05
0.00117270390326053
0.000984575498745305
0.000582552455564337
0.000653509841907861
7.17921586844326e-05
7.05088305168829e-05
0.00101117894186932
0.000563569300501555
0.000640649868135472
0.00192158262136224
0.00275281588232278
0.00169581641063254
0.00371722927999737
0.00251117057606799
0.00123862948405091
0.00474393639663996
0.00355854429919452
0.00218145524219091
0.000814124601302628
0.00105701380755212
0.00101100391146732
0.000887454019826212
4.2903891260976e-06
1.80851103593827e-05
4.89373145287849e-05
7.50216782961979e-05
0.000546019099499014
0.000459866938756802
0.000261763240859852
3.76122059909209e-05
0.00119332065323239
0.00103394454598361
0.000635131040464054
9.51215769502456e-05
7.18860574449682e-05
0.000779444783507813
8.00651721570196e-05
0.000739815307143971
0.00195252883950889
0.00284274513624985
0.00176884439606798
0.00382268697733638
0.00266053916956926
0.00134327740257862
0.00483362534316549
0.00367900394938205
0.00233684677294689
0.000812065124975047
0.00580913907125608
0.00472615709561374
0.00347416946567285
0.0020304498831774
5.86982333668896e-06
3.0858301100012e-05
6.39833006985578e-05
8.15647473358121e-05
0.000552972235747914
0.000483401805773819
0.000301022911794332
4.73067088859257e-05
0.00119151515401993
0.00104794364915604
0.000649459241915967
9.76104456867079e-05
9.40268224302422e-05
0.00081097282851062
7.31451358394828e-05
7.99393424114769e-05
0.00195134236783402
0.00287501827078096
0.00179203989177516
0.00388484006975909
0.00273496339198023
0.00138073098125976
0.00489948290313659
0.00376789950387699
0.00244841784744034
0.000845604087930799
0.00586442679232612
0.00480632538700439
0.00356989427304862
0.002092558880986
0.000815244144473731
0.00579149379916891
0.00466711509647487
0.00334800155554609
0.00197310588289587
6.39063368738582e-06
3.68475732488619e-05
6.85051825093594e-05
8.17953209488564e-05
0.000551774452519777
0.000487833667771899
0.000311086998993096
5.02242815906439e-05
0.00117452729034945
0.00104419163711699
0.000654402635163566
9.57251714318089e-05
9.72787780530662e-05
0.00081346960793388
9.41259314058459e-05
7.39466888401591e-05
8.18502716563283e-05
0.0019282530855439
0.00287367091073157
0.00178880056977811
0.00390979007434176
0.00276154728970406
0.00139092676996136
0.00493936288809313
0.00382212202674633
0.00249920601555396
0.00086021526676923
0.00590597049092012
0.00486499011779864
0.00363861761629456
0.00214292460806935
0.000821643442524179
0.00584245211466843
0.00473210530548646
0.00340631145624212
0.00199300757568427
0.000813857717388687
0.00574104150970955
0.00456965748936992
0.00324913804478284
0.00193422182088782
6.67741160052772e-06
3.85188352283297e-05
6.88593842030229e-05
8.33192839929001e-05
0.000539898200331108
0.000484700080961081
0.000313473780259214
5.1988401153626e-05
0.00113928340397952
0.00102929862594213
0.000649187712458324
9.29322426909963e-05
9.57105824277307e-05
0.000797633304504507
9.71961706638038e-05
9.41395968153384e-05
7.41961622868992e-05
7.88242699011576e-05
0.00187850561731811
0.00284711865066886
0.00176765696545932
0.00390722410473758
0.00275882503363481
0.00138505173613637
0.00495545448642547
0.00384378304565146
0.00251552566010401
0.000862355711159704
0.00593062930034204
0.00490070222071102
0.0036795225069062
0.00216865311770774
0.000823778298466687
0.0068123744104879
0.00588060217319518
0.00477924375453029
0.00344973339033827
0.00200904874730572
0.000814406900155666
0.00578376756608782
0.00461424924574837
0.00327694949068436
0.00194054547342431
0.000797734288939238
0.00565567281171629
0.00446071151465181
0.00316527046383376
0.00188791661248151
6.52515495502297e-06
3.83967522303581e-05
6.79108048140339e-05
7.98068399503095e-05
0.000520871107833822
0.000475195409067754
0.000310131018527725
5.11295752231611e-05
0.00106913740818711
0.000999001318038835
0.00063855833978762
8.98128201619584e-05
9.2925192070418e-05
0.00077498025185951
9.56352050546864e-05
9.6949467736559e-05
9.37876031959705e-05
7.35579854362039e-05
7.93674014311196e-05
0.00178107659907448
0.00279160460358494
0.00172559376253669
0.00388192658049979
0.00273386875732987
0.00137052250671241
0.00495121193117997
0.00384051054930888
0.00251044139906148
0.000858568209852908
0.00593916697259182
0.00491489666775106
0.00369470643448823
0.00217490243235279
0.00082235585542773
0.00682637444483858
0.00590312242609462
0.00480748138885971
0.00347456985026693
0.00201669064117243
0.000813667527584542
0.00761153162834608
0.00679132035164526
0.00581551787288293
0.00464685960432553
0.00329732494327433
0.00194472203214846
0.00079734187453333
0.00568708443798004
0.00448638963522086
0.00317695854289486
0.00188989208649426
0.000774889239362268
0.00554548788936061
0.00435022151342485
0.00308166007364026
0.00183355340724274
6.32666150802865e-06
3.7616365006832e-05
6.51544085045662e-05
7.54042858203157e-05
0.000482465712274989
0.000458357988749096
0.000304125925641237
4.96109839534972e-05
0.000915580715671314
0.000944353283518048
0.000618515389087009
8.65192655558885e-05
8.97897731024412e-05
0.000749036734239978
9.28790564883158e-05
9.54561777779964e-05
9.66050232598786e-05
9.32008665223982e-05
7.32079852421519e-05
7.53074242554809e-05
0.00158866974816362
0.0026917683915503
0.0016424907252665
0.0038329205292629
0.00268416558311792
0.00134925557382434
0.00492904962585657
0.00381648337188299
0.00249027177514795
0.000853758687823314
0.00593297330250016
0.00491026757314143
0.0036899039513122
0.00216891798086568
0.000818213751209002
0.00682902488307062
0.00591058766442556
0.0048178279621781
0.00348198181692902
0.00201620764916011
0.000811259513356641
0.00761821498074713
0.00680425964268558
0.00583382159729035
0.00466559046205661
0.00330790535463021
0.0019452877539548
0.000796007948483277
0.00830591634955125
0.00759273913074188
0.00673578720396738
0.00571024476016163
0.00450492877728553
0.00318466018965524
0.00189027476735147
0.000774196139298904
0.00556550380279561
0.00436301794492882
0.0030860468782745
0.00183379334473578
0.000748669084276819
0.00541952804364278
0.00423478024321447
0.00299098215299623
0.00177249885285166
5.92239445442934e-06
3.60505124467654e-05
6.09991403894492e-05
6.411820049321e-05
0.000407839537311572
0.00042900317995306
0.000291640902166625
4.5952156819348e-05
0.000560768069185915
0.000830396864893422
0.000590624467499676
8.29333440890467e-05
8.64782222319076e-05
0.000720582245013048
8.9762027843006e-05
9.27417263480685e-05
9.5150320294449e-05
9.60749528033504e-05
9.24684653549465e-05
8.83112157170781e-05
7.3381979594555e-05
0.00122925534047857
0.00252636223838828
0.00146853703436648
0.00375559060052895
0.00259408400429971
0.00129851457953248
0.0048894529029063
0.00377126926050335
0.00245466606935706
0.000873334838206065
0.00591316557660796
0.00488894365516904
0.00366880965521459
0.00215542378013044
0.000812331882089275
0.006820822901964
0.00590415047337541
0.00481226228564213
0.00347564817650824
0.00200924343588964
0.000807190580091674
0.0076165517625988
0.0068063448021949
0.00583903351079748
0.00467086778754532
0.00330871665342125
0.00194191364609913
0.000793479265262206
0.00830783214848793
0.00759891004469015
0.00674643922489189
0.00572280758159514
0.00451441439239597
0.00318710563816773
0.00188849387778318
0.000772737202680886
0.00890220955833852
0.0082882007849033
0.00754159291614425
0.00664295737025197
0.00557986276674357
0.00437153867066024
0.00308793451919385
0.00183276497700852
0.000747874395561508
0.00543071587121061
0.00424030405377986
0.00299204377649508
0.0017718539633965
0.000720157045215334
0.00527913596098632
0.00410880834909622
0.0028902718961374
0.00170461006223357
5.47170579852496e-06
3.35233333375472e-05
5.36087304539825e-05
4.83723053989651e-05
0.000250401704016259
0.000371959239374711
0.000271945723195966
4.16251342943364e-05
8.1847550768891e-05
0.000529149940752366
0.000552101359724994
7.90159183516109e-05
8.28936693708532e-05
0.000689473849150219
8.64447253776331e-05
8.96421413595281e-05
9.24961441433659e-05
9.47182532976292e-05
9.54270073144826e-05
9.16196308449515e-05
8.57540078978994e-05
8.51386489213353e-05
0.000827292395988939
0.00229139204576059
0.00118219974138999
0.00364844250661784
0.0024367205183818
0.00120590159013881
0.00483201944069136
0.00370123659201432
0.00238972332529431
0.000847787958243424
0.00588015248018044
0.004851609856523
0.0036317514271333
0.00214052344659303
0.00080715663679803
0.00680208410159944
0.005884788754476
0.00479260144509814
0.0034583388161874
0.00199729111617917
0.000802050755857273
0.00760657431410118
0.00679799276262784
0.00583199325360679
0.00466404598518738
0.00330102852060581
0.00193485663382744
0.000789982648868757
0.00830321050118007
0.00759696825765929
0.00674725083515441
0.0057248667749007
0.00451482120282077
0.00318406661955834
0.00188431215072185
0.000770558246017352
0.00890122623559851
0.00828987781066379
0.00754657185140363
0.00665025267878465
0.00558647306660597
0.00437435681686331
0.00308663674116141
0.00183021959161106
0.000746574629567842
0.00940901912369648
0.0088848039448936
0.00823876815404399
0.00745375324188629
0.00651856467501018
0.0054380573357541
0.00424303518322566
0.00299132641352751
0.00177024298598134
0.000719419665374665
0.00528462063430598
0.00411057070310512
0.00288979582103189
0.00170373896135678
0.000689133111997387
0.00512101965763177
0.00396755068153465
0.0027770810535766
0.00162905081232664
5.05431767733377e-06
2.95915755415976e-05
4.04856014201654e-05
2.28159750382084e-05
6.71010236813074e-05
0.000229590618291508
0.000234634105893879
3.83955908780622e-05
8.50508214085303e-05
8.2571718181678e-05
0.000457539395821143
0.000455985413779643
7.47126416681303e-05
7.89917409058853e-05
0.000655146320037533
8.28671700061874e-05
8.63426302853816e-05
8.94499270332146e-05
9.21647653655474e-05
9.42100917012016e-05
9.47605390855425e-05
9.06713596274324e-05
8.00618308732012e-05
8.59750447010374e-05
0.000740703385892997
0.00204531364092413
0.000745257689043401
0.00351758198611205
0.00226829307025807
0.000755597965093317
0.00108397264119454
0.00475669991183293
0.00360937685830221
0.00228772643665629
0.0010793530377015
0.000796272738460779
0.00583370929120474
0.00479848542240052
0.00357664842702571
0.0020988008096809
0.000796014605928789
0.00677275622294405
0.00585295160620282
0.00475973057628749
0.00343143305783797
0.00198167010010266
0.000796567098572956
0.0075881078693376
0.0067794620162262
0.00581348806688845
0.00464648482763673
0.00328606717835881
0.00192472752216055
0.000785837378766402
0.00829186895217599
0.00758691484163037
0.00673851596943117
0.00571694580684258
0.00450679162051407
0.00317586423367394
0.00187783102421143
0.000767751296569145
0.00889473603118033
0.00828513289138255
0.00754394552522181
0.00664917352620196
0.00558526073722834
0.00437131278591074
0.00308196506379859
0.00182611039206425
0.000744801913518328
0.00940643633549921
0.00888371690196639
0.00823985583574999
0.0074568566153988
0.00652215642891828
0.00543986408814448
0.00424200225422044
0.00298846412692203
0.0017676320196964
0.000718318107266455
0.00983562298127655
0.00939146115514885
0.0088356146920929
0.00815203060622907
0.00733034389849419
0.00637066597870822
0.00528733538564298
0.00411030563630465
0.00288796478211785
0.00170212422714914
0.000688542870402605
0.00512324453602603
0.00396750458421013
0.00277604778433142
0.00162835886156823
0.000654988315155589
0.00494034786693413
0.00380657433268698
0.00264853444016877
0.00154403488331081
4.83536210747649e-06
2.2572733115702e-05
2.12154812312462e-05
5.24810826813129e-06
6.12106493214217e-05
0.000146697274714659
2.47842384689382e-05
7.95551823008537e-05
6.1444562695166e-05
5.87577174401557e-05
0.000594204077683024
0.000331343382957982
0.000261785508748462
0.000602917892151621
0.000283569150245467
7.01649348773406e-05
7.47117774415694e-05
0.00061703516893703
7.8984072602903e-05
8.27879264099343e-05
8.61857184290424e-05
8.91976025922206e-05
9.17741954343361e-05
9.36936840715064e-05
9.41037759501793e-05
8.93834115764113e-05
8.72914904603848e-05
0.00072105773108162
0.00189063144239338
0.000714858589114025
0.00336602776186292
0.0021121893415131
0.000709451964200769
0.000314236930028262
0.00100063367396028
0.00466279569890247
0.00350478120521651
0.00220816895265563
0.00066952548277855
0.000734285104262386
0.00123923204168954
0.000872552310609928
0.00577302686664042
0.00473036878206622
0.00351085049581456
0.00202719846756412
0.000723932706174767
0.00093201193456771
0.000782580247905962
0.000777723271606171
0.00673231287372307
0.00580857862827035
0.00471446429956029
0.00339153237239774
0.00195749822276016
0.000790741676856064
0.0075607347316441
0.0067506944907479
0.00578397770527879
0.00461910547182656
0.00326455650802792
0.00191238687016539
0.000781531065482368
0.00827335573782204
0.00756855625427593
0.00672039851498976
0.00569958915029727
0.00449104887673016
0.00316301586124533
0.00186953253073393
0.000764495758532608
0.00888248103098412
0.00827377013453483
0.00753367404097496
0.00663987546313557
0.00557645275475295
0.00436260951286613
0.00307401808068958
0.00182057299348063
0.000742591523061267
0.00939890215319199
0.00887718651105143
0.00823476942742539
0.00745315757723366
0.00651900192406645
0.00543605986167279
0.00423708778868838
0.00298337404287105
0.00176401000691078
0.000716875202379085
0.00983233345025392
0.00938884271230725
0.00883426275692327
0.0081521250855158
0.00733126398583936
0.00637105248144774
0.00528597890348149
0.00410736041095016
0.00288459184838888
0.00169978178577611
0.000687668964675272
0.0101914551282267
0.00981767692352939
0.00934174042690406
0.00874797402255714
0.00802644433472697
0.00717546085504283
0.00620216077918291
0.00512330864717902
0.00396585481032709
0.00277393894169317
0.00162701599267479
0.0006545991197881
0.00494091618423532
0.00380583367130376
0.00264763505781725
0.00154375990376099
0.000617128628946187
0.00473158789044311
0.00362092928701239
0.0025009674140396
0.00144723495020547
3.59533328718504e-06
1.29709292715514e-05
5.64683282117995e-06
3.30676165419748e-05
8.9593960144659e-05
7.39313723105548e-05
8.0154082102277e-05
8.9578260308148e-05
0.000489018482762629
0.000504663065234334
7.70559706889396e-05
7.01992548266627e-05
0.000575543729901767
7.4730079997252e-05
7.89289560527606e-05
8.26664474005295e-05
8.59876383791157e-05
8.88956350550204e-05
9.13648395882443e-05
9.32302628875652e-05
9.36930728217791e-05
8.84957210048738e-05
9.85298678986029e-05
0.000744018822257114
0.00180553877972463
0.000721883780570321
0.0032183048125553
0.00196239450266368
0.000704968696316136
0.000366331403187662
0.000966474061886721
0.000701044838352826
0.00454937280150605
0.00337601823700433
0.00206308449564967
0.000799357882514193
0.000527402687928611
0.00569682236318208
0.00464599732704952
0.00343815811745875
0.00198516840301839
0.000668765442116136
0.000668268171978106
0.000656348460088603
0.000792459192586279
0.00667979371969758
0.00575098874651238
0.0046581947213673
0.00334538388243591
0.0019288853407285
0.000668818276887414
0.000786113882477582
0.000779052453649342
0.000737565392207009
0.00752371598593609
0.0067112037698016
0.0057435621184737
0.00458254797054501
0.003236060865743
0.00189824718856836
0.000777603888527047
0.00824701339694177
0.00754146994794119
0.00669282098442954
0.00567317257152648
0.00446818138718293
0.00314610140947298
0.00186009979897473
0.000761089407553432
0.0088638662345385
0.00825533650652404
0.00751552911436442
0.00662240164717254
0.00556030935742721
0.00434855173306271
0.00306309019818318
0.00181386486255394
0.000740030000260813
0.00938613068818334
0.00886494660267825
0.00822330717158343
0.00744257252648182
0.00650914267407862
0.00542668571621904
0.00422833603588052
0.0029761021823076
0.00175942654001686
0.000715118638546702
0.00982435734017639
0.00938131385005888
0.00882758522320063
0.00814647715911803
0.00732634213004873
0.00636615081846476
0.00528056908747148
0.00410170957132501
0.00287967914962899
0.00169671896925688
0.00068653402894911
0.0101879854482985
0.00981438401178257
0.00933903246603751
0.0087461379398468
0.00802533249624644
0.00717440008761834
0.00620027658758185
0.00512020225213512
0.00396215145020734
0.0027706859989217
0.00162508901971006
0.000653962863913162
0.0101730414105193
0.00976709253636591
0.00925224781469744
0.00861856097652029
0.007863535666436
0.00699087651995063
0.00601055756206465
0.00493967405353876
0.00380373122451014
0.00264578040282187
0.00154284399058107
0.000616981054245635
0.00473148609458116
0.00362017645113304
0.00250055188564618
0.00144751035071725
0.000575928014941686
0.0044882731771521
0.00340469372241914
0.00232920443805309
0.00133580686582043
3.77463117097707e-06
8.93042583396662e-05
8.91874608709085e-05
8.40415616852894e-05
0.000308576099352714
0.000397735333032233
5.88364253766401e-05
7.70849277371575e-05
0.000539783909612236
7.02467079627618e-05
7.47021827494728e-05
7.88390926212484e-05
8.25124207594316e-05
8.57529519497392e-05
8.85672516749325e-05
9.09782166288009e-05
9.28622649304133e-05
9.39173002872793e-05
9.24403107081406e-05
8.40522429593051e-05
0.000749021753939653
0.00180669849493498
0.00074795497068189
0.00309609094297442
0.00182577391832712
0.000732545806469958
0.00442689142066321
0.00323083940874326
0.00187316315283867
0.000680798956071329
0.000535353637346831
0.000786500173882317
0.00560512387429514
0.00454096888122358
0.0033304938756134
0.00191596710190485
0.00099515797811571
0.00661419929574036
0.00567865607834698
0.00458820262769798
0.00329696737305504
0.00190936381091188
0.000669126310703307
0.000698399746043827
0.000735260214318694
0.00747604841260785
0.0066600705294779
0.00569168636186766
0.00453801783353926
0.00320405402135714
0.00188463804301307
0.00077476453689731
0.000784737965316211
0.000776407686095211
0.000722380711868159
0.0082119389202226
0.00750493386686205
0.00665534967599051
0.00563778883850108
0.00443877810480833
0.00312587637335854
0.00185031969434105
0.000757867102186803
0.00883808014630788
0.00822917682280923
0.00748908001425871
0.00659662357652058
0.00553701012761798
0.0043294648732794
0.00304962147646937
0.00180638265451656
0.000737280527693501
0.00936746951080245
0.00884640832641918
0.00820501216950558
0.00742482765688765
0.00649249508972336
0.00541178357699408
0.00421585594652089
0.00296681471312014
0.00175399636111083
0.000713089274161113
0.00981136512036313
0.00936857945874241
0.0088153230390362
0.00813488264759156
0.00731547273165147
0.00635594623030614
0.00527107778993518
0.00409335440769819
0.00287326928844674
0.00169295685053251
0.000685151163056129
0.0101798430915077
0.00980643222127219
0.0093314671933887
0.00873920637522714
0.00801903611964953
0.00716842441671
0.00619422987319686
0.00511405665559038
0.0039564515557621
0.00276629965629361
0.00162259787400748
0.000653111310867776
0.0101695648164624
0.00976380616864464
0.00924934595628369
0.00861612002908375
0.00786130238037064
0.0069883588314067
0.00600734068191796
0.0049358102208315
0.00379995116118345
0.00264297405583116
0.00154140489400413
0.000616591177934427
0.0101215423694043
0.00967542928113504
0.00911835460630734
0.00844718687911754
0.00766382385095494
0.0067743958342969
0.00579045940112899
0.00472978410154774
0.00361822434572105
0.00249921265809353
0.00144711083026734
0.000576036207661684
0.00448808730361867
0.00340434320869768
0.00232942999810714
0.00133666572781844
0.000540410712268405
0.00420250660892365
0.00314994301700122
0.00212571124705412
0.00120470186984475
9.04839855496439e-05
8.96888953131263e-05
9.1425681368717e-05
0.000688717986721911
3.87200700703804e-05
5.88691569307843e-05
0.000459904913188717
7.71729913942949e-05
7.02410966339598e-05
7.46430158716341e-05
7.87196434960935e-05
8.23303399095932e-05
8.54889966644617e-05
8.82344357972623e-05
9.06461412371907e-05
9.26650766931087e-05
9.41217952027971e-05
9.36558961769361e-05
9.03847886763406e-05
0.000742063164570795
0.00179413526924223
0.000752177099581909
0.00302518457687636
0.00181318549024089
0.000756483076076836
0.00431194392369297
0.00310203948234072
0.00181091362153957
0.000754672394408955
0.00550316510878441
0.00442256662160382
0.00319347465996843
0.00183861056032707
0.00653555941370173
0.00559083414900433
0.00449653824733505
0.0032220512439072
0.00188355200672037
0.00741674164357766
0.00659626084208798
0.00562649210667533
0.00448299206685274
0.00317039293862624
0.00187335287983979
0.00816701427671393
0.00745797127598318
0.00660712700366661
0.00559294168195708
0.00440353115236721
0.0031039192781252
0.00184110809604217
0.000755075509458687
0.000772738149359107
0.000782714206987515
0.000771110590593771
0.00880407143110875
0.008194398191673
0.00745363099028156
0.0065621291305492
0.00550655829595468
0.00430573924090674
0.00303424583128551
0.00179859567790212
0.000734508116788076
0.00934200442423553
0.00882076545681549
0.00817923216743875
0.00739947463404947
0.00646884615427851
0.00539134459829605
0.00419978748091542
0.00295577116697717
0.00174790805016424
0.000710849935441936
0.00979273459703217
0.00934999626739365
0.00879689675177283
0.00811687791418909
0.00729833911334256
0.0063402590434651
0.00525742377115451
0.00408230326472393
0.00286540802588674
0.00168853199402214
0.000683534840864532
0.0101668792201546
0.00979349223405094
0.00931875561908386
0.00872693156758437
0.00800736623130859
0.00715743854171341
0.0061840031476022
0.0051048382965429
0.00394874365239863
0.00276078822127781
0.0016195466545639
0.000652044179443236
0.0104735355282009
0.0101614422181496
0.0097558700506916
0.00924170932394608
0.00860890725577172
0.00785446375709413
0.00698170110503766
0.00600076059162551
0.00492955022392925
0.00379461471208051
0.00263924718779055
0.00153947858379512
0.000616006677421233
0.0101180991700228
0.0096721164994592
0.00911520862316301
0.00844419108524999
0.00766076760534992
0.0067710151152272
0.00578665235643542
0.00472580413885479
0.00361482538685393
0.00249700927305559
0.00144619788227471
0.000575873160593489
0.0100277613725625
0.00953702798617095
0.00893866670293708
0.00823332562992201
0.00742476337416354
0.00652088832716232
0.00553503117214855
0.00448644191260411
0.00340286094105822
0.00232872129806769
0.00133680017152086
0.000540728532772704
0.00420261769794619
0.00315014940911861
0.0021265745915897
0.00120606649968058
0.000460892736354143
0.00386438328887702
0.00284560691469162
0.0018781386317158
0.00102435097225608
8.95532575836967e-05
9.03936634913541e-05
9.10389858020702e-05
2.04391216058328e-05
3.87619939895855e-05
0.000358154579470598
5.89662083335376e-05
7.72473892518938e-05
7.02043435545477e-05
7.45573127326023e-05
7.8573291140486e-05
8.21205884854619e-05
8.52021646565028e-05
8.79018559857171e-05
9.03052917875303e-05
9.23384857937199e-05
9.34960060701839e-05
9.27246984697376e-05
9.22053712122244e-05
0.000730164668789506
0.00177036977275077
0.00074496003325191
0.00297411713069633
0.00180011990212678
0.000758283503601444
0.0042182919763486
0.00302887002744603
0.00181712709173689
0.000765223444874549
0.00539935090538259
0.00430930687127449
0.00308471941154131
0.0018281584455057
0.000769881903031883
0.00644605721374461
0.00549203300702223
0.00438863332105823
0.0031279453714885
0.0018523633534907
0.00734528001996067
0.00651963219146259
0.00554630862029486
0.0044101039042627
0.00312518155704247
0.00185869525295328
0.00811103530237678
0.00739959684238915
0.00654705709891082
0.00553686991336578
0.00436084780627616
0.00308001045148944
0.00183198473432561
0.00876055005420428
0.00814989689041781
0.00740824194913283
0.0065181231972818
0.00546850619769469
0.00427761747802412
0.00301747791042625
0.00179076391910656
0.000731733362766621
0.000752254760911476
0.000769287188906469
0.000776753259005761
0.00930854794799943
0.00878697354120235
0.00814509076102186
0.00736583659459259
0.00643776714011392
0.00536523800209076
0.00418027540422855
0.00294324377428497
0.00174134115260339
0.000708439385490575
0.00976747829539252
0.00932465630064157
0.00877150855805083
0.00809181145542029
0.00727446548193756
0.00631879147831524
0.00523946447237442
0.00406854915027401
0.00285615888357203
0.00168349221963142
0.000681690696152867
0.0101483666586952
0.00977494105447868
0.00930027131784342
0.00870874382627423
0.00798985690164712
0.00714109977474516
0.00616936451825185
0.00509240585895651
0.00393897865696451
0.00275413025098329
0.00161592883514127
0.000650760549210161
0.0104611078214408
0.010148548350088
0.00974297859201568
0.00922905675874878
0.00859669966991319
0.00784286608081255
0.00697084258626979
0.00599082552567367
0.00492087783571767
0.00378771780413965
0.00263459594339949
0.00153705928211567
0.000615223945092762
0.0107143329659696
0.0104546683681372
0.0101100026710542
0.00966420554352426
0.00910751845941024
0.00843678585015594
0.00765362842773918
0.00676409146226318
0.00578003074094795
0.00471983332901575
0.00361011418423951
0.00249398952710357
0.00144482066128034
0.000575517477780315
0.0100243694366629
0.00953368680288295
0.00893532390204329
0.00822995697767571
0.00742125494779373
0.00651715964688909
0.00553115282040881
0.00448275593867864
0.00340005361508805
0.00232718171465373
0.00133640089100022
0.000540724392397146
0.00988519125643147
0.00934960546175136
0.0087118505605928
0.00797391151717315
0.00714107611742897
0.00622335790496532
0.00523623781050527
0.00420135742764102
0.00314925586725401
0.00212649050656603
0.00120667074759572
0.000461572085680141
0.00386492376679984
0.00284634030626551
0.00187948447251897
0.0010261921875363
0.000359458115460548
0.00346097549169913
0.00247641984894023
0.0015656201413908
0.000793707475039437
8.83368095619424e-05
8.96078518097317e-05
9.11538369892527e-05
6.95049586918236e-06
2.04869489279205e-05
0.000237409095326389
3.88711286512851e-05
5.89930165247002e-05
7.71660275017794e-05
7.01429330459677e-05
7.44438833277343e-05
7.84015339552616e-05
8.18797134606984e-05
8.48874787762246e-05
8.75269613638264e-05
8.98183615033439e-05
9.15770073318893e-05
9.23065171103246e-05
9.21185701866255e-05
9.16559660373447e-05
0.000714472331633729
0.00173845797585118
0.000732526850344941
0.00292235560681057
0.00177613217441898
0.000749808064428663
0.00413762407370032
0.0029784132566832
0.00180522671839042
0.000761719008584345
0.00529962207865743
0.00421693880036892
0.00302267637263066
0.00182140176111889
0.000766398757288437
0.0063489601454806
0.00539072833370926
0.00428571722313996
0.00305565574446746
0.00183301347100965
0.000768131872528517
0.00726189165256657
0.00643214035340461
0.00545470984893349
0.00432358352808005
0.00307049573510641
0.00183866845534069
0.00804287485790718
0.00732925029420636
0.00647470767208004
0.0054677277843436
0.00430663318252417
0.0030500113674783
0.00182005197358587
0.00870602587431132
0.00809447501698151
0.00735191815529627
0.0064635189926915
0.00542152831228953
0.0042440853769271
0.00299858684805945
0.00178219635240737
0.00926562354402518
0.00874375016145087
0.00810150403983977
0.00732300473531337
0.0063985200074949
0.00533301778044118
0.00415722171657335
0.00292923936983858
0.00173425444316302
0.000705805471737529
0.000728624039503605
0.000748261403612101
0.00076281815233356
0.00973428299201788
0.00929137745140938
0.00873812573001692
0.00805882115039177
0.00724317680786799
0.00629107233305624
0.00521694202469832
0.0040520152967922
0.00284553281480855
0.00167783725691214
0.000679601900067573
0.0101232761202171
0.00974979878469046
0.00927511696409614
0.00868385508633173
0.007965856038123
0.00711890537475175
0.00614995398522559
0.00507652887899739
0.00392705012828546
0.00274627104401299
0.00161171422820136
0.000649251872683797
0.0104428515880997
0.0101301193432902
0.00972451625565542
0.0092107806050998
0.00857894217849235
0.00782605185498789
0.00695543575290399
0.00597728506492168
0.00490962724982148
0.00377915983601423
0.00262896439091633
0.00153411847732707
0.000614227891232686
0.0107022701748498
0.0104422937927797
0.0100971791197421
0.00965141215836983
0.00909502192312049
0.00842478697052208
0.00764230007790207
0.00675360863395567
0.00577063621925874
0.00471188174622233
0.00360409202895759
0.00249014788557176
0.00144297208772465
0.000574961599404095
0.0109096165816633
0.0106950167037312
0.0104023915862572
0.0100163467311345