/*--------------------------------*- C++ -*----------------------------------*\
  =========                 |
  \\      /  F ield         | OpenFOAM: The Open Source CFD Toolbox
   \\    /   O peration     | Website:  https://openfoam.org
    \\  /    A nd           | Version:  12
     \\/     M anipulation  |
\*---------------------------------------------------------------------------*/
/*   Windows 32 and 64 bit porting by blueCAPE: http://www.bluecape.com.pt   *\
|  Based on Windows porting (2.0.x v4) by Symscape: http://www.symscape.com   |
\*---------------------------------------------------------------------------*/
FoamFile
{
    format      ascii;
    class       volScalarField;
    location    "100";
    object      p;
}
// * * * * * * * * * * * * * * * * * * * * * * * * * * * * * * * * * * * * * //

dimensions      [0 2 -2 0 0 0 0];

internalField   nonuniform List<scalar> 
10107
(
83333.3292392242
83333.3293633687
83333.3292435247
83333.3292415259
83333.3294222638
83333.3294111758
83333.3293671678
83333.3293502752
83333.3292356353
83333.3292468845
83333.3294505821
83333.3294466934
83333.3294271208
83333.3294499592
83333.3294120779
83333.3293788228
83333.3293911915
83333.3294286846
83333.3293215561
83333.32935586
83333.3292892837
83333.3292337242
83333.3291763759
83333.3293057385
83333.3292433815
83333.3294543421
83333.3294632996
83333.3294698725
83333.3294500746
83333.3294344233
83333.3295035582
83333.329457877
83333.3294290695
83333.3294293891
83333.3294015046
83333.3294095356
83333.3294169903
83333.3294131175
83333.3293947617
83333.3294924925
83333.329408199
83333.3294372233
83333.3293119344
83333.3293239679
83333.3293966653
83333.3293826788
83333.3293230156
83333.3293564678
83333.3292894889
83333.3293402648
83333.3292979221
83333.3294604209
83333.3294653027
83333.3294841052
83333.3295126233
83333.3294727472
83333.3294518461
83333.3294472937
83333.3295521556
83333.3295050439
83333.3294533986
83333.329408639
83333.3293646161
83333.3294566625
83333.3293608576
83333.3293992482
83333.3293687432
83333.3295458782
83333.3294803706
83333.329493914
83333.3293980201
83333.3294108534
83333.3294298106
83333.3293120708
83333.3293138359
83333.3293300548
83333.3294006307
83333.3293651612
83333.3293218145
83333.3293276768
83333.3294670332
83333.3294677739
83333.3294851465
83333.3295189649
83333.3295561055
83333.3295122698
83333.3294726544
83333.3294745889
83333.3295984104
83333.3295524094
83333.3295039135
83333.3293584886
83333.3294410998
83333.3293552365
83333.3295058842
83333.3293866815
83333.329596619
83333.3295401033
83333.3295461326
83333.329472337
83333.3294811542
83333.329492012
83333.329397736
83333.329399121
83333.3294113742
83333.3294297589
83333.3293248664
83333.3293145312
83333.3293175429
83333.3293349929
83333.3294859168
83333.3294852879
83333.3295183682
83333.3295583597
83333.3295983478
83333.3295558706
83333.3295114429
83333.3295131263
83333.3296446161
83333.3295989648
83333.3295527123
83333.3293614919
83333.3294346531
83333.3293512547
83333.3295009009
83333.32955416
83333.3296449704
83333.3295947693
83333.329596823
83333.329537139
83333.3295403314
83333.3295462065
83333.3294734606
83333.3294724408
83333.329481062
83333.3294928645
83333.3294089432
83333.3293992204
83333.3294004129
83333.3294143135
83333.3294272717
83333.329327346
83333.3293187506
83333.3293238178
83333.329339309
83333.3295177363
83333.3295170596
83333.3295583281
83333.3295980681
83333.3296433221
83333.3295994018
83333.329555526
83333.3295569854
83333.3296897891
83333.3296451906
83333.3295998305
83333.3293730812
83333.329436086
83333.3293556689
83333.329497952
83333.3295538177
83333.3296014247
83333.32969147
83333.3296461023
83333.3296452342
83333.3295955535
83333.3295949079
83333.3295973614
83333.3295407342
83333.3295374274
83333.3295406502
83333.3295484545
83333.3294843068
83333.3294742849
83333.3294734242
83333.3294826249
83333.3294924146
83333.3294106277
83333.3294020137
83333.3294047972
83333.3294174998
83333.3294303846
83333.3293320796
83333.3293259916
83333.3293327964
83333.3293479509
83333.3295582854
83333.3295575871
83333.3295999924
83333.3296429825
83333.3296883786
83333.3296441072
83333.3295997314
83333.3296007845
83333.3297329544
83333.3296901699
83333.3296464684
83333.329387885
83333.3294442109
83333.3293674208
83333.3295015618
83333.3295557595
83333.3296036263
83333.3296485633
83333.3297357292
83333.3296945743
83333.3296917707
83333.3296496627
83333.3296462229
83333.3296462785
83333.3296016293
83333.3295957892
83333.3295953485
83333.3296006321
83333.3295522878
83333.3295413462
83333.3295383163
83333.3295425203
83333.3295508559
83333.329504309
83333.3294854371
83333.3294762803
83333.3294768529
83333.3294855302
83333.3294965018
83333.3294140949
83333.3294074118
83333.3294119428
83333.3294240313
83333.3294393512
83333.3293400791
83333.3293369835
83333.3293452864
83333.329361894
83333.3296007915
83333.3296001487
83333.3296440736
83333.3296882288
83333.3297306864
83333.3296884502
83333.3296447682
83333.3296460821
83333.3297739397
83333.3297333643
83333.3296917017
83333.3294053468
83333.3294556634
83333.3293837559
83333.3295081561
83333.3295599814
83333.3296077277
83333.3296515752
83333.3296937116
83333.3297776512
83333.3297404347
83333.3297360359
83333.3297002536
83333.3296947672
83333.3296931284
83333.3296577826
83333.3296497911
83333.3296467628
83333.3296501829
83333.3296142756
83333.3296020916
83333.3295965665
83333.3295975378
83333.3296050728
83333.3295716536
83333.3295531229
83333.3295428924
83333.3295407428
83333.3295464679
83333.3295565335
83333.3295322212
83333.3295055618
83333.3294880193
83333.3294804008
83333.3294824017
83333.329491765
83333.3295046939
83333.329420281
83333.3294160218
83333.3294218826
83333.3294348063
83333.3294524221
83333.329351994
83333.3293516321
83333.3293616097
83333.3293797313
83333.3296452421
83333.3296444646
83333.3296880708
83333.3297296781
83333.3297701367
83333.3297308377
83333.3296893737
83333.3296911115
83333.3298115242
83333.3297737231
83333.3297352839
83333.329424795
83333.3294699198
83333.3294025834
83333.3295178066
83333.3295666021
83333.3296133452
83333.3296568784
83333.3296975296
83333.3297375975
83333.3298166568
83333.3297839255
83333.329777551
83333.3297478043
83333.3297406244
83333.329737706
83333.3297100846
83333.3297003347
83333.329695429
83333.3296972315
83333.3296715075
83333.3296580924
83333.3296504784
83333.3296492893
83333.329655484
83333.3296335997
83333.3296149344
83333.3296033455
83333.3295987316
83333.3296024029
83333.32961121
83333.3295980713
83333.3295726012
83333.329555154
83333.3295461479
83333.3295456852
83333.3295529586
83333.3295642655
83333.329566711
83333.3295335594
83333.3295084777
83333.3294928701
83333.3294872998
83333.3294908432
83333.3295010382
83333.3295156428
83333.3294298118
83333.3294278549
83333.3294350044
83333.3294492319
83333.3294678682
83333.3293677213
83333.3293697044
83333.3293811655
83333.3294001877
83333.3296904365
83333.3296886892
83333.3297298577
83333.3297682444
83333.3298043239
83333.3297701119
83333.3297321459
83333.329734516
83333.3298442327
83333.3298112997
83333.3297757888
83333.3294452733
83333.3294862514
83333.3294229119
83333.3295300358
83333.3295755979
83333.3296205539
83333.3296634322
83333.3297037536
83333.329741383
83333.3297785815
83333.329852281
83333.3298254106
83333.3298165951
83333.3297929361
83333.3297841879
83333.3297793322
83333.3297591393
83333.3297479035
83333.3297416959
83333.3297421891
83333.3297248189
83333.3297102745
83333.3297009682
83333.3296983197
83333.3297034038
83333.3296910191
83333.3296720143
83333.3296591361
83333.329652554
83333.3296546242
83333.3296622277
83333.329659122
83333.3296343786
83333.3296166074
83333.3296061007
83333.3296034995
83333.3296091388
83333.3296189976
83333.3296305461
83333.3295991047
83333.3295749374
83333.329559088
83333.3295519756
83333.3295533666
83333.3295615371
83333.329574052
83333.3296067108
83333.3295681247
83333.3295366823
83333.3295138211
83333.3295006341
83333.329497173
83333.3295019832
83333.3295133099
83333.3295287277
83333.329442714
83333.3294427009
83333.3294511025
83333.3294662195
83333.3294848964
83333.3293868303
83333.3293906847
83333.3294031485
83333.3294222143
83333.3297337964
83333.3297309496
83333.3297684281
83333.3298006427
83333.329829756
83333.329804433
83333.3297714805
83333.3297742659
83333.3298538456
83333.3298417166
83333.3298108894
83333.3294662006
83333.3295037261
83333.3294444192
83333.3295441356
83333.3295866092
83333.3296294122
83333.3296711418
83333.3297110313
83333.3297486018
83333.3297837147
83333.3298177962
83333.3298908727
83333.3298660774
83333.3298483238
83333.329836486
83333.3298275668
83333.3298175257
83333.329805596
83333.3297931359
83333.3297859216
83333.329786109
83333.329774842
83333.329759286
83333.3297486028
83333.3297448065
83333.3297492891
83333.3297446359
83333.3297252056
83333.3297111838
83333.3297030494
83333.3297038655
83333.3297106456
83333.329715997
83333.3296916711
83333.3296734262
83333.3296615823
83333.3296572678
83333.3296615592
83333.3296702292
83333.3296901331
83333.3296599973
83333.329636342
83333.3296199322
83333.3296112813
83333.3296108154
83333.3296173572
83333.329628351
83333.3296681663
83333.3296316607
83333.3296016425
83333.3295793444
83333.3295656055
83333.3295605615
83333.3295633636
83333.3295725183
83333.3295857251
83333.3296512646
83333.3296081782
83333.3295713684
83333.3295423247
83333.3295221337
83333.3295114305
83333.3295097374
83333.3295157172
83333.3295278356
83333.3295433797
83333.3294586405
83333.3294602159
83333.3294695339
83333.3294848569
83333.3295032741
83333.3294087344
83333.3294138977
83333.3294266771
83333.329445158
83333.3297731538
83333.3297696383
83333.3298002878
83333.3298243488
83333.3298421106
83333.3298289989
83333.3298050748
83333.3298094654
83333.3298771905
83333.3298524008
83333.3298384073
83333.329827478
83333.3294870185
83333.3295218148
83333.3294663151
83333.3295593384
83333.329599165
83333.3296397558
83333.32968004
83333.3297191709
83333.3297566744
83333.3297926761
83333.3298243663
83333.3298466382
83333.3299465824
83333.3299093278
83333.3298889595
83333.3298794968
83333.3298696353
83333.3298705387
83333.3298540736
83333.3298503784
83333.3298373175
83333.3298303539
83333.3298427437
83333.3298290039
83333.3298222106
83333.3298058259
83333.3297942064
83333.3297901527
83333.329794457
83333.3297950367
83333.3297751643
83333.3297601652
83333.3297508091
83333.3297508714
83333.3297570851
83333.3297692991
83333.3297451809
83333.3297264374
83333.3297134545
83333.3297078107
83333.329711026
83333.3297188189
83333.3297459278
83333.3297167622
83333.3296933659
83333.3296763327
83333.3296663666
83333.3296643816
83333.3296696811
83333.3296794382
83333.3297258872
83333.3296910926
83333.329662162
83333.3296400943
83333.3296255927
83333.3296190396
83333.3296201266
83333.3296275603
83333.3296391844
83333.3297100832
83333.3296693478
83333.3296343323
83333.329606358
83333.3295863639
83333.3295748724
83333.3295715717
83333.3295755338
83333.3295853957
83333.3295987466
83333.3296994615
83333.3296527693
83333.3296114686
83333.3295771606
83333.3295509472
83333.3295334897
83333.3295249551
83333.3295247035
83333.3295315346
83333.3295439277
83333.329559372
83333.3294771328
83333.3294798581
83333.3294895472
83333.3295045371
83333.3295222221
83333.3294327701
83333.3294385918
83333.3294510241
83333.3294683771
83333.3298063174
83333.3298011071
83333.3298234282
83333.329837834
83333.3298425756
83333.3298269744
83333.3298346226
83333.3299434289
83333.3298799579
83333.329854476
83333.3298501554
83333.3298281873
83333.3298485811
83333.3298430362
83333.3298427133
83333.3295070385
83333.3295399913
83333.3294880745
83333.3295752011
83333.3296126925
83333.3296512929
83333.3296900181
83333.3297281873
83333.3297652907
83333.329801565
83333.3298351915
83333.3298617157
83333.33000003
83333.3299521548
83333.3299498901
83333.3299238282
83333.3299145177
83333.3299124785
83333.3298913918
83333.3299015522
83333.3298942726
83333.3298812152
83333.3298766083
83333.3298936005
83333.3298572237
83333.3298696902
83333.329874754
83333.329867646
83333.3298508572
83333.3298391139
83333.3298349486
83333.3298497286
83333.3298651729
83333.3298387389
83333.3298741418
83333.329842769
83333.3298225414
83333.3298068332
83333.3297968496
83333.3297967898
83333.3298026006
83333.3298195327
83333.3297955081
83333.3297763037
83333.3297623961
83333.3297558022
83333.3297583456
83333.3297655093
83333.3297984285
83333.3297699676
83333.3297466753
83333.3297290658
83333.3297180262
83333.3297148564
83333.3297192713
83333.3297280087
83333.3297802084
83333.3297467835
83333.3297186581
83333.32969665
83333.3296814029
83333.3296735802
83333.3296732639
83333.3296793301
83333.3296897452
83333.3297656375
83333.3297269142
83333.329693394
83333.3296662103
83333.3296461653
83333.3296337691
83333.3296289917
83333.3296312573
83333.3296393643
83333.3296511357
83333.3297554775
83333.329711317
83333.3296720936
83333.3296392262
83333.3296137
83333.3295961135
83333.3295866121
83333.329584704
83333.3295894907
83333.3295996579
83333.3296129543
83333.3297503442
83333.3297009754
83333.3296560503
83333.3296172785
83333.3295858995
83333.3295625782
83333.3295475772
83333.3295408197
83333.3295416171
83333.3295488487
83333.3295610728
83333.3295759904
83333.3294976477
83333.3295009963
83333.3295105036
83333.3295246715
83333.3295412353
83333.3294582402
83333.3294640676
83333.3294755754
83333.3294913476
83333.3298304792
83333.3298225688
83333.3298385624
83333.3298429359
83333.3299982262
83333.3299477238
83333.3299017997
83333.3298798659
83333.3298618218
83333.329857956
83333.3295258099
83333.3295576325
83333.3295090449
83333.3295912611
83333.3296268387
83333.3296636203
83333.3297008726
83333.3297379445
83333.3297744378
83333.3298103332
83333.329845492
83333.3298772026
83333.3299061571
83333.3300432018
83333.3300009504
83333.3300053288
83333.3299663438
83333.3299561965
83333.3299809517
83333.3299500683
83333.32995965
83333.3299256938
83333.3299378443
83333.32992587
83333.3299201738
83333.329916053
83333.3299162833
83333.3299116441
83333.3298950839
83333.329884033
83333.3298782026
83333.329917616
83333.3299018922
83333.3298695314
83333.3298887543
83333.3298883661
83333.3298680519
83333.3298521413
83333.3298420037
83333.3298415808
83333.3298637085
83333.3298473231
83333.3298832374
83333.3299178084
83333.3298671477
83333.3298432078
83333.3298236811
83333.3298091757
83333.3298020969
83333.3298043582
83333.3298110157
83333.3298480555
83333.3298201241
83333.3297968682
83333.3297787737
83333.3297669098
83333.3297629092
83333.3297666211
83333.3297746434
83333.3298315369
83333.3297991907
83333.3297716521
83333.3297496195
83333.3297337392
83333.3297248984
83333.3297234874
83333.3297284879
83333.3297379549
83333.3298181955
83333.3297811307
83333.3297488152
83333.3297222136
83333.3297020273
83333.3296888012
83333.329682794
83333.3296836762
83333.3296904041
83333.3297009571
83333.3298086464
83333.3297667103
83333.329729297
83333.3296976233
83333.3296725745
83333.3296546979
83333.3296441946
83333.3296408086
83333.3296439104
83333.3296523483
83333.3296640471
83333.3298034863
83333.329756734
83333.3297140872
83333.3296770504
83333.3296467267
83333.3296237325
83333.329608335
83333.3296004697
83333.3295995722
83333.3296047948
83333.3296148926
83333.329627771
83333.3297518099
83333.3297041914
83333.3296617686
83333.32962596
83333.3295975737
83333.3295769015
83333.3295639716
83333.329558564
83333.3295599629
83333.3295671299
83333.3295787488
83333.3295927843
83333.3295196031
83333.3295230323
83333.3295318501
83333.3295447861
83333.329559711
83333.3294844618
83333.3294896844
83333.3294997622
83333.3295134082
83333.3298394511
83333.3300434697
83333.3300023234
83333.3299564211
83333.3299165006
83333.329901659
83333.3295423667
83333.3295744073
83333.3295287189
83333.3296070055
83333.3296412259
83333.3296764629
83333.3297123243
83333.3297483002
83333.329783999
83333.3298193681
83333.3298548289
83333.3298891927
83333.3299217646
83333.3299545364
83333.3300807424
83333.3300436497
83333.3300447191
83333.3300096525
83333.3300026049
83333.3300053069
83333.3299793937
83333.3299679478
83333.3299596085
83333.3299591132
83333.3299204254
83333.3299341688
83333.3299544452
83333.329938726
83333.3299282669
83333.3299213599
83333.3299218251
83333.3299321819
83333.3299121557
83333.3298966577
83333.3298862683
83333.3298855299
83333.3299321912
83333.3299366557
83333.3299145292
83333.3299125524
83333.3298888074
83333.3298692527
83333.3298545582
83333.3298471682
83333.3298492498
83333.3298556696
83333.3298916486
83333.3299273242
83333.3299616891
83333.3298951728
83333.3298676855
83333.3298444939
83333.3298260907
83333.3298137064
83333.3298092264
83333.3298125248
83333.329819862
83333.3298802162
83333.3298487367
83333.3298216471
83333.3297995742
83333.3297831978
83333.3297735932
83333.3297713751
83333.329775596
83333.3297842616
83333.3298680754
83333.329832364
83333.3298010027
83333.3297748296
83333.3297544874
83333.3297405861
83333.3297335965
83333.3297333826
83333.3297390242
83333.3297485796
83333.3298592397
83333.3298191576
83333.3297832431
83333.3297525408
83333.3297278332
83333.3297096431
83333.3296982545
83333.3296936517
83333.3296953945
83333.3297024637
83333.3297129084
83333.329854173
83333.3298097359
83333.3297691241
83333.3297336053
83333.3297041495
83333.3296813469
83333.3296654713
83333.3296565285
83333.3296541563
83333.3296577393
83333.3296661696
83333.3296774823
83333.3298047221
83333.3297594753
83333.3297190085
83333.3296845568
83333.3296568529
83333.3296361988
83333.3296226612
83333.3296160461
83333.3296157617
83333.3296210153
83333.3296306615
83333.3296428129
83333.3297548897
83333.3297097211
83333.3296702417
83333.3296374726
83333.3296118652
83333.3295934869
83333.3295822098
83333.3295777011
83333.3295792367
83333.3295858915
83333.3295965372
83333.3296092397
83333.3295424101
83333.3295453964
83333.3295530709
83333.3295642474
83333.3295772878
83333.3295107524
83333.3295148047
83333.3295228713
83333.3295339336
83333.330081645
83333.3300450963
83333.3300041476
83333.3299644766
83333.3295562458
83333.3295891711
83333.329545961
83333.3296221633
83333.3296554469
83333.3296895185
83333.3297241633
83333.3297590626
83333.3297939084
83333.329828587
83333.3298633421
83333.3298985161
83333.3299329018
83333.3299664996
83333.3300044067
83333.3301162535
83333.3300811553
83333.3300815693
83333.3300490042
83333.3300444658
83333.3300455338
83333.3300203318
83333.3300101664
83333.3300036733
83333.3300058831
83333.3299953679
83333.3299802289
83333.3299694105
83333.3299626919
83333.3299744124
83333.3299549855
83333.3299401898
83333.3299300522
83333.3299288392
83333.3299560383
83333.3299326492
83333.3299134144
83333.329898925
83333.3298912732
83333.3298932615
83333.3299401037
83333.3299130576
83333.3298900563
83333.3298716124
83333.3298589842
83333.3298542049
83333.329857246
83333.3298639827
83333.3298993847
83333.3299348609
83333.3299692247
83333.3299265375
83333.3298957878
83333.3298690898
83333.3298470364
83333.3298303498
83333.3298202487
83333.3298175063
83333.3298212427
83333.3298290473
83333.3299155473
83333.3298809578
83333.329850369
83333.3298245333
83333.3298040684
83333.3297896547
83333.3297819228
83333.329780877
83333.3297856467
83333.3297943376
83333.3299074759
83333.3298689389
83333.3298342507
83333.3298043276
83333.3297798733
83333.3297614096
83333.3297493139
83333.3297437389
83333.3297443961
83333.3297503584
83333.3297597641
83333.3299026945
83333.3298602108
83333.3298213007
83333.3297870479
83333.3297583029
83333.3297356199
83333.3297192962
83333.3297094251
83333.329705853
83333.329708116
83333.3297152197
83333.3297252837
83333.3299016472
83333.3298552383
83333.32981213
83333.3297734224
83333.3297401641
83333.3297130204
83333.329692319
83333.3296781584
83333.3296704195
83333.3296686937
83333.329672391
83333.3296804667
83333.3296911342
83333.3298073727
83333.329764271
83333.3297263856
83333.3296945997
83333.3296693447
83333.3296507328
83333.3296386924
83333.329632931
83333.3296328492
83333.3296377378
83333.3296465997
83333.3296576485
83333.3297601486
83333.3297178586
83333.3296814135
83333.3296514999
83333.3296283507
83333.3296118711
83333.3296018034
83333.3295977221
83333.3295989395
83333.3296046788
83333.3296138656
83333.3296250974
83333.3295654707
83333.3295675103
83333.3295735025
83333.329582517
83333.329592679
83333.3295364139
83333.329538651
83333.3295440977
83333.3295516896
83333.3301171091
83333.3300824542
83333.3300461551
83333.3295667707
83333.3296016403
83333.3295600912
83333.3296352933
83333.3296691701
83333.3297024616
83333.3297361747
83333.3297700806
83333.3298040559
83333.3298379743
83333.3298719492
83333.3299063997
83333.3299411477
83333.3299749622
83333.3300093802
83333.3300469866
83333.3301496647
83333.3301168206
83333.3301168087
83333.3300860252
83333.3300817509
83333.3300825939
83333.330058742
83333.3300493708
83333.3300452234
83333.3300467116
83333.3300351379
83333.3300207892
83333.3300109999
83333.3300068556
83333.3300104153
83333.3300148901
83333.3299959592
83333.3299814582
83333.3299715916
83333.3299700672
83333.3299978023
83333.3299748947
83333.3299561997
83333.3299422262
83333.3299345659
83333.329936139
83333.3299831008
83333.3299565287
83333.3299338707
83333.3299156765
83333.3299030664
83333.3298980959
83333.3299008187
83333.3299707599
83333.3299406664
83333.3299143717
83333.329892464
83333.3298756849
83333.3298653076
83333.3298622121
83333.3298655234
83333.3298725233
83333.3299070004
83333.3299418501
83333.3299760981
83333.3299608401
83333.3299272046
83333.3298972736
83333.3298717475
83333.3298512417
83333.3298364957
83333.3298282526
83333.3298266131
83333.3298306431
83333.3298385198
83333.3299535501
83333.3299163222
83333.3298826533
83333.329853369
83333.3298291247
83333.3298104568
83333.3297978247
83333.3297915002
83333.3297912936
83333.3297963359
83333.329804831
83333.3299491747
83333.3299083488
83333.3298708538
83333.3298376445
83333.3298094785
83333.3297868826
83333.3297701891
83333.3297595808
83333.329755048
83333.3297562417
83333.3297622538
83333.3297712899
83333.3299479984
83333.3299036396
83333.3298623358
83333.3298251045
83333.3297928459
83333.3297661646
83333.3297453975
83333.329730686
83333.3297219971
83333.3297191052
83333.3297215529
83333.3297283669
83333.3297378193
83333.3299505982
83333.3299026633
83333.3298575559
83333.3298163394
83333.3297798962
83333.3297489882
83333.3297240264
83333.3297051753
83333.3296924096
83333.3296855143
83333.3296840648
83333.3296875158
83333.3296949279
83333.3297046525
83333.3298119715
83333.3297714016
83333.3297361856
83333.3297069163
83333.3296838426
83333.329666936
83333.3296560075
83333.3296506881
83333.3296504058
83333.3296545662
83333.3296622038
83333.3296719789
83333.3297678563
83333.3297285409
83333.3296949741
83333.3296676305
83333.3296465737
83333.3296315635
83333.3296222317
83333.3296181085
83333.3296185591
83333.3296228913
83333.3296302735
83333.3296388758
83333.3295881515
83333.3295886616
83333.3295924096
83333.329598359
83333.3296053243
83333.3295606027
83333.3295602959
83333.3295622439
83333.3295657918
83333.3301504639
83333.3301176759
83333.3300833794
83333.329574669
83333.3296110053
83333.3295701963
83333.3296464975
83333.3296810804
83333.3297149093
83333.329748113
83333.3297812179
83333.3298143408
83333.3298474904
83333.3298806738
83333.3299141172
83333.3299480852
83333.3299819532
83333.3300153021
83333.330049678
83333.3300846784
83333.3301810287
83333.3301503884
83333.3301501156
83333.3301214807
83333.3301172884
83333.3301177499
83333.3300954147
83333.3300864684
83333.3300826593
83333.3300840891
83333.3300730551
83333.3300591872
83333.3300502012
83333.3300469407
83333.3300497511
83333.3300540059
83333.3300356446
83333.3300217617
83333.3300129643
83333.3300110861
83333.3300158307
83333.3300378831
83333.3300154146
83333.3299971258
83333.3299835354
83333.3299760381
83333.3299770479
83333.3300243557
83333.3299982834
83333.3299760713
83333.3299583226
83333.3299459677
83333.3299408489
83333.3299430575
83333.3300131
83333.3299836243
83333.3299577694
83333.3299361466
83333.3299194945
83333.3299090285
83333.3299056451
83333.3299084584
83333.3300041591
83333.3299713632
83333.3299420304
83333.3299168368
83333.3298964049
83333.3298815045
83333.3298729327
83333.3298708314
83333.3298742015
83333.3298812873
83333.3299147164
83333.3299486006
83333.3299823986
83333.3299976379
83333.3299615361
83333.3299287371
83333.3299000046
83333.3298759702
83333.3298571917
83333.3298441903
83333.3298373161
83333.3298364168
83333.3298406553
83333.3298483079
83333.3299937236
83333.3299543353
83333.3299180407
83333.3298857038
83333.3298580214
83333.3298355091
83333.3298185372
83333.3298073629
83333.3298020676
83333.3298023842
83333.3298074625
83333.329815602
83333.3299926513
83333.3299500334
83333.3299102498
83333.3298742469
83333.3298428188
83333.3298165212
83333.3297956989
83333.3297805404
83333.3297710964
83333.3297672651
83333.3297686895
83333.3297744638
83333.329782898
83333.3299947582
83333.3299489033
83333.3299056981
83333.3298660673
83333.3298308378
83333.3298006687
83333.3297759538
83333.3297568891
83333.329743501
83333.3297356597
83333.3297331103
83333.3297354076
83333.3297416298
83333.329750275
83333.3300005066
83333.3299515855
83333.3299048677
83333.3298616086
83333.3298226266
83333.329788538
83333.3297598643
83333.3297368618
83333.329719571
83333.3297078581
83333.3297014422
83333.3296999016
83333.3297027681
83333.3297091315
83333.3297176587
83333.3298187691
83333.329780824
83333.3297481483
83333.3297211564
83333.3296999541
83333.3296843846
83333.3296741588
83333.3296688676
83333.3296679803
83333.329670963
83333.3296770291
83333.3296844774
83333.3297779436
83333.32974147
83333.3297105288
83333.3296854196
83333.3296660435
83333.3296520364
83333.3296429488
83333.3296382921
83333.3296374525
83333.3296398589
83333.3296444842
83333.3296502373
83333.329609681
83333.3296079957
83333.329608638
83333.3296109517
83333.3296143268
83333.329582313
83333.3295785658
83333.3295763791
83333.3295756066
83333.3301817169
83333.3301508858
83333.330118498
83333.3295778273
83333.3296181663
83333.3295763908
83333.3296547815
83333.3296913191
83333.329725991
83333.3297595389
83333.3297922936
83333.3298246872
83333.3298570574
83333.3298894998
83333.3299220542
83333.3299549059
83333.3299879911
83333.3300208776
83333.3300537127
83333.3300868561
83333.3301197528
83333.3302104216
83333.3301819561
83333.3301814095
83333.3301550651
83333.3301508027
83333.3301508465
83333.3301306434
83333.3301219189
83333.3301181543
83333.3301191536
83333.3301094409
83333.3300959274
83333.3300873691
83333.3300843464
83333.3300865378
83333.3300915491
83333.330073576
83333.3300601451
83333.3300520578
83333.3300502011
83333.3300538414
83333.3300765184
83333.3300545176
83333.3300367098
83333.3300236851
83333.3300165864
83333.3300166462
83333.330021207
83333.3300639791
83333.3300383724
83333.3300165609
83333.3299991969
83333.3299871392
83333.3299818805
83333.3299834363
83333.3300537342
83333.3300248477
83333.3299994562
83333.3299782127
83333.3299618456
83333.3299514252
83333.3299477453
83333.3299499299
83333.3300456851
83333.3300136493
83333.3299848842
83333.3299600623
83333.329939822
83333.3299249276
83333.3299161595
83333.3299136443
83333.3299163851
83333.3300398985
83333.3300047851
83333.3299727545
83333.3299445302
83333.3299207361
83333.3299019499
83333.3298887275
83333.3298814519
83333.3298799746
83333.3298834846
83333.3298903415
83333.3299226927
83333.3299554689
83333.3299884463
83333.3300364791
83333.3299983435
83333.3299630833
83333.3299314952
83333.3299042388
83333.3298818318
83333.3298646798
83333.3298530928
83333.3298471995
83333.3298467808
83333.3298510282
83333.3298583299
83333.3300355941
83333.3299945023
83333.329956042
83333.3299210844
83333.3298903568
83333.3298643876
83333.3298435359
83333.3298280343
83333.3298179971
83333.3298134042
83333.3298139674
83333.3298188455
83333.3298264058
83333.3300375037
83333.3299934818
83333.3299518838
83333.3299135809
83333.3298793615
83333.3298498114
83333.3298253082
83333.3298060719
83333.3297921802
83333.3297835859
83333.3297801451
83333.329781494
83333.329786723
83333.3297944022
83333.3300424981
83333.3299956355
83333.329950865
83333.3299092959
83333.3298716471
83333.3298385094
83333.3298103418
83333.3297874079
83333.3297697922
83333.3297574196
83333.3297500977
83333.3297475521
83333.3297493722
83333.3297546743
83333.3297622281
83333.330050813
83333.3300014826
83333.3299536846
83333.329908714
83333.3298676282
83333.3298309692
83333.3297991329
83333.3297724944
83333.3297511879
83333.3297351379
83333.3297241192
83333.3297178089
83333.329715806
83333.3297176741
83333.3297226218
83333.3297291587
83333.3298277136
83333.3297922839
83333.3297619348
83333.3297369359
83333.3297172532
83333.3297026178
83333.3296926646
83333.3296869629
83333.3296849943
83333.3296862975
83333.3296898934
83333.3296948421
83333.3297901251
83333.3297562702
83333.3297276482
83333.3297043818
83333.3296862241
83333.3296727089
83333.329663337
83333.3296575752
83333.3296548337
83333.329654457
83333.3296558069
83333.329658212
83333.3296291299
83333.3296243943
83333.3296212952
83333.3296196572
83333.3296198955
83333.3296003847
83333.329592547
83333.3295862274
83333.3295817915
83333.3302109629
83333.3301820547
83333.3301516069
83333.3296210356
83333.3295796733
83333.3296611106
83333.329698787
83333.3297354279
83333.3297698548
83333.3298028879
83333.3298349991
83333.3298666394
83333.3298983376
83333.3299301529
83333.3299620407
83333.3299941056
83333.3300262019
83333.3300581215
83333.3300899399
83333.3301216076
83333.3301527047
83333.3302378934
83333.3302116107
83333.330210734
83333.3301867948
83333.3301823179
83333.3301820247
83333.3301642093
83333.3301554828
83333.3301515667
83333.3301520196
83333.3301444703
83333.3301311627
83333.3301227821
83333.3301196645
83333.3301211826
83333.3301276631
83333.3301099929
83333.3300969017
83333.3300891268
83333.330087058
83333.3300897972
83333.3301136881
83333.3300920684
83333.3300746119
83333.3300620182
83333.3300552107
83333.3300544996
83333.3300582803