/*--------------------------------*- C++ -*----------------------------------*\
  =========                 |
  \\      /  F ield         | OpenFOAM: The Open Source CFD Toolbox
   \\    /   O peration     | Website:  https://openfoam.org
    \\  /    A nd           | Version:  12
     \\/     M anipulation  |
\*---------------------------------------------------------------------------*/
/*   Windows 32 and 64 bit porting by blueCAPE: http://www.bluecape.com.pt   *\
|  Based on Windows porting (2.0.x v4) by Symscape: http://www.symscape.com   |
\*---------------------------------------------------------------------------*/
FoamFile
{
    format      ascii;
    class       surfaceScalarField;
    location    "100";
    object      phi;
}
// * * * * * * * * * * * * * * * * * * * * * * * * * * * * * * * * * * * * * //

dimensions      [0 3 -1 0 0 0 0];

internalField   nonuniform List<scalar> 
28758
(
-1.64154024603594e-05
-6.09204122918354e-07
-3.14385491420674e-07
-1.2204372634142e-05
-4.5074132645515e-06
2.96374712423115e-07
-4.61683450622744e-06
3.37834560320375e-07
-1.35085159144931e-05
-4.64583182931745e-07
-7.49029869305846e-06
-3.81904294812334e-06
-8.95037619704069e-07
1.43913122668094e-06
-2.84927607457468e-06
-3.06914741881167e-06
-2.8123747175217e-08
-1.20866237757728e-05
-2.6121563542996e-07
-8.6430404760194e-07
-2.64383654768973e-06
-4.91283486254952e-07
-4.25842061036254e-08
1.47182129486956e-07
-7.41467363654157e-08
-7.72824637800461e-08
3.42081165992972e-07
-9.3812183840482e-09
-1.57160185870047e-07
-1.50861391230877e-07
-1.7432980488429e-06
-5.7470030817526e-06
-2.47244669463213e-06
-3.22751506975917e-06
-9.68360744819419e-07
-7.22549113796856e-06
-4.39146971609216e-06
-1.36470658761698e-06
-9.17922195166331e-08
-3.48662495901345e-07
-1.69716479659551e-06
-9.31528894665955e-07
1.22687695654482e-07
-8.16056408264992e-09
-1.11127487275264e-07
-3.1523681600872e-08
-9.68912645552138e-06
-3.95837519126824e-06
-4.27184602967292e-06
-3.42752932569463e-07
-3.3805591827388e-07
-6.08105211930671e-08
-1.66022887985088e-06
-3.95026785812155e-07
-6.80373738272679e-07
-2.429311620662e-06
-1.11133092571746e-06
-1.38954483662204e-07
-1.38620431507618e-07
6.675908286928e-08
8.73885230907015e-08
-5.81114956551933e-08
3.08807493220211e-08
-7.52313181647508e-08
-2.97962808479144e-08
7.15242518082575e-07
1.7236886683162e-07
-4.20074234317675e-08
-4.24471040781204e-07
-9.18756059086633e-08
-3.44039411214901e-08
-1.71762861741719e-07
-3.11254665746882e-06
-5.85624799995524e-06
-1.1385896241023e-06
-7.08085993153146e-06
-8.90166634686994e-07
-2.32036513811485e-06
-3.65647038887224e-07
3.36278280615992e-07
-1.83611015040102e-06
-3.34317318572321e-06
-5.16827369964195e-07
-5.8036018610537e-06
-2.27173855292187e-06
-2.97849523551872e-06
-2.34566125952186e-07
2.28995610986889e-08
-1.365768862823e-06
-1.19729956032837e-07
3.78461487164964e-07
1.33502966598681e-07
-7.20424989632059e-08
-1.97809376399425e-06
6.06642649690475e-07
-1.26273511763495e-07
1.11637639928755e-07
1.71898788832592e-07
-3.0838678480975e-08
1.85970301532236e-08
-4.51686920238563e-08
-4.95207305670839e-09
-1.12506803506632e-07
-7.5131998756514e-06
9.94828271349001e-06
-6.28095505882196e-06
-4.91925759085639e-08
-2.86932602480719e-06
-5.30538809274412e-06
3.83955123469302e-06
-1.03712771757625e-07
-5.36234039456642e-09
-3.68512124027975e-08
-1.39521230268816e-06
-4.51395245558819e-07
-4.81866816286508e-08
-1.83044983871597e-06
-8.82640466087737e-07
-1.11247969019282e-07
6.99557279539638e-07
-2.04667114382659e-06
3.86692550352527e-08
7.61573615605104e-07
-2.2754948390247e-06
-1.47545538473692e-06
3.92371843970508e-08
2.63457869459918e-07
-2.94258619125172e-06
-1.18251461391121e-06
2.48214915142649e-07
2.00185228136964e-07
1.25241207798811e-07
2.35510358184198e-07
3.55128608870631e-08
-1.39225409531916e-08
3.5278370552154e-08
-2.31212309419547e-08
1.73862570267012e-07
2.31668655527888e-07
6.87846941396978e-08
-1.40588517377255e-07
-2.5545022852177e-08
-3.10522375499741e-08
-1.37382141452354e-07
-5.53882263880256e-06
-3.37732700280394e-06
-1.42278130140386e-06
-7.40817002080919e-06
-4.43622727027937e-07
-7.52740332248137e-06
-2.7840028755847e-07
-2.0228011364392e-06
3.7346271662062e-09
-5.9380319088754e-07
-2.99242237524157e-06
-1.94638984564447e-07
3.46475747628045e-07
-1.72643856450625e-06
-4.27792994141139e-06
-3.81135753095044e-06
-6.33386484391879e-06
-2.49859061566125e-07
1.19992472150468e-07
-1.2488795595528e-06
1.29775113894203e-08
-1.7303437399802e-07
6.89409553870188e-08
-2.10789888118247e-06
1.14168870354969e-07
-5.55705204701635e-07
1.0897353146925e-06
-8.82086183503753e-07
-4.35069223619962e-06
2.90934374117922e-08
-6.4884214675777e-08
3.27203664223394e-06
-8.91240672241344e-06
1.66573688491805e-06
-3.03749455540481e-06
3.1983096929024e-06
-6.99746996713227e-06
-5.92173238344342e-06
-4.7317954645119e-08
-2.48466710157987e-07
7.30665513401569e-07
-7.9981717916043e-08
-2.68834156218576e-08
-1.26017806731164e-06
-4.26872411005352e-07
4.19802702168032e-08
-1.57126448842799e-06
-7.49189131400086e-07
3.86089065257855e-08
-2.0592647505362e-06
-4.2357899605925e-07
2.1495471492772e-07
-1.98747130088727e-06
-1.22831634567957e-06
5.76521954780567e-08
-2.38757279325697e-06
-9.22858245505876e-07
2.95266181032778e-07
-4.05496663577455e-06
-1.64952546345845e-07
1.49498146966638e-07
-2.4192983257099e-06
-1.8010211416052e-06
3.85121892566986e-08
-2.86439549362876e-06
-1.67386749145348e-06
1.08277445816917e-07
-4.09654330476857e-06
-1.34436241469224e-06
2.05960878870783e-07
4.64343671207619e-08
1.00475532989694e-07
6.04307804937394e-08
6.79588698682949e-08
-6.55855815422333e-07
-8.69432534082357e-06
-7.18240506820625e-06
-2.91563649057121e-07
-8.15403963801725e-06
4.61027577700596e-08
-7.85190700079405e-06
-3.97999314258212e-08
-1.92428710195657e-06
6.12812566934541e-08
-9.57439242156502e-08
-2.87634416629789e-06
5.23458214615426e-08
-3.14130198972875e-07
-8.28792318319328e-07
-4.21173109654699e-06
-1.59748845302975e-06
-8.08799464672908e-06
-2.36522359944475e-07
1.60977114224041e-07
-1.19225515878559e-06
1.89214256428004e-08
-2.70738053690981e-07
1.67193350370568e-07
-2.01950418009613e-06
2.81320838113669e-08
-7.65736801019025e-08
-8.21966304868623e-09
-5.37759027207295e-08
-4.09795147648702e-06
3.47739290117009e-07
-1.20861238197579e-05
1.52365676014934e-07
1.0679530052715e-06
1.56606510554279e-06
-8.34810911805054e-06
-6.86709255349886e-06
-5.72292126182809e-07
7.35023008271359e-07
-5.71246601299634e-07
6.96646251864697e-07
-7.19943415058783e-06
-1.16775106302337e-06
-3.86610989072637e-07
5.76641007800878e-08
-1.40604467046414e-06
-6.57433337360526e-07
6.53420680053663e-08
-1.92177503381661e-06
-4.84516447051127e-07
1.18273271518441e-07
-1.76139805103361e-06
-1.04198907362972e-06
6.67267789104077e-08
-2.11442110830753e-06
-8.3938403477085e-07
1.81263520758373e-07
-3.54670390199446e-06
-5.00121142695222e-07
1.98598748341756e-07
-2.16931764734497e-06
-1.52975670924811e-06
5.145950997963e-08
-2.48486767684158e-06
-1.40155966417335e-06
1.56825894888787e-07
-3.06562580742678e-06
-1.13177674345929e-06
2.31174345305021e-07
-5.62461606225414e-06
-4.54209547740552e-07
4.29190361585407e-07
-2.6004962518918e-06
2.44926031413769e-08
-2.90346653860463e-06
-2.06759095340458e-06
7.63380682763919e-08
-3.36934750919471e-06
-1.91523311139485e-06
1.65985896317198e-07
-4.13092719658405e-06
-1.48347089418938e-06
3.5038115623783e-07
-4.55594501373817e-07
-9.83621354579305e-06
-8.75835787469527e-06
1.53371847213562e-07
-8.35705021498105e-06
8.00115546141523e-08
-7.97171853971979e-06
1.51573313781006e-07
-1.88407700158383e-06
-3.08043904464497e-08
6.49956129248195e-08
-2.78528655474659e-06
7.24231078135808e-08
-4.11732681805616e-08
-8.31806930701534e-09
-4.16366487739243e-06
4.53842375655642e-08
-8.74578321142707e-06
-2.19109965610838e-07
1.73578368316145e-07
-1.16934971787399e-06
2.26278533649122e-08
-2.91060073933769e-07
1.94822217957128e-07
-1.93615912397108e-06
3.18191669446002e-08
-4.9806000518416e-08
-3.46383570910301e-07
2.55385141040189e-07
-3.92901158198595e-06
-8.93352470822186e-07
-1.25520349979438e-05
-2.54597915726571e-07
1.2023279227453e-07
1.00792218807594e-07
-1.07410804922684e-05
-5.13541571228803e-06
-8.32467065015595e-07
5.3256972089763e-07
2.63133806223887e-07
5.44649055443019e-08
-7.96905186948133e-06
4.52878525743962e-07
-6.29002141010014e-07
-7.07310369059864e-06
-1.10797001055012e-06
-3.40634186839723e-07
6.17458469294417e-08
-1.28397492746236e-06
-5.80038747759008e-07
7.13590306081079e-08
-1.7942064697058e-06
-4.68654856078173e-07
1.07695435056086e-07
-1.5841525487556e-06
-9.0128113344335e-07
6.66023883422083e-08
-1.91197467857971e-06
-7.61800857595083e-07
1.40182133482387e-07
-3.26984338134168e-06
-5.74165260030158e-07
6.92034266965115e-08
-1.95521359145938e-06
-1.31297840187914e-06
5.68850245088823e-08
-2.20121554935909e-06
-1.20222775102459e-06
1.4591834598128e-07
-2.63295815758584e-06
-9.9233691172805e-07
2.40813891043258e-07
-4.92908950767872e-06
-5.58753174154214e-07
3.24969918166268e-07
-2.36087779896339e-06
3.57157454564108e-08
-2.5933539847445e-06
-1.76202003009615e-06
1.01807098722159e-07
-2.92125233425066e-06
-1.61764605375694e-06
1.94600529908682e-07
-3.46349262859798e-06
-1.23942000349554e-06
3.48952735642729e-07
-4.36417859956339e-06
-6.8862325441732e-07
4.66811871960735e-07
-3.03151023451451e-06
4.08056801569428e-08
-3.32615555588542e-06
-2.36299961229199e-06
1.12056315472829e-07
-3.65551006407671e-06
-2.07841623229492e-06
2.19590583453549e-07
-3.83456025353461e-06
-1.51897914715289e-06
3.92617737864472e-07
-3.44010775028343e-07
-9.44682027080398e-06
-8.95730467761351e-06
1.93235947347475e-07
-8.405274601105e-06
-1.72255661311552e-07
-7.64788367133309e-06
1.75720684275155e-07
-1.86323593287355e-06
-2.29786830410475e-08
1.40729002480224e-07
-2.73095729881298e-06
-3.10331988750116e-08
5.41805543251328e-09
2.24885184686193e-07
-4.06615319542134e-06
6.00181842882906e-07
-8.88765998271052e-06
-1.76552005013082e-07
1.24534717009582e-07
-1.15448003360407e-06
3.71490823980699e-08
-3.12119752325808e-07
2.48498117461814e-07
-1.88193627499255e-06
3.20322195312083e-08
1.02218861520161e-08
-5.16151613959467e-07
3.90959890634121e-07
-3.78221726023643e-06
-1.70781530324707e-06
-1.23695762988689e-05
-2.68091339645179e-07
-2.08673747091008e-07
-8.94645192962043e-07
-1.13479242554772e-05
-4.76891041855674e-06
-8.70577370985705e-07
2.84453108440945e-07
-2.1659749059442e-07
-4.96537271995157e-07
-9.97347067964466e-06
-2.8751145675829e-07
-7.02482188034941e-07
-7.60805166444672e-06
1.11352633241925e-06
-1.420044445571e-06
-6.75634432822598e-06
-1.06205980938807e-06
-2.89664154174631e-07
6.72045991041032e-08
-1.18912721106836e-06
-5.11060451716933e-07
7.55797850175026e-08
-1.70543120435155e-06
-4.37455428473877e-07
9.83125654643628e-08
-1.44190022849739e-06
-7.9012278339762e-07
6.78317733289395e-08
-1.75558493791823e-06
-6.91355861282592e-07
1.37673053204134e-07
-3.07126507889645e-06
-5.82421664040889e-07
-2.46026092198117e-08
-1.77327834992053e-06
-1.1415585763089e-06
5.83419561355994e-08
-1.97966291370776e-06
-1.05104060004329e-06
1.34289649868549e-07
-2.37400172182592e-06
-8.9173293897919e-07
1.98796173037538e-07
-4.59727875552666e-06
-6.50915498628657e-07
1.00810224404359e-07
-2.14941921957367e-06
-1.56659572614052e-06
4.21585373758241e-08
-2.33244685575108e-06
-1.51785940152434e-06
1.11608874025686e-07
-2.57608652291445e-06
-1.39094465957355e-06
1.9936140500968e-07
-3.0072400195389e-06
-1.084628063037e-06
3.10438810641134e-07
-3.88686013173234e-06
-6.82174626057453e-07
3.13228939217218e-07
-2.74704391849655e-06
6.38870676033892e-08
-2.96743837800889e-06
-2.01989459839723e-06
1.45338484105926e-07
-3.18991755354399e-06
-1.76206624794307e-06
2.51655572338371e-07
-3.30976622412115e-06
-1.2757473440367e-06
4.11284839722149e-07
-4.11280033423493e-06
-7.28351624057233e-07
3.30377708916061e-07
-3.43104240296711e-06
5.47076972340402e-08
-3.59315798970029e-06
-2.55632222596447e-06
1.47319549288667e-07
-3.57572814017597e-06
-2.09042673230964e-06
2.88615810146252e-07
-3.4946282575063e-06
-1.45917338534378e-06
4.25926195507671e-07
-3.39376719881336e-07
-8.50725588424658e-06
-8.87856425798761e-06
-7.77401407093303e-08
-8.35905072192825e-06
-1.90794020119397e-07
-7.28136405825772e-06
8.7960941088915e-08
-1.85306970321546e-06
2.64106028743374e-08
1.82310120230049e-07
-2.68384317414815e-06
-3.8942047312037e-09
-5.64820146080762e-08
3.11819592567286e-07
-3.96155355362711e-06
8.14637232638948e-07
-8.64523879372678e-06
-1.30991886943432e-07
8.47961026045732e-08
-1.17026758435499e-06
6.19847932056077e-08
-2.93592684886476e-07
2.33928621163631e-07
-1.81944013633996e-06
3.43228030541341e-08
5.04087856046514e-09
-6.2264531645563e-07
5.19471406075969e-07
-3.65204209176103e-06
-2.22053824707208e-06
-1.20894468318937e-05
-2.57795152859927e-07
-2.55957230663362e-07
-1.55603046989892e-06
-1.14522430468099e-05
-4.60945914750732e-06
-8.25782022839704e-07
1.41159011427511e-07
-3.01879376423232e-07
-1.09445505617811e-06
-1.044813225375e-05
-3.36357692557435e-07
-1.04972387310445e-06
-9.28986623783939e-06
-4.37338632049949e-07
-1.40056199855375e-06
-7.19018217940965e-06
1.58190315723889e-06
-2.02833983056054e-06
-6.30484714622735e-06
-1.03353154763531e-06
-2.4180268814188e-07
8.22852131037472e-08
-1.11185135875008e-06
-4.48720990211151e-07
8.17823903991426e-08
-1.62529491334751e-06
-3.99894293305705e-07
9.33780103861336e-08
-1.32366981990571e-06
-6.98530927236622e-07
6.92401828442823e-08
-1.63320352615213e-06
-6.24190819834834e-07
1.39937105200077e-07
-2.91984051581724e-06
-5.6640771478138e-07
-1.09338725401977e-07
-1.61826507296643e-06
-1.0044458268029e-06
5.9309437932302e-08
-1.80499655045268e-06
-9.3188669725701e-07
1.33696259046543e-07
-2.18422665953348e-06
-8.17908620358931e-07
1.83388202818189e-07
-4.34338037121955e-06
-6.74681466450322e-07
-4.11416510464376e-08
-1.96336599458376e-06
-1.37268133486129e-06
4.50691264735894e-08
-2.11401327393044e-06
-1.32580992249351e-06
1.1467687207704e-07
-2.31350807253324e-06
-1.21963807546089e-06
1.99617187724183e-07
-2.71899750576149e-06
-1.00045517838287e-06
2.60096482134057e-07
-3.59928671758258e-06
-6.7896321138828e-07
1.55843931120322e-07
-2.32997345805654e-06
-1.79967842728619e-06
2.36724494681693e-08
-2.49686044001788e-06
-1.80391314370456e-06
7.80279803261748e-08
-2.66557541014403e-06
-1.744097638183e-06
1.62898698326951e-07
-2.81844983191256e-06
-1.5232712942716e-06
2.66538682727844e-07
-2.93072228741564e-06
-1.13092109669211e-06
3.80142915002127e-07
-3.68906516414337e-06
-6.80167461758743e-07
2.67777532364282e-07
-3.10626146988449e-06
8.91623361741298e-08
-3.20726141043324e-06
-2.19256556423219e-06
1.89941800573593e-07
-3.14897104131552e-06
-1.78104994800237e-06
3.30202997986481e-07
-3.04281543849847e-06
-1.23755938544308e-06
4.68679273675013e-07
-4.05216705313018e-06
-7.08802774340125e-07
2.2592461689567e-07
-3.68189373736108e-06
6.69820405405085e-08
-3.57167976580633e-06
-2.56729451218292e-06
1.9082425251738e-07
-3.32758618406792e-06
-1.98556461580839e-06
3.57451467862847e-07
-3.22172045868618e-06
-1.34657641970684e-06
4.62548854143247e-07
-1.46341343980775e-07
-7.54627889138882e-06
-8.79081099296806e-06
-1.66932582556926e-07
-8.20059850548068e-06
-3.72361979063875e-08
-7.15616241301571e-06
8.77948305888625e-08
-1.87154205748762e-06
1.54774459007957e-08
1.68039600457298e-07
-2.61526185306472e-06
2.37275368492227e-08
-2.31898632223206e-08
4.16344654687757e-07
-3.8391188091926e-06
9.58438804196869e-07
-8.04496844913611e-06
-9.01439040583471e-08
1.26649681774773e-07
-1.2669627358206e-06
6.01908071009256e-08
-2.74561160696667e-07
2.27192592767969e-07
-1.73981036006999e-06
2.97292280922782e-08
-1.07732828021424e-07
-6.64011460043572e-07
5.90050588485021e-07
-3.43601841613002e-06
-2.5305529755348e-06
-1.17074182905292e-05
-2.15427042577232e-07
-2.19078571333364e-07
-2.01467901540477e-06
-1.14117283198816e-05
-4.45979734449958e-06
-7.51202437946496e-07
4.94684587265885e-08
-2.61824122118364e-07
-1.56259067054249e-06
-1.07222905629781e-05
-2.81646264169563e-07
-1.39364349128387e-06
-9.82257017288395e-06
-3.00763176404045e-07
-1.56065083844534e-06
-8.82900713926235e-06
-4.37465509570123e-07
-1.95097506624958e-06
-6.83007633541684e-06
1.77567379976067e-06
-2.49267151741745e-06
-5.6955633250523e-06
-1.0446147708047e-06
-2.07424940148838e-07
1.28367385042499e-07
-1.04798720825483e-06
-3.9351368244591e-07
8.78484489611882e-08
-1.53923686194914e-06
-3.72619656754033e-07
9.42939006182995e-08
-1.22203000728609e-06
-6.21493812778568e-07
7.11329049896354e-08
-1.52920531234286e-06
-5.64485892484793e-07
1.42378774972105e-07
-2.76799200255718e-06
-5.44243330267617e-07
-1.78228273682726e-07
-1.48389635873612e-06
-8.92833302169924e-07
5.99329022350765e-08
-1.66131551701056e-06
-8.33604934744527e-07
1.34972755272676e-07
-2.0347085967895e-06
-7.47163929565072e-07
1.71179126912239e-07
-4.11826637543024e-06
-6.57556289244938e-07
-1.14345501408075e-07
-1.79884976534574e-06
-1.21528555164718e-06
4.63229495592775e-08
-1.92978522704823e-06
-1.17315048690723e-06
1.16343836735385e-07
-2.10995963296578e-06
-1.08586885125792e-06
1.98108621836264e-07
-2.50844560174339e-06
-9.24868621054354e-07
2.23026898636906e-07
-3.35282193427937e-06
-6.54410918670448e-07
6.60424688352814e-08
-2.1407662507003e-06
-1.58971284657833e-06
2.78239558241674e-08
-2.27880442281454e-06
-1.58419162188553e-06
8.53936145703562e-08
-2.41421385368129e-06
-1.52687850305524e-06
1.70555914045994e-07
-2.538138285841e-06
-1.34527892227644e-06
2.64130389359729e-07
-2.65760150693028e-06
-1.02955540548558e-06
3.37569996585673e-07
-3.37295814564321e-06
-6.41590681587339e-07
1.99675538164346e-07
-2.48526975472429e-06
-2.00984381980688e-06
4.79485622815259e-09
-2.66581578566843e-06
-2.06210381372443e-06
3.93828425608883e-08
-2.8204970798801e-06
-2.06337593278083e-06
1.11541291742688e-07
-2.88151258475078e-06
-1.89988699890131e-06
2.13766391953456e-07
-2.80528413886915e-06
-1.54892308576909e-06
3.40855982225981e-07
-2.70694475259064e-06
-1.09256316242569e-06
4.56668383324442e-07
-3.6379727977451e-06
-6.47378261742223e-07
2.39130998652483e-07
-3.33256430582068e-06
1.12448670025908e-07
-3.19350005558906e-06
-2.21027454923498e-06
2.40988385423203e-07
-2.94079215228709e-06
-1.699718882397e-06
4.05570664465194e-07
-2.8237894334703e-06
-1.15077490100643e-06
5.12720329402784e-07
-3.969931743178e-06
-6.46124045671959e-07
1.63098330595419e-07
-3.66395592582229e-06
8.354497795897e-08
-3.35190550850682e-06
-2.43746227956448e-06
2.4015169290847e-07
-3.02964329537737e-06
-1.82111021606702e-06
4.21173880288623e-07
-2.9577238326767e-06
-1.20877369890799e-06
4.98155043113383e-07
-2.14544742316441e-08
-6.56638542116434e-06
-8.56287295629733e-06
-7.59615627649721e-08
-7.99383182632263e-06
-4.87119647660612e-08
-7.01965135604675e-06
2.54072031704532e-07
-1.95945237973915e-06
-3.95072530196591e-08
1.98598563174507e-07
-2.50021909174287e-06
-7.09632975731849e-08
-6.65843089947452e-08
4.76494121109147e-07
-3.63524239989723e-06
9.06272601052855e-07
-7.24214575004079e-06
-9.15938422795279e-08
3.78294147592762e-07
-1.58359587440047e-06
2.9934362824289e-08
-2.81023380238658e-07
2.92861422619744e-07
-1.68316484059551e-06
-8.28664894860402e-09
-3.15406063600318e-07
-7.02413075166999e-07
7.19149553696022e-07
-3.10761170911025e-06
-2.66297282332284e-06
-1.124061392292e-05
-2.05532574464128e-07
-1.9358572232456e-07
-2.30420663424494e-06
-1.12243128105019e-05
-4.26911488693728e-06
-6.5820448007907e-07
-3.21742649412951e-09
-2.33832555466722e-07
-1.90655232263186e-06
-1.08339420365841e-05
-2.7478833561467e-07
-1.67811116772013e-06
-1.01630457787394e-05
-3.1023915344811e-07
-1.71788008058216e-06
-9.3551098653973e-06
-3.50264757337037e-07
-2.00614501774663e-06
-8.42356390060085e-06
-4.42064247495166e-07
-2.49040042051685e-06
-6.39026960282697e-06
2.26510241328583e-06
-3.2130781025824e-06
-5.06297667500381e-06
-1.08867197015709e-06
-1.99555614233301e-07
1.52022533414067e-07
-1.00425207670099e-06
-3.49545705508148e-07
9.83875665571487e-08
-1.43399955860741e-06
-3.90386190475782e-07
1.32502833048809e-07
-1.1331548612261e-06
-5.56293248856447e-07
7.39042647293033e-08
-1.43738908463043e-06
-5.18327310393942e-07
1.41742953928774e-07
-2.55614075764628e-06
-5.34619175828517e-07
-2.85338134413341e-07
-1.36477795019964e-06
-8.00731306596939e-07
6.01184169597734e-08
-1.53825926854791e-06
-7.52166823206661e-07
1.35757095527536e-07
-1.90725411693981e-06
-6.85458504623994e-07
1.56143668455476e-07
-3.91696732611316e-06
-6.29907017461022e-07
-1.91667343495934e-07
-1.65204419469585e-06
-1.08657102498461e-06
4.69314231888774e-08
-1.77127410899114e-06
-1.04932660650769e-06
1.17141930181363e-07
-1.94261378178183e-06
-9.75747296814782e-07
1.96210684966886e-07
-2.34045046941397e-06
-8.53486480025413e-07
1.99118151471248e-07
-3.1717656991609e-06
-6.31521677730567e-07
-1.41449775263094e-08
-1.96926155366982e-06
-1.41673747604313e-06
2.99467118386618e-08
-2.08751772407418e-06
-1.4070600528626e-06
8.89441926189907e-08
-2.20279949408309e-06
-1.35427520405823e-06
1.73335277849154e-07
-2.31697555873318e-06
-1.20472739640952e-06
2.56806084208895e-07
-2.44581925911431e-06
-9.46323218704288e-07
3.03158294377943e-07
-3.13520615072323e-06
-6.12597110494603e-07
1.30644168305793e-07
-2.2955835351973e-06
-1.78946092334577e-06
1.00615560503517e-08
-2.44751448507248e-06
-1.82406889502321e-06
4.93987812908902e-08
-2.57210215016254e-06
-1.81407289002965e-06
1.24192256497463e-07
-2.61023467979111e-06
-1.66945168320361e-06
2.23451312047242e-07
-2.53258421313855e-06
-1.37282966886454e-06
3.34706220789375e-07
-2.45047622117236e-06
-9.8670052864026e-07
4.26210669933817e-07
-3.32298719630085e-06
-6.05442365841692e-07
2.15336795135751e-07
-2.61143935661459e-06
-2.19777999764925e-06
-1.19941300923457e-08
-2.81587303403632e-06
-2.2924647377871e-06
1.4378040213191e-09
-2.99432220910734e-06
-2.35047842145756e-06
5.17632807897602e-08
-3.02459046312893e-06
-2.23850239557643e-06
1.42182681036461e-07
-2.87326111137304e-06
-1.92232653513002e-06
2.6693184349535e-07
-2.62693052024749e-06
-1.48234077743828e-06
4.16773153125639e-07
-2.51458781342558e-06
-1.01381965964159e-06
5.13907653360125e-07
-3.58621108554287e-06
-5.8754175183226e-07
2.09114137512508e-07
-3.31657087214936e-06
1.37287998805724e-07
-2.99969143335402e-06
-2.10522782553366e-06
2.9428489260052e-07
-2.68083147167167e-06
-1.56435412203898e-06
4.70339233224073e-07
-2.60479227867987e-06
-1.03617986353551e-06
5.49843614595893e-07
-3.84276288252242e-06
-5.6759065524018e-07
1.10746147966716e-07
-3.44759296895759e-06
1.05691877887659e-07
-3.04788743090917e-06
-2.2355014487903e-06
2.8869040340944e-07
-2.71692827298807e-06
-1.6284360138772e-06
4.75649686333766e-07
-2.68048556131195e-06
-1.05429972666924e-06
5.27080889080973e-07
-4.59229510071747e-08
-5.61420206364901e-06
-8.20826938270959e-06
-1.96816432494058e-07
-7.64713210110667e-06
-1.12735095523556e-07
-6.65284429467828e-06
7.93764587497949e-07
-2.22506371683675e-06
-1.49854033415356e-07
3.78893092973117e-07
-2.41808578682076e-06
-2.07663397529041e-07
-2.45978327499083e-07
5.874397191722e-07
-3.3285128671663e-06
1.03192835789838e-06
-6.25496153277601e-06
-4.76777142693174e-07
1.59546004415191e-06
-2.98005414905537e-06
2.77777706156791e-07
-3.51874159597423e-07
4.67494329303236e-07
-1.96266039777559e-06
1.93816853436772e-07
-6.62921589488823e-07
-8.95902010514592e-07
8.29117154321835e-07
-2.38617830477567e-06
-2.69810310021692e-06
-1.07365972397706e-05
-1.63365181064392e-07
-1.80763441562846e-07
-2.44941936872578e-06
-1.09146494438328e-05
-4.0487538523501e-06
-5.6203616114371e-07
-6.18715652300693e-08
-2.25399360479066e-07
-2.12630211352245e-06
-1.07791729316067e-05
-2.68832417462117e-07
-1.88928811739339e-06
-1.03539441109021e-05
-3.1409830054121e-07
-1.84652590673868e-06
-9.72031611978387e-06
-3.47830770961574e-07
-2.04039987009777e-06
-8.97302906201122e-06
-3.73567344013284e-07
-2.48011185303768e-06
-8.06027411821229e-06
-4.20231584528248e-07
-3.23989176551104e-06
-5.94321314512383e-06
3.02411698596332e-06
-4.16098574105034e-06
-4.58900829242404e-06
-1.66695608410246e-06
-4.05591154716107e-07
5.07102351704757e-07
-9.80420923993884e-07
-3.18236267955466e-07
9.48522823347326e-08
-1.39004301937685e-06
-5.7148256592996e-07
3.27687322089173e-07
-1.05513036615659e-06
-5.01091463575184e-07
7.35213472897118e-08
-1.37482849404574e-06
-4.9254942818934e-07
1.37994333494565e-07
-2.11770293327797e-06
-6.13818289727105e-07
-5.88005822332154e-07
-1.25681384779798e-06
-7.24112356319915e-07
5.98540357003838e-08
-1.43157509928848e-06
-6.86331838522117e-07
1.35223706094758e-07
-1.78859457787012e-06
-6.41081223619084e-07
1.29549962970953e-07
-3.69548058793747e-06
-6.17296030109618e-07
-3.09741480515901e-07
-1.51915270763951e-06
-9.80692570893749e-07
4.70689312031989e-08
-1.63206566823617e-06
-9.48102807329814e-07
1.16843690763811e-07
-1.79942451854671e-06
-8.85372354878116e-07
1.92482214740092e-07
-2.19954751324616e-06
-7.91599797430155e-07
1.76936650831067e-07
-3.03583915950289e-06
-6.07063231141798e-07
-9.41000279605316e-08
-1.81294882536184e-06
-1.27408021565284e-06
3.11958871526913e-08
-1.91766483809433e-06
-1.26281107980616e-06
9.05609818716071e-08
-2.02088283171214e-06
-1.21412216936868e-06
1.73599137310868e-07
-2.13394750041031e-06
-1.08920511942135e-06
2.48902983058648e-07
-2.27789501633748e-06
-8.74751823436722e-07
2.74425974012185e-07
-2.96131626641161e-06
-5.92272483151901e-07
5.63974323968305e-08
-2.120056821403e-06
-1.60552803707424e-06
1.32634487324657e-08
-2.25084194081171e-06
-1.62895245618959e-06
5.51651540460747e-08
-2.3544449717565e-06
-1.61341060320448e-06
1.30421114645753e-07
-2.38105478051969e-06
-1.48617031938196e-06
2.25598760081649e-07
-2.31137300749517e-06
-1.23329156199616e-06
3.22565124420378e-07
-2.24846452690878e-06
-9.03648311381513e-07
3.92197025137723e-07
-3.08975777191413e-06
-5.78550398980637e-07
1.6185731266237e-07
-2.42346255112814e-06
-1.97167975338248e-06
-5.75821536039448e-09
-2.60012688552089e-06
-2.04327572940759e-06
1.35213900534676e-08
-2.74690706757239e-06
-2.080356838049e-06
6.82666365898614e-08
-2.7566817128977e-06
-1.97225036759583e-06
1.59081436971579e-07
-2.60369664382349e-06
-1.69483961189403e-06
2.75897826329825e-07
-2.37148656600624e-06
-1.31568759514223e-06
4.08251048967301e-07
-2.27188145114052e-06
-9.12065451399913e-07
4.90126591665689e-07
-3.29199225021313e-06
-5.49230988672236e-07
2.01510273590556e-07
-2.70609075155385e-06
-2.36466394428233e-06
-2.58225215914591e-08
-2.93997119845377e-06
-2.49772184799037e-06
-3.18932977340919e-08
-3.15319159359861e-06
-2.60585441369709e-06
-5.91571168437504e-09
-3.19532472739282e-06
-2.5426801585852e-06
6.10393546645094e-08
-3.00930649663788e-06
-2.25920993774317e-06
1.71801970993085e-07
-2.69975946424182e-06
-1.83570967555747e-06
3.20369899691908e-07
-2.39376439518965e-06
-1.36596534329466e-06
4.81853151486888e-07
-2.32205291938856e-06
-9.12210136788352e-07
5.55835009793214e-07
-3.50402065472391e-06
-5.18525088954028e-07
1.63490348940624e-07
-3.11965761726355e-06
1.64105471046126e-07
-2.72592595097987e-06
-1.93506163601507e-06
3.43031831234259e-07
-2.40369936156502e-06
-1.40093486257235e-06
5.21865837085475e-07
-2.36773054544589e-06
-9.03946404421515e-07
5.7344235490398e-07
-3.68234951393706e-06
-4.81510366117814e-07
4.50844189203528e-08
-3.13863341291602e-06
1.30998625680255e-07
-2.71387603119946e-06
-2.00102235642111e-06
3.32126374630479e-07
-2.3932408766872e-06
-1.41931303766926e-06
5.17457729831508e-07
-2.39337744031196e-06
-8.90304526912406e-07
5.35913896060407e-07
1.69660970910319e-07
-4.75195030932105e-06
-7.64801510551115e-06
-3.81486528660663e-07
-6.99949396766002e-06
4.75129309624803e-08
-5.90659699110755e-06
1.98307914483126e-06
-2.6130579931124e-06
3.77503980326183e-10
8.48158728207194e-07
-2.64461571119724e-06
-3.03983462642585e-07
-5.66773649612602e-07
7.46632724238366e-07
-2.88691479491795e-06
1.38762686987453e-06
-5.18524655853625e-06
6.69169456382887e-06
-9.57789942500793e-06
-9.3844102952438e-08
-3.28195887481029e-07
1.6096212354212e-06
-3.12410724140137e-06
1.57804995461517e-07
-1.43647539343043e-06
-1.078633610732e-06
5.98753476379979e-07
-2.75992988334323e-07
-2.67127551755045e-06
-1.02415869900762e-05
-1.22482472128173e-07
-1.40615970758558e-07
-2.51507146175727e-06
-1.05303362615192e-05
-3.81817278866123e-06
-4.54598931254585e-07
-1.20853828581398e-07
-2.03113422317476e-07
-2.24911883587562e-06
-1.05887294838853e-05
-2.42253630229312e-07
-2.03364628847241e-06
-1.03925769004956e-05
-2.90689123130599e-07
-1.94294393163374e-06
-9.96684889614142e-06
-3.39423750314284e-07
-2.04641769785907e-06
-9.37489001477526e-06
-3.74610593211353e-07
-2.38939030866575e-06
-8.68914926362316e-06
-3.9637571352671e-07
-3.07558351629018e-06
-7.82819773664138e-06
-4.8277968874228e-07
-3.96427220523547e-06
-5.65713986456012e-06
4.89194835701722e-06
-7.06139417372514e-06
-3.85602344718715e-06
3.98274384796817e-07
-1.73382553518535e-06
-5.43540988193467e-07
2.12139125905298e-07
-1.10554760844153e-06
-3.10316320235531e-07
2.98547441702031e-08
-8.86966460856653e-07
-4.70375233264805e-07
1.46214497717821e-07
-9.81631666825795e-07
-4.55751014154371e-07
6.40164045938904e-08
-1.49000050120863e-06
-4.7434259638559e-07
1.12891231944145e-07
-9.05583669959849e-07
-3.81645660447233e-07
-1.58140631369192e-06
-1.15572661727795e-06
-6.60377414891506e-07
5.81977729024591e-08
-1.34782059837224e-06
-6.32998674026515e-07
1.30215479194789e-07
-1.69964411437181e-06
-6.25139334759677e-07
6.03707423043875e-08
-3.5842504621894e-06
-6.42128003666041e-07
-5.39863368695638e-07
-1.3966421770039e-06
-8.93334985954994e-07
4.67111568859854e-08
-1.50853046447754e-06
-8.65346260525736e-07
1.15331147984062e-07
-1.67609605053505e-06
-8.14048396669667e-07
1.84863057142859e-07
-2.08349458953758e-06
-7.47328131943187e-07
1.43532858732374e-07
-2.95981807979552e-06
-5.89020514146986e-07
-1.93117124891672e-07
-1.66930414982951e-06
-1.15632304052533e-06
3.19850070281258e-08
-1.76488203098369e-06
-1.14468386663814e-06
9.08647994552279e-08
-1.86133585499309e-06