/*--------------------------------*- C++ -*----------------------------------*\
  =========                 |
  \\      /  F ield         | OpenFOAM: The Open Source CFD Toolbox
   \\    /   O peration     | Website:  https://openfoam.org
    \\  /    A nd           | Version:  12
     \\/     M anipulation  |
\*---------------------------------------------------------------------------*/
/*   Windows 32 and 64 bit porting by blueCAPE: http://www.bluecape.com.pt   *\
|  Based on Windows porting (2.0.x v4) by Symscape: http://www.symscape.com   |
\*---------------------------------------------------------------------------*/
FoamFile
{
    format      ascii;
    class       volVectorField;
    location    "100";
    object      U;
}
// * * * * * * * * * * * * * * * * * * * * * * * * * * * * * * * * * * * * * //

dimensions      [0 1 -1 0 0 0 0];

internalField   nonuniform List<vector> 
10107
(
(-5.37522025946575e-05 0.000210608865759446 -0.00111992593591853)
(-0.000127449389299299 0.000605963454788793 -0.00161606953868826)
(9.79135045320983e-05 0.000547435017834848 0.000112649824840236)
(0.000313042430551669 0.000276224410973963 -0.00158487053221123)
(-0.000103495565896724 0.000591880840036019 -0.00168513422424617)
(2.21530560676657e-05 0.000528993029192124 -0.000315043545754463)
(5.54683723733793e-05 0.000346647150101342 -0.00154886056645174)
(2.87760637003448e-05 0.000365417429703128 0.000181158804969546)
(0.000121760362854562 0.000488777946281599 -0.000117674037359143)
(0.000220073472172994 0.00061222777958868 -0.000811588412970947)
(-1.96061770714862e-05 0.000777300526234772 -0.000862614762058459)
(3.23166600275201e-05 0.000726394804717379 -0.000715574662184826)
(-0.00016456270859332 0.00041859158715392 -0.00166895463737511)
(1.72971977834084e-05 0.000317193670185611 -0.000228618888977671)
(0.00015246888999635 0.000510475870406635 -0.000410569597262071)
(0.000265678728096897 0.000508378901617145 -0.00198402623201414)
(0.000117902882180879 0.00079923860864759 -0.000702732449779953)
(1.34098033177149e-05 0.000354760460194194 0.000164492750087425)
(3.73954981829349e-05 0.000545489790796719 0.000562927007570447)
(7.78770483155612e-05 0.000419904274540377 7.94630755152404e-06)
(8.38658563052513e-05 0.000422729181619538 7.8902833414316e-05)
(0.000158026491302963 0.000543859199050205 0.000152507567940469)
(0.000188301609144939 0.000517509689067732 0.000124111001921794)
(0.000133244420161496 0.000424528232240818 -8.47095008218989e-05)
(0.00020710950135433 0.000500516445536819 -0.000261194260763789)
(-0.000154464477429637 0.00077537224298551 -0.000943000470400754)
(0.000112707964883865 0.000822315001487806 -0.000644619400896272)
(4.78368096766881e-05 0.000327002463944254 -0.000674987388707784)
(4.70709769100883e-05 0.000821015824068046 -0.000905711301996226)
(-2.69520718945036e-05 0.000330851859411292 -0.00190473960089849)
(2.62217899599034e-05 0.000198344896725322 -0.000140451651109993)
(6.36316695927075e-05 0.000340894836675538 -0.000392703047657714)
(0.000114660605779703 0.000408569821611322 -0.000497825107274906)
(0.000126243864328073 0.00041604285547202 -0.000310963535241165)
(0.000151446805536525 0.000388656753924242 -9.43462492045297e-05)
(0.000303999505907199 0.000562430543192529 -0.00175003005961067)
(0.000236464760989673 0.000540677271792356 -0.000778080474300509)
(0.00010921175800153 0.000569203062816673 -0.000526657313247373)
(0.00010276013497854 0.000405009147454306 -0.000223263621508749)
(2.67979550670592e-05 0.000260928334488117 0.000180606422509033)
(2.6448537360443e-05 0.000462206496024348 0.000508949391889685)
(7.32424467130563e-05 0.000361179497491357 1.34295121085868e-06)
(2.511892024353e-05 0.000741701145394535 0.00089707318750165)
(9.32115749203039e-05 0.000533796734764767 0.000467331671577227)
(7.86104885185962e-05 0.000386951586828534 0.000103767734111137)
(9.49423451164559e-05 0.00035277884852309 3.89485899703373e-05)
(0.000102091860321634 0.000400548328741679 0.000142154443106786)
(9.48378258084538e-05 0.000436814277207122 0.000178113085803401)
(0.000115800291728936 0.000417380954771922 0.000236014726060279)
(0.000108228732549037 0.000354557620734937 4.16402469944917e-05)
(0.000192954307813665 0.000388227283972347 8.98627223394798e-05)
(-6.88060730446709e-05 0.000680180027034432 -0.000837181063798294)
(0.00013758247564382 0.000832950041240711 -0.000750489498494057)
(0.000156555047436551 0.000411303485279139 -0.00102969750995065)
(4.70226171115254e-05 0.000165674505295262 -0.000537880815615204)
(0.000104491100712544 0.000397090293468123 -0.000881171066960485)
(0.000147744778948951 0.00083699713871284 -0.00104281181486291)
(2.7362318166512e-05 0.00101072154268301 -0.00129348686797037)
(2.46718052240241e-05 0.000132312141292234 -0.00012978314725301)
(8.27672928050898e-05 0.000228975341869971 -0.000334535865520372)
(0.000103875990824925 0.000449258277415184 -0.000587855903205362)
(0.00012104899639315 0.000330759740277102 -4.79703633020242e-05)
(0.000681898514704779 3.00225288172452e-05 -0.00149002974700453)
(3.4139323143023e-05 0.000801916308798686 -0.000975099176012671)
(0.00022607426964968 0.00033980984655191 -0.000150387461627426)
(9.42324096190093e-05 0.000373766809134266 -8.31494909742292e-05)
(9.96940427723907e-05 0.000349651267001581 7.20622897968631e-06)
(2.55959497402122e-05 0.000191926366547838 0.000163675315158887)
(2.53277400745183e-05 0.000370484052404164 0.000469281284586338)
(8.46293755687822e-05 0.000279427415189876 4.12719075966644e-05)
(2.27510390950522e-05 0.000617786811811864 0.000797100352818604)
(8.150055640714e-05 0.000463194536137528 0.000409670081160236)
(0.000147846781372745 0.000387357699261694 -0.000127064165809549)
(1.75140641897352e-05 0.00092829523729323 0.00114245736345231)
(7.7680175444028e-05 0.000736852950010943 0.000808690580794506)
(0.000158953568487266 0.000549627714718972 0.000366804590731951)
(0.000104106755018599 0.000358370230586395 1.60784437699229e-05)
(0.000136769809829668 0.000429682607102034 -8.16038571486476e-05)
(0.000106236426750194 0.000436524867317877 0.000213460342210483)
(0.00013062395572944 0.000377082977705649 9.2245372370031e-05)
(0.000129820734348008 0.000974769019227415 -0.00037829404564752)
(0.000166447022519593 0.000883142713783469 -0.000737268828815978)
(0.000301291821148415 0.000483433920990405 -0.00111533267825862)
(0.00013965782027688 0.000186281175824888 -0.00101222038888657)
(3.5355586891206e-05 0.000109220722471206 -0.000510768584208702)
(0.000136106790566912 0.000215224492017144 -0.000798817474693546)
(8.56396446401674e-05 0.000543739789063424 -0.00101095489712685)
(8.39276087160408e-05 0.00102830726267202 -0.00084217337810056)
(2.05546034827873e-05 8.68211240255851e-05 -0.000111687549356367)
(8.14191396586314e-05 0.000146291676989769 -0.00031938937266415)
(0.000111142311238151 0.000298573339363814 -0.000502944078311891)
(0.000821268620447876 0.00016716272956644 -0.00127609124492165)
(0.000238673138760502 0.000389327465140411 -0.000786605666703678)
(0.00031346918092286 0.000419071334318784 -0.000317571208814656)
(8.15572971193671e-05 0.000569959948600392 -0.00079543148114274)
(0.000112778814830033 0.000365846615525131 7.45937618240793e-07)
(2.44897750952452e-05 0.000137157661564051 0.000151453658767886)
(2.45655445642667e-05 0.000295623840724805 0.000420741318205355)
(8.47076098900721e-05 0.000198197358105731 3.94908502907259e-05)
(2.21048750921529e-05 0.000510485832666777 0.000717200991841759)
(8.09709425306593e-05 0.000377649328663709 0.000374988507819147)
(0.000141588986425972 0.000289227941431751 -7.60816584985908e-05)
(1.72582160797912e-05 0.000781108536953288 0.00102771729990843)
(7.28823468942659e-05 0.000615169547009538 0.000717654138240636)
(0.000140789588729125 0.000472631594006406 0.000332865981313778)
(0.000206283412818145 0.000357400700044916 -0.000230808174470324)
(1.15044864647963e-05 0.00110250719815333 0.00133879740855186)
(5.67952181568034e-05 0.000916744362881615 0.00106674699508828)
(0.000135296130283544 0.000726190371733533 0.000749466703652627)
(0.000254775087173203 0.00052949498969279 0.000313692126497994)
(0.000443541512197694 0.00099904634382317 -0.000254048316446634)
(0.000190343261868446 0.000627428884270731 -0.000960001958393425)
(0.000337744278744232 0.000251114372429165 -0.00123357231676558)
(8.68972943942969e-05 0.000108642443230998 -0.000987883883675819)
(1.81303762211047e-05 7.79744299308515e-05 -0.000455592815720053)
(0.000116678825943001 0.000134888626987943 -0.000803315315291533)
(0.000152101986146098 0.000335018454925798 -0.000977403232288724)
(0.00021440807025171 0.000789354251206417 -0.00103422033307944)
(2.09211934215571e-05 3.08930212423199e-05 -8.26508819452682e-05)
(7.22175489835903e-05 8.63325568575412e-05 -0.000305707886938517)
(0.000127368633876162 0.000175591512781314 -0.000482474677677503)
(0.00101339690232801 0.000131643578320831 -0.00130441679713115)
(0.000517444637771119 0.000217424312955869 -0.00101691496171231)
(0.000482681233776289 0.000321298972568102 -0.000356085504795835)
(0.000205636212021958 0.000299357032635281 -0.000567505865864846)
(0.000127520783343952 0.000317134486324638 -0.000692303835149705)
(2.44404531501669e-05 8.1968144036825e-05 0.000143865129572372)
(2.39272501480511e-05 0.00023141565856982 0.000380825636095998)
(8.32534234768563e-05 0.000133932091323754 3.33915119818938e-05)
(2.13592137157056e-05 0.000422742609939347 0.000646911894339203)
(7.99442560003362e-05 0.000297772320694544 0.000337435390142238)
(0.000149786884168313 0.00020045805780633 -6.72349776192829e-05)
(1.71838356243978e-05 0.000658988064146308 0.00093018631983064)
(7.08373028146396e-05 0.000508374987670207 0.00064598298655185)
(0.000140567991700083 0.000378740871691849 0.00031043135082294)
(0.000210388823137555 0.000273428935413285 -0.000174889038730088)
(1.19790626322467e-05 0.000939558978384556 0.00121912013868225)
(5.60147898344429e-05 0.000771317282088769 0.000958581053942192)
(0.000127083693721249 0.000607196032793981 0.00066293491574846)
(0.000222408847717404 0.000446931133895353 0.000273445999276416)
(0.000397026804405162 0.000278584779314138 -0.000337173214933753)
(3.80333525805076e-05 0.00108403132143818 0.00126721082356871)
(0.000100647089913744 0.000898296168879373 0.00100847862792301)
(0.000199756451512607 0.000694571234643345 0.000692674831252811)
(0.000355711517309769 0.000470697300672428 0.00026332149180938)
(0.000629990878679782 0.000838223000820138 -0.000978635150595986)
(0.000353157534984298 0.000410310283367815 -0.00123987954357448)
(0.000269489192418061 0.000143876067833145 -0.00130372653645206)
(1.81164300937541e-05 9.39088034011034e-05 -0.000883894280297703)
(2.08848680332795e-05 1.7970631216851e-05 -0.00037708670941761)
(7.71992051468233e-05 8.40928976483185e-05 -0.000778887330501526)
(0.00015504325085992 0.000215328447798436 -0.00103441130766886)
(0.000224495353386843 0.000527584869536708 -0.00119073025386848)
(2.26995039432622e-05 -2.90657905581442e-05 -6.19938823847131e-05)
(7.17318242443124e-05 2.18333551957343e-05 -0.000274071466816786)
(0.000126784474073895 8.90951186956245e-05 -0.00049202372124618)
(0.00119100044848848 9.26682445948977e-05 -0.00134196248273934)
(0.000752056562468443 0.00012274156415772 -0.00113612648848551)
(0.000638891610909888 0.000250522020085164 -0.000391115315891361)
(0.000420164670516128 0.000188240978262229 -0.000844701005003239)
(0.000229933991885038 0.000173149753759906 -0.000505643006125472)
(0.00015980288072556 0.000150867297477772 -0.000798763037876798)
(2.48959378799918e-05 2.59277483871512e-05 0.000136382344990966)
(2.36182041554594e-05 0.00017321015701297 0.000346580014008367)
(8.39417763392015e-05 7.25491514063064e-05 3.05241632181683e-05)
(2.07594016109489e-05 0.00034869888921664 0.000585761766145844)
(7.86148362478084e-05 0.000229105433022189 0.000304526112015603)
(0.000152599195530587 0.000131737753442784 -7.23936627818618e-05)
(1.69047486505919e-05 0.000558124111322843 0.000844462501884741)
(6.86021968642186e-05 0.000419736376102472 0.000583173506845862)
(0.000140534423823646 0.000298311060343071 0.000279943775008052)
(0.000224307083421116 0.000190759998413986 -0.00015987562792217)
(1.22617487526273e-05 0.000804026466693866 0.00111194411297809)
(5.53716638737951e-05 0.000650149796720761 0.000866410048462538)
(0.000123009501874559 0.000502876690865559 0.000596148087154514)
(0.000213479513668356 0.000364435274112896 0.000249793978353678)
(0.000366669114020379 0.000227392328944444 -0.000298986111604971)
(3.9189847747249e-05 0.000923417250791277 0.00115358683336543)
(9.90235156779253e-05 0.000756679779063422 0.00090380004957297)
(0.000188347628717721 0.000581755033457364 0.000607366122138991)
(0.000321885442717765 0.00039809641604212 0.000207931093716248)
(0.000549907145429609 0.000209461582804176 -0.000405221206132993)
(6.76424075852031e-05 0.00105872555657685 0.00120456813063797)
(0.00014760090657178 0.000861759580648665 0.000942370800324932)
(0.000270283495960588 0.000640597522111862 0.000619931416875957)
(0.000461776553934272 0.000407555339847145 0.000193610859339993)
(0.000599482690521996 0.000638666461190232 -0.00166953459519206)
(0.000352332901404461 0.00027046059285405 -0.00144539426457406)
(0.00012532949188581 0.000105372569873548 -0.00127342733460721)
(1.89927844472555e-05 3.78207881014098e-05 -0.000781227114128479)
(2.67669779733906e-05 -4.56287307215094e-05 -0.000327020272370804)
(7.56928262480533e-05 1.90387421677318e-05 -0.000711528907802869)
(0.000131862500091133 0.000131695085191499 -0.00107039513397893)
(0.000203352600070916 0.000337926054162131 -0.00136842725515225)
(2.23864348990015e-05 -8.97950993099469e-05 -4.15527097247869e-05)
(7.54326306112245e-05 -4.6855276478193e-05 -0.000246259648648084)
(0.000124546567353535 5.42727923464832e-06 -0.000458244417139815)
(0.00136675950069757 6.8320420344078e-05 -0.00138436018925808)
(0.000970335647373951 7.73274452542785e-05 -0.00122103707767197)
(0.0007795565886179 0.000190859315009438 -0.000451107381915812)
(0.000622479295969764 0.000108131545962468 -0.00101364365462219)
(0.000406887060781724 0.000112158712027306 -0.000725045104200982)
(0.000273014198652574 8.23987060033048e-05 -0.000506120832997408)
(0.000179432592841444 2.41570294855431e-05 -0.000748208548859034)
(2.5206544091511e-05 -3.14966646460927e-05 0.000127542626493402)
(2.35240747014885e-05 0.000118625489793027 0.00031427397253233)
(8.63756036795522e-05 1.13130999564197e-05 2.83247910322218e-05)
(2.03317864323098e-05 0.00028465527500827 0.00053123992577737)
(7.82602977347608e-05 0.000167795981313897 0.000275038157761366)
(0.000157080211400384 6.73481728102467e-05 -7.30107821848274e-05)
(1.65290627861614e-05 0.000474116441917502 0.000768018015625459)
(6.68180436727422e-05 0.000344345155524748 0.000527219572760651)
(0.000139818073129381 0.000229639078642853 0.000250020694879547)
(0.000238007245184345 0.00012231745684657 -0.000156944206834191)
(1.23058763033121e-05 0.000691903880329364 0.00101587190179347)
(5.42339196387729e-05 0.000549596764560215 0.000786034420760931)
(0.000120151955270957 0.000416186339231207 0.000537043335610572)
(0.000208336966464904 0.000291618782287556 0.000221785635177156)
(0.000355522303680191 0.000165154359701174 -0.000272667218832141)
(7.62549220908173e-06 0.000940654254635137 0.00126577311485893)
(3.98257984418387e-05 0.000789157417663581 0.00105007424547842)
(9.71740412799105e-05 0.000638561898898665 0.000814662253180642)
(0.000180717060058189 0.0004859173394903 0.000541672053836405)
(0.000301718841091958 0.000331714057994986 0.000177162142977272)
(0.000497089776809978 0.0001761512395468 -0.000387436031812087)
(6.93923076140452e-05 0.000902530417879656 0.00109495397257402)
(0.000145202747908469 0.000727341446323271 0.000841008846847172)
(0.000255902491650063 0.000537711374149159 0.000534206941534978)
(0.000422109778053312 0.000341794393732791 0.00013061503365923)
(0.000689036816007568 0.000160608826347349 -0.000479970839610267)
(9.95809605707451e-05 0.00101561824538806 0.00113017297281095)
(0.000197767429192589 0.000803017479985678 0.000856016529831736)
(0.000343846962433837 0.000572040395411808 0.000528174395038455)
(0.000559173178365868 0.000341927668821493 0.000103209050956968)
(0.000475171674038458 0.000477073290306469 -0.00225166569857961)
(0.00025203826502403 0.000191856210865631 -0.00158749294412233)
(0.00010325704949983 5.42451518036959e-05 -0.00117250969136534)
(4.54864517523135e-05 -2.83857716576356e-05 -0.000640335633632443)
(2.02800765696232e-05 -9.92900434304921e-05 -0.000279081424334458)
(8.1836167772988e-05 -5.32867471455669e-05 -0.000653092748746079)
(0.000125585614063521 4.07835744209373e-05 -0.00103993559763491)
(0.000178555566329819 0.000192645749013388 -0.00144570136600598)
(1.83784767055388e-05 -0.00015826189078925 -1.79481537106899e-05)
(6.85714706530234e-05 -0.000118523045460799 -0.000216206856529559)
(0.00013104474531993 -8.14954355411968e-05 -0.00042751301273883)
(0.00150346492413829 4.09895567698176e-05 -0.00143084835268567)
(0.00115511427701339 5.43816798708902e-05 -0.00128919004514834)
(0.000901073857408056 0.000142058671537745 -0.000523570731640318)
(0.000836579818580483 7.80912436096187e-05 -0.00113174236099433)
(0.000581475544409686 8.3919736801431e-05 -0.000904534752958791)
(0.000413603535920507 6.53219195797549e-05 -0.000662521150748733)
(0.000309603163955116 5.97383484696796e-06 -0.000479353770246619)
(0.000214620012272468 -0.000124418788172035 -0.000753688631880663)
(2.58917388437453e-05 -9.41443558628433e-05 0.000113893866172197)
(2.37698999074921e-05 6.68518534859923e-05 0.000281158644589591)
(8.76536172330472e-05 -5.29350469913564e-05 2.44225344291665e-05)
(2.00677922938805e-05 0.000228612220563775 0.000479998072695271)
(7.89053603011247e-05 0.000110631776585204 0.000246350875164321)
(0.00016326039808487 3.05474189283532e-06 -7.11784222372802e-05)
(1.61753135255246e-05 0.000403405686627412 0.000698436473131565)
(6.56746153038948e-05 0.000279168184040209 0.000476803624418075)
(0.000140417517128518 0.000168491060795591 0.000222278425160714)
(0.000253321973067218 6.28869008733913e-05 -0.000156449736714923)
(1.2197288238439e-05 0.000598902245513117 0.000928473523558669)
(5.29457844633967e-05 0.000465708222827379 0.000714122598553615)
(0.000117452579811536 0.000342476066493725 0.000483665686404642)
(0.000206070578251924 0.000228641967060725 0.000193533363274927)
(0.000355561324569736 0.000114941387225583 -0.000265503942359919)
(7.98212252073072e-06 0.000819690794422573 0.00116268206177656)
(3.97648612256836e-05 0.000677984311954552 0.000957656147065114)
(9.49676766211415e-05 0.000540540694913398 0.000737638119311069)
(0.000175176306190424 0.000405118656375212 0.000484754457321781)
(0.000288132131925644 0.00027067893134911 0.000151552478020265)
(0.000468843853028944 0.000138912162898052 -0.00036911308006289)
(3.5207820712323e-06 0.00106660024252841 0.00139172156416374)
(2.53107883903027e-05 0.000920737798070743 0.00120406557236956)
(7.01006808344352e-05 0.000771576508180578 0.000994071626394875)
(0.000141817079214968 0.000615494871626026 0.000754582553371773)
(0.000243528601268179 0.000452434764336464 0.000469183913513402)
(0.000390637486630157 0.000286956539868184 9.41818775775368e-05)
(0.00062374487982997 0.000137369807023764 -0.000479342902596369)
(0.000101818159679755 0.000867065115244871 0.00102489820387661)
(0.000193757840661444 0.000678974046517621 0.000758854752087822)
(0.000325368311436064 0.000479423772185719 0.000444202777901141)
(0.000514584100101409 0.000283669831069171 3.753328377675e-05)
(0.000810090730188387 0.000117156667259899 -0.000563552597729373)
(0.000133527059840682 0.000950655891340236 0.0010356213097271)
(0.000249586151746252 0.000726651368256543 0.000752281902825549)
(0.000413980729973749 0.000493992198476686 0.000421702513290158)
(0.000645315026108222 0.0002741054924252 1.76426507402961e-06)
(0.000367702770701492 0.000352035637040413 -0.00262971323534847)
(0.000196605246042941 0.000116475176169185 -0.00159208837908707)
(0.000130641811658981 -1.04357509531576e-05 -0.00106844280391806)
(3.59464351744841e-05 -6.30621158222254e-05 -0.000550999763858847)
(6.75003626239922e-06 -0.000159953344006539 -0.000214146931001032)
(5.5238709997952e-05 -0.000121886031610124 -0.000592221160243323)
(0.000121878253073693 -5.31566835145926e-05 -0.000985518080070811)
(0.000166559444369805 1.78777502247446e-05 -0.00148189338604676)
(8.8374275806276e-06 -0.000242961516633471 2.24145700872963e-06)
(5.0135913420327e-05 -0.000199819208377751 -0.000186469898344128)
(0.000121440662724834 -0.000171965836340894 -0.000383244259333876)
(0.0016056754610077 1.05832924231479e-05 -0.00147597554426953)
(0.00129274932593811 2.94153106529722e-05 -0.00135347985054286)
(0.00100011560357563 9.64892160413191e-05 -0.000602277819981022)
(0.00100864663574274 5.29743488382076e-05 -0.0012242429101013)
(0.000749725852696942 6.66585469294327e-05 -0.00103190179195545)
(0.000549092139315978 5.52561859140428e-05 -0.000820324855816512)
(0.000419764446150438 1.31728711518696e-05 -0.000608951124384261)
(0.000334407895121581 -6.75262907037811e-05 -0.000456491273615937)
(0.000228708137078615 -0.000274427905279238 -0.000705737719850358)
(2.57075090229014e-05 -0.000163619179072851 8.41518417849132e-05)
(2.46875832149915e-05 1.7277974245865e-05 0.000242934153530537)
(8.79269350087424e-05 -0.000124891019816279 1.17554925685536e-05)
(2.002228597408e-05 0.000179750306330164 0.000429616931958684)
(8.02543105260656e-05 5.56772779170317e-05 0.00021563970242747)
(0.000169148798912212 -6.51169971512079e-05 -6.83909455138538e-05)
(1.58949402756528e-05 0.000343862396996013 0.000633199917415253)
(6.5234435320444e-05 0.000222091860198541 0.000428785456088235)
(0.000142838448996514 0.000111855680639755 0.000195505821387719)
(0.000270242970832519 4.87345188033619e-06 -0.0001486132675896)
(1.20282081310027e-05 0.000521531921849638 0.000847838186319781)
(5.18389917818712e-05 0.000394976102746312 0.000648417314886668)
(0.000115729065089309 0.000278811818192297 0.00043530708351668)
(0.000206482455362251 0.00017299602542569 0.0001664938338703)
(0.000358970330201096 6.89104661592469e-05 -0.000263894551631246)
(8.15477721237502e-06 0.000719213471073904 0.00106766140850009)
(3.92740121878884e-05 0.000585850067606753 0.00087440515843267)
(9.26850103253202e-05 0.000458771283721524 0.000668689662413106)
(0.000170484828699063 0.000336494104438334 0.000433836155874364)
(0.000279679458341534 0.00021706573089488 0.000124707787246939)
(0.00045253135890147 0.000103562586613894 -0.000361378355512078)
(4.1346907494555e-06 0.000939558114802032 0.00128527416038243)
(2.62605547044762e-05 0.000801047220564848 0.00110391664681385)
(6.97463502419164e-05 0.000663144800238287 0.000904511856325632)
(0.00013787018358117 0.000523095140271678 0.00068069952111533)
(0.000232713063339266 0.000380002889584727 0.000415189235363179)
(0.000367573969886458 0.000237149480759903 6.75262733281307e-05)
(0.000578591969484872 0.000110836866629037 -0.00046892264661109)
(-6.10151446988948e-09 0.00118159917350772 0.00149156742641015)
(1.25479177453139e-05 0.0010421329829774 0.00132927210464285)
(4.48217472460183e-05 0.000897884744758817 0.00114425028648939)
(0.000102326170584665 0.000742327568466026 0.000927556398463738)
(0.000187890333046355 0.000576370601514298 0.00067605041125262)
(0.000306784571753506 0.000404221658147589 0.000380543011462829)
(0.00047503532225649 0.000237329143099399 -2.26458863299503e-06)
(0.000735955628204888 9.95149302452322e-05 -0.00057463133323334)
(0.000135528840464295 0.000812702269972325 0.00093570305100087)
(0.000242999239378248 0.00061425139002715 0.000660004834554064)
(0.000391287610087902 0.000411990325780315 0.000340714949669081)
(0.000596258019166412 0.000223334064980655 -6.45527348687139e-05)
(0.000907024430714757 7.48599231352281e-05 -0.000648804329565403)
(0.000168707528086367 0.000866982256193462 0.000924565099428192)
(0.000300016067739232 0.000637656545049224 0.000635829028635893)
(0.000477124801587799 0.00040950933282944 0.000306074025847972)
(0.000716367809671894 0.00020449553763915 -0.000104941118640431)
(0.000282245277898641 0.000228857338499269 -0.00285108957542598)
(0.000160598325327645 3.24916102903655e-05 -0.00154691012744607)
(8.86332981632565e-05 -6.47741597411624e-05 -0.000978690553391744)
(6.90888146242299e-06 -9.12998898722339e-05 -0.000420712099847424)
(-1.41174188012891e-05 -0.000230101619580881 -0.000145638966229064)
(4.51722891174751e-07 -0.000196746245998529 -0.000517522728768492)
(7.803201755089e-05 -0.000138541192920667 -0.00091764199624973)
(0.000115629693887453 -0.000124985969143438 -0.0014935728701004)
(2.105784751832e-06 -0.000378801541151601 -3.8950343168115e-05)
(3.937529555276e-05 -0.000302566744155418 -0.000164602517853753)
(9.75031801836754e-05 -0.000270174879400621 -0.00034818903832418)
(0.00166972978888298 -1.61801326283195e-05 -0.00152357669077246)
(0.00139348137273083 3.41319169510551e-07 -0.00141484706085487)
(0.00106915038870336 5.09014783552758e-05 -0.000684314477843665)
(0.00114093688240332 2.73463247324034e-05 -0.00130695062368145)
(0.000898082746293556 4.47328362419474e-05 -0.00113952433085542)
(0.000683985556382566 4.68078470978892e-05 -0.000947415183661845)
(0.000525908238345013 2.3274449142939e-05 -0.000750785081706249)
(0.000425557664748199 -3.67934979298611e-05 -0.000557700392810402)
(0.000370488886134678 -0.000159923037516982 -0.000422247727738338)
(0.000209825601849364 -0.000417291270854131 -0.000673992509343103)
(4.11772588729622e-05 -0.00022431425687683 2.58169273974377e-05)
(2.49020522365446e-05 -2.62493703597612e-05 0.000191301268309986)
(9.9417427959902e-05 -0.000207816764049363 -2.79534488457834e-05)
(2.03186946689843e-05 0.000138431503610564 0.000377510048986851)
(8.28098876103336e-05 1.15898317565429e-06 0.000177596973452598)
(0.000174847919098269 -0.000140187712895134 -7.82287598225886e-05)
(1.56987892809624e-05 0.000294407963546177 0.000570448565335836)
(6.54656688194211e-05 0.000172004132183119 0.000380642249141784)
(0.000147150666046252 5.72048726873427e-05 0.000166742846263183)
(0.000293615562159328 -5.82880189425396e-05 -0.000140330422978189)
(1.18451436139514e-05 0.000457424026137993 0.00077222282759066)
(5.10467029938748e-05 0.000335321593501638 0.000586469947174596)
(0.000115253350826854 0.000223182621383507 0.000389139833635956)
(0.000209976655307646 0.000122476459106226 0.000140242044080332)
(0.000367161524975815 2.5763866868671e-05 -0.00025909124248178)
(8.21501130156928e-06 0.000635778786499645 0.000979145828368208)
(3.86601171832635e-05 0.000509061197365111 0.00079760345625109)
(9.07560153506445e-05 0.000389832773833739 0.000605632236669915)
(0.000167345084953727 0.000277427530944427 0.0003872028148654)
(0.000275095367321109 0.00017044259825443 9.82554519883594e-05)
(0.000440744835611935 7.25540080569929e-05 -0.000355230332009435)
(4.56110063222734e-06 0.000833362036270688 0.00118563119578655)
(2.66506581829089e-05 0.00070174881843191 0.00101249041678186)
(6.87583576637841e-05 0.000573375200110209 0.000824519570444898)
(0.000134019463888527 0.000445853503360133 0.000614710960471801)
(0.000223919959733739 0.00031843726073586 0.000366879250577606)
(0.000350517378541636 0.000194204374463145 4.224633874497e-05)
(0.000542616533273653 8.6019222867292e-05 -0.000460360456650481)
(8.29984507224015e-07 0.00105083095560531 0.00138413760137338)
(1.42886074721141e-05 0.000916699437047723 0.00122590804132803)
(4.62857203072848e-05 0.000781001490490494 0.00104682991303527)
(0.000101333845992313 0.000638993508391073 0.000841313368930523)
(0.000181102026791242 0.000491588973118726 0.0006059769025405)
(0.000290002683838834 0.000341035981009511 0.000328986353175915)
(0.000442224772913234 0.000197094265283023 -2.95119357128443e-05)
(0.000674541197300544 8.06415152543597e-05 -0.000569266084307198)
(-2.93521487712734e-06 0.0012856781076159 0.00156597650664709)
(1.56732597919063e-06 0.00115337690476208 0.00142939840424706)
(2.26148293051475e-05 0.00101452961718726 0.00126622853751378)
(6.57375904453906e-05 0.000862651701908897 0.00107241017902645)
(0.000135171886362023 0.000696715662777275 0.000843028502618766)
(0.000233787429668992 0.000521755383454703 0.000581335904628256)
(0.000367130883143935 0.00034653909721909 0.000279184344848344)
(0.000549546048135084 0.000184935370668245 -0.000106001138220688)
(0.000824582269648724 6.14277107527851e-05 -0.000667189291736468)
(0.000169596941585772 0.000741174512110687 0.000830556653536403)
(0.000290468314892556 0.000537371292357702 0.000548820432429027)
(0.000450335652424244 0.000337903314523405 0.000228715068756914)
(0.000663371523817319 0.000161344691817927 -0.000170604750553425)
(0.000972850703946095 3.14082944087563e-05 -0.000734055825509567)
(0.000203661032152628 0.000769051127195262 0.000801840845473834)
(0.000346514146061297 0.000539681774353693 0.000511207526755511)
(0.000530410046151428 0.000320186584900002 0.000185441086745292)
(0.00076863079094719 0.000132434230550013 -0.000214425904582873)
(0.000179981494715439 0.0001187075819806 -0.00296882885588211)
(7.11087690707787e-05 -4.09053323223565e-05 -0.00148242322125738)
(-7.59122781207063e-06 -0.00011014700760715 -0.000872688593317111)
(-2.26189133976817e-05 -0.000118161975110309 -0.000318181934160079)
(-5.23154403081031e-05 -0.000310936934229607 -0.000136661680947025)
(-7.46545737271239e-05 -0.000286795813476914 -0.000439234688083178)
(-7.78498050038701e-06 -0.000218775102204402 -0.000843124219077626)
(-6.61337017350983e-07 -0.000222448210838263 -0.0015317028606022)
(-0.000111437123854407 -0.000651278312605014 -0.000104722852295944)
(2.40321840743304e-05 -0.000449446491996987 -0.000201070935176096)
(6.65396883248595e-05 -0.00039789707417625 -0.000332977343529875)
(0.00169148969038686 -4.42267317559932e-05 -0.0015762993966608)
(0.0014566334122147 -2.38512728480834e-05 -0.00147695296504714)
(0.00110675630219193 8.557913177735e-07 -0.000768312694211926)
(0.0012391800007942 6.14359608339231e-07 -0.00138375014304712)
(0.00101786214628738 2.22398482997622e-05 -0.00123798753627408)
(0.000809336224682683 3.32447708807992e-05 -0.00106175125765446)