/*--------------------------------*- C++ -*----------------------------------*\
  =========                 |
  \\      /  F ield         | OpenFOAM: The Open Source CFD Toolbox
   \\    /   O peration     | Website:  https://openfoam.org
    \\  /    A nd           | Version:  12
     \\/     M anipulation  |
\*---------------------------------------------------------------------------*/
/*   Windows 32 and 64 bit porting by blueCAPE: http://www.bluecape.com.pt   *\
|  Based on Windows porting (2.0.x v4) by Symscape: http://www.symscape.com   |
\*---------------------------------------------------------------------------*/
FoamFile
{
    format      ascii;
    class       volVectorField;
    location    "0";
    object      U;
}
// * * * * * * * * * * * * * * * * * * * * * * * * * * * * * * * * * * * * * //

dimensions      [0 1 -1 0 0 0 0];

internalField   nonuniform List<vector> 
10228
(
(-6.00616823338918e-07 -5.61924391491555e-06 6.83433696041793e-06)
(-1.73939519289707e-06 -5.47907495606206e-06 6.5663106197954e-06)
(-5.81283181765086e-07 -5.29672024453614e-06 2.02972444631011e-05)
(-6.34755278518344e-07 -1.67893860606399e-05 6.55155233267424e-06)
(-1.76196630171882e-06 -1.67681310278257e-05 6.67615441097928e-06)
(-2.88432047996043e-06 -5.6069011861548e-06 6.72509808534202e-06)
(-1.79001736023695e-06 -5.47517010737242e-06 2.01661883094098e-05)
(-9.14369052860656e-07 -5.43103842242739e-06 3.44798677221042e-05)
(-6.68224684195662e-07 -1.66279157010275e-05 2.04296362423189e-05)
(-4.96045432829167e-07 -2.87132684784838e-05 6.88557034671745e-06)
(-1.83154561460895e-06 -1.6685781781222e-05 2.03088205613762e-05)
(-2.91983017947694e-06 -1.67771969882662e-05 6.76547302255548e-06)
(-1.70021590451809e-06 -2.87553414975657e-05 6.79835132507918e-06)
(-4.08319286394614e-06 -5.48237268325876e-06 6.4891994641373e-06)
(-2.91717246255998e-06 -5.57092780593054e-06 2.01460477904503e-05)
(-2.05793975251622e-06 -5.50083797800682e-06 3.43759788829371e-05)
(-7.18139313056953e-07 -4.76630568148112e-06 4.92722594851196e-05)
(-6.44073685617935e-07 -1.63521200327642e-05 3.49475475464136e-05)
(-6.66291885658587e-07 -2.86928759072086e-05 2.06787220263324e-05)
(-6.56901562750882e-07 -4.15684794112551e-05 6.49280806778942e-06)
(-1.82399588870384e-06 -2.87004263225416e-05 2.05338846775179e-05)
(-1.79319529240892e-06 -1.65740213941361e-05 3.46990230195214e-05)
(-2.91453410928492e-06 -1.67390629907155e-05 2.03869237147619e-05)
(-4.13294035394317e-06 -1.67556624311352e-05 6.7959313441255e-06)
(-2.90992958686395e-06 -2.87106128132275e-05 6.8807568455037e-06)
(-1.7244191079642e-06 -4.15834699560095e-05 6.77357578687771e-06)
(-5.28151770272824e-06 -5.69800802673447e-06 6.79263794731384e-06)
(-4.07441089782e-06 -5.62153280454771e-06 2.01440743830113e-05)
(-3.01905842552996e-06 -5.56162899551521e-06 3.43565015607479e-05)
(-2.10768299267912e-06 -5.2694534642191e-06 4.92209705057286e-05)
(-9.96522075711564e-07 -4.82495641815336e-06 6.42755462385581e-05)
(-3.74148409255086e-07 -1.56768922875199e-05 4.98532322738767e-05)
(-5.30378299937594e-07 -2.84176298814525e-05 3.53964225935479e-05)
(-7.09478965468961e-07 -4.15950846172994e-05 2.06860234300384e-05)
(-5.06958831807308e-07 -5.52151343730127e-05 6.82313020556093e-06)
(-1.58570774972353e-06 -2.85034259532067e-05 3.51083626198181e-05)
(-2.91611519993444e-06 -2.87066002682799e-05 2.06763524183293e-05)
(-1.81972129679663e-06 -4.16032573029764e-05 2.07440744747272e-05)
(-2.89430664601482e-06 -1.67110218872047e-05 3.47022165965203e-05)
(-1.32332921114157e-06 -1.62884044690932e-05 4.97131183534894e-05)
(-4.07959399933423e-06 -1.68197111337725e-05 2.05341427424639e-05)
(-5.40301898995168e-06 -1.6869746446028e-05 6.8777037221844e-06)
(-4.16488289118014e-06 -2.86526344689545e-05 6.97604647317268e-06)
(-2.86004347879121e-06 -4.14833939759172e-05 6.94646822540919e-06)
(-1.58954276609523e-06 -5.52017006980307e-05 6.85931267886734e-06)
(-6.33910932202092e-06 -5.64474862061899e-06 6.58709883998794e-06)
(-5.25808236836765e-06 -5.70743976833138e-06 2.02718100034893e-05)
(-4.09789814090404e-06 -5.6305744013969e-06 3.44571784317767e-05)
(-3.08263908559373e-06 -5.52551836188555e-06 4.92714267242208e-05)
(-2.3097388336761e-06 -5.19555458148216e-06 6.43540250253799e-05)
(-8.21949910930904e-07 -4.50436644445306e-06 7.92259411073807e-05)
(-2.39848093202447e-07 -1.52743398174756e-05 6.47613746797992e-05)
(-1.86382099127343e-07 -2.78697573811263e-05 5.04638111268099e-05)
(-6.39459206581814e-07 -4.14476397140222e-05 3.56745399034661e-05)
(-6.6960387020338e-07 -5.52254838568249e-05 2.08396421006971e-05)
(-5.70606243591373e-07 -6.94801067090329e-05 6.66235543276924e-06)
(-2.76236129526806e-06 -2.85805625959424e-05 3.51520313837864e-05)
(-9.01797615354803e-07 -2.81843015222183e-05 5.03071065312237e-05)
(-1.75840537775251e-06 -4.13981806006127e-05 3.55028869223394e-05)
(-2.88248794739322e-06 -4.15640166233834e-05 2.09909231877635e-05)
(-4.11218018667422e-06 -2.87293700763831e-05 2.09253710677798e-05)
(-1.72710593721185e-06 -5.52505937375761e-05 2.09860805171927e-05)
(-4.01226648247233e-06 -1.68130244405455e-05 3.48938977186383e-05)
(-2.51747074750779e-06 -1.66423082309969e-05 4.96633060944897e-05)
(-1.02997110751553e-06 -1.60259830814166e-05 6.48830430738458e-05)
(-5.3299641755968e-06 -1.69310042418014e-05 2.06190893363645e-05)
(-6.67182042147123e-06 -1.71036389965982e-05 6.88494307481757e-06)
(-5.58256459459383e-06 -2.86321327523867e-05 7.01733334097349e-06)
(-4.09467084210881e-06 -4.1322304324667e-05 7.0506813823264e-06)
(-2.71013675252995e-06 -5.50503540456363e-05 6.97719206336232e-06)
(-1.51487060901872e-06 -6.94571371517588e-05 6.87623975589986e-06)
(-6.8497900247594e-06 -6.11607459555955e-06 6.89141245953052e-06)
(-6.26257394217122e-06 -5.79445563436221e-06 2.02327587012635e-05)
(-5.28006236395335e-06 -5.71859558068761e-06 3.46012825918943e-05)
(-4.05379215819507e-06 -5.57189396880377e-06 4.94892038248903e-05)
(-3.057378426015e-06 -5.3816379943088e-06 6.4485537754949e-05)
(-2.20418520834734e-06 -5.02333323847685e-06 7.94380076276368e-05)
(-9.20651453259183e-07 -4.59062144096496e-06 9.40193769339197e-05)
(-1.67418291163258e-07 -1.49018843271553e-05 7.95185956921076e-05)
(7.6235690142996e-08 -2.73396773299003e-05 6.53452404601291e-05)
(-2.63084938280184e-07 -4.09708319138769e-05 5.09597742315772e-05)
(-7.91097743966463e-07 -5.50597125894019e-05 3.59036395026311e-05)
(-6.71042597090977e-07 -6.94152070656784e-05 2.09718931708048e-05)
(-4.82109452364736e-07 -8.42602721084678e-05 6.91835993086592e-06)
(-2.06772536210204e-06 -2.83707530116879e-05 5.03213958922039e-05)
(-2.84163013248626e-06 -4.13897923600327e-05 3.56375025242653e-05)
(-4.01233376996236e-06 -2.86578180063756e-05 3.54333634361714e-05)
(-1.03403208597132e-06 -4.10635662225572e-05 5.08753859377081e-05)
(-3.96134017879612e-07 -2.77855666507834e-05 6.55574648488303e-05)
(-1.94254233490089e-06 -5.50285073076965e-05 3.58964419607984e-05)
(-2.76804762224064e-06 -5.51958331432313e-05 2.12649093464482e-05)
(-4.06313605546778e-06 -4.14918242111366e-05 2.12702112998961e-05)
(-5.50506146147557e-06 -2.87427504379861e-05 2.10265535653067e-05)
(-1.65432279544881e-06 -6.94702483189148e-05 2.12410142284486e-05)
(-5.29255988603251e-06 -1.696388969369e-05 3.50257313026269e-05)
(-3.82145697014726e-06 -1.67701128475558e-05 4.97659149170341e-05)
(-2.26289471993431e-06 -1.63917894801541e-05 6.49655277329655e-05)
(-9.36559994820419e-07 -1.57124547060175e-05 7.99328303715186e-05)
(-6.4825516979449e-06 -1.71946786228167e-05 2.05332013387747e-05)
(-7.69079592567011e-06 -1.83601608825898e-05 7.35918007163702e-06)
(-7.35293725456012e-06 -2.87650330929618e-05 7.0206691977999e-06)
(-5.56397272517368e-06 -4.10820170437732e-05 7.09464993583658e-06)
(-3.85964427887263e-06 -5.48120753737115e-05 7.06800956836425e-06)
(-2.46819944326461e-06 -6.93031856567651e-05 7.01532207684951e-06)
(-1.39015372978066e-06 -8.42227212058046e-05 7.01724358670693e-06)
(-6.13524527061188e-06 -6.42902986445668e-06 6.78524482487564e-06)
(-6.69942473797263e-06 -5.99630335889884e-06 2.02754557839513e-05)
(-6.33268260724361e-06 -5.8877014766647e-06 3.45638057440685e-05)
(-5.26369965686543e-06 -5.5339441981577e-06 4.9696904067094e-05)
(-3.94781814182646e-06 -5.18207218930825e-06 6.47148759302196e-05)
(-3.00742815381916e-06 -5.22978729681069e-06 7.95562318032923e-05)
(-2.24517714963376e-06 -4.95662053876621e-06 9.42562113619111e-05)
(-7.72879541654955e-07 -4.5679960885751e-06 0.000108464486226273)
(-2.37150145441969e-07 -1.47692059936124e-05 9.4116106287797e-05)
(1.28346554591985e-07 -2.68954751530894e-05 7.99593605652939e-05)
(1.782145130731e-08 -4.03831719871237e-05 6.58968085151647e-05)
(-4.22054132692987e-07 -5.45424054041817e-05 5.14228418763756e-05)
(-8.43865824244258e-07 -6.90905330326513e-05 3.62786573659484e-05)
(-6.47861013314843e-07 -8.40679906999397e-05 2.13742863609931e-05)
(-4.86316707201473e-07 -9.94002505488743e-05 7.03915382355431e-06)
(-1.5381051642954e-06 -2.80055385288667e-05 6.57295459069153e-05)
(-3.55894993039374e-06 -2.84689197053567e-05 5.05174783116193e-05)
(-2.190627652918e-06 -4.11050323560454e-05 5.09529570619942e-05)
(-2.86449387354436e-06 -5.5038017180621e-05 3.61232778276036e-05)
(-3.98570072585974e-06 -4.14198718486895e-05 3.60042487572348e-05)
(-5.47849624004204e-06 -2.87216574485002e-05 3.56555104898502e-05)
(-4.86208170478723e-07 -4.05551260372217e-05 6.62354773916899e-05)
(-1.29944986384154e-06 -5.462945779413e-05 5.14184152229234e-05)
(-2.98826048250264e-07 -2.73342232220204e-05 8.05655752365293e-05)
(-1.93717724561935e-06 -6.92085659179011e-05 3.63494853300236e-05)
(-2.6224744347468e-06 -6.94169678542304e-05 2.15092323428862e-05)
(-3.87074175248824e-06 -5.50481952326231e-05 2.15274442192908e-05)
(-5.47075256054644e-06 -4.12955502065448e-05 2.13792699394258e-05)
(-7.12090550907338e-06 -2.8820453682409e-05 2.08159687558387e-05)
(-1.5712880088951e-06 -8.41404648408206e-05 2.15746439099776e-05)
(-6.68626083545324e-06 -1.73393836519227e-05 3.49460839892596e-05)
(-5.11147665141259e-06 -1.67383247953604e-05 4.99649267009974e-05)
(-3.66445746458209e-06 -1.62429748238461e-05 6.50793631564075e-05)
(-2.15844829318314e-06 -1.6061360746708e-05 8.01999308154269e-05)
(-1.0010451646715e-06 -1.54315625587736e-05 9.46581576089294e-05)
(-6.8321789297925e-06 -1.77791711839654e-05 2.02264628646099e-05)
(-7.95169448907922e-06 -2.00091080922715e-05 7.39824671910507e-06)
(-9.9708887294197e-06 -2.99075033728963e-05 7.07359223467209e-06)
(-7.66339058324557e-06 -4.06950841603036e-05 7.14867007643867e-06)
(-5.04438169753474e-06 -5.44703719558992e-05 7.10216441203588e-06)
(-3.41637395744454e-06 -6.90374569828391e-05 7.09164155357561e-06)
(-2.26113426263787e-06 -8.40938525078191e-05 7.12337429404674e-06)
(-1.32967728825342e-06 -9.9368970595603e-05 7.16448348303954e-06)
(-2.99325364387267e-06 -7.39381117031717e-06 6.8890929323456e-06)
(-6.06090487058582e-06 -6.09100079034394e-06 2.03460666582706e-05)
(-6.73387990505063e-06 -6.2861586194539e-06 3.45077749084864e-05)
(-6.3390693493095e-06 -5.79590529801004e-06 4.96961799411776e-05)
(-5.20839108238445e-06 -5.08625057849443e-06 6.48960691418385e-05)
(-3.85854491739428e-06 -5.06305452716087e-06 7.96500406073554e-05)
(-2.99637184624152e-06 -5.18859141677409e-06 9.43843117593804e-05)
(-2.0143111956231e-06 -4.84947542519352e-06 0.000108641614760159)
(-6.79839375182424e-07 -4.59509332278608e-06 0.000122432418565974)
(-3.02700256137502e-07 -1.46587800774105e-05 0.000108476632046738)
(3.1756980822561e-08 -2.65345556411131e-05 9.44353357609308e-05)
(4.17444857782872e-08 -3.97998438093541e-05 8.04875203281691e-05)
(-1.40439947538037e-07 -5.38325626976638e-05 6.65080527182693e-05)
(-4.85377468556984e-07 -6.84228164161908e-05 5.20516395174589e-05)
(-8.13053110862286e-07 -8.35423768333111e-05 3.69270111286808e-05)
(-6.41559440048903e-07 -9.91233207792156e-05 2.18792034888693e-05)
(-4.44301852754464e-07 -0.000114926548899959 7.25703643474489e-06)
(-1.59569310648654e-06 -4.06271505185113e-05 6.64904882139762e-05)
(-1.42078636636293e-06 -2.75467174646932e-05 8.09280883003942e-05)
(-3.17069508950907e-06 -2.80595644514354e-05 6.59330760459187e-05)
(-3.59725048575456e-06 -4.11108332913883e-05 5.12646948338992e-05)
(-5.19542189387192e-06 -2.84923731417375e-05 5.08414223810213e-05)
(-2.37964509340289e-06 -5.46392933698299e-05 5.15934628503603e-05)
(-2.74005730950496e-06 -6.92274738496691e-05 3.6635970409261e-05)
(-3.85522489036325e-06 -5.49805856081303e-05 3.65319759284263e-05)
(-5.45474925358359e-06 -4.13034138118892e-05 3.62374821239997e-05)
(-7.55558836990698e-06 -2.88963837006001e-05 3.54732800457294e-05)
(-7.48063886243343e-07 -5.39796321890464e-05 6.69469423551027e-05)
(-4.44425686794223e-07 -3.9937181893833e-05 8.12733805449949e-05)
(-1.377583037566e-06 -6.86558470381755e-05 5.20580977793896e-05)
(-4.90370580864264e-07 -2.68595042272079e-05 9.52218607188107e-05)
(-1.84468084583051e-06 -8.37994680113897e-05 3.69349872120362e-05)
(-3.65503592480426e-06 -6.92279134403484e-05 2.17614058564066e-05)
(-2.44262750054417e-06 -8.40823464990931e-05 2.18361417919349e-05)
(-5.04098780175481e-06 -5.47326829697654e-05 2.16182357328441e-05)
(-7.27545749115543e-06 -4.07932005376237e-05 2.11945805064489e-05)
(-8.995194554098e-06 -2.90930343169877e-05 2.00735374991672e-05)
(-1.50149602157307e-06 -9.91837100703548e-05 2.19828701578841e-05)
(-7.86485631774756e-06 -1.89680661841321e-05 3.42325291249955e-05)
(-6.40760771864938e-06 -1.71543435372732e-05 5.00061075264037e-05)
(-4.96525301615314e-06 -1.61026687860225e-05 6.52733515330325e-05)
(-3.55638136728407e-06 -1.59389228960348e-05 8.04504390090721e-05)
(-2.1299426065544e-06 -1.58161558448423e-05 9.50189598369251e-05)
(-1.12457216228923e-06 -1.51029161768188e-05 0.000108960618278672)
(-7.59245303073964e-06 -1.71839227396513e-05 2.03178813426374e-05)
(-4.99165854785632e-06 -2.31533097374266e-05 7.354296015718e-06)
(-1.19879770322449e-05 -3.29402457758114e-05 4.99385092555894e-06)
(-1.13479496547701e-05 -4.03193579320529e-05 7.52661690497251e-06)
(-6.19526515500782e-06 -5.393754017361e-05 7.24159468096109e-06)
(-4.47458132538979e-06 -6.86820204727275e-05 7.13112636158346e-06)
(-3.07899710055776e-06 -8.38129675566225e-05 7.19300388277836e-06)
(-2.13771613804094e-06 -9.92597662643235e-05 7.29448787154973e-06)
(-1.24013838102957e-06 -0.000114875171420063 7.35717693275937e-06)
(-3.10041237611657e-06 -6.96658405354147e-06 2.04330432708382e-05)
(-5.95135130409363e-06 -6.52460177061047e-06 3.44910455975645e-05)
(-6.73443322941424e-06 -6.03460383195386e-06 4.95918935474451e-05)
(-6.41051575043206e-06 -5.26513737864461e-06 6.49800431952698e-05)
(-5.06004105339931e-06 -4.94615153750281e-06 7.97556343987089e-05)
(-3.78232399552086e-06 -5.11407357784286e-06 9.44259536610089e-05)
(-2.86267517273561e-06 -5.0242078183131e-06 0.000108831493557401)
(-1.79003073139954e-06 -4.74998717770458e-06 0.00012256245713321)
(-5.90126485881926e-07 -4.53294709513577e-06 0.000135875947007461)
(-3.5910573593145e-07 -1.450371142496e-05 0.000122474095836143)
(-1.01897576865222e-07 -2.61362066448527e-05 0.000108773697866792)
(-1.05227555053985e-07 -3.9190605216153e-05 9.49792365022077e-05)
(-1.34248842909312e-07 -5.30441049962124e-05 8.12072799361479e-05)
(-1.9484607055586e-07 -6.75376633944096e-05 6.73435667115383e-05)
(-4.20300874657351e-07 -8.26946206889141e-05 5.29482266422492e-05)
(-7.32192556965284e-07 -9.84392879399589e-05 3.7779907879034e-05)
(-6.48204349700416e-07 -0.000114583059629837 2.24848385603186e-05)
(-4.38043778445067e-07 -0.000130842741379914 7.46057376885497e-06)
(-1.78324456267407e-06 -5.4018430657699e-05 6.72834150731003e-05)
(-1.53096325500701e-06 -4.00028580965992e-05 8.17357664550647e-05)
(-3.15816272027814e-06 -4.06257123182303e-05 6.67705239284843e-05)
(-1.59032013153675e-06 -2.70368547505005e-05 9.56992166940799e-05)
(-3.01013539747162e-06 -2.75911604736381e-05 8.12146384769876e-05)
(-4.93105569724734e-06 -2.80160380411212e-05 6.61844273541847e-05)
(-3.59153331463293e-06 -5.4600429966612e-05 5.19957302284049e-05)
(-5.21236336330206e-06 -4.10627058009026e-05 5.16264989078742e-05)
(-7.00081646934817e-06 -2.86739421184999e-05 5.08639084549042e-05)
(-2.354034530573e-06 -6.87031160563277e-05 5.23153640714076e-05)
(-2.57286621799948e-06 -8.37895621916345e-05 3.72235747094672e-05)
(-3.63082522278034e-06 -6.90996787628245e-05 3.70518289020878e-05)
(-5.15804515119626e-06 -5.47039494861706e-05 3.67416148087387e-05)
(-7.59236488534974e-06 -4.09377908709333e-05 3.60052033112041e-05)
(-1.18637466623382e-05 -2.98331740642462e-05 3.48634200836712e-05)
(-8.07081426095813e-07 -6.782380997831e-05 6.78016809903924e-05)
(-7.45753040062741e-07 -5.31625528537273e-05 8.21070777531118e-05)
(-7.44203738841151e-07 -3.92221078471706e-05 9.59531338419964e-05)
(-1.19945048644585e-06 -8.30418534510555e-05 5.29028621562472e-05)
(-7.52326474136063e-07 -2.62961605749559e-05 0.000109495307889404)
(-1.70855009089181e-06 -9.87168083051714e-05 3.76625305484954e-05)
(-4.81433683446103e-06 -6.88746806892424e-05 2.18993867477862e-05)
(-3.36391349429114e-06 -8.3864255253643e-05 2.20815208881824e-05)
(-2.25444190928441e-06 -9.91238405092263e-05 2.22626005845558e-05)
(-5.77336314315462e-06 -5.41303333601071e-05 2.14221001794211e-05)
(-8.67620686337702e-06 -4.08083075383691e-05 2.04842750436811e-05)
(-1.46193246840815e-06 -0.000114605020281955 2.24832480673358e-05)
(-7.96672483274242e-06 -1.97734766898922e-05 3.40361753724027e-05)
(-7.37489631770162e-06 -1.78434876817139e-05 5.00495803019884e-05)
(-6.14446805014636e-06 -1.64062885099844e-05 6.53360746044626e-05)
(-4.86042210628339e-06 -1.57800939294488e-05 8.05899915724115e-05)
(-3.46708389159214e-06 -1.58004119524836e-05 9.53088754083262e-05)
(-2.17579855095955e-06 -1.53770166847223e-05 0.000109310478968414)
(-1.21671481046967e-06 -1.47379247425574e-05 0.000122825918416594)
(-5.51555292673743e-06 -2.19796886430617e-05 2.04544152182041e-05)
(-1.17613824355095e-05 -4.07084344955452e-05 6.28327982038545e-06)
(-1.61937951455462e-05 -4.09025148924287e-05 4.37295016306216e-06)
(-7.86899845069537e-06 -5.28753180878187e-05 7.85676178854984e-06)
(-5.92613176322243e-06 -6.81922119290504e-05 7.25271723672118e-06)
(-3.99582851931786e-06 -8.33807287836008e-05 7.23078122841364e-06)
(-2.8664089926246e-06 -9.9005388927393e-05 7.36040915589881e-06)
(-1.9865001745854e-06 -0.000114767538401286 7.4837498461083e-06)
(-1.17649193619199e-06 -0.000130783921229836 7.55079770923766e-06)
(-2.86412309465355e-06 -7.51321239802454e-06 3.46248199439917e-05)
(-5.89717030270472e-06 -6.39525561763091e-06 4.95227261284395e-05)
(-6.81344864834918e-06 -5.79641283770129e-06 6.48894483628364e-05)
(-6.25238891112773e-06 -5.060083097304e-06 7.98705904398693e-05)
(-4.88286819904146e-06 -4.99675671961001e-06 9.44622708385223e-05)
(-3.70929527187222e-06 -5.03242898690361e-06 0.000108926731604974)
(-2.65896112242098e-06 -4.87310687786503e-06 0.000122743576451285)
(-1.59765331969189e-06 -4.6255797138777e-06 0.000135971001762802)
(-5.28153527450386e-07 -4.42099447676574e-06 0.000148792665675864)
(-3.68594806881155e-07 -1.42166340158098e-05 0.000136005618510112)
(-2.05216295845403e-07 -2.56041513959627e-05 0.000122839560006629)
(-2.77940035622399e-07 -3.84472961886159e-05 0.000109425426164448)
(-3.04823586429005e-07 -5.21492566268074e-05 9.58464010755293e-05)
(-1.91545029000344e-07 -6.6512156560896e-05 8.22225310782593e-05)
(-1.14666024417848e-07 -8.16353109785367e-05 6.84529492398211e-05)
(-2.86095668460769e-07 -9.74635853933757e-05 5.40468011184962e-05)
(-6.29079502622255e-07 -0.000113798932750673 3.87472081976972e-05)
(-6.50944717811815e-07 -0.000130459864548316 2.31325850884973e-05)
(-4.1611466887126e-07 -0.000147207083421637 7.6760530652855e-06)
(-1.76106781944572e-06 -5.31999772660423e-05 8.26513005987903e-05)
(-3.16355610666377e-06 -5.39833778826748e-05 6.76311532152823e-05)
(-1.75266336296444e-06 -6.7909129225637e-05 6.81838676424169e-05)
(-3.06620830578951e-06 -3.99966335918421e-05 8.20855199571072e-05)
(-1.81131301955109e-06 -3.92507094845171e-05 9.65380751886245e-05)
(-4.93946021375561e-06 -4.05846408924678e-05 6.70703903427757e-05)
(-1.82066799969702e-06 -2.64063174349863e-05 0.000109973045142922)
(-3.10471221560597e-06 -2.7086491144578e-05 9.60109916309331e-05)
(-4.74801144355615e-06 -2.7542491074146e-05 8.13554173393027e-05)
(-6.68044231599773e-06 -2.81709544486111e-05 6.62663666663471e-05)
(-3.39743760302597e-06 -6.86408626071594e-05 5.2746716391535e-05)
(-4.99501419579961e-06 -5.43869891119568e-05 5.23557277931593e-05)
(-7.25260349030523e-06 -4.08113812317343e-05 5.16057292245338e-05)
(-8.90363772750899e-06 -2.92535792314796e-05 5.09748900742217e-05)
(-2.07528729288713e-06 -8.31312069608584e-05 5.31564945229931e-05)
(-2.39276051191132e-06 -9.8715798214866e-05 3.79113047037183e-05)
(-3.33500305284427e-06 -8.36188284771526e-05 3.76227160089992e-05)
(-4.76999773154496e-06 -6.87360708090298e-05 3.73113393112273e-05)
(-6.95054283648755e-06 -5.40288411652859e-05 3.64240646961445e-05)
(-1.12256835585293e-05 -3.96504383188861e-05 3.50284995288644e-05)
(-1.36462697600742e-05 -3.27439784633218e-05 3.6290100448734e-05)
(-8.14610757787819e-07 -6.67854465708044e-05 8.31492909847167e-05)
(-6.04999102062533e-07 -8.20020427001348e-05 6.88719694314311e-05)
(-1.10094659454887e-06 -5.21929629122448e-05 9.6914715078464e-05)
(-1.09335143980608e-06 -3.83720939044366e-05 0.000110287908669925)
(-8.85566121822159e-07 -9.77785944551862e-05 5.39614332684973e-05)
(-9.54374090251291e-07 -2.56349292030025e-05 0.000123365013997428)
(-1.49350502259204e-06 -0.000113997668735097 3.85236514741912e-05)
(-4.39566718163815e-06 -8.34540029839407e-05 2.22509213483032e-05)
(-6.11400608195029e-06 -6.83953123385157e-05 2.19344800174844e-05)
(-3.02531345029934e-06 -9.88986967171769e-05 2.25030032748621e-05)
(-2.08308555071767e-06 -0.000114543575607718 2.2738473256868e-05)
(-6.18053045731332e-06 -5.38762865482172e-05 2.10104280508757e-05)
(-1.42126174793959e-06 -0.000130456013786073 2.30460343909319e-05)
(-4.87755774118602e-06 -2.32871105546668e-05 3.43235090912038e-05)
(-7.37895719215553e-06 -1.91830307984357e-05 4.97517042858059e-05)
(-7.12038864461153e-06 -1.7372949333066e-05 6.53703400583649e-05)
(-6.02814231542025e-06 -1.59951309735991e-05 8.06342152649884e-05)
(-4.75754844890016e-06 -1.56559495893322e-05 9.54254260931751e-05)
(-3.39498853064976e-06 -1.54512605406401e-05 0.000109555877534722)
(-2.22857003431606e-06 -1.49209956553639e-05 0.000123121286515726)
(-1.22948849249228e-06 -1.43205025963131e-05 0.000136222797617971)
(-9.92692240250231e-06 -4.03833464433737e-05 2.10214013068578e-05)
(-3.40690226441326e-05 -2.26944132080933e-05 8.43754889076324e-06)
(-1.964487815128e-05 -3.41772919666693e-05 5.17523466227539e-06)
(-1.13287609488163e-05 -5.11496109639763e-05 7.84913348567009e-06)
(-7.91930817554467e-06 -6.70905548452255e-05 7.35444223345435e-06)
(-5.17114324273809e-06 -8.27098275671854e-05 7.27666697053121e-06)
(-3.60716136771731e-06 -9.85367081593736e-05 7.39031228895557e-06)
(-2.6694605224805e-06 -0.000114545784404051 7.57088254810049e-06)
(-1.81682244169655e-06 -0.000130680177752354 7.6771720251361e-06)
(-1.0968017306023e-06 -0.000147160313972677 7.75782733182836e-06)
(-2.86222302077892e-06 -6.80911417091443e-06 4.96187554300693e-05)
(-5.78323510952396e-06 -6.25962259702072e-06 6.48011791014562e-05)
(-6.73350969530116e-06 -5.48594414050024e-06 7.99555310087149e-05)
(-5.99916713983505e-06 -5.09420130867717e-06 9.45750545879653e-05)
(-4.73198988805093e-06 -5.02664149673464e-06 0.000108972545471197)
(-3.55738316274887e-06 -4.86162368835405e-06 0.000122885872917509)
(-2.46828857639723e-06 -4.7146753770082e-06 0.000136122662339721)
(-1.45152151722588e-06 -4.47845432621918e-06 0.0001488606474434)
(-4.82410617334475e-07 -4.26497975685251e-06 0.000161171695509419)
(-3.51432154709738e-07 -1.38121185175175e-05 0.0001490047755195)
(-2.75765956916899e-07 -2.48917454303593e-05 0.000136471743227018)
(-4.25445161159718e-07 -3.74456544369886e-05 0.000123667932290601)
(-5.02647544993048e-07 -5.10615008770604e-05 0.000110543245890852)
(-3.67211304305616e-07 -6.53270060282924e-05 9.70597068447672e-05)
(-1.16043220024339e-07 -8.03586657402775e-05 8.35340113262984e-05)
(-7.93100768633035e-09 -9.62385275977555e-05 6.97858996289237e-05)
(-1.86182033043982e-07 -0.000112730584623281 5.52714886914989e-05)
(-5.38459552831955e-07 -0.000129624724552671 3.97787163173182e-05)
(-6.4427513070513e-07 -0.000146801115543039 2.38012316153429e-05)
(-3.97602000810599e-07 -0.00016409016803131 7.89840367488534e-06)
(-2.11255403549971e-06 -5.22034615840951e-05 9.7582872203811e-05)
(-1.74765815980585e-06 -6.68763647356969e-05 8.3732826082832e-05)
(-3.10403746909694e-06 -5.31574295248425e-05 8.30469147265014e-05)
(-2.98171739467754e-06 -6.78644897508912e-05 6.85694328262187e-05)
(-4.75356704479411e-06 -5.38068732895833e-05 6.79441354512349e-05)
(-1.46593409657851e-06 -8.21427363593797e-05 6.92520217615442e-05)
(-4.80650121401739e-06 -3.99638577624383e-05 8.22262522020574e-05)
(-3.19841505930619e-06 -3.92335994827405e-05 9.68951464495045e-05)
(-2.16164637790785e-06 -3.83450465512837e-05 0.00011086572568462)
(-6.95060800560124e-06 -4.04028883199949e-05 6.71483143713397e-05)
(-2.00724358005088e-06 -2.56741291073301e-05 0.000123761090690539)
(-3.19544776006705e-06 -2.64678851031629e-05 0.000110252882571023)
(-4.72987255582518e-06 -2.70854181078762e-05 9.60861269361281e-05)
(-6.50382008478506e-06 -2.76752748960379e-05 8.14152602943176e-05)
(-8.68961856591204e-06 -2.87827985555206e-05 6.62367030576994e-05)
(-4.59808968616801e-06 -6.82857425408164e-05 5.31327907114893e-05)
(-3.02457034524416e-06 -8.30469361495032e-05 5.35704544306643e-05)
(-6.78477311652385e-06 -5.37864018462287e-05 5.23265592034335e-05)
(-1.00421038889847e-05 -4.04771142991195e-05 5.14508854166227e-05)
(-1.13359711989657e-05 -3.1235375801181e-05 5.04118487028773e-05)
(-1.66880376304198e-06 -9.78860637096525e-05 5.41444253820263e-05)
(-2.14539763398956e-06 -0.000114021702959429 3.87106419125021e-05)
(-3.00207652197647e-06 -9.85110840860922e-05 3.82814468825109e-05)
(-4.28983467636711e-06 -8.321006001517e-05 3.79406645583613e-05)
(-6.20903635880231e-06 -6.80367450512603e-05 3.7277297287525e-05)
(-9.41274440671444e-06 -5.23444514391879e-05 3.54601989335383e-05)
(-1.5700966603913e-05 -4.05567037678024e-05 3.73216041133713e-05)
(-1.16391840385209e-05 -4.04770216002585e-05 3.57376026020578e-05)
(-1.18600669791154e-06 -6.55544957080067e-05 9.81470227705285e-05)
(-6.19442065752402e-07 -8.07404284431101e-05 8.44394779257968e-05)
(-3.28035194813205e-07 -9.65402164957662e-05 7.01582577559027e-05)
(-1.48197536951841e-06 -5.10445905720684e-05 0.00011138260716076)
(-1.35718645244272e-06 -3.73889016174247e-05 0.000124233939276731)
(-6.18141737237534e-07 -0.000112922352760208 5.51717022184422e-05)
(-1.0793606474999e-06 -2.48836606471881e-05 0.000136796149163181)
(-1.28088525418508e-06 -0.000129730272786999 3.94874654727678e-05)
(-3.8687531724015e-06 -9.847142864332e-05 2.2678608294754e-05)
(-5.57376162679796e-06 -8.28323055642504e-05 2.23478669014886e-05)
(-7.84518376832085e-06 -6.73835798295387e-05 2.19765786581196e-05)
(-2.68994731603431e-06 -0.000114327558702755 2.30113781460791e-05)
(-1.92595720956299e-06 -0.000130384409461608 2.32615017023982e-05)
(-9.73887006800822e-06 -5.35051740195806e-05 2.10530315930649e-05)
(-1.36932954402956e-06 -0.000146785233779595 2.36660081114343e-05)
(-4.26955950722215e-06 -2.16329363187279e-05 4.98714071251654e-05)
(-7.17102183378756e-06 -1.88192222650066e-05 6.52523524566659e-05)
(-6.97397716003507e-06 -1.68390460545439e-05 8.05917620858449e-05)
(-5.92523134234249e-06 -1.58510285564635e-05 9.54725099020369e-05)
(-4.6448439611772e-06 -1.54703295998166e-05 0.000109650051064348)
(-3.37289615630909e-06 -1.49663938046307e-05 0.00012330972187055)
(-2.21876023626072e-06 -1.44395514347086e-05 0.000136453527323782)
(-1.17971740869522e-06 -1.38439410573976e-05 0.000149126835261917)
(-4.0214396898858e-05 -1.67041127138856e-05 1.94060406581106e-05)
(-2.55144373777234e-05 -1.28523167478548e-05 7.13936344821946e-06)
(-1.83284660168138e-05 -2.93765894894557e-05 6.8631841875517e-06)
(-1.47570457911819e-05 -4.76302101865623e-05 8.13251418248409e-06)
(-9.81544364539157e-06 -6.50424267062865e-05 7.40151919036798e-06)
(-6.55033638586299e-06 -8.16004532156573e-05 7.33128105915401e-06)
(-4.47516627304809e-06 -9.78376784067647e-05 7.40718908591542e-06)
(-3.32885247635526e-06 -0.00011412194089361 7.58935234128574e-06)
(-2.36681921927772e-06 -0.000130470330722357 7.77228875861029e-06)
(-1.65242632766148e-06 -0.000147061350339813 7.88227999172343e-06)
(-1.02203603665753e-06 -0.000164049635322838 7.97607342832092e-06)
(-2.61755667712375e-06 -6.91194585826091e-06 6.47684892173821e-05)
(-5.76976953997074e-06 -6.07315018228853e-06 7.9965946478856e-05)
(-6.44876368513248e-06 -5.4948327456438e-06 9.47584810073724e-05)
(-5.71002839289318e-06 -5.11480447110556e-06 0.000109087928105635)
(-4.57843959796647e-06 -4.87056496757467e-06 0.000122989164616316)
(-3.39637199899319e-06 -4.70142056967128e-06 0.000136260826112193)
(-2.30895042934129e-06 -4.54006633957389e-06 0.000148982571035769)
(-1.34077134618848e-06 -4.31049816902208e-06 0.000161222864378816)
(-4.48492270611938e-07 -4.08356234387968e-06 0.000173001136532522)
(-3.23057459848202e-07 -1.3316482562873e-05 0.000161445100772317)
(-3.08181532064253e-07 -2.40461077097478e-05 0.000149564743731178)
(-4.29520851893579e-07 -3.62570520947489e-05 0.000137462084964124)
(-5.03376170961396e-07 -4.96464619852096e-05 0.000125007833273853)
(-5.7255999950931e-07 -6.39327878044797e-05 0.000112005809229762)
(-2.93924619280903e-07 -7.88863308352302e-05 9.85746120056526e-05)
(1.99878710144643e-08 -9.47186258104355e-05 8.51103318827669e-05)
(8.19016561818487e-08 -0.000111328740973049 7.1294842295784e-05)
(-1.18559890376272e-07 -0.000128456638424609 5.66084765149493e-05)
(-4.70840990633298e-07 -0.000145933752321191 4.08635347774754e-05)
(-6.25021479013853e-07 -0.000163662398404843 2.44921146675125e-05)
(-3.77872739596195e-07 -0.000181541364303696 8.1340036292437e-06)