/*--------------------------------*- C++ -*----------------------------------*\
  =========                 |
  \\      /  F ield         | OpenFOAM: The Open Source CFD Toolbox
   \\    /   O peration     | Website:  https://openfoam.org
    \\  /    A nd           | Version:  12
     \\/     M anipulation  |
\*---------------------------------------------------------------------------*/
/*   Windows 32 and 64 bit porting by blueCAPE: http://www.bluecape.com.pt   *\
|  Based on Windows porting (2.0.x v4) by Symscape: http://www.symscape.com   |
\*---------------------------------------------------------------------------*/
FoamFile
{
    format      ascii;
    class       volScalarField;
    location    "400";
    object      k;
}
// * * * * * * * * * * * * * * * * * * * * * * * * * * * * * * * * * * * * * //

dimensions      [0 2 -2 0 0 0 0];

internalField   nonuniform List<scalar> 
10068
(
4.93340854719189e-05
4.93958657353615e-05
0.000203623487815223
5.06066655395164e-05
4.93650456928894e-05
0.000203740455334762
5.06732308519389e-05
0.000317028618212652
0.0002040645544682
5.22906978941157e-05
4.9240970017322e-05
0.000203613764781786
5.06425139325109e-05
0.000317117197406149
0.000204187731740502
5.23618409124564e-05
0.000406144069055516
0.000316851529988549
0.000204309400649518
5.28045435552268e-05
4.9023165716136e-05
0.000203243890539092
5.05155780704721e-05
0.000316869284028306
0.00020406208094487
5.23309090815402e-05
0.000406199423223046
0.000316946512343892
0.000204436844888568
5.28791070736368e-05
0.000482300098375379
0.00040564639677587
0.000315401382084217
0.000202855736651246
5.14519829557924e-05
4.87093500390297e-05
0.000202627756496519
5.0292786335409e-05
0.000316281235043801
0.000203690476804116
5.22000387906371e-05
0.000405834837637974
0.000316700328467996
0.000204312391625748
5.28493338330318e-05
0.000482323536512887
0.000405709876640208
0.000315500531625279
0.00020298598052155
5.1527263878187e-05
0.000550185470309309
0.000481444543986466
0.000403099434062649
0.000311829953122545
0.000198766361119936
4.87002618178281e-05
4.82974686066536e-05
0.00020175747875367
4.99720895233943e-05
0.000315344625523465
0.000203071972096525
5.19705842498264e-05
0.000405050291573892
0.000316113147744245
0.000203939954433383
5.27180449918996e-05
0.000481852031131265
0.000405348092922846
0.000315257460112762
0.000202864527102348
5.15000732576152e-05
0.000550178146518995
0.000481477682976951
0.000403168282573191
0.0003119304772227
0.000198897875995691
4.87746081355283e-05
0.000612097943938608
0.000548908372598649
0.000477983973939508
0.000397877226687074
0.000305509427835514
0.00019224461142597
4.52986901686554e-05
4.77854564618047e-05
0.000200626198760631
4.95513190557533e-05
0.000314050002769303
0.000202199764584658
5.16406486700347e-05
0.000403835133198585
0.000315177216895359
0.000203320179102022
5.24873766914609e-05
0.00048088914068601
0.000404565130201153
0.000314673392157572
0.000202495262664518
5.13732328470362e-05
0.000549608038138795
0.000481009910687818
0.000402811392828478
0.00031169194770616
0.000198781575427551
4.87511131148396e-05
0.000612060751068415
0.000548912242024159
0.00047802382530764
0.000397947661794397
0.00030560972417086
0.00019237657176607
4.53711900929033e-05
0.000669380081284761
0.000610459614797554
0.000544578618796958
0.000471357294317222
0.000389627789113133
0.000296508393592625
0.000183978312541512
4.16137715610113e-05
4.7171398327312e-05
0.000199225248190387
4.90279617610926e-05
0.000312385957626997
0.000201066233376641
5.12081002152052e-05
0.000402177183042509
0.000313883010587959
0.000202446986582954
5.21554997997941e-05
0.000479423706448407
0.000403351539371585
0.000313741444533956
0.000201880160357102
5.11493245590295e-05
0.000548481489834701
0.000480049484632397
0.000402033984414267
0.000311115115321904
0.000198421093778833
4.86323264913544e-05
0.000611398698215555
0.000548346847151634
0.00047756261531475
0.000397597212625769
0.000305377778967549
0.000192267640013013
4.53520842773055e-05
0.000669313764735009
0.000610435046972169
0.000544590531045727
0.000471399430461951
0.000389697655396723
0.000296607711398799
0.000184110063253702
4.16839430059702e-05
0.000722924278962845
0.000667498405585764
0.000605387132451875
0.000536701019195356
0.000461393501529788
0.000378480540216961
0.000285254969763655
0.000174436347776838
3.76952042726995e-05
4.64527571419264e-05
0.000197547238536457
4.84008753849968e-05
0.000310341228226658
0.000199663154786944
5.0669856208317e-05
0.000400063269853375
0.000312219850819612
0.000201312663066087
5.17198490705605e-05
0.000477442297981788
0.00040169553664965
0.000312452466474691
0.000201013555538625
5.0826194087151e-05
0.000546787590116103
0.000478586839383527
0.000400827631722323
0.000310193590030034
0.000197819183494628
4.8420987105761e-05
0.000610120538078348
0.000547223922077857
0.000476609872937676
0.000396830373174427
0.000304813612713498
0.000191921009711534
4.52432245903416e-05
0.000668565174251873
0.000609778636452502
0.000544033336964238
0.000470946628855116
0.000389355549751847
0.000296384616033937
0.000184010141632496
4.16694445310105e-05
0.000722829282928763
0.000667446001762506
0.000605371905327809
0.000536716085233461
0.000461435372594436
0.000378548955871498
0.000285352799954328
0.000174567275356474
3.77626444246543e-05
0.000773323359374138
0.000720891225547498
0.00066186076426574
0.000596454393568232
0.000525223387312223
0.000448320823122555
0.000364769884739313
0.000272087772510636
0.000163768603531896
3.3536994937212e-05
4.56280284593395e-05
0.000195581814947783
4.76666523234775e-05
0.000307902991372088
0.00019798204328933
5.00251989182929e-05
0.000397479287407817
0.00031017619021051
0.000199909114028956
5.11783710654447e-05
0.000474930100109586
0.000399584153608221
0.000310796108080473
0.00019988773114632
5.0402182777921e-05
0.000544511869770981
0.000476608911436415
0.00039918103320009
0.000308918494775276
0.000196970299542303
4.81155333597592e-05
0.00060821535902238
0.000545534196228308
0.000475157280858946
0.00039563909453215
0.00030391098314518
0.000191339967656377
4.50475549267139e-05
0.000667145059424958
0.000608505066539226
0.000542920221528072
0.000470007502570388
0.000388604965553984
0.000295838452404526
0.000183681019948504
4.15714792410088e-05
0.000721998371805264
0.000666703777893212
0.0006047251940352
0.000536169231852201
0.00046099292152513
0.00037821743935909
0.000285140540122758
0.000174477475100254
3.77530219867095e-05
0.000773199776031673
0.000720811301967618
0.000661818899968275
0.00059644324787972
0.000525238782167385
0.000448361442667907
0.000364836400735655
0.000272183589650072
0.000163898216678223
3.36013506773432e-05
0.00082093770406027
0.000771187183782228
0.000714831741072659
0.000652080800317368
0.000583683309563178
0.000510446044853739
0.000432458431295878
0.00034874828275321
0.000257167433523076
0.000151993611446106
2.91800684052635e-05
4.46960923808598e-05
0.00019332001229216
4.6823968035454e-05
0.00030505853019122
0.000196013789730538
4.92695787965725e-05
0.000394409626476835
0.000307739719980984
0.000198227715754046
5.05288066511463e-05
0.000471870591943489
0.000397003214509268
0.000308761102278091
0.00019849499603547
4.9874759935265e-05
0.000541638083273987
0.000474100981239582
0.00039708148382557
0.000307279975855152
0.000195867499770103
4.7714135433956e-05
0.000605668162694465
0.000543263742346468
0.000473192331168769
0.000394012431890653
0.000302661398976024
0.000190519573922331
4.4763981846265e-05
0.00066504271432866
0.000606605327539898
0.000541243291435912
0.000468574154025588
0.000387437859062677
0.000294963045111385
0.000183126595436568
4.13930510190194e-05
0.000720444279308836
0.000665288984762082
0.000603463290670458
0.000535072596547887
0.000460073559269913
0.000377488682144767
0.000284616851889367
0.000174168565093449
3.76664648254258e-05
0.000772289910980491
0.000719987361030325
0.000661087620201326
0.000595808644048625
0.000524704315154302
0.000447931649396359
0.000364517701800974
0.000271983812854811
0.000163819504852396
3.3596494064151e-05
0.000820785233561376
0.00077107972824635
0.000714763452161987
0.000652043917125227
0.000583673215346019
0.000510460707978953
0.000432497404978452
0.000348812495993458
0.000257260677086113
0.000152121473665854
2.92405782060184e-05
0.000865956720853392
0.000818717625710672
0.000764791858398191
0.00070436589562733
0.000638222322398802
0.000567419957051209
0.000492692470758583
0.000414019400300411
0.000330555082057479
0.000240562815577081
0.00013912509005751
2.47043740486508e-05
4.36556611107167e-05
0.000190752592577325
4.58714788747759e-05
0.000301793505076475
0.000193748748462108
4.84029202590362e-05
0.000390838052708404
0.000304897098113489
0.000196259051392371
4.97678483711394e-05
0.000468245947889777
0.000393937291123426
0.000306334949913604
0.000196826463418768
4.92413997227242e-05
0.000538148122646397
0.000471046711728069
0.000394514989383612
0.000305266663742263
0.000194502777048983
4.7214371337635e-05
0.000602461445776783
0.000540396454559821
0.000470700577596406
0.000391937992180183
0.000301055067176463
0.000189453082214781
4.43905881460968e-05
0.000662242396982157
0.000604064893400469
0.000538989274521016
0.000466634482221312
0.000385843506886029
0.000293750234327504
0.00018234233405641
4.11332566171419e-05
0.000718156115512093
0.000663192864170412
0.000601578723365473
0.000533418745595373
0.000458669344795411
0.000376354570056631
0.000283775699143433
0.000173644928734919
3.75060950533685e-05
0.000770608114753022
0.000718438998313156
0.000659685943167191
0.000594565719326808
0.000523630752003501
0.000447037928649405
0.00036381578270303
0.000271486320029077
0.000163532875723185
3.35213668089149e-05
0.000819799006990496
0.000770177309551358
0.000713951489957899
0.000651326264890384
0.000583052905259385
0.000509941041264564
0.000432082708487628
0.000348508685243815
0.000257074789164526
0.000152054377364117
2.92397319503016e-05
0.0008657747074947
0.000818582269742014
0.000764697044745733
0.000704303433770294
0.000638187229187643
0.000567409803872749
0.000492706053031889
0.000414056440138966
0.000330616556397209
0.000240652912597955
0.000139250497150111
2.47599736850889e-05
0.000908457681040505
0.000863658884636288
0.000812030720775157
0.000753744502607075
0.000689579447280953
0.000620665987863633
0.000548002228893837
0.000472160082143099
0.000393125022738903
0.000310275614629569
0.000222316436899652
0.000125200952899411
2.02151150039071e-05
4.2505678200155e-05
0.000187869223141867
4.48077721760785e-05
0.000298093223183366
0.000191177297905002
4.7423206920021e-05
0.000386746942183458
0.000301634176957132
0.000193993718891562
4.88949537982169e-05
0.000464036915738738
0.000390370030186803
0.00030350436228125
0.000194872803518596
4.85001473430772e-05
0.000534022012310365
0.000467428275199678
0.000391466366391073
0.000302866308580491
0.000192867344294246
4.66140350882136e-05
0.000598575608600842
0.000536914287577911
0.000467665917485913
0.000389402010877961
0.000299080929612943
0.000188132449471847
4.39253364969181e-05
0.000658725726170368
0.000600866514802947
0.000536142388251427
0.000464174371366018
0.000383809780865033
0.000292190332367125
0.000181321805848857
4.07902796250563e-05
0.00071511774941725
0.000660400334494852
0.000599057667895764
0.000531194872153829
0.000456768407459611
0.000374804552082812
0.000282609033532
0.000172902365118179
3.72712883132607e-05
0.000768143689335025
0.00071615759737984
0.000657606770954475
0.000592707514347309
0.000522010595431867
0.000445672220393965
0.000362722491368315
0.0002706852169132
0.00016304313678962
3.3379534500462e-05
0.000817994940764597
0.000768501633277583
0.00071241733204874
0.000649945616136597
0.00058183600132353
0.000508896759134839
0.000431220077807121
0.000347838131147095
0.000256606783313194
0.000151791365381476
2.91757021837928e-05
0.000864714189739703
0.00081760392968577
0.000763807495256125
0.000703506410823824
0.000637485582433534
0.000566806351798263
0.000492203824357094
0.000413659252924947
0.000330329551689987
0.000240482124548653
0.000139195076069222
2.4762087379634e-05
0.000908245154310128
0.000863494919947757
0.0008119089525251
0.000753656311434522
0.000689519496347286
0.000620631551392185
0.00054799170326879
0.000472172391835088
0.000393159834878928
0.000310333911190706
0.000222402792940836
0.000125322696106013
2.02640608447922e-05
0.000948451875327047
0.000906084386139747
0.00085670300709383
0.000800465146672712
0.00073814191604881
0.000670884045949576
0.00059977334842353
0.000525627874291534
0.000448960018873401
0.000369862390129948
0.000287974027627025
0.000202465259829837
0.000110274189417395
1.5828078657497e-05
4.12462382562822e-05
0.000184659841556873
4.36318154614513e-05
0.000293942761440381
0.000188289325209101
4.63288278317486e-05
0.000382117908584738
0.000297936280311587
0.000191421934376526
4.7907966930177e-05
0.000459223272429761
0.000386283828752606
0.000300255304636523
0.00019262470696708
4.76490141928701e-05
0.000529238201436936
0.000463226470159969
0.00038791922851372
0.000300065763390156
0.000190952169183472
4.59109852187051e-05
0.000593988999656634
0.000532797368311506
0.000464070695564435
0.000386389659174509
0.000296726961604192
0.000186549188802976
4.33659112056576e-05
0.000654471843744392
0.000596990688686557
0.000532684824176777
0.000461178020211722
0.000381323341597327
0.000290272628078367
0.000180057033061514
4.03624987268205e-05
0.000711309963855317
0.000656893226255126
0.000595883266588508
0.000528385569121182
0.000454356945116401
0.000372826781512005
0.000281107533003971
0.000171934649228896
3.69606703153856e-05
0.00076487987379432
0.000713127636112749
0.000654835824149109
0.000590220717223501
0.000519831290170314
0.000443822818004914
0.000361227462159537
0.000269572573164206
0.000162346643580098
3.3170768442092e-05
0.000815362298230481
0.000766044282973466
0.000710154197326318
0.000647895438951563
0.000580015470211087
0.000507320214138441
0.000429901386519419
0.000346792679840505
0.000255850726522842
0.000151337970268908
2.90523454528313e-05
0.000862792527587401
0.00081580627485758
0.000762146935868931
0.000701994968782456
0.000636133499994756
0.00056562205691366
0.00049119466469925
0.000412832844427203
0.000329694573343192
0.000240046439328611
0.000138956397505007
2.47081597430788e-05
0.000907112036565306
0.000862442708816215
0.0008109442976232
0.000752782870636202
0.000688740014425739
0.000619948672998404
0.000547407951783192
0.000471690297331571
0.000392782505036645
0.000310065534276086
0.000222248145744152
0.000125278179804112
2.02673555400158e-05
0.000948207604371078
0.000905890795295585
0.000856553531558232
0.000800350759074267
0.000738056936737734
0.000670825477114855
0.000599739305855506
0.000525616864247349
0.00044897088333477
0.00036989469486838
0.000288028733143144
0.000202547225951545
0.000110390557842596
1.58703175263877e-05
0.000985915113473683
0.000946005332742707
0.000898873898842868
0.000844659290191308
0.00078412384608389
0.000718424108293861
0.000648669164450745
0.000575753543370336
0.000500405554821159
0.000423177910948252
0.000344306110027481
0.000263700707649676
0.000181037016660285
9.43840063025782e-05
1.16430654081526e-05
3.98781111443641e-05
0.000181115165086483
4.23438789104671e-05
0.000289326882878972
0.000185074881712606
4.51188948002229e-05
0.000376931925373377
0.000293788396888544
0.000188533615163778
4.68052486316614e-05
0.000453783737525385
0.000381660278943164
0.000296573179729918
0.00019007237885599
4.66863890429054e-05
0.000523774013703578
0.000458421053180396
0.000383856050320329
0.000296851156447575
0.000188747926372972
4.51031693447523e-05
0.000588678190347191
0.000528024240460037
0.00045989589251155
0.000382884585522424
0.000293980261115655
0.000184694455218957
4.27103185280515e-05
0.0006494576019092
0.000592415834747487
0.000528596937880565
0.00045762807171288
0.000378369490413338
0.000287985405023049
0.000178539864811496
3.98475375777708e-05
0.000706710810044557
0.000652650792310873
0.0005920362858157
0.000524973372633225
0.000451419509974603
0.000370408346410029
0.000279260817609586
0.000170734256441141
3.65724774745368e-05
0.000760796803070079
0.000709330141722458
0.00065135534731245
0.000587088894933911
0.00051707777841361
0.000441476227916381
0.000359319257004082
0.000268139494467855
0.00016143750087688
3.28938826342895e-05
0.000811884027901887
0.000762789293818202
0.000707147417273436
0.000645162022878365
0.000577578273430478
0.000505199022346027
0.000428115118005198
0.000345362191100397
0.000254799057150019
0.000150691269690225
2.88699360535036e-05
0.000859999013270351
0.000813181035869
0.000759708883861164
0.000699762954166581
0.000634124373313236
0.000563849708093363
0.000489670837970917
0.000411569073630504
0.000328703464527593
0.000239339946380883
0.00013854105131549
2.46027668692241e-05
0.000905077030553862
0.000860527749758524
0.000809162565306175
0.000751146490332527
0.000687259356075582
0.000618632187781847
0.000546262503961313
0.000470721879073311
0.000391997245798937
0.000309470092352666
0.000221847253026826
0.000125063676183688
2.02224645173701e-05
0.000947003292158855
0.000904766390195184
0.000855515781865406
0.000799403295597334
0.000737202442928949
0.00067006652839636
0.000599078264432574
0.000525055764733539
0.000448511608651273
0.000369539513258441
0.000287780748187819
0.000202409561061855
0.000110355070840379
1.5874882489123e-05
0.000985637478320319
0.000945780812548204
0.000898695660290288
0.000844517929567623
0.00078401335835518
0.000718341238179915
0.000648611781410886
0.000575719865140401
0.000500393983453769
0.000423187184340408
0.000344335676215585
0.000263751514172201
0.000181114061812485
9.4494516618923e-05
1.16800146379827e-05
0.00102080553119693
0.000983398326149732
0.000938552878097669
0.000886381460178623
0.000827635514628221
0.000763471941688726
0.000695007899402722
0.000623159757845651
0.00054871839122861
0.000472419997685189
0.000394892181898286
0.000316517400661612
0.000237486765254003
0.000158032407160654
7.75245766378034e-05
7.74066718127196e-06
3.84023827621767e-05
0.000177225814954994
4.094438266634e-05
0.000284230790680061
0.000181524478740158
4.37933560467066e-05
0.000371170283404311
0.000289175415133903
0.000185318854512988
4.55859217776108e-05
0.000447696264346761
0.000376480523329497
0.000292443036642665
0.00018720582533103
4.56106867800391e-05
0.000517605609264655
0.00045299073974016
0.000379258597664884
0.000293208056149037
0.000186245024253987
4.41892800217542e-05
0.000582618275773876
0.000522572161549324
0.000455121456129319
0.000378869554341828
0.000290827217273399
0.000182559101192544
4.19564693997504e-05
0.000643657881079495
0.000587118575152723
0.000523857474816491
0.000453505910089122
0.000374932266574179
0.000285316094755493
0.000176761727138291
3.92436888541401e-05
0.000701295820475994
0.000647649965236189
0.00058749538661709
0.000520938984562499
0.000447939153224438
0.000367534780447362
0.000277057562323525
0.000169293361398874
3.61047576119872e-05
0.000755871547465157
0.000704743284648295
0.000647144885655103
0.000583293196026354
0.000513732994350899
0.000438617397312954
0.000356985199346599
0.000266376026975721
0.000160308628683459
3.25473389608299e-05
0.000807539530686202
0.000758716991855734
0.000703378460430199
0.000641728068874682
0.000574508361867935
0.000502518461105153
0.000425848110774153
0.000343535670478693
0.000253443327293688
0.000149845784730537
2.86275190658457e-05
0.000856316247655979
0.000809711911713081
0.000756478319699761
0.000696796313033158
0.000631444787701303
0.000561476445689
0.000487620153659662
0.000409856661051791
0.00032734643525744
0.000238355609259973
0.000137946983113091
2.44466768738232e-05
0.000902129462297777
0.000857741925903861
0.000806557545073587
0.000748741360102722
0.000685071287013844
0.000616675283453217
0.000544548034846224
0.000469259376620307
0.000390795930458447
0.000308539450164796
0.000221194437722999
0.000124687597842253
2.01346252250408e-05
0.000944858898125028
0.000902738376650401
0.000853617509319282
0.00079764707285716
0.000735598833475915
0.000668624160007921
0.000597804036820199
0.000523955221550658
0.000447589415540205
0.000368800160774177
0.000287228637213857
0.000202045700284538
0.00011016401409925
1.58396860502372e-05
0.00098436314063267
0.00094458560413472
0.000897586466202285
0.000843498402462846
0.000783086160489846
0.000717508925471686
0.000647876677348333
0.000575083861674818
0.00049985850849058
0.000422753382960694
0.000344004901595254
0.000263525693336614
0.000180994213647165
9.44684814336541e-05
1.16877664193802e-05
0.00102049275546117
0.000983141272227886
0.000938344536526042
0.000886212055040279
0.000827498738055154
0.000763364294424569
0.000694927022099195
0.000623103618327123
0.000548685091196406
0.00047240781838915
0.000394899770450036
0.000316544101077187
0.000237533590921999
0.00015810465874511
7.76320567415663e-05
7.7715578293895e-06
0.00105307385637611
0.00101822231164012
0.000975717117447544
0.000925637444289237
0.000868719945890844
0.000806118692682108
0.000738950410696747
0.000668133579864649
0.000594472936045531
0.000518752336301099
0.000441749352742961
0.000364167381689787
0.000286532268771599
0.000209328146260658
0.000133418180759159
5.96661575587026e-05
4.29262806007376e-06
3.68204925841338e-05
0.000172982955379429
3.94341584065106e-05
0.000278640122601614
0.000177628698651812
4.23525369718675e-05
0.000364814228552835
0.000284082489090528
0.00018176800690536
4.4249808856293e-05
0.000440938751035194
0.000370725709840301
0.000287849871234659
0.00018401517420521
4.44209855687286e-05
0.000510708668686775
0.000446913550028302
0.000374108199679536
0.000289121692778568
0.000183433647130275
4.31677664156339e-05
0.000575783276142212
0.000516417417550114
0.000449726131651579
0.000374326607263635
0.000287253679935381
0.000180133806177117
4.11033392689532e-05
0.000637045959008024
0.00058107406698328
0.000518443868600479
0.000448791600664969
0.000370994794539851
0.000282251443017454
0.000174713757065301
3.85487870987038e-05
0.000695038381240708
0.000641865681313997
0.000582237416803296
0.000516261491906627
0.000443897693717686
0.000364190601691869
0.000274485619927119
0.000167603765788636
3.55558477467719e-05
0.000750078467882276
0.000699342684485797
0.000642181628868652
0.000578812661360954
0.000509778074048688
0.000435229927647367
0.000354211342087898
0.000264271316629432
0.000158952648125258
3.21293690031433e-05
0.000802305009966785
0.000753804583768424
0.000698825805685741
0.000637573533127966
0.000570787317893555
0.000499261899793538
0.000423085774365423
0.000341300764714043
0.000251774102041088
0.000148794926786384
2.83240736582832e-05
0.000851723012007955
0.000805378564594438
0.000752436023273746
0.000693076999172738
0.000628077852032281
0.000558486580009945
0.000485028245744223
0.000407682833926978
0.000325612797979655
0.000237085502792752
0.000137169325629726
2.42389433453897e-05
0.000898251666632369
0.000854068620027999
0.00080311391388457
0.00074555312181279
0.000682162068930504
0.000614064729844337
0.000542251879991231
0.000467290844122394
0.000389167564757117
0.000307264232891565
0.000220283267782823
0.000124148673000518
2.00049872133852e-05
0.000941763880484305
0.000899798794516047
0.000850852761996085
0.000795076595473487
0.000733240209143962
0.000666491907431917
0.000595909668492537
0.00052230786607083
0.000446196554544186
0.000367668535553384
0.000286364332053114
0.000201450409689008
0.000109828060209806
1.57700863685944e-05
0.000982113224495171
0.000942448509444819
0.00089557588170775
0.000841626893569202
0.000781364540925507
0.000715946069950302
0.000646479697797211
0.000573858374894742
0.00049880882740054
0.000421882769190252
0.000343316071213839
0.000263020581060664
0.00018066956244211
9.43027259975938e-05
1.16625892216655e-05
0.00101914937031072
0.000981876413577867
0.000937165265008642
0.000885122080208229
0.000826500736932205
0.000762460838709852
0.000694120450942294
0.000622395810293561
0.000548077361236721
0.000471900918053234
0.000394494063660686
0.0003162399994955
0.00023733182562077
0.00015800406850698
7.76193136784655e-05
7.78194267693617e-06
0.00105272392622617
0.00101793088463655
0.000975477057758178
0.000925438646082172
0.000868555812972566
0.000805985497892904
0.000738845577792121
0.00066805484470024
0.000594418141115201
0.000518719454716691
0.000441736562612795
0.000364173275878301
0.00028655616927274
0.000209371394702886
0.000133487124078494
5.97739742922286e-05
4.31726426512785e-06
0.00108266901822581
0.00105042853500047
0.00101032658941834
0.000962403844548537
0.00090737751433256
0.000846395631266575
0.000780570075842581
0.000710812194644173
0.000637922851281998
0.000562692310604432
0.00048592989282999
0.000408453643228991
0.000331034163897785
0.000254336165065869
0.000179179394249099
0.000107203157828405
4.09526566852199e-05
1.67497426643292e-06
3.51365810864245e-05
0.000168377059313724
3.78148105617487e-05
0.000272541111579512
0.00017337807930143
4.07966251449314e-05
0.00035784590977621
0.000278495225862328
0.000177871413428842
4.2797026924576e-05
0.000433489685370392
0.000364377204729545
0.000282778881970379
0.000180490718949159
4.31171305350065e-05
0.000503058409825545
0.000440167472652076
0.000368386107853581
0.000284577228469293
0.000180304057779115
4.20378010449335e-05
0.000568146495383519
0.000509535639780045
0.000443688192032835
0.000369237350340918
0.000283245172161077
0.000177409026696915
4.0149434999241e-05
0.000629593855227
0.000574256348037065
0.000512332723061632
0.00044346424525632
0.000366539500400395
0.000278777676069887
0.000172386960174937
3.77619830564818e-05
0.000687910146416199
0.000635271265326498
0.000576237754997733
0.000510918780758106
0.000439275504606634
0.000360359406960072
0.000271532173931196
0.000165656901450008
3.49237861455112e-05
0.000743389625790875
0.000693101789559125
0.000636440759024794
0.000573624523456334
0.000505192569385324
0.000431295963147649
0.00035098271840339
0.000261813717158257
0.000157361726696979
3.16383693095348e-05
0.000796153781511102
0.000748026521354692
0.000693465345929636
0.000632676010568105
0.000566394656933106
0.000495410969133329
0.00041981226344356
0.000338644117589282
0.000249781086841088
0.000147531741226384
2.7957698693575e-05
0.000846194717048058
0.000800157332417473
0.000747559525506615
0.000688583924019233
0.00062400398393247
0.000554862157317464
0.000481878961923308
0.000405033584599551
0.000323490798330087
0.000235520798018651
0.000136202178776839
2.39789888439483e-05
0.000893421765019585
0.000849486895311564
0.000798811827422859
0.000741563066109512
0.000678514083991564
0.000610784008899515
0.000539358723391839
0.000464802321664435
0.000387099837268972
0.000305634145748927
0.000219106512834181
0.000123442411014682
1.98327659280689e-05
0.000937700139857587
0.000895930742648938
0.000847205942617607
0.000791677234644999
0.000730112543626143
0.000663656218329521
0.000593382122245237
0.000520101282269413
0.000444321374156583
0.00036613398701491
0.000285178795198903
0.000200617977236804
0.000109347016932724
1.56671167720396e-05
0.000978877114965767
0.000939361731112269
0.00089265820338144
0.000838898202213773
0.00077884290581796
0.000713646513998516
0.000644414205892879
0.000572036380170504
0.000497237567605734
0.000420567616352962
0.00034226110361963
0.000262228181414776
0.000180135502893596
9.40100037368899e-05
1.16106831367643e-05
0.00101679751233044
0.000979634036741506
0.000935046322744828
0.000883139463275871
0.000824665557890135
0.000760782265393356
0.000692605884140555
0.000621051125454387
0.000546907010260329
0.000470907946770598
0.000393680244550896
0.000315606181320677
0.000236877350011809
0.000157721152017971
7.7482649611862e-05
7.7672340687587e-06
0.00105131215090459
0.00101659731661095
0.000974228838728647
0.00092427956359228
0.000867488584787142
0.000805012737513003
0.000737969673191389
0.000667277718215522
0.000593741120836446
0.000518143218807997
0.000441261152382883
0.000363798271802514
0.000286281090078966
0.000209195878498233
0.000133408819476412
5.97809710605063e-05
4.33087399520698e-06
0.00108227961689376
0.0010501006517307
0.00101005294452596
0.000962174040696655
0.000907184688640699
0.000846235839172672
0.000780440535971402
0.000710710422793216
0.000637846447376792
0.000562638981003458
0.000485897504250219
0.0004084403011253
0.000331038496296634
0.000254357702258222
0.000179220427538419
0.000107273632681809
4.10648624049506e-05
1.69217562471195e-06
0.00110954154809397
0.00107996629269494
0.00104233343178521
0.000996641192163608
0.00094358279791995
0.000884296632970195
0.000819886577525081
0.000751252119477352
0.000679181586991654
0.000604456968656028
0.000527885740948291
0.000450299900030433
0.000372546380419324
0.000295450135729262
0.000219837819349686
0.000147012214101198
7.95778926210722e-05
2.2115957954512e-05
3.26288331602e-07
3.33586253400541e-05
0.000163403575740448
3.60904651820887e-05
0.000265921739318186
0.000168763681920914
3.91282652093719e-05
0.000350248674767632
0.000272399941739529
0.000173619210889962
4.12275837118833e-05
0.000425328247392513
0.000357417097776878
0.000277215687005155
0.000176622584447274
4.16989724222197e-05
0.000494630623441314
0.00043273091066475
0.000362073821331373
0.000279559994175951
0.000176846583316232
4.07990654101301e-05
0.000559681352996894
0.000501902145592813
0.000436985825317713
0.00036358328212528
0.000278787131269931
0.000174375267099724
3.90939897574688e-05
0.000621273077728158
0.000566638881746869
0.000505499698274892
0.000437502467705141
0.000361548377559733
0.00027488071256291
0.000169772134136379
3.68818560884543e-05
0.000679881525900865
0.000627838857428657
0.000569470674835149
0.000504887662056688
0.000434052170694813
0.000356024103544363
0.000268183925370259
0.0001634441302394
3.42075590700025e-05
0.000735775245077655
0.000685992313738792
0.000629895847871839
0.000567704542944471
0.0004999549428279
0.000426796444180886
0.000347283478643938
0.000258990939461008
0.000155527685120834
3.10726393149229e-05
0.000789056719734075
0.000741354929112531
0.000687270791216374
0.000627011094418024
0.000561308115681171
0.000490945876671915
0.00041601017851401
0.000335551369902347
0.000247453216102946
0.000146048826824664