/*--------------------------------*- C++ -*----------------------------------*\
  =========                 |
  \\      /  F ield         | OpenFOAM: The Open Source CFD Toolbox
   \\    /   O peration     | Website:  https://openfoam.org
    \\  /    A nd           | Version:  12
     \\/     M anipulation  |
\*---------------------------------------------------------------------------*/
/*   Windows 32 and 64 bit porting by blueCAPE: http://www.bluecape.com.pt   *\
|  Based on Windows porting (2.0.x v4) by Symscape: http://www.symscape.com   |
\*---------------------------------------------------------------------------*/
FoamFile
{
    format      ascii;
    class       volScalarField;
    location    "400";
    object      nut;
}
// * * * * * * * * * * * * * * * * * * * * * * * * * * * * * * * * * * * * * //

dimensions      [0 2 -1 0 0 0 0];

internalField   nonuniform List<scalar> 
10068
(
1.99989252115347e-05
2.00239586155587e-05
0.00028505052507293
2.12484315432226e-05
2.00114077051138e-05
0.000285335200077685
2.12762801639522e-05
0.000777733767467246
0.000292112582686591
2.28644676581121e-05
1.99611168100352e-05
0.000285304198713266
2.12633476717612e-05
0.000778326901071878
0.000292419032597697
2.28954705629369e-05
0.001353057254839
0.00078644858173998
0.000301091002400146
2.38275678817419e-05
1.98728523176935e-05
0.00028499180627888
2.12100606305661e-05
0.000778302552680947
0.00029239035213818
2.28819484433262e-05
0.00135391683180258
0.000787064084590057
0.000301418888834
2.38612311448004e-05
0.00193561591640177
0.00135941610120831
0.000796786479564074
0.000306461326339413
2.35238963609145e-05
1.97456427958987e-05
0.000284416281601098
2.11165352418917e-05
0.000777687617583472
0.0002920656868833
2.28247286451402e-05
0.00135383352137777
0.0007870438362177
0.000301393831864281
2.3847807115667e-05
0.00193668825613764
0.00136029658926381
0.000797428439326235
0.000306809915192317
2.35583395372698e-05
0.00248996819927513
0.00193779238811963
0.00136483364361368
0.000801961791982894
0.000304958718074304
2.22762616959016e-05
1.95786522548603e-05
0.000283565116063425
2.09818832750699e-05
0.000776496785559381
0.000291472074791729
2.27244034186022e-05
0.00135284563039156
0.000786423896242931
0.000301057443956574
2.37885684344988e-05
0.00193647719045042
0.00136022028258253
0.000797416896093555
0.000306792122219377
2.35459181255348e-05
0.00249119548026276
0.00193888527566582
0.00136573687560294
0.000802625795289937
0.000305319638044419
2.23102838543732e-05
0.00300163144264468
0.00248768926567318
0.00193556102065813
0.0013637051520071
0.000797364104184227
0.000297639190251771
2.06661250082462e-05
1.93711198935764e-05
0.000282428574495508
2.08051972013952e-05
0.00077472051742608
0.000290601038591705
2.2580141549747e-05
0.00135095080786065
0.000785221607753731
0.000300443865398545
2.36844823649837e-05
0.0019350418880144
0.00135923138733298
0.000796791176706034
0.000306450198795021
2.34879313629369e-05
0.00249080525034466
0.00193868266574583
0.00136567206769174
0.000802626134371093
0.000305309471007614
2.22995461112732e-05
0.00300296060934661
0.00248893790670283
0.00193667344314663
0.00136462317343076
0.000798042205867405
0.000298007039481136
2.06991787760151e-05
0.00346697516597759
0.00299595570493533
0.00247743853058696
0.00192469631973274
0.00135184867492677
0.00078341439770157
0.000287185426738121
1.89597082432046e-05
1.91222166404274e-05
0.000280994076399982
2.05853773912495e-05
0.000772334534477651
0.000289439739691159
2.2391022744011e-05
0.00134812919644138
0.000783427216936569
0.000299547386561556
2.35347293277507e-05
0.0019323713261578
0.00135733027662057
0.000795574335395304
0.000305825661180292
2.33855589371403e-05
0.00248887675523202
0.00193724939351937
0.0013646848418565
0.000802001316651673
0.000304971015749753
2.22452175566718e-05
0.00300235528307935
0.00248855787655725
0.00193648453840068
0.00136457164840484
0.000798055963349062
0.000298006273708593
2.06904924394281e-05
0.00346836387397262
0.00299730836204803
0.00247870546991961
0.00192581590181515
0.00135277259944057
0.000784100255809111
0.000287557596309136
1.8991640510793e-05
0.00388751211311616
0.00345921235257568
0.00297903187664181
0.00245605410041974
0.00190214474865133
0.00132893667841275
0.000762943687474167
0.000275130791501987
1.71722266357907e-05
1.88308918935792e-05
0.000279252972168799
2.03221929310334e-05
0.000769317384340464
0.000287975829658218
2.21555793186232e-05
0.00134435124218772
0.000781019610101052
0.000298354762151724
2.33381634475523e-05
0.00192843721722125
0.00135449850821746
0.000793758804154811
0.000304914803647868
2.32378222176221e-05
0.00248539867346414
0.00193457876059629
0.00136277959643116
0.000800779587270899
0.00030435039081303
2.21485442240271e-05
0.00299991423539248
0.00248663549110786
0.00193505960510443
0.00136359328219647
0.000797442068974329
0.000297678935806667
2.06408567934592e-05
0.00346752142590271
0.00299671560284411
0.00247834179761095
0.00192564095959565
0.00135273529387037
0.000784129206979247
0.000287567777447042
1.89850852214301e-05
0.00388892871453958
0.00346062708905595
0.0029804034423714
0.00245732250080182
0.00190325999182842
0.0013298594135296
0.000763632951874841
0.000275506272533781
1.72029148769111e-05
0.00426651232530008
0.0038784784767982
0.00343740179259888
0.00294822108285916
0.00242144694988676
0.00186733821437035
0.00129676791148783
0.000737919085801982
0.000261705571800112
1.52801731964924e-05
1.84965401734701e-05
0.000277186990934713
2.0013888765179e-05
0.000765639360040814
0.000286198520993325
2.18739198975482e-05
0.00133958273134405
0.000777974912664669
0.000296852411626779
2.30938702532959e-05
0.0019232012870251
0.00135070746362116
0.000791324645873054
0.00030370346141651
2.30439869618123e-05
0.00248033381585263
0.00193064308793248
0.00135993981408075
0.000798955695942941
0.000303444460710216
2.20088170196884e-05
0.00299562517166068
0.00248316324233885
0.00193239603432324
0.00136169510218547
0.000796232415520227
0.00029707434970843
2.05515647990401e-05
0.00346456401793083
0.00299428394145241
0.00247643444619492
0.00192423244764658
0.00135177559141621
0.000783535593735627
0.00028725615082012
1.89404994862313e-05
0.00388783730993336
0.00345979922846006
0.00297983030413682
0.002456974159725
0.00190309815617143
0.00132983750687246
0.000763678780572374
0.000275528416723851
1.7198581490842e-05
0.00426793391040596
0.00387992357997425
0.00343883695955869
0.00294959048942781
0.00242270185995864
0.00186844038494665
0.00129768357405694
0.000738608527132697
0.000262084270217502
1.53094792632964e-05
0.004607440672703
0.00425652862542007
0.00385304610549865
0.00339880008702144
0.00290190574050139
0.00237305671559841
0.00182103287262472
0.00125674541417901
0.000708877105763684
0.000246704187545019
1.32950783141249e-05
1.81187406086317e-05
0.000274786502130581
1.96600527203018e-05
0.000761274293074186
0.000284092858633238
2.15433602463132e-05
0.00133378137475318
0.000774266456187078
0.000295028745948265
2.28008393845932e-05
0.0019166145959314
0.00134592193447534
0.000788247270173993
0.000302179016723952
2.28028679267172e-05
0.00247363349965857
0.00192540409663214
0.00135613780422985
0.000796510339607715
0.000302240896239777
2.18252237812525e-05
0.00298944567453928
0.00247810566496247
0.00192846784421614
0.00135886227302724
0.000794423457196181
0.000296191547521726
2.04221786654e-05
0.00345948072602299
0.0029900062608785
0.00247298023658306
0.00192158946445856
0.0013499016813103
0.000782353985213657
0.000286674952356757
1.88591638790445e-05
0.0038843719788303
0.00345685399187569
0.00297741973996698
0.0024550908577686
0.00190171523620848
0.00132890597635637
0.000763112202800649
0.000275235194850561
1.71591972344753e-05
0.0042665901490898
0.00387884867531411
0.0034380318772014
0.00294903493968982
0.00242236604347229
0.00186829141873307
0.00129767807800537
0.000738672386323236
0.000262119448696315
1.53073262964741e-05
0.00460885025831106
0.00425798081295058
0.00385451333709555
0.00340023076264425
0.002903254274015
0.00237428699694987
0.00182211419928502
0.00125764824520673
0.000709563889263506
0.00024708597866086
1.33226336340194e-05
0.00491349479637903
0.00459657721580045
0.00422811527331972
0.00380793491445078
0.00334180401428261
0.00283957837316437
0.00231092424302924
0.00176375614064809
0.00120924072662609
0.000675632293038027
0.000229943763313736
1.12541730085368e-05
1.76969969215864e-05
0.000272039961343419
1.92601420787178e-05
0.000756190956690913
0.000281645497724455
2.11643968057587e-05
0.00132690161421722
0.000769864896657701
0.000292868272583797
2.24572984765469e-05
0.00190862091390899
0.00134010040383948
0.00078449986259543
0.000300328071387175
2.25132591829944e-05
0.00246523724423934
0.00191881380840672
0.00135133826271337
0.000793418896984069
0.000300725670871158
2.1596616002131e-05
0.00298131633230682
0.00247141425053507
0.00192323739527892
0.00135506790105393
0.000791996812168885
0.000295017773378474
2.02518038794085e-05
0.00345222202781485
0.00298384106778274
0.0024679457766499
0.00191768736252964
0.00134709983007623
0.000780582730275963
0.000285824874768696
1.8740778487238e-05
0.00387852051689518
0.00345178530691362
0.00297316979215047
0.00245167104266716
0.00189911028566111
0.00132707343426043
0.000761970007843609
0.000274681715443678
1.70860999472625e-05
0.00426263034721094
0.00387539675430382
0.00343511271050556
0.00294665582564012
0.00242051560968385
0.00186694300335605
0.00129678219803912
0.000738137312522354
0.0002618459718955
1.52731385080061e-05
0.00460725562052011
0.00425665490779521
0.00385346402508381
0.00339944582492819
0.00290271183764597
0.00237396184442289
0.00182197794076885
0.00125765935458905
0.000709645983257435
0.000247133705340784
1.33222605699281e-05
0.00491487927744194
0.00459801917626607
0.00422959111339453
0.00380939592669002
0.00334320777435115
0.00284089210417578
0.00231211992521073
0.0017648083079458
0.00121012434066452
0.00067631282133265
0.000230326856021844
1.127952287999e-05
0.00518758396817185
0.00490175219869059
0.00456545855053603
0.00417728742807204
0.00374126802093755
0.00326594764304683
0.0027609332542657
0.00223480326485731
0.00169533400885198
0.0011539039933707
0.000637767143404102
0.000211316406101789
9.21022746481549e-06
1.72308244145213e-05
0.000268929209869329
1.88135462703386e-05
0.000750355702256531
0.00027884253337683
2.07360396276313e-05
0.00131889151832976
0.000764738601895627
0.000290357874632598
2.20634059573073e-05
0.00189915522434251
0.00133319652707327
0.000780052199356881
0.000298135321091984
2.21743366285477e-05
0.00245507204635164
0.00191081560811837
0.00134549996754885
0.000789654085774826
0.00029888466655738
2.13220179793744e-05
0.0029711639471984
0.00246302852412563
0.00191665726176043
0.00135027705746023
0.000788927705545196
0.000293538729143931
2.00395732224148e-05
0.00344272012894196
0.00297573000591726
0.00246128334416195
0.00191248931351141
0.00134334403793494
0.000778203695691117
0.000284692988464908
1.8584468795132e-05
0.00387022919067496
0.00344454592687116
0.00296704120081411
0.00244668275040689
0.00189525934769523
0.00132432708147765
0.0007602520238335
0.000273869296493102
1.69790947417287e-05
0.00425604428052594
0.00386956242708726
0.00343007918017898
0.00294245315609794
0.00241714865191156
0.00186439350653297
0.00129500460283456
0.000737041961190884
0.000261322142518079
1.52084798008792e-05
0.00460282081458703
0.00425271017380261
0.00385004196859068
0.00339656481087449
0.00290037341269836
0.00237215277453018
0.0018206716027972
0.00125680439868971
0.000709144653051689
0.000246879774482974
1.3293121407196e-05
0.00491303867992373
0.00459644368282758
0.00422829325141957
0.00380836930179317
0.00334243735331076
0.0028403595417487
0.00231180411117112
0.00176468376702646
0.00121015074141958
0.000676411324089896
0.000230385796176549
1.1280495903171e-05
0.00518893267547139
0.00490317057787228
0.00456692551441623
0.00417875561336075
0.00374269700689392
0.0032673077430935
0.00276219991674062
0.00223595362440447
0.00169634737599952
0.00115476047457691
0.000638435181974811
0.000211698327636525
9.23253760522182e-06
0.00543238872300945
0.0051749712157016
0.00486807089955712
0.00450939866004329
0.00410176260799626
0.00365259091932828
0.00317085114758654
0.00266521892235585
0.00214388623384317
0.00161495207117298
0.0010899110140293
0.000594726304913819
0.000190743509055624
7.22107092543062e-06
1.67202648413313e-05
0.000265437345458317
1.83197691633751e-05
0.000743730409614218
0.000275667461759779
2.02575311472164e-05
0.00130969400643544
0.000758852954891785
0.000287482268527795
2.16180663023335e-05
0.00188814413435315
0.00132515814643461
0.000774872118236979
0.000295587381939076
2.17851829094422e-05
0.00244305326445852
0.00190134437783286
0.0013385759956002
0.000785185297939282
0.000296703737510593
2.1000430619543e-05
0.00295890035219542
0.00245287596427122
0.00190867103455407
0.00134444873341987
0.000785188375147655
0.00029174055278426
1.97843690042152e-05
0.0034308898405204
0.00296560013253585
0.00245293302512994
0.00190594856022486
0.00133859989233069
0.000775192239940426
0.000283265154969994
1.83896094760005e-05
0.00385942186846707
0.00343506873478032
0.0029589768351177
0.00244007922645144
0.00189012640710797
0.00132064162947815
0.000757940573338195
0.00027278524935561
1.68375782844998e-05
0.00424677234312969
0.00386129369442404
0.00342288693120338
0.0029363893577909
0.00241223385728562
0.00186061938706586
0.00129233334554404
0.000735387190601256
0.000260550317229002
1.51133271925436e-05
0.0045955362170354
0.00424614274698659
0.00384424865056494
0.00339158982361884
0.00289623871412112
0.00236885691906724
0.00181819270199252
0.00125509182036166
0.000708100282265018
0.0002463862024519
1.323688491892e-05
0.00490815068213762
0.00459202516512602
0.00422438184615736
0.00380499143038171
0.00333960505820283
0.00283807066506442
0.00231004422732897
0.0017634253980771
0.00120933963215049
0.00067594291005124
0.000230149290615075
1.1255956349644e-05
0.00518685308941316
0.00490135038943523
0.00456538039204844
0.00417748295837895
0.00374168683028508
0.00326654773177672
0.00276167506447661
0.002235645305231
0.0016962320599291
0.00115479857065529
0.000638545303990066
0.000211765258381658
9.23404653912217e-06
0.00543369261059203
0.00517635517340061
0.00486951554694674
0.00451085679428667
0.00410319439711122
0.00365396858727353
0.00317215319090523
0.00266642570866008
0.00214497900675325
0.00161591510175176
0.0010907293968293
0.000595372237805204
0.000191123193198934
7.24034215228389e-06
0.00565038975107321
0.00541894074032408
0.00513885712676997
0.00480713599253448
0.00442568296291736
0.00400106376274714
0.00354158685266915
0.00305552095734756
0.00255110656754291
0.00203678753232033
0.00152119024675914
0.00101595918168499
0.000545694819315395
0.000168053699222535
5.32573016446312e-06
1.6165665847599e-05
0.000261548598898836
1.7779015028081e-05
0.000736273268585135
0.000272103456614248
1.97284768858788e-05
0.00129924372596615
0.000752169447320221
0.000284224834505338
2.11204876924049e-05
0.00187550509704611
0.00131592718768874
0.000768924039869677
0.000292668458433539
2.13451019278644e-05
0.00242908610856889
0.00189032650196939
0.00133051372232798
0.000779979907001172
0.000294168229246787
2.06308932680978e-05
0.00294442243205946
0.00244087238324856
0.00189921365018166
0.00133753565835626
0.000780748391277324
0.000289609188891251
1.94853005230029e-05
0.0034166279305116
0.00295336355046358
0.0024428229503429
0.00189800918483006
0.0013328263716352
0.000771520659287347
0.000281527723789899
1.81550069843695e-05
0.00384600212237589
0.00342326892828767
0.00294890456255938
0.00243180146446966
0.00188366549123884
0.00131598328953403
0.000755011388252119
0.000271416065222369
1.66607586848571e-05
0.00423473144727983
0.00385051533902377
0.00341347022614574
0.00292840858352937
0.00240572541017956
0.00185558541417895
0.00128874398873351
0.000733156173156028
0.000259518344452127
1.49871466951532e-05
0.00458533905013948
0.0042368960636134
0.00383603527886461
0.00338447862836903
0.00289027101296602
0.00236404331270989
0.00181451811551128
0.00125251051295686
0.000706515298370119
0.000245657040649632
1.31537592161366e-05
0.00490020691721591
0.00458476121009986
0.00421786040298559
0.0037992666659867
0.00333471285671731
0.0028340242592227
0.00230683642927598
0.00176102978530168
0.00120769913024887
0.000674950779697046
0.000229684807600477
1.12079165849632e-05
0.00518153544028987
0.00489648007045713
0.00456099850581052
0.00417362151161982
0.00373836581001847
0.0032637743401397
0.00275944443666121
0.00223394147455183
0.00169502571274535
0.00115403131233742
0.000638105924856029
0.000211542042636408
9.21360703375506e-06
0.00543138209001664
0.00517429726242951
0.00486772807928111
0.004509339509893
0.00410194057246268
0.00365297045186838
0.00317140110234274
0.00266590640257305
0.00214467517696425
0.001615804541217
0.00109077246391287
0.000595485863349623
0.000191192975654293
7.24242895219681e-06
0.00565163986235618
0.00542028094737177
0.00514026859602025
0.00480857095363998
0.00442710104513742
0.00400243770856464
0.00354289700137356
0.00305675047994401
0.00255223931207097
0.00203780864682256
0.00152208885563215
0.0010167247879712
0.00054631008059887
0.000168428972085532
5.34262793317691e-06
0.00584386439752797
0.00563616178347887
0.0053805491068184
0.005073380153761
0.00471583093758795
0.00431378881325812
0.00387498395983157
0.00340719657957591
0.00291829052324391
0.00241671394284851
0.00191148153669209
0.00141191184098191
0.000930044027249302
0.000489283916120535
0.000142679013763117
3.53905097925284e-06
1.55674462986448e-05
0.000257244381626153
1.71914104594702e-05
0.000727941352281612
0.000268133639327571
1.91488766368884e-05
0.00128747263422177
0.000744646696535966
0.000280568349810182
2.05702704060589e-05
0.00186114544432509
0.00130543909998139
0.000762169083761372
0.000289361494466792
2.08533105623832e-05
0.00241306112471485
0.00187767908252725
0.00132125459190751
0.000774001883311401
0.000291262690187646
2.02128957244729e-05
0.00292761169391508
0.00242692209035738
0.00188821150667341
0.00132948502375278
0.000775574717060161
0.00028712977162092
1.91413278074054e-05
0.00339981283019216
0.00293891734874359
0.00243086945501852
0.00188860661841521
0.00132597644176567
0.000767158727925115
0.000279466954148065
1.78799297227091e-05
0.00382985226168207
0.00340904365043684
0.00293673729651225
0.00242177853129465
0.00187582145019048
0.00131031137194845
0.000751437175619872
0.000269748367837201
1.64477056795612e-05
0.00421981453024432
0.00383713139283798
0.00340174527970354
0.0029184399236412
0.00239756543923728
0.00184924656920405
0.00128420341088506
0.000730325446248011
0.000258212994020199
1.48292625989069e-05
0.00457213872030081
0.00422488752865242
0.00382532821014466
0.00337516705936212
0.00288241569297167
0.00235766711301824
0.00180961353971686
0.00124903719905109
0.000704374039677758
0.000244680337732194
1.30432898894444e-05
0.00488914126636999
0.00457459167776896
0.00420867618101238
0.00379114872063336
0.00332771967229279
0.00282818412146353
0.00230215017353289
0.00175747438407014
0.00120521940318753
0.00067343967564242
0.000228998222094643
1.11367964871764e-05
0.00517297274340188
0.00488855887193652
0.00455378546826992
0.00416717799682802
0.00373273832104319
0.00325898869923171
0.00275550595983566
0.00223083740292248
0.00169272400953909
0.00115246718341023
0.000637164433643866
0.000211105070148419
9.17357367840708e-06
0.00542565889111254
0.00516899878415974
0.00486289780506633
0.00450501336311662
0.00409814429814426
0.00364971860461611
0.00316869698261803
0.00266374247956959
0.00214303321129467
0.00161465230651219
0.00109004635079986
0.000595069150890161
0.000190977559841493
7.22637435461347e-06
0.00564910683526316
0.00541799336456167
0.00513824583003486
0.00480681417269798
0.00442560544495149
0.00400119850162965
0.0035419086395398
0.00305600441064252
0.00255172278637696
0.00203750495710022
0.00152197643810127
0.00101676316466399
0.000546419310304314
0.000168495372866976
5.34617414432234e-06
0.00584505278227333
0.00563744957392911
0.0053819180835574
0.00507478145126036
0.0047172229306948
0.00431514364159192
0.00387628243929837
0.00340842353510327
0.00291943216633042
0.00241775707650058
0.00191241508537663
0.0014127293039114
0.000930741638257368
0.000489864390775173
0.000143045374767526
3.55317095098163e-06
0.00601487598022674
0.00582892328556333
0.00559567295225512
0.005310877270389
0.00497507267298187
0.00459358195016241
0.00417362612975892
0.00372249456925668
0.00324758286744733
0.00275693936266758
0.00225954803792763
0.00176515599814471
0.00128400722446431
0.000829019765194072
0.000422973732729789
0.000113380543414783
1.93701421148771e-06
1.49261579625602e-05
0.000252504183003903
1.6557304977703e-05
0.000718687125901606
0.000263738556030455
1.85188717131315e-05
0.00127430438175984
0.000736240710254366
0.000276494671008608
1.9967357802557e-05
0.00184496296260123
0.0012936243217312
0.000754565468176568
0.00028564875625885
2.03093598246616e-05
0.00239485691053783
0.00186330946635314
0.00131073410007249
0.000767212007290673
0.000287970049202246
1.97456527084696e-05
0.00290833362184174
0.0024109163833092
0.00187558152511736
0.00132023818949915
0.000769631513643912
0.000284287041803726
1.87521353347571e-05
0.00338030403270827
0.00292214326662136
0.00241697697535534
0.00187766736195771
0.00131799746222625
0.000762073551403952
0.00027706780855147
1.75632700811998e-05
0.00381083288165091
0.0033922716417699
0.00292237290470185
0.00240992766586431
0.0018665305011897
0.00130357941530963
0.000747188184129048
0.000267768696560207
1.61976878142496e-05
0.0042018901944257
0.00382102462996134
0.00338761025215325
0.00290639760515294
0.00238768429421099
0.00184154889237002
0.00127867179490338
0.000726868365016889
0.000256621477719476
1.46388448734375e-05
0.00455581833990439
0.00421001067916549
0.00381203266743091
0.00336357286252691
0.00287260336851767
0.00234967182105899
0.00180343521994485
0.00124463981875069
0.000701653930862199
0.000243443365200187
1.29050810117715e-05
0.00487485658167236
0.00456142695551887
0.00419674826689897
0.00378056581227056
0.00331856289557163
0.00282049694126918
0.00229594179949357
0.00175272614462225
0.00120187859108176
0.000671395069683828
0.000228078300131323
1.10421371599862e-05
0.00516109627974611
0.00487752344090602
0.0045436851589462
0.00415810257518068
0.00372475954885702
0.00325215054852169
0.00274982408731635
0.00222630322527059
0.00168930535095533
0.0011500982610454
0.000635728534782914
0.000210461702922505
9.11450043061993e-06
0.00541651806073651
0.00516046076223327
0.0048550325122901
0.00449788750559562
0.00409181242530525
0.00364421664680853
0.00316404123972659
0.00265993121044834
0.00214004762631853
0.00161245352918798
0.0010885607662706
0.000594176202658799
0.000190564499019467
7.19462033164483e-06
0.0056430027658676
0.00541229102802353
0.00513299096203327
0.00480204558517561
0.00442135306398602
0.00399748240157371
0.00353873870171281
0.00305338026601163
0.00254963380183586
0.00203592979845033
0.00152087895851988
0.00101607400688544
0.000546019942366188
0.000168282821250784
5.33465453957961e-06
0.00584230571805542
0.00563494073687482
0.00537966813859169
0.00507279247436172
0.00471549117926653
0.00431366608627736
0.00387505626442551
0.00340744383717478
0.00291869024859504
0.002417239971947
0.00191210619763732
0.0014126071095236
0.000930766912320923
0.000489965881860666
0.000143103037000621
3.55791724605597e-06
0.00601599498386626
0.00583015057585799
0.00559699095710809
0.00531223599264915
0.00497642884613408
0.00459490638304519
0.00417489902183901
0.0037237011111655
0.00324871065748359
0.00275797697356859
0.00226048493799699
0.00176598469049241
0.00128472595334298
0.000829638204358617
0.000423513855045199
0.000113721892631422
1.94812997738485e-06
0.00616526610139883
0.00599929282905546
0.00578653156574151
0.00552217051442692
0.0052061582835838
0.00484331816443073
0.00444041219845096
0.00400424473750038
0.00354170868339051
0.00306035221925551
0.00256870240286083
0.00207639438466907
0.00159402064665193
0.00113303991245294
0.000708078676658519
0.000342732673558413
7.88255709705844e-05
7.3238801126568e-07
1.42435463365844e-05
0.000247301149235375
1.5877370474964e-05
0.000708456941080429
0.000258894674825122
1.78384386700562e-05
0.00125965700882945
0.000726902731798339
0.000271982700317981
1.93118038322136e-05
0.0018268469388227
0.00128040679616401
0.000746067953514177
0.000281511248139587
1.97132339384245e-05
0.00237433683643184
0.00184711566872737
0.00129888210390874
0.000759567948967771
0.000284272306844501
1.92287754725559e-05
0.0028864350437883
0.00239273345333398
0.00186123133106591
0.00130973073514727
0.000762879601905302
0.000281064266857203
1.83169420448441e-05
0.0033579400788082
0.00290290667917701
0.00240103758671001
0.00186510877419572
0.00130883124365768
0.000756229635499522
0.000274315583895206
1.72047963967844e-05
0.0037887819611203
0.0033728126064893
0.00290569386077078
0.00239615430489204
0.00185571978033854
0.00129573545356072
0.000742231887808985
0.000265462147180885
1.59097119758447e-05
0.00418080202922657
0.00380205606539609
0.00337094492436906
0.00289218088463052
0.00237600057767487
0.00183242957331615
0.0012721036165225
0.000722755775910507
0.00025473040742119
1.44151713449373e-05
0.00453623364819161
0.00419213465420789
0.00379603266182621
0.00334959587200123
0.00286075005482012
0.00233998943398937
0.00179593068951929
0.00123927977163187
0.000698329144156627
0.00024193370559556
1.27381701972208e-05
0.00485722678343547
0.00454515075775841
0.00418197156084159
0.00376742499287742
0.00330716220505568
0.00281089516620103
0.00228815651717155
0.00174674305570569
0.00119764616931356
0.000668795546594521
0.000226913412213053
1.09237437789826e-05
0.00514580226390894
0.00486327775156019
0.00453060994392185
0.00414631647014344
0.00371435961687894
0.00324319895239634
0.0027423470700164
0.00222029681814666
0.00168473840242791
0.00114690438993603
0.000633785536502158
0.00020959991907396
9.03602195034395e-06
0.00540388737566281
0.00514861703653409
0.00484407311301944
0.00448790900744458
0.0040828968842602
0.00363642087428653
0.00315739459566221
0.00265443803688922
0.0021356896122877
0.00160918807223947
0.0010863102781991
0.000592818171217019
0.000189963105350604
7.14763949499698e-06
0.00563332344912924
0.00540317679024322
0.00512451395490488
0.00479427677506524
0.00441435325179067
0.00399129550302593
0.00353339014486984
0.00304887799723952
0.00254596917766413
0.00203307718375804
0.00151879153158152
0.00101466949500671
0.000545174843215254
0.000167891219763732
5.31091538270527e-06
0.0058358441199179
0.00562885888347185
0.00537401308200204
0.00506760542514276
0.00471080524142202
0.00430950546860279
0.00387143593711402
0.00340436932722251
0.0029161573056229
0.00241523430692662
0.00191060273924091
0.00141156529636679
0.000930113648401616
0.000489583368450414
0.000142894495160317
3.55118860551171e-06
0.00601304132941941
0.00582742881184345
0.00559452230054522
0.00531002317604612
0.00497446871680001
0.00459319686902629
0.00417343895227203
0.0037224880719982
0.00324773918938897
0.00275723752586795
0.00225996396004573
0.00176566553333952
0.00128458822993571
0.000829650155485673
0.000423611468864237
0.000113786143425707
1.95426962112057e-06
0.00616630794580456
0.00600045180289654
0.00578779060235913
0.00552347862331113
0.00520747048617262
0.00484460355318299
0.00444164964223911
0.00400541877229133
0.00354280715748405
0.00306136480134031
0.00256961964716488
0.00207720821274816
0.00159472711717524
0.00113364468645081
0.000708613050256199
0.000343242877571712
7.91330876898109e-05
7.39912765272583e-07
0.00629665603020014
0.00614911218342886
0.00595519578304191
0.00570956992371721
0.00541163324494474
0.00506574764956279
0.00467825004644154
0.00425547302601964
0.00380378634122797
0.00333019333082278
0.00284265277538453
0.00235023799097012
0.00186325275573297
0.00139319851279761
0.000953199007355048
0.000561209734579646
0.000244342382358618
4.0071245114019e-05
1.36998651407629e-07
1.35228096544687e-05
0.000241628450969071
1.51533756231289e-05
0.000697199156624167
0.000253577450949583
1.71090275006919e-05
0.00124344058378219
0.000716578272411118
0.000267006799293828
1.86035037968563e-05
0.00180667332353141
0.00126570336822139
0.00073662593484137
0.00027692646878749
1.90648527311283e-05
0.00235134994326885
0.00182898584840817
0.00128562196611262
0.000751023326819067
0.000280149946398479
1.86621600833915e-05
0.00286174552415303
0.00237223709278149
0.00184505909057471
0.00129789231962792
0.000755276364416965
0.000277443550645433
1.78354297566477e-05
0.00333253892301273
0.00288105541313896
0.00238292976744836
0.00185083908727157
0.001298413834388
0.000749588121898763
0.000271193644235331
1.68037932786179e-05
0.00376351312516424
0.00335050589205002
0.0028865663784193
0.00238035140269367
0.00184330765541629
0.00128672212819442
0.000736533344070332
0.000262814104560764
1.55834173760499e-05
0.00415636746547895
0.00378006405738699
0.00335161008929486
0.00287567369933649
0.00236242138213231
0.0018218170753818
0.00126444795809459
0.000717955679134962
0.0002525252092217
1.41573781353735e-05
0.00451321214264438
0.00417110353307674
0.00377719050212854
0.00333311769526801
0.00284675702709869
0.00232854059363882
0.00178703860593019
0.00123291280640686
0.000694371167717614
0.000240138361552436
1.25420063659901e-05
0.00483609560060332
0.00452561939988961
0.00416421663603515
0.00375161230316766
0.00329341972129849
0.00279929707470531
0.0022787284010801
0.00173947434821957
0.00119248502902018
0.000665616210986019
0.000225491260139752
1.07809638578045e-05
0.005126956546032
0.0048456963885204
0.00451444507027118
0.00413171670410708
0.00370144792052671
0.00323205592057201
0.00273300958867073
0.00221276551752439
0.00167898327712661
0.00114285695932128
0.000631315679567699
0.000208509205576999
8.9379244013271e-06
0.00538765853631885
0.00513336560777917
0.00482992581130432
0.00447499266983994
0.00407132114788659
0.00362626348554589
0.00314869811493926
0.00264721315223248
0.00212991904519276
0.00160482685326949
0.00108327716509839
0.000590983452027487
0.000189161703612257