/*--------------------------------*- C++ -*----------------------------------*\
  =========                 |
  \\      /  F ield         | OpenFOAM: The Open Source CFD Toolbox
   \\    /   O peration     | Website:  https://openfoam.org
    \\  /    A nd           | Version:  12
     \\/     M anipulation  |
\*---------------------------------------------------------------------------*/
/*   Windows 32 and 64 bit porting by blueCAPE: http://www.bluecape.com.pt   *\
|  Based on Windows porting (2.0.x v4) by Symscape: http://www.symscape.com   |
\*---------------------------------------------------------------------------*/
FoamFile
{
    format      ascii;
    class       volScalarField;
    location    "400";
    object      omega;
}
// * * * * * * * * * * * * * * * * * * * * * * * * * * * * * * * * * * * * * //

dimensions      [0 0 -1 0 0 0 0];

internalField   nonuniform List<scalar> 
10068
(
2.46683683998502
2.46683818538162
0.714341739111429
2.38166593315721
2.46684523249578
0.714038980396711
2.3816771757778
0.407631289104345
0.698581870699974
2.28698514551086
2.46684443991464
0.713672514109828
2.38168113103689
0.407434455842948
0.698271004888448
2.2869956207504
0.300167688841698
0.40288906019454
0.67856362037014
2.21611134704557
2.46684094122156
0.713156961222268
2.38168004091763
0.407128671153416
0.697909761565707
2.28699532346001
0.300018002348222
0.402694670674719
0.678248286560295
2.21610975363103
0.249171384823057
0.298397522594673
0.395841784685874
0.661929317719452
2.18722197064603
2.46684043373594
0.712433744495365
2.38167794855079
0.406694446320992
0.697413239390577
2.28699493440643
0.29976716577749
0.402392235215213
0.677891748354528
2.2161087422714
0.249045521386488
0.29825104307567
0.395647453822756
0.661601762101833
2.18721968060057
0.220960842178417
0.248450012982889
0.295346935466332
0.38883392730161
0.651781206240205
2.18619544350155
2.46684337501648
0.711503169199919
2.38167798706467
0.40611195228103
0.696711588036795
2.2869944390832
0.299406142485494
0.401962795452233
0.677412097017607
2.21610834368018
0.248829179867173
0.298001800232862
0.395348357499281
0.661244251106572
2.18721873502843
0.220849046523223
0.248327061440812
0.295202018613726
0.388637493403785
0.6514414771013
2.18619397466643
0.203921752431837
0.22064989392882
0.246948543000201
0.291761915030884
0.383149211548816
0.645898180489442
2.19192955382687
2.46684015814959
0.710360837670205
2.38167985509075
0.405371996359019
0.695798492546853
2.28699401889327
0.298926601064101
0.401386326844699
0.676732669619709
2.21610824685199
0.248516139968145
0.297642575040128
0.394925799076295
0.660777064138776
2.1872182804528
0.220654761371948
0.248111730293296
0.294954698392061
0.388340142886563
0.651082243768957
2.1861930674093
0.203819107437972
0.220540753767264
0.246827273332652
0.291617253423836
0.382949325140878
0.645543716353211
2.19193189178483
0.19307322644061
0.203761228442705
0.219815188983896
0.244899566484687
0.28821849393331
0.378482185753211
0.640625517217762
2.19485294959253
2.4668373554342
0.709001594420799
2.38168875067277
0.404469752007492
0.694673902039799
2.28699246124887
0.298322433861773
0.400653696734374
0.675842940600493
2.21610790901664
0.248101231869167
0.29716535932274
0.394358428339778
0.660115176659714
2.18721838962744
0.220373101513245
0.247799527638668
0.294598409891726
0.387923447084599
0.650622792107068
2.18619244192416
0.20363968970004
0.220347234965753
0.246613182726036
0.29137144472447
0.382652085808648
0.645179840076197
2.19192870397235
0.192976800893842
0.203661076284812
0.219707640804694
0.244779072608986
0.288073291518383
0.378277789353264
0.640254563318079
2.19485741541291
0.185960649877786
0.19296254105035
0.203216063983281
0.218521660049603
0.242564874127969
0.284799529100972
0.373887318876747
0.634012452130709
2.1951261809074
2.46683786431622
0.707413199588244
2.38167581369062
0.403398174204413
0.693333030844682
2.28700209006612
0.297588351391214
0.399759297694478
0.674742583675312
2.21610621533224
0.247579902378025
0.296564030312804
0.393636536488422
0.659244986251195
2.18721847560258
0.219999952504196
0.24738555448423
0.294125060847704
0.387364506988984
0.649971839911825
2.18619276355117
0.203379326942167
0.220065998428284
0.246302424835102
0.29101813448011
0.382239192754842
0.644724858315743
2.19192570555882
0.192807799039864
0.203482317732712
0.219515055384479
0.244566167181034
0.287828336790005
0.377979309271898
0.639884423999428
2.19485159244767
0.18586848358169
0.192868513303057
0.203117435955629
0.218414996427344
0.242444739329147
0.284653364122744
0.373677955166473
0.633623596845948
2.19513057495491
0.181254218999531
0.185869595476682
0.19254681419286
0.202309927513915
0.216904767348624
0.240085496924147
0.281291572306719
0.368723045311841
0.625774233255456
2.19480463381858
2.466841259577
0.705595216746118
2.38167868737284
0.402151466397541
0.691764732403866
2.28697915840407
0.296718730472893
0.398696905467189
0.673429307626085
2.21610195710443
0.246947682134838
0.295833231377104
0.392754237721962
0.658167444697598
2.18721625131301
0.219531688150533
0.246865365439872
0.293528455500009
0.386652847390599
0.649114830045971
2.18619352947123
0.203034533417679
0.219693247277001
0.24589021733599
0.29054895908575
0.381686273029486
0.644081078841614
2.19192822382158
0.192562485776609
0.203222232238959
0.219234642920703
0.244257133874459
0.287477424523442
0.377568619434467
0.639432852609395
2.19484598445933
0.185706940452618
0.192700134854345
0.202939473833686
0.218223390640873
0.242232866460517
0.284408762276972
0.373377586724416
0.633246752457931
2.19512417386355
0.181164889677996
0.185779767851098
0.192454282581983
0.202212222346643
0.216798769526
0.239965613182091
0.281144346764804
0.368508593729209
0.62536456896938
2.19480689705106
0.178176511077821
0.18117749265838
0.185523796367899
0.19185617971689
0.201137928574596
0.215100651197466
0.237479749979779
0.277501138113193
0.362781406582494
0.616096601191132
2.19480229569329
2.46684321754498
0.703528051025931
2.38168069544908
0.400720913561037
0.68996380505147
2.28699600402422
0.295707852832945
0.397459708504571
0.671892886630126
2.21609414455545
0.246200040918596
0.294967489822526
0.391705894788494
0.656878820334506
2.18721434933317
0.218964565020949
0.246234534386244
0.292803196391294
0.385782783443199
0.648050949447671
2.18619226598453
0.202602163957305
0.219225414810831
0.245372165570698
0.289957591517264
0.380982454929301
0.643230961573458
2.19192979258896
0.192237727854952
0.202877611153118
0.218862764622718
0.243847170632577
0.287011909405585
0.377019930474095
0.638795241548253
2.19485080486594
0.185472525091632
0.192455043321369
0.202679952231777
0.217944111866477
0.241925578819665
0.284059737002445
0.37296855016184
0.632799032798161
2.19511812299403
0.181008694061051
0.185618832106674
0.192286646492486
0.202035125467619
0.216608186268239
0.239754700420405
0.280899945818045
0.368206281824909
0.624980350245559
2.19479832163044
0.178088934888103
0.181090465673571
0.18543545959049
0.191764607358047
0.201041025090386
0.214995368561053
0.237360207800455
0.277352985878911
0.36256168187073
0.615662104706676
2.19480464668431
0.176240488031361
0.178114624703003
0.180882452099683
0.184973197140089
0.190981374033633
0.199825425638415
0.213201480855445
0.234737326072911
0.273357549724415
0.35605582808272
0.605039632528269
2.19513011128507
2.46684006920216
0.701193279234889
2.38167915310776
0.399096950851041
0.687917080256898
2.2869973901579
0.294549383707677
0.396039745982928
0.670127390928687
2.21611020680488
0.245332084793505
0.29396102709526
0.390484389506621
0.655371515921416
2.18721773344657
0.218294658619132
0.245488493810247
0.291943919793598
0.384748415877965
0.646778096746902
2.18619302824926
0.202079007600855
0.218658792002524
0.244743877563874
0.289238636584444
0.380121564317946
0.642175147772317
2.19193255131371
0.191830766285138
0.20244539828971
0.218395914375665
0.243331885759403
0.286425325184841
0.376321718293272
0.637951242711014
2.19485314578327
0.185162386632671
0.192130392015429
0.202335811750043
0.217573539154367
0.241518014124041
0.283597395848988
0.372423712511368
0.632167774452843
2.19512323872234
0.180782299186988
0.185384631267829
0.192042008155855
0.201776438956065
0.216330252078768
0.239449157176091
0.280552727553756
0.367799209474125
0.62453844349551
2.19479230096309
0.177936514600844
0.180934871685495
0.185275244639755
0.191597777530148
0.200864893889098
0.214805912935189
0.237150351175654
0.277108967521411
0.362257795055071
0.615271709516278
2.19480258600432
0.176153809406548
0.17802932923102
0.180796919665365
0.184885857843152
0.190890687107086
0.199729445211496
0.213097100915725
0.234618365221161
0.273208748297432
0.355830770920115
0.604577770717732
2.19512597727103
0.175121537620268
0.176193909775161
0.177864000250274
0.18043874537859
0.184317039950575
0.190041622126131
0.198484417559592
0.211275904938883
0.231886472333033
0.268892053768889
0.348585591463729
0.592480987203157
2.19485513046577
2.46683949517432
0.698582438230311
2.38167602918766
0.397269218168018
0.685610246004484
2.28699441993872
0.293236355536831
0.394427816523769
0.668119365238606
2.216110871224
0.24433859317602
0.292807566071128
0.389082118519089
0.65363876646629
2.18721976470029
0.217517857817635
0.244622387013034
0.29094490957456
0.383543014639521
0.64529019342389
2.18619246702189
0.201461655848799
0.217989472033628
0.244000806412496
0.288386749020528
0.379098018121014
0.640911848397353
2.19192973869256
0.191338738409971
0.20192239000451
0.217830421484439
0.2427069098304
0.285712200319916
0.375467675089403
0.636902955800075
2.19485851733039
0.184774005410397
0.19172348068958
0.201904061100127
0.217108193559419
0.241005753653226
0.283015092966772
0.371730721750625
0.631331687531952
2.19512811962
0.180483011619442
0.185074568733322
0.191717664931619
0.20143311818541
0.215961312523764
0.239044074564891
0.280093592389072
0.367258895919355
0.623916271382706
2.19479756934893
0.177716008012358
0.180708677965331
0.185041445745466
0.191353809606613
0.200607273110471
0.214529504422678
0.236846709282779
0.276763935191296
0.361853935172364
0.614839209487142
2.19479693971644
0.176003945027587
0.17787750402346
0.180642034466198
0.184726415710939
0.190724766105815
0.199554437903767
0.212908966628557
0.234409847619312
0.272965623524298
0.355526461465172
0.604182542410534
2.19512400803879
0.175035062336325
0.176109500216994
0.177780204639244
0.180354244460924
0.184230648400663
0.18995197275313
0.198389587932294
0.211172712475576
0.231768469383973
0.268743101295019
0.34835610445668
0.59198718055622
2.19485278168063
0.174592048486843
0.175089744149795
0.175984085846361
0.177510397065898
0.179957249259093
0.183673469262458
0.189152161519799
0.197217523064454
0.209414105928833
0.229023756637748
0.264217925977655
0.340434344600205
0.578128136382546
2.19192953800729
2.46684120423287
0.695681465763722
2.38167932534217
0.395227568539052
0.683030648619603
2.28699279764478
0.291761210410315
0.392613981919691
0.665856490408272
2.21610787293245
0.243214097946545
0.291500172860061
0.387490138785321
0.651667556657689
2.18722121319523
0.216629825119362
0.243631020009091
0.289799929020677
0.382159172080371
0.643578577019627
2.18619256197444
0.200746537211336
0.217213334906565
0.243138124466199
0.287396350317985
0.377905444089634
0.639435234569284
2.1919279405079
0.190758629442069
0.201305186810899
0.217162400570868
0.241967716147236
0.284867303353348
0.374452443049062
0.635648366565195
2.19485350026034
0.184304796961169
0.191231464920639
0.201381524693418
0.216544431587824
0.240384422654356
0.282307306683439
0.370883342167434
0.630293058862421
2.1951298275127
0.180108518185987
0.184686193941308
0.191310971501734
0.201002198723243
0.215497883258822
0.238534985225973
0.279515701893051
0.36657229906847
0.623091329562299
2.19480250903702
0.177424844397478
0.180409451264236
0.184731598259638
0.191030010303621
0.200265077385756
0.214162455340783
0.236444347207147
0.276308612815735
0.361319904723729
0.614230702705249
2.1948022990897
0.175787701613846
0.177657187302281
0.18041620374877
0.184493179978603
0.19048165543775
0.199298087914531
0.212634311883804
0.234108482772999
0.272623640686378
0.355128274531963
0.603766351543581
2.1951186532329
0.174886780274692
0.175960223263204
0.177629075341811
0.180200105694343
0.184072063127011
0.189787115910658
0.198215915704383
0.210986195452338
0.231561774072978
0.268501834133844
0.348053841059349
0.591589861158091
2.19485091981598
0.174505197905879
0.175005532841067
0.175901180168796
0.177427658552134
0.179873743553888
0.183588189414459
0.189063790353819
0.197124136082336
0.209312483675239
0.228907257854939
0.264069836185245
0.34020267169027
0.577588496691212
2.19192921999986
0.174486213678697
0.174573847191791
0.174917083053417
0.175709464326175
0.177175783411066
0.179558275222435
0.183157774024903
0.188430565984446
0.19615235254681
0.207767331758047
0.226339940557086
0.259558368489097
0.331755058417829
0.561630042892397
2.18619138570763
2.46684000030144
0.692472320054507
2.38167743508778
0.392961275689065
0.6801636554547
2.2869933173867
0.29011640990845
0.39058804892333
0.66332562209738
2.21610643245199
0.241952814865759
0.290031456537881
0.385698930391334
0.649446065603797
2.18721790135656
0.215625955727095
0.242508927797817
0.288502135587674
0.380588209751317
0.641632602053109
2.18619566097493
0.199929936661787
0.216326033300148
0.242150688242769
0.286261217134922
0.376536492934293
0.637736861617018
2.19192506051579
0.190087306876272
0.200590216756247
0.216387740178373
0.241109513784495
0.283885056947912
0.373269855520215
0.634182177186705
2.19485112906194
0.183752059296312
0.190651335312219
0.200764817326562
0.215878384935389
0.239649508935748
0.281468882892263
0.369876298496749
0.629049928570958
2.19512677461546
0.179656446351226
0.184216937024927
0.190819109047251
0.200480526602726
0.214936324912915
0.237917491990916
0.278813527081664
0.365733119743903
0.622065855181422
2.19480620983895
0.177060849595668
0.180034931791002
0.184343303923612
0.190623754415393
0.199835334070545
0.213701254807772
0.235938740068499
0.275735961916268
0.360641953171889
0.61342133444141
2.19480496633137
0.175502591584228
0.177366060870875
0.180117123678017
0.184183690087162
0.190158613517767
0.198957262365853
0.212269423075049
0.233709320004487
0.272173305664182
0.354603555667143
0.603178994565779
2.19512401637889
0.174673519265407
0.17574415444893
0.177409083619593
0.179974750523317
0.183839514644017
0.189545024658588
0.19796104487694
0.21071361288359
0.231263303471685
0.268164380848431
0.347665245510579
0.591200097271648
2.19484773371416
0.174357700574874
0.174857829828347
0.175752582710362
0.177277247331573
0.179720410353569
0.183430590864386
0.188900187992629
0.196952062618092
0.209127989855384
0.22870310352025
0.263832061872444
0.339906576326256
0.577192077599744
2.1919279559253
0.17439849359216
0.17448926019357
0.17483437752379
0.175627631932589
0.177094073607449
0.179475932040808
0.183073846391646
0.188343755539689
0.196060761656293
0.207667773419384
0.226225739017435
0.259412888613151
0.331522459944261
0.561034811581801
2.18619278453803
0.174679879914521
0.174480145164097
0.174434404270803
0.174712210265089
0.175501523608804
0.176984079364815
0.179357619697845
0.182895158319047
0.188027335475382
0.195480312878222
0.206589587353099
0.22417646164189
0.255350024618075
0.322987128646433
0.543349540994962
2.18721550682668
2.46683894233312
0.688939497277544
2.38167675438085
0.390458365621334
0.676992559364754
2.28699348150497
0.288293726436111
0.388339082788016
0.660512330198204
2.21610707480946
0.240548779092926
0.28839378515234
0.383698372019281
0.646961772422399
2.18721562907691
0.214501656822232
0.241250352073188
0.287044298644476
0.378820856216279
0.639440033098638
2.18619244981568
0.199008043650333
0.215323006711094
0.241033091113366
0.28497466881754
0.374982849332413
0.635806939008629
2.19193097897411
0.189321563635348
0.19977376206368
0.215502101001347
0.240127248134751
0.282759372462847
0.371912727275057
0.632495987502837
2.19484581107146
0.183113021745645
0.189979956740418
0.200050371313367
0.215105955326151
0.238796263460444
0.280494230848986
0.368703560740092
0.627597352140591
2.19512425108949
0.17912435298937
0.183664100208739
0.190239078015712
0.199864726116619
0.214272772681578
0.23718708181881
0.277981818394773
0.364736061634175
0.620838735446901
2.19480495026294
0.176621835007026
0.179582766809827
0.183874015977207
0.190132238667903
0.199314888296225
0.213142244861633
0.235325444592321
0.275040383696884
0.359813555039074
0.612414491983188
2.19480815871563
0.175146554579259
0.177002007774381
0.179742581078736
0.183795562870124
0.189752999015761
0.198528957654443
0.211810749474852
0.233207758114006
0.271607339204532
0.353937580277842
0.602393249394217
2.19512648022011
0.174392850503309
0.175459056211403
0.177118037442378
0.179675876737843
0.183530488368761
0.189222897151682
0.197621795337616
0.210351223269594
0.230868073150837
0.267720812016361
0.347154401663656
0.590642364745624
2.19485076709353
0.174146387947968
0.174644726057359
0.175536797921181
0.177057648571621
0.179495591165253
0.183198825016881
0.188659262813538
0.196698902228462
0.20885789971953
0.228408406742887
0.263501306162893
0.339533144983736
0.576842714875424
2.19192713703308
0.174251110722146
0.174342333143691
0.174687334139518
0.17547971944782
0.176944413646985
0.179323501490728
0.182917388132437
0.188181620311833
0.195890600326652
0.207485818126478
0.22602511641009
0.25918099956316
0.331236854616951
0.560659202838971
2.18619261248582
0.174590853748333
0.1743946902469
0.174351322699026
0.174630585287605
0.175420740171225
0.17690356517146
0.179276673715495
0.182812849374438
0.187942401102635
0.195390936079031
0.20649270834018
0.224065643857444
0.255208944306751
0.322751891589674
0.54270931071859
2.18721754078353
0.175078232674784
0.174684459162807
0.174369932941545
0.174290874588679
0.174614523845773
0.175488039927884
0.177052373097787
0.179485441129351
0.183050890557505
0.188162403325099
0.195503412774582
0.206308893985886
0.223154716976877
0.252500790752141
0.31542899815103
0.526246882945553
2.21610560966242
2.46684328790383
0.685069662298446
2.38167735990941
0.387707129513493
0.673502961892689
2.28699337777883
0.28628499891762
0.385855447999309
0.657401483516119
2.21610737353675
0.23899599069106
0.28657911235325
0.381477662806724
0.644200859178462
2.18721741858098
0.213252268408838
0.239849342311881
0.285418834879513
0.37684719481851
0.636988630027447
2.18619090758736
0.197977038059887
0.214199638413542
0.239779570031454
0.283529601128748
0.373235340345336
0.633633545286536
2.19192846762193
0.188458183892302
0.198852011679472
0.214500954658146
0.239015498568952
0.281483694143991
0.370372967933959
0.630581221177287
2.19485249161929
0.182384901890425
0.189214116408174
0.199234469997489
0.214222816402032
0.237819683865199
0.279377380015904
0.367358084291804
0.625927406532941
2.19511872030849
0.178509773738815
0.183024908816898
0.189567742765114
0.199151231178672
0.213503131584296
0.236339056459825
0.277015058515983
0.363575207490687
0.619405084632144
2.19480220474518
0.176105575356111
0.179050515833334
0.183321043299639
0.189552466732944
0.198700358061647
0.212481545430682
0.234599928894791
0.274216491849524
0.35882946131536
0.611209620208904
2.194800143637
0.174717552760447
0.176562854661086
0.179290244594473
0.183326262149232
0.189262000388904
0.198009993146326
0.211254590970558
0.232599276947992
0.270919875265091
0.353123687524843
0.60141331091448
2.19513152157042
0.17404280368832
0.175102924747678
0.176753865153552
0.179301281854595
0.183142578730977
0.188818051527002
0.197195116041199
0.209895417128364
0.230371356212799
0.267163461852619
0.346505238840733
0.589887239704753
2.19485284636983
0.173868871094699
0.174364041502109
0.175251712494658
0.176766669794291
0.179196926185897
0.182890308680085
0.188338148381413
0.196361418678491
0.208498422678455
0.228018066194156
0.263066923708996
0.339041531430516
0.576330118017346
2.19192752941128
0.174040890150826
0.174131158979635
0.174474470797236
0.175264244922495
0.176725208237742
0.17909924248033
0.182686474557814
0.187941993757733
0.195639400074385
0.207218721152061
0.225735302136045
0.258859668959447
0.330884549123197
0.560382368780584
2.18619390161759
0.174443005808662
0.174247868686978
0.174205032887768
0.174484188872639
0.175273519875561
0.17675471941034
0.179125257435507
0.182657687121149
0.187781955108305
0.195223032685967
0.206313887873037
0.223869749319151
0.254985241180274
0.322479736562376
0.542401582142024
2.18721857164121
0.174987500662712
0.174597700589706
0.174285980669549
0.174208873130402
0.174533955940574
0.17540846988024
0.176973281012834
0.179406140492071
0.182970477763517
0.188079690181572
0.195416724609639
0.20621542068791
0.223048478570153
0.252364697771782
0.315189509123019
0.525615366655557
2.21610688980994
0.17560783272277
0.175092059169556
0.174599685137787
0.174279994077367
0.174289267614803
0.174755323216735
0.175787751442283
0.17751467286385
0.180117256473875
0.183865212332101
0.1891732932117
0.196712939624949
0.207672444264187
0.224472379366806
0.253050120213563
0.312789430652674
0.519535173433788
2.2870039387159
2.46684219337824
0.680858377869758
2.38167967557201
0.384696790695387
0.669685768618236
2.2870064975705
0.284082021747128
0.383125848452017
0.653980614284984
2.21610716929442
0.237288453760528
0.284579249205165
0.379025637863704
0.641149226334512
2.18721751437057
0.211873227971117
0.2382998964842
0.283617817771907
0.374656709588687
0.634265292249316
2.18619230875787
0.196833286308032
0.212951275065792
0.238384226950842
0.281918519915775
0.371284238631717
0.631204488143097
2.19192892028298
0.187494070903867
0.197821153589363
0.213379717959205
0.237768569528903
0.280051001362146
0.36864156465614
0.628425690320212
2.19485207413089
0.181564986709553
0.188350596206927
0.198313305739951
0.213224490474175
0.236714351628292
0.278111867642268
0.365831997238409
0.624032101032958
2.19512372056358
0.177810291086277
0.182296572601151
0.188801885911534
0.198336323466025
0.212623083568313
0.235368370729322
0.275907334783669
0.362243687127138
0.617757920187303
2.19479661756823
0.175509870799643
0.17843570950276
0.182681606747825
0.188881296354748
0.197988166068119
0.211715045349038
0.233757497376432
0.273258811562268
0.357683892948143
0.609802345907984
2.19479707530322
0.174213549166332
0.176046378891092
0.178757677959
0.182773094440115
0.188682606186824
0.197396958801338
0.210597027916154
0.231879315779456
0.270105484089261
0.352156648198261
0.600238555528647
2.19512552922416
0.17362147226017
0.17467373625515
0.176314411814357
0.178848641064742
0.182673234144651
0.188327641277825
0.196677776233704
0.209342425690822
0.229768512851084
0.266486159117392
0.345710812593519
0.588943028032008
2.19485588205261
0.17352325736481
0.174013863585406
0.174895366533706
0.176402247312002
0.17882218540487
0.182502587371637
0.187934103345986
0.195936493917533
0.208045856289312
0.22752715691297
0.262520571628647
0.338414014578783
0.575622391152792
2.1919287875397
0.173765473224705
0.173853599017623
0.174193730612645
0.174979093108857
0.176434204829897
0.178800721083538
0.182378446611255
0.187621931965933
0.195303844197336
0.206862592189227
0.225350942840215
0.25843704053904
0.330417856097722
0.559945921348283
2.18619245461413
0.17423315144078
0.174037768048872
0.173994054066665
0.17427155218009
0.175058300147683
0.176535862626487
0.178901548518677
0.182427658623361
0.187543727221364
0.194974021948963
0.206050287935474
0.223585959596068
0.254675705940751
0.322153819312074
0.542236770737266
2.18722093687263
0.174838670368178
0.174450405047396
0.17413977215422
0.174063188228964
0.174388187799316
0.175261971229998
0.176825318791266
0.179255837845394
0.182816749194739
0.187921139889786
0.195251411165847
0.206040308842886
0.222858254036231
0.252149507976372
0.314932029187266
0.525380061760669
2.21610874385065
0.175515012614658
0.175003597433078
0.174514424228523
0.174197114955044
0.174208320728757
0.174675972942446
0.175709612156165
0.177437232708291
0.180039843836649
0.183786976565853
0.189093162011865
0.196629446493923
0.2075831612389
0.224371626576012
0.252917198566442
0.312529813992708
0.518934160207653
2.28699341886412
0.176211237007765
0.175629629201646
0.175029246687972
0.174556263515334
0.174361926466727
0.174563893455395
0.175254971278998
0.176537864271234
0.178554084289707
0.181508071336713
0.185701801331288
0.191597575122407
0.199944092004185
0.212066071715784
0.230631607516772
0.261955923147542
0.325681905254885
0.551915916053597
2.38169009876714
2.46684129943592
0.676259666794637
2.38167825306219
0.381414315825878
0.665531108104987
2.28699528408552
0.28167704941902
0.380139828720968
0.650242658048952
2.21611929462718
0.235420671713438
0.282386147300164
0.376331695495968
0.637795965191078
2.18721712726033
0.210360276171261
0.236596095612971
0.281633194574442
0.372238763022205
0.631256887926332
2.18619201784897
0.195573417787572
0.211573348684269
0.236841100401612
0.280133626362403
0.369119363989552
0.628507192522822
2.19192866619306
0.18642635302411
0.19667753669809
0.212133695747223
0.236380607430379
0.278453885798397
0.366709002627492
0.626018115634958
2.19485299997024
0.180650765199921
0.187386286625663
0.197283069286976
0.212106356013378
0.235474620538472
0.276690744445306
0.364116475553142
0.62190014692157
2.19512564186184
0.177023627287216
0.181476372708084
0.187938283717352
0.197416189143942
0.211628182257919
0.234269647566808
0.2746522515385
0.360733882310195
0.615889738692548
2.19480182119916
0.174832623593836
0.177735921257673
0.181952906751481
0.188115497784007
0.197174578068307
0.210838444480245
0.23279305613964
0.272161476593192
0.356370234836104
0.608186155183596
2.19479140115805
0.173632575575638
0.175450374911566
0.178142404449243
0.18213326754017
0.188011651808109
0.196686245882421
0.209833913368126
0.231043078683575
0.269158693739399
0.351030882315549
0.598865906446251
2.19512246750347
0.173126981476503
0.174169455677442
0.1757974567443
0.178315511082446
0.182119738432874
0.187748616759126
0.196066314586263
0.208688260234595
0.229054907592049
0.265683399241954
0.344765784803515
0.587810545763778
2.19485247127043
0.173107749378652
0.173592296217849
0.174465752438543
0.175962228844914
0.178369022648336
0.182033065929665
0.187444221695968
0.195420821606565
0.207496329348794
0.22693089470058
0.261855805857299
0.337643886638942
0.57473126167079
2.19192962612906
0.173423032232299
0.17350781689792
0.173843244135531
0.174622309992221
0.176069308410339
0.178425651893134
0.181990780266635
0.187218612806045
0.194880718977126
0.206413588829851
0.224866819768956
0.257903935816788
0.3298169428195
0.559308198886309
2.18619251269182
0.173958957029453
0.173762281086723
0.173716370562388
0.173990615441939
0.174772903949881
0.176244664749768
0.178603030442091
0.182120013805678
0.187224669195969
0.194640463201016
0.205697841204818
0.223208494742136
0.25426671355858
0.321717143681927
0.541890291032983
2.18721956662607
0.174628551164934
0.174240652766847
0.173929821564104
0.173852352232612
0.174175670028266
0.175046897019555
0.17660672411817
0.179032616807493
0.182587572761323
0.187684329703894
0.195004707755833
0.205780517587286
0.222581058341763
0.251851781262865
0.314632477858614
0.525311131426394
2.21611060402013
0.175364724401193
0.174855311324242
0.174367716610311
0.174051466364446
0.174063196042787
0.174530830170877
0.175563863888268
0.177290199866912
0.179890715839213
0.183634770268599
0.188936645982302
0.196466933616193
0.207412012833068
0.224186663058625
0.252706374331165
0.312269309151702
0.51860965762523
2.2869949506994
0.176115951765463
0.175539083411803
0.174942275981685
0.174472063485937
0.174280090083054
0.174484156149179
0.175177046260005
0.176461367818347
0.178478507028577
0.181432772150804
0.185626008984047
0.191520374862278
0.199864314337463
0.21198172154572
0.230535685215097
0.26180190138095
0.325331785706427
0.550844223172129
2.38167839879971
0.176843243884808
0.176239854918206
0.175585653601884
0.175025968195802
0.174710571222356
0.174752551928798
0.175236522098447
0.176253342398321
0.17792736723949
0.180436674157079
0.184041046516193
0.189132432798218
0.196333420418664
0.206709611911054
0.222280785377478
0.247366390852054
0.29238431690251
0.392606068265735
0.824104264176673
3.68517097144455
0.671152081132294
2.38166679421881
0.37784037913081
0.660989506307244
2.2869951238892
0.279062677659871
0.376885020960522
0.646173748396183
2.21610777521966
0.233387985760204
0.279992231267808
0.373385953278092
0.634135138804237
2.18721681852282
0.208709766730082
0.234732445128338
0.279457154544894
0.369583420550569
0.627953558129707
2.18619178594854
0.194194513397953
0.21006161724263
0.235144339197487
0.278167060980444
0.36673055802033
0.625529116666907
2.19192789519596
0.185252628480737
0.195417780285259
0.210758345998749
0.234845695977548
0.276684675133279
0.364565379612799
0.623345982321074
2.19485476217458
0.179640085161488
0.186318319261327
0.196140122903647
0.210863735077528
0.234094667519108
0.275106681979438
0.362202266454382
0.619520405390498
2.1951289591526
0.176147790374712
0.180561789408383
0.186973815746411
0.196387034279632
0.210513749121771
0.233037260416085
0.273242923756111
0.359037242183025
0.613789464500601
2.19480406508422
0.17407194192871
0.176948866029591
0.181132213567229
0.187251831013244
0.196255760917956
0.209847227540253
0.231701244177087
0.270918155051743
0.354881065652746
0.60635368138652
2.1947967792038
0.172972817121826
0.174772734980164
0.177441984595167
0.181403961744061
0.187245878343109
0.19587408129271
0.208960936203953
0.230085468021171
0.268073687897018
0.34973990487046
0.597290065053944
2.19511687630462
0.172557567380984
0.173588108607535
0.17520078466757
0.177699396610086
0.181479267516093
0.18707776795246
0.195357065676359
0.207928739907021
0.228225634834834
0.264749705632526
0.343664643780413
0.586485385555144
2.19484997655282
0.172620618148354
0.173097467388327
0.17396083501754
0.175444382659971
0.177834965164939
0.181478980004282
0.186865389965548
0.194810862352224