/*--------------------------------*- C++ -*----------------------------------*\
  =========                 |
  \\      /  F ield         | OpenFOAM: The Open Source CFD Toolbox
   \\    /   O peration     | Website:  https://openfoam.org
    \\  /    A nd           | Version:  12
     \\/     M anipulation  |
\*---------------------------------------------------------------------------*/
/*   Windows 32 and 64 bit porting by blueCAPE: http://www.bluecape.com.pt   *\
|  Based on Windows porting (2.0.x v4) by Symscape: http://www.symscape.com   |
\*---------------------------------------------------------------------------*/
FoamFile
{
    format      ascii;
    class       volScalarField;
    location    "400";
    object      p;
}
// * * * * * * * * * * * * * * * * * * * * * * * * * * * * * * * * * * * * * //

dimensions      [0 2 -2 0 0 0 0];

internalField   nonuniform List<scalar> 
10068
(
83333.3283571166
83333.3283514527
83333.328357339
83333.3283570763
83333.3283459273
83333.3283516696
83333.3283514122
83333.3283575745
83333.3283572877
83333.3283569881
83333.3283405466
83333.3283461217
83333.3283458857
83333.3283519061
83333.3283516187
83333.3283513268
83333.3283572476
83333.3283574819
83333.328357193
83333.3283568406
83333.3283353153
83333.3283407182
83333.3283405066
83333.3283463099
83333.3283460712
83333.3283458017
83333.3283515759
83333.3283518165
83333.328351528
83333.3283511858
83333.3283561878
83333.3283571192
83333.3283573503
83333.3283570435
83333.3283566246
83333.3283302346
83333.3283354715
83333.3283352766
83333.3283408587
83333.3283406687
83333.3283404252
83333.328345949
83333.3283462205
83333.3283459813
83333.3283456647
83333.3283505065
83333.3283514514
83333.3283516928
83333.3283513854
83333.3283509787
83333.3283544392
83333.3283560612
83333.3283569544
83333.3283571692
83333.3283568244
83333.3283563363
83333.3283253026
83333.3283303773
83333.3283301973
83333.3283355801
83333.3283354227
83333.3283351978
83333.3283404653
83333.3283407693
83333.3283405793
83333.3283402927
83333.3283448688
83333.328345826
83333.3283460964
83333.3283458417
83333.3283454648
83333.3283487551
83333.3283503899
83333.3283512978
83333.3283515225
83333.3283511763
83333.3283507015
83333.3283520562
83333.3283543216
83333.3283558676
83333.3283567353
83333.3283569252
83333.3283565286
83333.3283559772
83333.328320518
83333.3283254321
83333.3283252669
83333.3283304598
83333.3283303299
83333.3283301211
83333.3283351632
83333.3283354915
83333.3283353349
83333.3283350696
83333.3283393747
83333.3283403445
83333.3283406439
83333.3283404427
83333.3283400999
83333.3283431208
83333.3283447565
83333.3283456724
83333.3283459287
83333.3283456397
83333.3283451977
83333.328346378
83333.32834865
83333.3283502086
83333.3283510933
83333.3283512914
83333.3283508921
83333.3283503553
83333.3283490881
83333.3283519379
83333.3283541137
83333.3283556164
83333.3283564553
83333.3283566054
83333.3283561569
83333.3283555516
83333.3283158797
83333.3283206347
83333.3283204839
83333.3283254894
83333.3283253858
83333.3283251935
83333.3283300245
83333.3283303735
83333.3283302448
83333.3283299974
83333.328334065
83333.3283350444
83333.3283353673
83333.3283352017
83333.3283348835
83333.3283376322
83333.3283392659
83333.3283401899
83333.3283404773
83333.3283402471
83333.3283398425
83333.3283407575
83333.3283430219
83333.3283445769
83333.3283454712
83333.3283457047
83333.3283453663
83333.328344864
83333.3283434249
83333.3283462719
83333.3283484555
83333.328349975
83333.3283508293
83333.3283509856
83333.3283505339
83333.3283499443
83333.3283455672
83333.3283489636
83333.3283517298
83333.3283538417
83333.3283552993
83333.3283560991
83333.3283562049
83333.3283557149
83333.3283550653
83333.3283113865
83333.3283159845
83333.3283158473
83333.3283206676
83333.3283205893
83333.3283204133
83333.328325038
83333.3283254054
83333.3283253031
83333.3283250742
83333.3283289231
83333.3283299092
83333.3283302524
83333.3283301157
83333.3283298179
83333.3283323298
83333.3283339591
83333.3283348915
83333.3283352036
83333.3283350123
83333.3283346354
83333.3283352866
83333.3283375376
83333.3283390867
83333.3283399893
83333.3283402583
83333.3283399837
83333.3283395212
83333.3283378275
83333.328340658
83333.3283428308
83333.3283443485
83333.3283452148
83333.3283454099
83333.3283450214
83333.3283444674
83333.3283399261
83333.3283433106
83333.3283460797
83333.3283482034
83333.3283496768
83333.3283504895
83333.3283506003
83333.3283501071
83333.3283494739
83333.3283415475
83333.3283454511
83333.3283487589
83333.3283514445
83333.3283534916
83333.3283548986
83333.3283556568
83333.3283557253
83333.3283552087
83333.3283545249
83333.3283070375
83333.3283114807
83333.3283113561
83333.3283159937
83333.3283159399
83333.3283157796
83333.3283202013
83333.3283205857
83333.3283205094
83333.3283202985
83333.328323937
83333.3283249266
83333.3283252877
83333.3283251791
83333.3283249014
83333.3283271988
83333.328328821
83333.32832976
83333.3283300936
83333.3283299334
83333.3283295789
83333.3283300042
83333.3283322385
83333.3283337824
83333.328334694
83333.3283349904
83333.3283347583
83333.3283343257
83333.328332385
83333.3283351919
83333.3283373485
83333.3283388603
83333.3283397377
83333.3283399727
83333.3283396519
83333.3283391392
83333.3283343614
83333.3283377196
83333.3283404712
83333.3283425861
83333.3283440595
83333.3283448868
83333.3283450386
83333.3283446104
83333.3283440129
83333.3283359355
83333.3283398187
83333.3283431232
83333.3283458155
83333.3283478747
83333.3283492956
83333.3283500645
83333.3283501376
83333.3283496178
83333.3283489504
83333.328337062
83333.3283414345
83333.3283452451
83333.3283484629
83333.3283510654
83333.328353045
83333.3283544027
83333.3283551257
83333.3283551713
83333.3283546442
83333.3283539369
83333.3283028318
83333.3283071211
83333.3283070088
83333.3283114672
83333.3283114365
83333.3283112911
83333.328315514
83333.3283159141
83333.3283158629
83333.3283156693
83333.3283191028
83333.328320094
83333.3283204714
83333.3283203901
83333.3283201324
83333.328322227
83333.3283238389
83333.3283247817
83333.3283251344
83333.3283250035
83333.3283246714
83333.3283248971
83333.3283271114
83333.3283286487
83333.3283295682
83333.3283298877
83333.3283296887
83333.3283292807
83333.3283271346
83333.3283299131
83333.3283320528
83333.3283335602
83333.3283344486
83333.3283347141
83333.3283344386
83333.3283339574
83333.3283289587
83333.328332282
83333.3283350081
83333.3283371074
83333.3283385773
83333.3283394191
83333.3283396144
83333.328339256
83333.3283387009
83333.3283304119
83333.3283342591
83333.3283375386
83333.3283402161
83333.3283422689
83333.3283436917
83333.3283444768
83333.3283445927
83333.3283441379
83333.3283435062
83333.3283314883
83333.3283358318
83333.3283396312
83333.3283428501
83333.3283454602
83333.3283474504
83333.3283488201
83333.3283495525
83333.3283496019
83333.3283490708
83333.32834838
83333.3283321378
83333.3283369491
83333.3283412267
83333.3283449372
83333.3283480568
83333.3283505747
83333.3283524912
83333.3283538072
83333.3283545075
83333.3283545482
83333.3283540275
83333.3283533094
83333.3282987678
83333.3283029036
83333.3283028044
83333.3283070862
83333.3283070776
83333.3283069467
83333.3283109752
83333.3283113896
83333.3283113621
83333.3283111853
83333.3283144195
83333.3283154106
83333.3283158031
83333.3283157479
83333.3283155097
83333.3283174097
83333.3283190087
83333.3283199534
83333.3283203235
83333.328320221
83333.3283199113
83333.3283199533
83333.3283221438
83333.3283236715
83333.3283245964
83333.3283249361
83333.3283247679
83333.3283243844
83333.3283220637
83333.3283248101
83333.3283269307
83333.3283284329
83333.3283293309
83333.3283296214
83333.3283293806
83333.3283289257
83333.3283237526
83333.3283270354
83333.3283297335
83333.3283318172
83333.3283332845
83333.32833414
83333.3283343684
83333.3283340566
83333.3283335346
83333.3283250589
83333.3283288603
83333.328332105
83333.3283347585
83333.3283367984
83333.3283382202
83333.3283390228
83333.3283391845
83333.3283388
83333.3283382115
83333.3283260159
83333.3283303133
83333.328334079
83333.3283372766
83333.328339875
83333.3283418606
83333.3283432332
83333.3283439828
83333.3283440758
83333.3283436089
83333.3283429538
83333.3283266134
83333.3283313856
83333.3283356434
83333.3283393484
83333.3283424704
83333.3283449947
83333.3283469201
83333.3283482468
83333.3283489555
83333.3283489982
83333.3283484721
83333.3283477706
83333.3283267968
83333.3283320236
83333.328336738
83333.3283409068
83333.3283445058
83333.3283475248
83333.3283499642
83333.3283518267
83333.3283531129
83333.3283538063
83333.3283538612
83333.3283533658
83333.3283526509
83333.3282948443
83333.3282988278
83333.3282987414
83333.3283028487
83333.3283028615
83333.3283027449
83333.3283065832
83333.3283070105
83333.3283070056
83333.3283068453
83333.328309886
83333.3283108756
83333.3283112817
83333.3283112514
83333.3283110323
83333.3283127454
83333.3283143294
83333.3283152743
83333.3283156603
83333.3283155853
83333.3283152974
83333.3283151673
83333.3283173309
83333.3283188462
83333.3283197745
83333.3283201325
83333.3283199943
83333.3283196353
83333.3283171605
83333.3283198706
83333.3283219686
83333.3283234629
83333.3283243676
83333.3283246798
83333.3283244712
83333.3283240425
83333.328318731
83333.3283219688
83333.3283246359
83333.3283267025
83333.3283281665
83333.3283290333
83333.3283292884
83333.3283290121
83333.3283285177
83333.3283199084
83333.3283236575
83333.3283268633
83333.3283294906
83333.3283315172
83333.328332939
83333.3283337573
83333.3283339536
83333.3283336166
83333.3283330619
83333.3283207235
83333.3283249642
83333.3283286849
83333.3283318499
83333.3283344277
83333.3283364033
83333.3283377772
83333.328338546
83333.3283386861
83333.3283382893
83333.3283376776
83333.3283212037
83333.3283259188
83333.3283301333
83333.3283338092
83333.3283369138
83333.3283394286
83333.3283413503
83333.3283426804
83333.3283434067
83333.3283434922
83333.3283430291
83333.3283423629
83333.3283213341
83333.3283265101
83333.3283311951
83333.3283353505
83333.3283389461
83333.3283419671
83333.3283444114
83333.3283462812
83333.3283475768
83333.3283482768
83333.328348331
83333.3283478289
83333.3283471304
83333.3283210569
83333.3283266808
83333.3283318081
83333.3283364064
83333.3283404523
83333.3283439368
83333.3283468623
83333.3283492333
83333.328351053
83333.3283523229
83333.328353026
83333.3283531158
83333.3283526664
83333.3283519724
83333.3282910604
83333.3282948933
83333.328294819
83333.3282987538
83333.3282987874
83333.3282986845
83333.3283023363
83333.3283027753
83333.3283027921
83333.3283026478
83333.3283055004
83333.3283064873
83333.3283069057
83333.3283068991
83333.3283066986
83333.3283082327
83333.3283097997
83333.3283107433
83333.3283111439
83333.3283110951
83333.3283108287
83333.3283105365
83333.3283126708
83333.3283141718
83333.3283151016
83333.3283154766
83333.3283153673
83333.3283150322
83333.3283124189
83333.328315089
83333.3283171611
83333.328318645
83333.3283195539
83333.328319886
83333.3283197088
83333.3283193062
83333.3283138816
83333.3283170701
83333.3283197022
83333.3283217484
83333.3283232061
83333.328324081
83333.3283243594
83333.3283241164
83333.328323649
83333.3283149475
83333.3283186394
83333.3283218026
83333.3283244013
83333.328326413
83333.3283278334
83333.3283286646
83333.3283288887
83333.3283285877
83333.3283280611
83333.3283156403
83333.328319817
83333.3283234877
83333.3283266161
83333.3283291707
83333.3283311357
83333.3283325115
83333.3283332974
83333.328333473
83333.3283331235
83333.3283325454
83333.3283159839
83333.3283206305
83333.3283247895
83333.3283284237
83333.3283314998
83333.3283339974
83333.3283359113
83333.3283372439
83333.3283379902
83333.3283381232
83333.3283377288
83333.3283371056
83333.3283160002
83333.3283211066
83333.3283257376
83333.3283298552
83333.3283334265
83333.3283364328
83333.3283388688
83333.3283407352
83333.3283420341
83333.3283427514
83333.3283428462
83333.3283424054
83333.3283417407
83333.3283156704
83333.3283212299
83333.3283263166
83333.3283308925
83333.3283349279
83333.3283384091
83333.3283413354
83333.3283437098
83333.3283455352
83333.3283468128
83333.3283475201
83333.3283476059
83333.3283471486
83333.3283464689
83333.3283149333
83333.3283209393
83333.3283264608
83333.3283314659
83333.3283359319
83333.3283398513
83333.3283432286
83333.3283460713
83333.3283483851
83333.3283501738
83333.3283514404
83333.3283521704
83333.3283523184
83333.3283519385
83333.3283512863
83333.3282874154
83333.3282910992
83333.3282910363
83333.3282948007
83333.3282948543
83333.3282947647
83333.3282982328
83333.3282986828
83333.3282987205
83333.3282985916
83333.3283012607
83333.3283022439
83333.3283026738
83333.3283026897
83333.3283025075
83333.3283038689
83333.3283054177
83333.3283063589
83333.3283067728
83333.328306749
83333.3283065036
83333.3283060588
83333.3283081618
83333.3283096469
83333.3283105767
83333.3283109672
83333.3283108857
83333.3283105741
83333.3283078354
83333.3283104626
83333.3283125063
83333.3283139777
83333.3283148891
83333.3283152395
83333.3283150928
83333.3283147157
83333.3283091977
83333.3283123328
83333.3283149264
83333.328316949
83333.3283183977
83333.3283192782
83333.3283195779
83333.3283193674
83333.328318927
83333.3283101639
83333.3283137936
83333.3283169101
83333.3283194764
83333.3283214697
83333.3283228857
83333.3283237264
83333.3283239747
83333.3283237071
83333.3283232083
83333.3283107527
83333.3283148599
83333.3283184762
83333.3283215646
83333.3283240933
83333.3283260457
83333.328327422
83333.3283282215
83333.3283284253
83333.3283281115
83333.3283275615
83333.3283109804
83333.3283155509
83333.3283196485
83333.3283232355
83333.3283262787
83333.3283287563
83333.3283306617
83333.3283319975
83333.3283327612
83333.3283329298
83333.3283325815
83333.3283319909
83333.3283108659
83333.3283158912
83333.3283204555
83333.3283245215
83333.3283280559
83333.3283310377
83333.3283334589
83333.3283353187
83333.3283366205
83333.328337358
83333.3283374989
83333.3283371249
83333.3283365025
83333.3283104264
83333.3283159026
83333.3283209236
83333.3283254518
83333.3283294549
83333.3283329152
83333.3283358283
83333.3283381946
83333.3283400164
83333.3283412964
83333.3283420194
83333.3283421434
83333.3283417448
83333.3283410969
83333.3283096389
83333.3283155654
83333.3283210335
83333.3283260056
83333.3283304529
83333.3283343627
83333.328337736
83333.328340578
83333.3283428933
83333.3283446858
83333.3283459578
83333.328346689
83333.3283468298
83333.3283464395
83333.3283457999
83333.3283084385
83333.3283148147
83333.3283207157
83333.3283261098
83333.328330975
83333.3283353049
83333.3283391055
83333.3283423869
83333.3283451582
83333.3283474256
83333.328349194
83333.3283504693
83333.3283512439
83333.3283514763
83333.3283511928
83333.3283506125
83333.3282839081
83333.3282874443
83333.3282873923
83333.3282909887
83333.3282910615
83333.3282909845
83333.3282942717
83333.328294732
83333.3282947898
83333.328294676
83333.328297165
83333.328298144
83333.3282985846
83333.3282986222
83333.3282984577
83333.3282996516
83333.3283011815
83333.3283021195
83333.3283025457
83333.3283025459
83333.328302321
83333.328301731
83333.3283038012
83333.3283052697
83333.3283061982
83333.3283066032
83333.3283065483
83333.3283062596
83333.3283034067
83333.3283059889
83333.3283080025
83333.3283094597
83333.3283103722
83333.3283107396
83333.3283106223
83333.32831027
83333.3283046748
83333.3283077536
83333.3283103055
83333.3283123022
83333.3283137396
83333.3283146239
83333.3283149434
83333.3283147645
83333.3283143508
83333.3283055497
83333.3283091133
83333.328312179
83333.3283147092
83333.3283166809
83333.3283180896
83333.3283189371
83333.3283192079
83333.3283189732
83333.328318502
83333.3283060472
83333.3283100801
83333.3283136373
83333.3283166815
83333.3283191803
83333.3283211167
83333.3283224901
83333.3283232997
83333.3283235282
83333.3283232476
83333.3283227253
83333.3283061785
83333.3283106673
83333.3283146984
83333.3283182342
83333.3283212406
83333.328323695
83333.3283255899
83333.328326927
83333.3283277046
83333.3283279012
83333.3283275876
83333.3283270243
83333.3283059553
83333.3283108917
83333.3283153828
83333.3283193909
83333.3283228824
83333.3283258349
83333.3283282385
83333.3283300912
83333.3283313964
83333.3283321511
83333.328332327
83333.3283319967
83333.3283314057
83333.3283053919
83333.3283107732
83333.3283157152
83333.3283201813
83333.3283241385
83333.3283275665
83333.3283304579
83333.3283328108
83333.3283346261
83333.3283359087
83333.3283366509
83333.3283368192
83333.3283364845
83333.3283358782
83333.3283045007
83333.3283103287
83333.3283157178
83333.3283206311
83333.328325037
83333.3283289186
83333.328332273
83333.3283351023
83333.3283374091
83333.3283391967
83333.3283404695
83333.3283412141
83333.3283413903
83333.3283410553
83333.3283404452
83333.3283032541
83333.3283095337
83333.3283153667
83333.3283207157
83333.3283255525
83333.3283298652
83333.328333656
83333.3283369322
83333.328339701
83333.3283419678
83333.3283437375
83333.3283450152
83333.3283457878
83333.3283460083
83333.3283457127
83333.3283451428
83333.3283015832
83333.3283083194
83333.3283145883
83333.3283203579
83333.3283256063
83333.3283303277
83333.3283345295
83333.3283382235
83333.3283414212
83333.3283441324
83333.3283463637
83333.3283481212
83333.3283494166
83333.3283502529
83333.3283505966
83333.3283504386
83333.3283499827
83333.3282805389
83333.3282839262
83333.3282838856
83333.3282873158
83333.3282874075
83333.3282873426
83333.3282904518
83333.3282909222
83333.3282909994
83333.3282908999
83333.3282932118
83333.3282941863
83333.3282946371
83333.3282946956
83333.3282945483
83333.3282955786
83333.3282970892
83333.3282980234
83333.3282984612
83333.3282984845
83333.3282982796
83333.3282975507
83333.328299587
83333.3283010382
83333.3283019645
83333.3283023828
83333.3283023537
83333.3283020875
83333.3282991292
83333.328301665
83333.3283036475
83333.3283050892
83333.3283060017
83333.3283063847
83333.3283062957
83333.328305968
83333.3283003089
83333.3283033289
83333.3283058373
83333.328307806
83333.3283092306
83333.3283101173
83333.3283104552
83333.3283103069
83333.3283099193
83333.3283010997
83333.3283045939
83333.3283076057
83333.3283100969
83333.3283120443
83333.3283134434
83333.3283142959
83333.3283145877
83333.3283143852
83333.3283139412
83333.3283015154
83333.3283054697
83333.3283089636
83333.3283119597
83333.3283144249
83333.3283163417
83333.3283177092
83333.3283185266
83333.3283187779
83333.32831853
83333.3283180353
83333.3283015639
83333.3283059658
83333.3283099258
83333.3283134056
83333.3283163708
83333.328318798
83333.3283206786
83333.3283220138
83333.3283228018
83333.3283230228
83333.3283227417
83333.3283222052
83333.3283012523
83333.3283060941
83333.3283105068
83333.3283144521
83333.328317896
83333.328320815
83333.3283231978
83333.3283250411
83333.328326348
83333.3283271159
83333.3283273195
83333.3283270215
83333.3283264567
83333.3283005881
83333.3283058669
83333.3283107233
83333.3283151202
83333.3283190243
83333.3283224137
83333.3283252787
83333.3283276155
83333.3283294241
83333.3283307098
83333.3283314685
83333.3283316696
83333.3283313755
83333.3283307988
83333.3282995813
83333.3283052994
83333.3283105964
83333.328315436
83333.328319786
83333.3283236269
83333.3283269523
83333.3283297615
83333.328332055
83333.3283338356
83333.3283351099
83333.3283358721
83333.3283360893
83333.3283358149
83333.3283352448
83333.3282982389
83333.3283044032
83333.3283101427
83333.3283154205
83333.3283202055
83333.3283244816
83333.3283282467
83333.3283315047
83333.3283342603
83333.3283365171
83333.32833828
83333.3283395562
83333.3283403392
83333.3283405915
83333.3283403475
83333.3283398027
83333.3282965282
83333.3283031492
83333.3283093337
83333.3283150443
83333.3283202529
83333.3283249482
83333.3283291332
83333.3283328165
83333.3283360072
83333.3283387136
83333.3283409413
83333.328342697
83333.3283439912
83333.3283448215
83333.3283451483
83333.3283449756
83333.3283445246
83333.3282943768
83333.3283014642
83333.3283080916
83333.3283142259
83333.3283198454
83333.3283249443
83333.3283295307
83333.3283336176
83333.3283372182
83333.328340345
83333.3283430075
83333.3283452125
83333.3283469687
83333.3283482952
83333.3283492071
83333.3283496847
83333.3283496859
83333.3283494346
83333.3282773168
83333.3282805428
83333.3282805168
83333.3282837766
83333.3282838896
83333.3282838377
83333.3282867696
83333.3282872508
83333.3282873476
83333.3282872618
83333.3282893989
83333.3282903692
83333.3282908305
83333.3282909092
83333.3282907782
83333.3282916481
83333.3282931391
83333.3282940693
83333.3282945185
83333.3282945641
83333.3282943785
83333.3282935153
83333.328295517
83333.3282969503
83333.328297874
83333.328298305
83333.3282983009
83333.3282980566
83333.3282949997
83333.3282974881
83333.3282994389
83333.3283008643
83333.3283017757
83333.3283021735
83333.3283021121
83333.3283018083
83333.3282960957
83333.3282990554
83333.3283015189
83333.3283034584
83333.3283048689
83333.3283057567
83333.328306112
83333.3283059933
83333.3283056313
83333.3282968089
83333.3283002314
83333.3283031868
83333.3283056369
83333.3283075581
83333.328308946
83333.3283098021
83333.3283101136
83333.3283099423
83333.328309525
83333.3282971509
83333.3283010233
83333.3283044507
83333.3283073953
83333.3283098239
83333.3283117184
83333.3283130778
83333.3283139014
83333.3283141741
83333.3283139583
83333.3283134908
83333.3282971271
83333.328301438
83333.3283053224
83333.328308742
83333.3283116618
83333.3283140579
83333.3283159209
83333.3283172512
83333.3283180472
83333.3283182908
83333.3283180418
83333.3283175323
83333.3282967415
83333.3283014838
83333.328305813
83333.3283096907
83333.3283130821
83333.3283159629
83333.3283183207
83333.328320151
83333.3283214563
83333.3283222342
83333.3283224616
83333.328322194
83333.3283216549
83333.3282959975
83333.3283011684
83333.328305934
83333.3283102565
83333.328314102
83333.3283174476
83333.3283202818
83333.3283225992
83333.328324399
83333.3283256858
83333.3283264572
83333.3283266837
83333.328326419
83333.3283258662
83333.328294899
83333.3283005002
83333.3283056983
83333.328310457
83333.3283147433
83333.328318536
83333.3283218261
83333.3283246106
83333.3283268886
83333.3283286621
83333.3283299385
83333.3283307154
83333.3283309618
83333.3283307249
83333.3283301804
83333.3282934509
83333.3282994894
83333.3283051223
83333.3283103139
83333.3283150321
83333.3283192582
83333.3283229864
83333.3283262173
83333.3283289531
83333.3283311959
83333.3283329504
83333.3283342264
83333.3283350242
83333.3283353142
83333.328335126
83333.3283346167
83333.3282916545
83333.3282981422
83333.3283042172
83333.3283098426
83333.3283149877
83333.3283196367
83333.3283237882
83333.3283274468
83333.3283306189
83333.3283333104
83333.3283355261
83333.3283372724
83333.3283385622
83333.3283393995
83333.328339753
83333.3283396275
83333.3283391932
83333.3282894723
83333.3282964241
83333.328302949
83333.3283090087
83333.3283145753
83333.3283196375
83333.3283241988
83333.3283282684
83333.3283318567
83333.3283349738
83333.3283376282
83333.3283398262
83333.3283415767
83333.3283428982
83333.3283437992
83333.3283442525
83333.3283442333
83333.3283439763
83333.3282868285
83333.3282942586
83333.3283012362
83333.3283077268
83333.3283137079
83333.3283191739
83333.3283241329
83333.3283285986
83333.3283325854
83333.3283361074
83333.3283391769
83333.3283418031
83333.3283439935
83333.3283457602
83333.32834713
83333.3283481285
83333.3283487614
83333.3283489773
83333.3283490015
83333.3282742508
83333.3282773061
83333.3282772963
83333.3282803629
83333.328280506
83333.3282804704
83333.3282832164
83333.3282837116
83333.3282838312
83333.3282837604
83333.3282857205
83333.3282866886
83333.3282871619
83333.328287261
83333.328287146
83333.328287857
83333.3282893286
83333.3282902555
83333.3282907163
83333.3282907836
83333.3282906165
83333.328289622
83333.3282915889
83333.3282930044
83333.3282939253
83333.3282943688
83333.3282943889
83333.3282941658
83333.3282910152
83333.3282934556
83333.3282953742
83333.3282967828
83333.3282976926
83333.3282981049
83333.3282980701
83333.3282977896
83333.3282920311
83333.3282949297
83333.3282973473
83333.3282992568
83333.3283006526
83333.3283015406
83333.3283019125
83333.3283018225
83333.3283014854
83333.3282926722
83333.3282960214
83333.3282989189
83333.3283013264
83333.3283032202
83333.3283045956
83333.3283054543
83333.3283057844
83333.3283056434
83333.3283052522
83333.3282929477
83333.3282967359
83333.3283000943
83333.3283029851
83333.3283053749
83333.3283072452
83333.3283085949
83333.3283094231
83333.3283097161
83333.3283095316
83333.3283090909
83333.3282928606
83333.3282970772
83333.3283008828
83333.3283042387
83333.3283071099
83333.3283094718
83333.3283113143
83333.3283126376
83333.3283134401
83333.328313705
83333.3283134876
83333.3283130047
83333.3282924124
83333.3282970511
83333.3283012926
83333.3283050981
83333.3283084327
83333.3283112711
83333.3283135999
83333.3283154139
83333.3283167146
83333.3283175002
83333.3283177497
83333.3283175124
83333.3283169986
83333.3282916039
83333.3282966622
83333.3283013319
83333.3283055749
83333.3283093568
83333.3283126533
83333.328315452
83333.328317746
83333.3283195333
83333.3283208181
83333.3283215987
83333.3283218473
83333.3283216099
83333.3283210801
83333.3282904353
83333.3282959145
83333.3283010088
83333.328305681
83333.3283098977
83333.3283136362
83333.3283168856
83333.3283196411
83333.3283219005
83333.3283236649
83333.3283249416
83333.3283257295
83333.3283259979
83333.3283257868
83333.3283252617
83333.3282889059
83333.3282948121
83333.3283003322
83333.3283054301
83333.3283100734
83333.3283142411
83333.3283179249
83333.3283211227
83333.3283238345
83333.3283260616
83333.3283278082
83333.3283290847
83333.3283298943
83333.3283302095
83333.3283300529
83333.3283295643
83333.3282870157
83333.3282933602
83333.3282993131
83333.3283048385
83333.328309905
83333.3283144938
83333.3283185996
83333.3283222235
83333.3283253689
83333.3283280399
83333.3283302402
83333.3283319764
83333.3283332637
83333.3283341124
83333.3283345002
83333.328334423
83333.3283340192
83333.3282847601
83333.3282915591
83333.328297957
83333.3283039163
83333.3283094062
83333.3283144111
83333.3283189298
83333.3283229672
83333.3283265305
83333.3283296273
83333.3283322644
83333.3283344474
83333.3283361856
83333.3283374995
83333.3283384044
83333.328338879
83333.3283388991
83333.3283386474
83333.3282820968
83333.3282893694
83333.3282962247
83333.3283026234
83333.3283085369
83333.328313954
83333.3283188779
83333.3283233183
83333.3283272863
83333.3283307933
83333.3283338495
83333.3283364635
83333.3283386425
83333.3283403995
83333.3283417596
83333.3283427395
83333.3283433369
83333.3283435232
83333.3283435483
83333.3282789474
83333.3282867113
83333.3282940313
83333.3283008709
83333.3283072065
83333.3283130317
83333.3283183546
83333.328323189
83333.3283275504
83333.3283314541
83333.3283349142
83333.3283379425
83333.3283405484
83333.3283427414
83333.3283445379
83333.328345971
83333.3283470894
83333.3283479336
83333.3283484824
83333.3283487183
83333.3282742379
83333.328274233
83333.328277099
83333.3282772701
83333.3282772525
83333.3282797846
83333.3282802985
83333.328280448
83333.3282803964
83333.3282821657
83333.3282831351
83333.3282836241
83333.3282837475
83333.3282836501
83333.3282841987
83333.3282856514
83333.3282865772
83333.3282870515
83333.328287141
83333.3282869922
83333.3282858673
83333.3282877996
83333.3282891975
83333.3282901164
83333.328290573
83333.3282906165
83333.3282904138
83333.3282871723
83333.3282895649
83333.3282914512
83333.328292843
83333.3282937512
83333.3282941776
83333.3282941686
83333.3282939108
83333.3282881114
83333.3282909485
83333.32829332
83333.3282951989
83333.3282965795
83333.3282974675
83333.3282978553
83333.3282977931
83333.3282974805
83333.3282886848
83333.3282919599
83333.3282947986
83333.3282971626
83333.328299028
83333.3283003903
83333.3283012508
83333.3283015987
83333.328301487
83333.3283011215
83333.3282889
83333.3282926025
83333.3282958903
83333.3282987256
83333.328301075
83333.3283029199
83333.3283042587
83333.3283050906
83333.3283054028
83333.3283052486
83333.3283048342
83333.3282887575
83333.3282928776
83333.3282966018
83333.3282998915
83333.3283027117
83333.3283050372
83333.3283068573
83333.3283081721
83333.3283089798
83333.3283092648
83333.3283090781
83333.3283086212
83333.3282882565
83333.3282927885
83333.3282969389
83333.3283006688
83333.3283039429
83333.3283067356
83333.3283090324
83333.3283108273
83333.3283121215
83333.3283129134
83333.3283131835
83333.3283129761
83333.3283124869
83333.3282873956
83333.3282923375
83333.3282969071
83333.3283010661
83333.3283047796
83333.3283080227
83333.3283107815
83333.3283130482
83333.3283148198
83333.3283160999
83333.3283168874
83333.3283171565
83333.3283169464
83333.3283164389
83333.3282861726
83333.3282915258
83333.3282965114
83333.328301092
83333.3283052336
83333.3283089124
83333.3283121158
83333.3283148377
83333.3283170745
83333.3283188265
83333.3283201003
83333.3283208959
83333.3283211834
83333.3283209958
83333.3283204891
83333.3282845838
83333.3282903535
83333.328295756
83333.3283007549
83333.3283053171
83333.3283094201
83333.3283130533
83333.3283162124
83333.3283188962
83333.3283211047
83333.3283228415
83333.328324117
83333.328324935
83333.3283252685
83333.3283251314
83333.3283246577
83333.3282826243
83333.3282888204
83333.3282946455
83333.3283000639
83333.3283050433
83333.3283095631
83333.3283136149
83333.3283171968
83333.32832031
83333.3283229568
83333.3283251405
83333.3283268674
83333.3283281532
83333.3283290103
83333.328329418
83333.3283293647
83333.3283289782
83333.3282802888
83333.3282869265
83333.3282931856
83333.32829903
83333.3283044282
83333.3283093616
83333.3283138249
83333.3283178191
83333.3283213483
83333.3283244178
83333.3283270327
83333.3283291983
83333.3283309242
83333.3283322331
83333.3283331466
83333.328333652
83333.3283337119
83333.328333486
83333.3282775669
83333.3282846662
83333.3282913757
83333.3282976572
83333.3283034795
83333.3283088268
83333.3283136976
83333.3283180972
83333.3283220328
83333.3283255131