/*--------------------------------*- C++ -*----------------------------------*\
  =========                 |
  \\      /  F ield         | OpenFOAM: The Open Source CFD Toolbox
   \\    /   O peration     | Website:  https://openfoam.org
    \\  /    A nd           | Version:  12
     \\/     M anipulation  |
\*---------------------------------------------------------------------------*/
/*   Windows 32 and 64 bit porting by blueCAPE: http://www.bluecape.com.pt   *\
|  Based on Windows porting (2.0.x v4) by Symscape: http://www.symscape.com   |
\*---------------------------------------------------------------------------*/
FoamFile
{
    format      ascii;
    class       surfaceScalarField;
    location    "400";
    object      phi;
}
// * * * * * * * * * * * * * * * * * * * * * * * * * * * * * * * * * * * * * //

dimensions      [0 3 -1 0 0 0 0];

internalField   nonuniform List<scalar> 
28770
(
1.54875707660479e-06
5.46814953568868e-08
9.51456043357008e-09
1.4891933578004e-06
5.0434493507688e-08
9.12114669555861e-09
1.80593931812133e-07
9.87452799617303e-08
-8.15343860486633e-09
2.0877272835429e-06
5.91749494759761e-08
2.70390421265457e-08
1.43235074990074e-06
4.81015178577572e-08
8.74968995015064e-09
1.46294579093595e-07
9.30222190574679e-08
-8.28938521187269e-09
2.01745048039743e-06
5.41732836582161e-08
2.52237924149997e-08
1.75277925984535e-07
1.37484714248388e-07
-3.69867831206955e-09
2.13924222157119e-07
1.09254496282516e-07
-1.80197803310012e-08
2.31731445658587e-06
6.51124958245696e-08
4.72923871199041e-08
1.37805093613918e-06
4.6250860752855e-08
8.04480368552191e-09
1.14488478548603e-07
8.8126525729614e-08
-8.21936890347322e-09
1.95039030024194e-06
5.16422986115041e-08
2.41721535419977e-08
1.41715083782547e-07
1.30680801677503e-07
-4.09561988304675e-09
1.75832483811827e-07
1.0258916428217e-07
-1.8614711655257e-08
2.23936114391842e-06
5.94146288959574e-08
4.37555320936554e-08
2.0002657570946e-07
1.74265096744838e-07
-1.79649878105804e-09
1.84777082241123e-07
1.55214865876343e-07
-1.05819217657822e-08
1.8604455799375e-07
1.22528529873919e-07
-3.07555364120936e-08
2.61309501903283e-06
7.23605911501568e-08
7.02137223419582e-08
1.3264423945668e-06
4.3995311404118e-08
7.60994205527153e-09
8.52797823606045e-08
8.36445390511996e-08
-8.18448754345773e-09
1.88547011539561e-06
4.99413262672759e-08
2.3020935644162e-08
1.10210440927398e-07
1.23951129644936e-07
-4.31990082376409e-09
1.40452903186747e-07
9.7239828686491e-08
-1.84365253645418e-08
2.16539136459666e-06
5.64927041045857e-08
4.16442168149395e-08
1.66721434331056e-07
1.66283873377705e-07
-2.29872615763577e-09
1.4734358221057e-07
1.47411536305012e-07
-1.14838466748151e-08
1.43899200681796e-07
1.14587515190914e-07
-3.16383577401684e-08
2.52606441226687e-06
6.55918941389019e-08
6.51987332797724e-08
2.1964103427866e-07
2.09364031967307e-07
-3.43008844308962e-10
2.19884957986492e-07
1.97810569647767e-07
-5.44806461800375e-09
1.71134580051694e-07
1.76509881858616e-07
-2.06038785321333e-08
1.85900467311271e-07
1.35789200291386e-07
-4.51934591519945e-08
2.88985437442897e-06
7.71743484225838e-08
9.61516863084971e-08
1.27758986275569e-06
4.15850925289438e-08
7.26911808416225e-09
5.82869731976604e-08
7.91071895319589e-08
-8.11780817649357e-09
1.82322559509758e-06
4.78046604481056e-08
2.20587600836762e-08
8.0953135171333e-08
1.17376386152771e-07
-4.47483908223925e-09
1.07912423568903e-07
9.25367607191401e-08
-1.82361263620336e-08
2.0939477680133e-06
5.47080313273572e-08
3.97650749636097e-08
1.35230307931677e-07
1.58010931834651e-07
-2.56911412163111e-09
1.1229353027475e-07
1.39740957302885e-07
-1.17702946817978e-08
1.05178027895584e-07
1.08305412366945e-07
-3.15291011912421e-08
2.44381320015152e-06
6.21514571418095e-08
6.17438686489595e-08
1.86681511652878e-07
2.00077105073756e-07
-8.33631655155499e-10
1.82783707607342e-07
1.88687469046547e-07
-6.47304804121978e-09
1.28839616440004e-07
1.67290937411732e-07
-2.18932499403e-08
1.39578033130987e-07
1.26609119528138e-07
-4.63352902378232e-08
2.79559592895358e-06
6.97158386650238e-08
8.97474864388733e-08
2.34730434139192e-07
2.4285324064172e-07
7.07514682538011e-10
2.42142332880043e-07
2.37716152522744e-07
-1.9042678239515e-09
2.26267703149683e-07
2.26243940780093e-07
-1.1133987464856e-08
1.64925026038029e-07
1.95814985737638e-07
-3.25854819549392e-08
1.86520832265847e-07
1.43916098556547e-07
-6.03656103618145e-08
3.10625071998546e-06
7.94483410778693e-08
1.24865440504654e-07
1.23148963042868e-06
3.91725879335048e-08
6.91730890330597e-09
3.34241412343021e-08
7.45061239154293e-08
-8.05779439755853e-09
1.76389024722575e-06
4.53989209340738e-08
2.1197074498503e-08
5.38514111147704e-08
1.10815889553631e-07
-4.60746062373435e-09
7.79363443586575e-08
8.77498212231999e-08
-1.80881037434864e-08
2.02540452300311e-06
5.24971327585319e-08
3.81111412016919e-08
1.05739642191339e-07
1.49654434442803e-07
-2.7876539395173e-09
7.98480927156874e-08
1.32430143060632e-07
-1.1923100713745e-08
6.98738462632591e-08
1.03020101539191e-07
-3.12435126922409e-08
2.36445287607903e-06
6.0298249871759e-08
5.88228848911256e-08
1.55524979587292e-07
1.90346109783145e-07
-1.17871103707519e-09
1.47709943327856e-07
1.79226634359034e-07
-6.98127042018405e-09
8.9471282815463e-08
1.58277063558115e-07
-2.23727490983232e-08
9.71620203151171e-08
1.19455733185253e-07
-4.6420779920472e-08
2.7064550548978e-06
6.59939347353731e-08
8.49041023875826e-08
2.02387346486444e-07
2.32219206556108e-07
2.0071722086712e-10
2.05806492315592e-07
2.27146306250481e-07
-2.95684478301774e-09
1.84175740371463e-07
2.15545076579223e-07
-1.2635403236458e-08
1.18475582003368e-07
1.85312046197635e-07
-3.41465480160688e-08
1.37707944148277e-07
1.3384448216294e-07
-6.16495225510115e-08
3.00738246205866e-06
7.15271062238854e-08
1.17090779917074e-07
2.45727024599904e-07
2.74680670189229e-07
1.6515772215784e-09
2.57733364305977e-07
2.74976691301808e-07
1.04371706878484e-09
2.570467485095e-07
2.71782394039983e-07
-4.2567544978144e-09
2.30339421796526e-07
2.50723943507626e-07
-1.79740155504103e-08
1.52727451993383e-07
2.06503703408226e-07
-4.51856597925042e-08
1.81984930985485e-07
1.4705334745935e-07
-7.54788274556493e-08
3.26761614761784e-06
8.01164566987619e-08
1.55810956374349e-07
1.18811268796192e-06
3.6772015385421e-08
6.60837038727678e-09
1.06922702868481e-08
6.98951111100831e-08
-7.99153095801016e-09
1.70753568306212e-06
4.29069137625556e-08
2.03710934774461e-08
2.88585186346468e-08
1.04247929242674e-07
-4.74907296599283e-09
5.04218979752886e-08
8.28134396385649e-08
-1.79580552310226e-08
1.96006316084901e-06
4.99336497241328e-08
3.65901456959984e-08
7.82854519932438e-08
1.41254132317263e-07
-2.98431388109444e-09
4.98859523793284e-08
1.25195349549923e-07
-1.20932801041927e-08
3.75111922663557e-08
9.77141739985346e-08
-3.09415341585715e-08
2.28828732210568e-06
5.7986120796069e-08
5.6286401479551e-08
1.26269264264717e-07
1.80371668099816e-07
-1.46175126902111e-09
1.14893534347157e-07
1.69808441884852e-07
-7.3497722300836e-09
5.3265703818553e-08
1.49859535834352e-07
-2.255817829804e-08
5.86999860184033e-08
1.13608800834893e-07
-4.60916488004305e-08
2.62034723024725e-06
6.40977202218725e-08
8.08327353534406e-08
1.71861010504053e-07
2.21052219659661e-07
-1.79869208353792e-10
1.71406968694425e-07
2.16056782919469e-07
-3.60957779463268e-09
1.44503002428363e-07
2.04437688249267e-07
-1.34696920878926e-08
7.53199253200899e-08
1.75092019499422e-07
-3.48529831801943e-08
9.30049113440229e-08
1.26106550724523e-07
-6.18317667955222e-08
2.91373079360532e-06
6.75940031581851e-08
1.1097364616293e-07
2.14137642646221e-07
2.62674137048013e-07
1.13444298466467e-09
2.22212160585127e-07
2.6290683284958e-07
-3.8733475448931e-11
2.16051301088613e-07
2.59434165642833e-07
-5.85017360909148e-09
1.84249921981209e-07
2.38649625067941e-07
-1.9885181002455e-08
1.04236389389066e-07
1.95158887491964e-07
-4.69713127687795e-08
1.32324892440233e-07
1.3642497593479e-07
-7.68894055646626e-08
3.16609740886374e-06
7.18611833013692e-08
1.46736565220489e-07
2.53834183599796e-07
3.04911337636764e-07
2.57404050376654e-09
2.69929456902215e-07
3.0989454411128e-07
3.62444594265068e-09
2.76993949187373e-07
3.1382941574843e-07
1.24672569942926e-09
2.66442298010784e-07
3.00407322483344e-07
-6.9863287621901e-09
2.22837647749163e-07
2.63489896209191e-07
-2.51498813718027e-08
1.34714660037899e-07
2.09697416041747e-07
-5.76144873467001e-08
1.74281951694561e-07
1.47373875521099e-07
-9.03273541365053e-08
3.40350590964858e-06
7.99724338888384e-08
1.88786433833284e-07
1.14741596288745e-06
3.44035845690413e-08
6.29546905000293e-09
-9.96433828115536e-09
6.53223823784821e-08
-7.8931687687028e-09
1.65413168289776e-06
4.03877502629068e-08
1.96149826457854e-08
5.91414673430395e-09
9.7704807597484e-08
-4.86457611431779e-09
2.53196448940417e-08
7.78147430217058e-08
-1.77957468966199e-08
1.89802928498163e-06
4.72283496777178e-08
3.51806252624658e-08
5.28662967340807e-08
1.3283783949425e-07
-3.17115255145824e-09
2.22930749803262e-08
1.17918823205363e-07
-1.2260020997667e-08
7.89907203377796e-09
9.22121066262566e-08
-3.06257025152219e-08
2.21561912504355e-06
5.52530726325689e-08
5.40092870269265e-08
9.89603282828976e-08
1.70271893779493e-07
-1.70921349616333e-09
8.44053557611495e-08
1.60402923027882e-07
-7.70411341686852e-09
1.99616113179525e-08
1.41614659087873e-07
-2.2688937550085e-08
2.35608950427766e-08
1.07792363047027e-07
-4.56022931411471e-08
2.5375697337201e-06
6.17181101221539e-08
7.73432387666708e-08
1.43185626315515e-07
2.09544707253533e-07
-4.98021768831589e-10
1.39084575772072e-07
2.0479328636748e-07
-4.12345005689954e-09
1.0752195616648e-07
1.93513003260324e-07
-1.40218581660693e-08
3.58038225514084e-08
1.65666974965381e-07
-3.50994424687332e-08
5.25292249060931e-08
1.19903261974361e-07
-6.14228977177599e-08
2.82305511707159e-06
6.56892825228123e-08
1.05819875972533e-07
1.84380406137107e-07
2.5008215482392e-07
7.2728951711716e-10
1.88643617114734e-07
2.50236887002462e-07
-7.91837639277214e-10
1.77302333628758e-07
2.46482910128831e-07
-6.90600480277914e-09
1.40847153394176e-07
2.26107976195919e-07
-2.10826264753611e-08
5.91665376432168e-08
1.8418137056255e-07
-4.78579181482672e-08
8.68034375311017e-08
1.28355209110424e-07
-7.70703741034895e-08
3.06979411988335e-06
6.77716868506179e-08
1.39497270726281e-07
2.22961750466698e-07
2.91533057249033e-07
2.01368355276599e-09
2.35151715242717e-07
2.96320538022078e-07
2.49801387819145e-09
2.37033904187601e-07
2.99783117690579e-07
-4.27172732844768e-10
2.21777261843127e-07
2.8655651758751e-07
-9.09251541461882e-09
1.74966662574473e-07
2.50587582485971e-07
-2.74427043650167e-08
8.58820632239128e-08
1.97908007981516e-07
-5.96206304732109e-08
1.24712334994932e-07
1.36372660905932e-07
-9.18299751342607e-08
3.30026183758094e-06
7.14413968691264e-08
1.78530543070106e-07
2.60168105152342e-07
3.33699535226488e-07
3.50056906400881e-09
2.79716027568674e-07
3.42915480378097e-07
5.85155986522808e-09
2.93024562974324e-07
3.53187077841991e-07
5.79651313019473e-09
2.89721534566873e-07
3.46100751856655e-07
1.44904890056943e-09
2.62222970628531e-07
3.14954175491544e-07
-9.90641443663691e-09
2.07041226419585e-07
2.66645634462368e-07
-3.22324916152869e-08
1.14581040608548e-07
2.0907769856128e-07
-6.97198696746463e-08
1.65714211865504e-07
1.46259955290498e-07
-1.04738729929235e-07
3.54375553648636e-06
7.92492490333568e-08
2.24110477798437e-07
1.1092154407183e-06
3.2208120001712e-08
5.99205234620775e-09
-2.86428461466415e-08
6.0828693937628e-08
-7.74672490042223e-09
1.60363879446225e-06
3.78558679936758e-08
1.89379851608359e-08
-1.50550109359899e-08
9.12317954660729e-08
-4.94062087743611e-09
2.54277521251313e-09
7.28330968881454e-08
-1.75644542917212e-08
1.83927136813708e-06
4.44595338481609e-08
3.39190691360988e-08
2.9443232385135e-08
1.24458820264177e-07
-3.33118086194572e-09
-3.01054563320921e-09
1.10629547635994e-07
-1.237654179978e-08
-1.90258034251259e-08
8.65968516224505e-08
-3.02431951711431e-08
2.14655786351617e-06
5.23115283772188e-08
5.19326896087041e-08
7.36047208435377e-08
1.60127275870431e-07
-1.93386866434194e-09
5.62111546381711e-08
1.50975452092185e-07
-8.03377778360296e-09
-1.06193005863574e-08
1.33316098872697e-07
-2.27846085754612e-08
-8.54131993979403e-09
1.01741487550677e-07
-4.50188559411022e-08
2.45848413784761e-06
5.8845430709316e-08
7.42487592944297e-08
1.16386173341297e-07
1.97846888526753e-07
-7.75652800191412e-10
1.08936551786467e-07
1.93437427552418e-07
-4.59587854677503e-09
7.32467569987932e-08
1.82679904288575e-07
-1.44951593457123e-08
-4.20693724520245e-10
1.56492317100863e-07
-3.51660411417046e-08
1.56020649468851e-08
1.13757394112939e-07
-6.07126115951177e-08
2.73569663093468e-06
6.32800980915664e-08
1.01416515918057e-07
1.56448405042741e-07
2.3709539768434e-07
3.81285047659802e-10
1.57081415997359e-07
2.37268209267463e-07
-1.41085092373221e-09
1.40959859880232e-07
2.3343878830909e-07
-7.70748725407415e-09
1.00489002790823e-07
2.13866201803379e-07
-2.18647488876007e-08
1.79755727274864e-08
1.74137535170041e-07
-4.81446811346373e-08
4.5592845933788e-08
1.21983254256724e-07
-7.65104277308999e-08
2.97632423201762e-06
6.58854541508686e-08
1.33393322722805e-07
1.93934037388662e-07
2.77523391792014e-07
1.58627714531844e-09
2.02361376529855e-07
2.8209596723889e-07
1.65833818537361e-09
1.99312815544352e-07
2.85065301139924e-07
-1.65294528294451e-09
1.79569127356525e-07
2.72019399491752e-07
-1.06096854712409e-08
1.29857359895287e-07
2.37189283252234e-07
-2.89829160165298e-08
4.04514537770974e-08
1.86553694768296e-07
-6.06279592845317e-08
7.92302596992236e-08
1.28092362832305e-07
-9.19106858373853e-08
3.20224931140666e-06
6.7229577195753e-08
1.70293932191888e-07
2.2985658655944e-07
3.18916563344778e-07
2.92797851166218e-09
2.455690412848e-07
3.27811720689308e-07
4.66938478499742e-09
2.53839630526687e-07
3.37434067778967e-07
4.03142114145321e-09
2.46254610612616e-07
3.30409771977537e-07
-8.13904789771051e-10
2.15977698638495e-07
3.0024505746135e-07
-1.25049582853656e-08
1.59030953848758e-07
2.53371884318322e-07
-3.48968826119029e-08
6.62283568584831e-08
1.97036607830722e-07
-7.1930865864061e-08
1.16630102445977e-07
1.34957919381241e-07
-1.06265079929426e-07
3.43906547470382e-06
7.04284053968231e-08
2.12801869515182e-07
2.65180461372175e-07
3.61403378307936e-07
4.23042893197996e-09
2.87570285137583e-07
3.74553612030345e-07
7.70735710329954e-09
3.06422715713173e-07
3.90528537542207e-07
9.50961629259307e-09
3.09000035844254e-07
3.8899224535485e-07
8.10816421579646e-09
2.88058732897347e-07
3.62383876187083e-07
1.49509362797164e-09
2.48609307778705e-07
3.18210999132505e-07
-1.2910847202984e-08
1.88175051496576e-07
2.65135311952982e-07
-3.91289321820218e-08
9.3931977074137e-08
2.06702403962616e-07
-8.15091016101376e-08
1.57749850786035e-07
1.43988602124083e-07
-1.18351883286481e-07
3.7092413016297e-06
7.79254735762998e-08
2.62675308695946e-07
1.0734613384606e-06
3.00260758381449e-08
5.7293942123922e-09
-4.53706200993886e-08
5.64512403024462e-08
-7.5155347946188e-09
1.55596270296321e-06
3.53377043428141e-08
1.83227267323159e-08
-3.41183333087767e-08
8.48671139681491e-08
-4.97570931846756e-09
-1.80084636056182e-08
6.79123082669907e-08
-1.72534721030071e-08
1.78375861669747e-06
4.1669287653126e-08
3.27713604452805e-08
7.95715021398645e-09
1.16173445761303e-07
-3.45612464686726e-09
-2.6098860765864e-08
1.0339765579445e-07
-1.24173391567895e-08
-4.33536891291586e-08
8.09754081512877e-08
-2.97488338284454e-08
2.08113564959336e-06
4.92801892449145e-08
5.00641011700832e-08
5.01708310966499e-08
1.50019734661711e-07
-2.12712805475963e-09
3.02431005156842e-08
1.41568182513314e-07
-8.30198418408892e-09
-3.85876351197273e-08
1.24980652798109e-07
-2.27916445444698e-08
-3.76946998977523e-08
9.55290156541903e-08
-4.43114425678214e-08
2.38323185500145e-06
5.57265298797603e-08
7.14610016486081e-08
9.14638750412227e-08
1.86077089539519e-07
-1.02753860658031e-09
8.09624162303872e-08
1.82036376352907e-07
-5.0216756191697e-09
4.15965909564163e-08
1.71835074292675e-07
-1.49032294491619e-08
-3.36117499861439e-08
1.47265033572436e-07
-3.51174288757796e-08
-1.81079584276379e-08
1.07343646572989e-07
-5.9810616792204e-08
2.65206084033647e-06
6.03399421118336e-08
9.7551402608064e-08
1.30342090875901e-07
2.23875067033414e-07
7.79939686466689e-11
1.27591219057363e-07
2.24122654761474e-07
-1.97083369760717e-09
1.07102691889705e-07
2.20347472265103e-07
-8.40640888211234e-09
6.31564758544221e-08
2.01785731224939e-07
-2.24566331702615e-08
-1.9709099234674e-08
1.64399012329573e-07
-4.81230431238458e-08
8.00343419465308e-09
1.15685975076422e-07
-7.55284977563417e-08
2.88604277297072e-06
6.35008751354545e-08
1.28196324144793e-07
1.66723606744754e-07
2.63088824100185e-07
1.21682771212052e-09
1.71556813910961e-07
2.67501445753354e-07
9.52132628032202e-10
1.63886698984756e-07
2.70095928215243e-07
-2.64233999562245e-09
1.40029954534898e-07
2.57457324603232e-07
-1.17591703416378e-08
8.79433102862099e-08
2.2417534530905e-07
-2.99894576180636e-08
-1.0347017816165e-09
1.76228101992911e-07
-6.09038824077959e-08
3.80552821108483e-08
1.21652971763387e-07
-9.10943678022577e-08
3.10685570770608e-06
6.53692772479887e-08
1.63401349226257e-07
2.0143066646524e-07
3.03493357581062e-07
2.45596239844075e-09
2.13452875658204e-07
3.12041064139845e-07
3.75715703671083e-09
2.16928175280726e-07
3.2097272330949e-07
2.66202759771501e-09
2.05224724886037e-07
3.1396985482521e-07
-2.57337449680795e-09
1.7223706032424e-07
2.84794240480206e-07
-1.4474986123613e-08
1.13739451175646e-07
2.39593606914661e-07
-3.67321389679962e-08
2.12022123328651e-08
1.85477763542436e-07
-7.29879000124513e-08
7.15604583321335e-08
1.26509345274824e-07
-1.06124542744161e-07
3.33948319729273e-06
6.60743097103293e-08
2.03794901552658e-07
2.35288945019518e-07
3.45169191201118e-07
3.63877857117706e-09
2.53939057924119e-07
3.57891624118741e-07
6.47913093469384e-09
2.67825881152523e-07
3.73046625730204e-07
7.65366256604524e-09
2.66304229981425e-07
3.71441138293243e-07
5.69587481879715e-09
2.43050507215985e-07
3.45777214594384e-07
-1.33801390167421e-09
2.02293036014034e-07
3.03160504581344e-07
-1.59786269160334e-08
1.40747789636253e-07
2.51703368924103e-07
-4.21369947400171e-08
4.63543815689216e-08
1.94478439288355e-07
-8.3872906101268e-08
1.09316202190145e-07
1.32400977126529e-07
-1.19808999600521e-07
3.60282093835472e-06
6.87495266443473e-08
2.50476126571249e-07
2.68812275646525e-07
3.88323985558639e-07
4.77187304636015e-09
2.93715583140934e-07
4.05157952750559e-07
9.14799861426389e-09
3.17338066959194e-07
4.26401234699712e-07
1.24414951258556e-08
3.2548891850319e-07
4.29873710545244e-07
1.3375357472453e-08
3.09860246212546e-07
4.07070126083633e-07
1.02860248083155e-08
2.76296962657323e-07
3.65914307344508e-07
1.34180478178598e-09
2.31390167956096e-07
3.16036028607248e-07
-1.5906644698536e-08
1.68429729167975e-07
2.61587981731128e-07
-4.58147738466395e-08
7.25806829697894e-08
2.02900028616587e-07
-9.28981150400511e-08
1.51559829312058e-07
1.40412443101016e-07
-1.30557655034777e-07
3.91348045730047e-06
7.59100474145584e-08
3.05466570913012e-07
1.0401715023314e-06
2.77537889330332e-08
5.53114919509124e-09
-6.02442132025284e-08
5.21718483786146e-08
-7.27389786851783e-09
1.51104394247381e-06
3.28699403296834e-08
1.77847466998936e-08
-5.1341310009426e-08
7.86397732177227e-08
-4.96534015044004e-09
-3.64060098117313e-08
6.30856018506137e-08
-1.68665062052452e-08
1.73143887594963e-06
3.88903297892989e-08
3.17472936397789e-08
-1.16588790052217e-08
1.08026491445242e-07
-3.54308184714654e-09
-4.70579358903459e-08
9.62746797875826e-08
-1.23792591877984e-08
-6.52005477904654e-08
7.54032484445801e-08
-2.91416299914443e-08
2.01932055971472e-06
4.62111998795932e-08
4.8389680602087e-08
2.86105077939967e-08
1.40019156730797e-07
-2.28553394421811e-09
6.4293411693857e-09
1.32249774695775e-07
-8.49386650136821e-09
-6.40446797728065e-08
1.16695603501952e-07
-2.26817783318434e-08
-6.40031938782604e-08
8.9288890125483e-08
-4.34492170377635e-08
2.31182916229248e-06
5.24943325306434e-08
6.89716059783425e-08
6.83903885649324e-08
1.74339922317709e-07
-1.24651884506812e-09
5.51201695817071e-08
1.70662372032073e-07
-5.37846427921389e-09
1.24801565251456e-08
1.61002725920556e-07
-1.52082273420377e-08
-6.39310834051628e-08
1.37980598585133e-07
-3.49256296449573e-08
-4.8708601868335e-08
1.00728552036771e-07
-5.87135971721976e-08
2.57231690928693e-06
5.71227069010288e-08
9.41027936763742e-08
1.0604510029757e-07
2.10568279041561e-07
-1.94362418908834e-10
1.00175357607537e-07
2.10901684776206e-07
-2.47730716098009e-09
7.57156212361362e-08
2.07217283150627e-07
-9.0175774779967e-09
2.87218303702821e-08
1.89704906929777e-07
-2.29083874461549e-08
-5.41945987000864e-08
1.54605257837399e-07
-4.78940598996011e-08
-2.63092993536102e-08
1.09099717736356e-07
-7.42586951531937e-08
2.79940191170602e-06
6.05364308741265e-08
1.23658142219236e-07
1.41305437583728e-07
2.48403301370343e-07
8.89759959901217e-10
1.42765764666649e-07
2.5267591398081e-07
3.15513169265194e-10
1.30809100854276e-07
2.5496824310552e-07
-3.51464087553492e-09
1.03233154473501e-07
2.42888205718464e-07
-1.27125257110129e-08
4.92053163891072e-08
2.11371709140381e-07
-3.06924909258478e-08
-3.89551961756819e-08
1.66243006719407e-07
-6.07595098681725e-08
4.80542217412786e-10
1.15301925212078e-07
-8.97587269992768e-08
3.01448575659277e-06
6.29891463782127e-08
1.57566329522273e-07
1.7482870517874e-07
2.87638569758687e-07
2.05224486923679e-09
1.83326835777912e-07
2.95865104695592e-07
2.97905309665527e-09
1.82282324250282e-07
3.04173471420034e-07
1.52045585387877e-09
1.6671637366101e-07
2.97319418847982e-07
-3.99668542796799e-09
1.3126222380029e-07
2.69366895727441e-07
-1.59768643788451e-08
7.16427639984185e-08
2.26256541438722e-07
-3.79218871925972e-08
-1.99038656391206e-08
1.75032133660155e-07
-7.31792702868072e-08
3.07489713147619e-08
1.20025185041759e-07
-1.04941259175426e-07
3.24228390126357e-06
6.42574791623736e-08
1.96338051389116e-07
2.07328950142238e-07
3.28303584993909e-07
3.14975400407935e-09
2.22380774454034e-07
3.4055242487992e-07
5.50226458734486e-09
2.31550154103239e-07
3.54838993867221e-07
6.16653147149878e-09
2.26085935855854e-07
3.53111854204281e-07
3.73809599157413e-09
2.00528765765967e-07
3.2836600693787e-07
-3.62384002414275e-09
1.5842769921563e-07
2.87338675072763e-07
-1.83559936984855e-08
9.5936846476923e-08
2.37763001921072e-07
-4.42072139028352e-08
2.01096648298916e-09
1.8276116618124e-07
-8.48987411158554e-08
6.47842431321555e-08
1.23818813028053e-07
-1.1932725768879e-07
3.50145637023181e-06
6.43040274724258e-08
2.40851808085677e-07
2.39242570619207e-07
3.70576737459903e-07
4.16216349869565e-09
2.60483184094392e-07
3.86884076695393e-07
7.87882141594682e-09
2.79208668257715e-07
4.07148609275767e-07
1.05065286199087e-08
2.83324417499335e-07
4.10431522957871e-07
1.08275207834399e-08
2.65559929152359e-07
3.88529728770501e-07
7.24349568296986e-09
2.31181033886953e-07
3.48967586856074e-07
-2.0294741190272e-09
1.85636893131755e-07
3.00881475188081e-07
-1.94045417540523e-08
1.21816585416283e-07
2.48067365110572e-07
-4.91121615743401e-08
2.59140080206119e-08
1.90518344083711e-07
-9.53265932675089e-08
1.03839663867237e-07
1.28510292364362e-07
-1.31842778016811e-07
3.80505130029308e-06
6.63679924274155e-08
2.92530212062624e-07
2.70801912489327e-07
4.14687898570071e-07
5.13627485339139e-09
2.9809071121299e-07
4.35017705869177e-07
1.01997294755248e-08
3.25856092313884e-07
4.61205249022608e-07
1.46640722084464e-08
3.39029580538386e-07
4.69274244539778e-07
1.7459255750803e-08
3.28666089170981e-07
4.49796986292948e-07
1.71450418739749e-08
2.998245442696e-07
4.10996652595401e-07
1.22296607592448e-08
2.60472379928095e-07
3.63264086675338e-07
1.09039069997893e-09
2.13078758583294e-07
3.11526133823157e-07
-1.88095912925367e-08
1.47851298923435e-07
2.56407603391797e-07
-5.22177879484602e-08
4.99418827032591e-08
1.97409217566297e-07
-1.03651335872024e-07
1.48332807524331e-07
1.35277934776268e-07
-1.40516028199838e-07
4.16658437311299e-06
7.32691283722587e-08
3.53759711563642e-07
1.00921079127197e-06
2.55760719579077e-08
5.39202002285053e-09
-7.33974324266897e-08
4.79801572434797e-08
-7.0720849273018e-09
1.46880715581291e-06
3.04795574178114e-08
1.73056783940951e-08
-6.68080119455272e-08
7.25644915344451e-08
-4.92641451805269e-09
-5.27470532009138e-08
5.83631581419002e-08
-1.64268549337776e-08
1.68221942947994e-06
3.61643803352585e-08
3.08426521754267e-08
-2.94775147275393e-08
1.00052819137503e-07
-3.59426719594617e-09
-6.59684678344447e-08
8.92945827191814e-08
-1.22647487087293e-08
-8.46628301364989e-08
6.99193542096409e-08
-2.84279836587198e-08
1.96102398190703e-06
4.31508105112088e-08
4.68907794228404e-08
8.86433371935523e-09
1.30181845975675e-07
-2.40947585710621e-09
-1.53043767261264e-08
1.23074803342837e-07
-8.61001131465862e-09
-8.70915205496444e-08
1.08523108914901e-07
-2.24528620203773e-08
-8.75887209110768e-08
8.30886530238977e-08
-4.24299966844336e-08
2.24426536581935e-06
4.92146428287694e-08
6.67498811471777e-08
4.71173691869065e-08
1.62723510058637e-07
-1.43171157550044e-09
3.13494658589679e-08
1.59397147930446e-07
-5.66264926613101e-09
-1.41842316356791e-08
1.50260125416099e-07
-1.53945224772813e-08
-9.14951762411362e-08
1.28739636092712e-07
-3.45688861003597e-08
-7.63071075991827e-08
9.40629209977085e-08
-5.74136690197129e-08
2.49648596781426e-06
5.37717167118389e-08
9.10217855723876e-08
8.35240238520953e-08
1.97295127336943e-07
-4.34317139574113e-10
7.47982145200444e-08
1.97707335888819e-07
-2.91471004852375e-09
4.6744183409177e-08
1.94114926823226e-07
-9.52002500312762e-09
-2.93311222506819e-09
1.77629553497981e-07
-2.32016966617786e-08
-8.56729966570738e-08
1.44737720385479e-07
-4.74548073354365e-08
-5.74571522564235e-08
1.02281482636744e-07
-7.27274963917603e-08
2.71660992583017e-06
5.72806755172487e-08
1.19620008951746e-07
1.17652404351848e-07
2.33625833344465e-07
5.95325094549812e-10
1.15977621032375e-07
2.37753005720537e-07
-2.5788427498077e-10
1.00073883355067e-07
2.39762143815882e-07
-4.28773108518078e-09
6.91450487297682e-08
2.2828598747991e-07
-1.35107057320993e-08
1.34965568074224e-08
1.98575012153712e-07
-3.11688807520478e-08
-7.36355350190833e-08
1.56204868725529e-07
-6.03170734771074e-08
-3.38286805600425e-08
1.08647377123501e-07
-8.80542263963392e-08
2.92561283266691e-06
6.0027617486749e-08
1.52511861523898e-07
1.50008423828268e-07
2.71528101790007e-07
1.6953542014487e-09
1.55185288816632e-07
2.79430742227198e-07
2.27612222647342e-09
1.49915010230547e-07
2.87145468038382e-07
5.05538394234584e-10
1.30781412773339e-07
2.80527453373324e-07
-5.21930336086314e-09
9.31433453311751e-08
2.53962205282275e-07
-1.71850034451033e-08
3.27377658199943e-08
2.13160585898772e-07
-3.87064152978046e-08
-5.74678025626307e-08
1.64956884248535e-07
-7.28522285586053e-08
-6.51285081773576e-09
1.13645372912796e-07
-1.0315690690144e-07
3.14789527628705e-06
6.19170559859976e-08
1.90039171019694e-07
1.81219650870422e-07
3.11018845029694e-07
2.72909326551365e-09
1.92833369968331e-07
3.22801528691461e-07
4.66306152826104e-09
1.97546744629465e-07
3.36251655981647e-07
4.90418540872509e-09
1.88352863345699e-07
3.3447193362186e-07
2.10067162876285e-09
1.60609037250711e-07
3.10773690558428e-07
-5.48418117904164e-09
1.17305686080563e-07
2.71571424596765e-07
-2.01703397482605e-08
5.42505928790919e-08
2.24312040055078e-07
-4.55173896759862e-08
-3.84706870342548e-08
1.7224462192296e-07
-8.4917547894979e-08
2.44500994148534e-08
1.17306034025355e-07
-1.1765728653014e-07
3.4023090594471e-06
6.2556231689275e-08
2.32939543807794e-07
2.11661304234735e-07
3.52227539988988e-07
3.65731998767627e-09
2.29382420358298e-07
3.67946342390451e-07
6.85620764921331e-09
2.43455968555367e-07
3.87167236234884e-07
8.92643837978192e-09
2.43695359705494e-07
3.90196276270915e-07
8.71123240112507e-09
2.23798779938126e-07
3.69159857873034e-07
4.70539823519284e-09
1.88505618741629e-07
3.31185051692805e-07
-4.79564931524537e-09
1.42234906613789e-07
2.84937798614708e-07
-2.21297781604101e-08
7.76849570232956e-08
2.34033086834295e-07
-5.13483204337335e-08
-1.76300973678621e-08
1.78683629632004e-07
-9.62173732335961e-08
5.98831501712801e-08
1.19812094820586e-07
-1.30880939851937e-07
3.70151253927861e-06
6.18008353927253e-08
2.82597174925672e-07
2.41513249626473e-07
3.953535195395e-07
4.51194671530085e-09
2.65182419694292e-07
4.15058922367256e-07
8.89558945108057e-09
2.88105031739916e-07
4.4011567651616e-07
1.26627579043828e-08
2.97284387480448e-07
4.47886931034246e-07
1.47962853438156e-08
2.84821627313849e-07
4.29281294176609e-07
1.3920102573487e-08
2.55339904409345e-07
3.92102028198478e-07
8.59368897955779e-09
2.15853687848586e-07
3.46243154799172e-07
-2.77289977129727e-09
1.68074583903272e-07
2.9634651732969e-07
-2.26805486683242e-08
1.02147608593237e-07
2.42832512627885e-07
-5.57238037877818e-08
4.29857333301605e-09
1.84860624433064e-07
-1.06034990983516e-07
1.01334072685878e-07
1.23021265188748e-07
-1.41497688296225e-07
4.05552327001755e-06
6.32795690821005e-08
3.40310830127497e-07
2.70888321904336e-07
4.40643770856937e-07
5.34505357671956e-09
3.00492010206496e-07
4.64338551377444e-07
1.09036840023126e-08
3.31945793429283e-07
4.95236891504321e-07
1.62660372131605e-08
3.49619100902297e-07
5.07583644026037e-07
2.05262857106936e-08
3.44148374538791e-07
4.91064072779689e-07
2.24229514917151e-08
3.20184743486724e-07
4.5419627127604e-07
2.06802164056571e-08
2.85228383512273e-07
4.08017337178908e-07
1.4008831946023e-08
2.43381562454028e-07
3.579793028598e-07
8.42089558914472e-10
1.93923625265593e-07
3.05190349887365e-07
-2.15310077475659e-08
1.25956355010408e-07
2.49245784015873e-07
-5.81834127349415e-08
2.54233207463707e-08
1.89816775130603e-07
-1.13413283497298e-07
1.49400969257083e-07
1.28300279015042e-07
-1.47014934144125e-07
4.47583986689024e-06
7.0006830965768e-08
4.08771100452151e-07
9.80401282401283e-07
2.35042458202034e-08
5.31137728063377e-09
-8.48832764337892e-08
4.3920416062889e-08
-6.85854977844823e-09
1.42913663072622e-06
2.81851780367302e-08
1.68885771977386e-08
-8.06096396041396e-08
6.66548552577666e-08