/*--------------------------------*- C++ -*----------------------------------*\
  =========                 |
  \\      /  F ield         | OpenFOAM: The Open Source CFD Toolbox
   \\    /   O peration     | Website:  https://openfoam.org
    \\  /    A nd           | Version:  12
     \\/     M anipulation  |
\*---------------------------------------------------------------------------*/
/*   Windows 32 and 64 bit porting by blueCAPE: http://www.bluecape.com.pt   *\
|  Based on Windows porting (2.0.x v4) by Symscape: http://www.symscape.com   |
\*---------------------------------------------------------------------------*/
FoamFile
{
    format      ascii;
    class       volVectorField;
    location    "400";
    object      U;
}
// * * * * * * * * * * * * * * * * * * * * * * * * * * * * * * * * * * * * * //

dimensions      [0 1 -1 0 0 0 0];

internalField   nonuniform List<vector> 
10068
(
(-5.55783077056667e-06 1.36682207808581e-05 1.72112396683116e-05)
(-5.25629494266959e-06 2.96678979083011e-05 1.51678192224648e-05)
(-3.75734305040658e-06 3.76732569632819e-05 4.00606885349119e-05)
(-1.37368125579099e-05 1.9930151679712e-06 1.57262109559535e-05)
(-4.77314425119773e-06 4.4438230520087e-05 1.37583379304494e-05)
(-3.66789632755685e-06 5.60026129023339e-05 3.70013784681047e-05)
(-1.3338462606031e-05 1.68587374701058e-05 1.33273322256291e-05)
(-1.96522527887914e-06 -5.47071143254735e-05 6.35956588956059e-05)
(-1.14012163593716e-05 9.6712061178035e-05 3.68985687185109e-05)
(-1.99640354713632e-05 3.57096915391632e-05 1.4639472188393e-05)
(-4.60033423968128e-06 5.80796311476031e-05 1.31971502018874e-05)
(-3.52408974372617e-06 7.26443194119717e-05 3.43069857673614e-05)
(-1.241619189504e-05 3.02214815230455e-05 1.1654438119508e-05)
(-1.98415240236004e-06 -3.48991671994635e-05 5.98225273172648e-05)
(-1.12884102467266e-05 0.000113487259679998 3.3525529061497e-05)
(-1.96541913652466e-05 4.94669732241316e-05 1.19501876002495e-05)
(-1.04990466233571e-06 -9.24529858112576e-05 8.72087535050957e-05)
(-6.19118599746572e-06 -1.79238431062963e-05 6.11723195398993e-05)
(-1.87028720079504e-05 0.000140121677123859 3.50088771065605e-05)
(-2.69443864689386e-05 4.50976039341806e-05 1.46425499601911e-05)
(-4.44763077141538e-06 7.0838590820346e-05 1.25079135790703e-05)
(-3.44434943506227e-06 8.7600881328819e-05 3.22255111113616e-05)
(-1.19347965812089e-05 4.33116728501502e-05 1.11388947341381e-05)
(-1.95691887456001e-06 -1.68793100633334e-05 5.62220927218017e-05)
(-1.09032737611595e-05 0.000128471280456694 3.07503220823066e-05)
(-1.87736685609699e-05 6.19465929102937e-05 9.93743858122708e-06)
(-1.09808807748489e-06 -7.28415724481309e-05 8.27303108266429e-05)
(-6.31277532099347e-06 1.24345526002383e-06 5.72205610780359e-05)
(-1.85929999061304e-05 0.000155997934934609 3.13998518889636e-05)
(-2.66809695678377e-05 5.86806765644716e-05 1.18102268889063e-05)
(-5.12269164934488e-07 -0.000112839939870544 0.000109611183988164)
(-3.27636857839444e-06 -7.17507373094341e-05 8.52207852618253e-05)
(-1.06696565054243e-05 1.08245177724187e-05 5.92961219632009e-05)
(-2.67552019387072e-05 0.000162427497040283 3.44287369203779e-05)
(-3.50141544318694e-05 4.71151674804054e-05 1.50049871956894e-05)
(-4.28700080360553e-06 8.25902446670861e-05 1.16312061275389e-05)
(-3.370917505148e-06 0.000101413125311853 3.02004462381553e-05)
(-1.15299437361792e-05 5.56309609953987e-05 1.05435354989578e-05)
(-1.94281099333314e-06 -1.96052911696688e-07 5.28887761680092e-05)
(-1.05962432832066e-05 0.000141938387608109 2.88123141992082e-05)
(-1.81400754132886e-05 7.4229008316369e-05 9.43555704786902e-06)
(-1.11562546793353e-06 -5.47613934728389e-05 7.81834449392579e-05)
(-6.22784425177228e-06 1.83297801918148e-05 5.35179561007701e-05)
(-1.81369144890912e-05 0.000170019340437928 2.84643547513184e-05)
(-2.58578899580624e-05 7.08042481054808e-05 9.5968635318341e-06)
(-5.82807739932597e-07 -9.35395116716735e-05 0.0001043610715694)
(-3.47208797219162e-06 -5.24850285342529e-05 8.06191784375082e-05)
(-1.08858796452242e-05 2.95537572960049e-05 5.51950150226341e-05)
(-2.66412012763007e-05 0.000177908113146996 3.06432704238104e-05)
(-3.46480344718363e-05 6.04231979883416e-05 1.20571577839754e-05)
(-1.11111914944149e-07 -0.000127087760855669 0.000130559009032953)
(-1.54241421542687e-06 -9.87889746302559e-05 0.000107545469051161)
(-5.7854344403839e-06 -5.33717619528022e-05 8.33593218472515e-05)
(-1.58064137161735e-05 2.87258418284125e-05 5.85272358032305e-05)
(-3.58112271505456e-05 0.000178436470306269 3.41376471383803e-05)
(-4.39389754746366e-05 4.78508306940401e-05 1.49365212811758e-05)
(-4.14334411210354e-06 9.30021575809996e-05 1.07127072303082e-05)
(-3.29996106733149e-06 0.00011401326877296 2.81115619596272e-05)
(-1.11529852321375e-05 6.7017760765911e-05 9.66698680601272e-06)
(-1.93083880829009e-06 1.54135417944085e-05 4.96175046040401e-05)
(-1.03336007895436e-05 0.000154322355999689 2.69456360689538e-05)
(-1.75655445391821e-05 8.56672688059943e-05 8.94787168828533e-06)
(-1.14086763255088e-06 -3.78151004423228e-05 7.3677823167259e-05)
(-6.137279641584e-06 3.40884855739567e-05 5.02251482527972e-05)
(-1.76940032854475e-05 0.00018240721142142 2.65518097506465e-05)
(-2.50966725373681e-05 8.28326739503269e-05 9.08151141581604e-06)
(-6.23251361517785e-07 -7.56281071261429e-05 9.89054497649506e-05)
(-3.52353743274958e-06 -3.49758182694516e-05 7.59564063725486e-05)
(-1.08267043859007e-05 4.60571965358428e-05 5.13647218892335e-05)
(-2.61668186543503e-05 0.000191464905247385 2.75649276017863e-05)
(-3.37830737750316e-05 7.22300925040641e-05 9.70348027534758e-06)
(-1.94808769891773e-07 -0.000108064883235655 0.000124499260176218)
(-1.78567026249922e-06 -7.97854845514223e-05 0.000102186932283152)
(-6.1386508053761e-06 -3.43713494365166e-05 7.8654317230219e-05)
(-1.60999803856526e-05 4.72006210707856e-05 5.43051518294251e-05)
(-3.56559092990512e-05 0.000193494188355173 3.02066063441644e-05)
(-4.33907547555079e-05 6.07423091733881e-05 1.18939494574159e-05)
(2.0395064691668e-07 -0.000137952652887803 0.000150160976059127)
(-3.36572937980385e-07 -0.000115953067479999 0.000128172567756508)
(-2.69922323068173e-06 -8.53650613038161e-05 0.000105523528943044)
(-8.77056374171852e-06 -4.03298771475099e-05 8.23795068948332e-05)
(-2.16286383283076e-05 4.23509283684058e-05 5.79881085763744e-05)
(-4.56715271599267e-05 0.000193002601278127 3.35991904071849e-05)
(-5.32895585274595e-05 4.94455866493941e-05 1.43879861203833e-05)
(-3.99575850591796e-06 0.000102129806083431 9.79125847153402e-06)
(-3.22298612065522e-06 0.000125338623008668 2.59975234786415e-05)
(-1.08013058107426e-05 7.71074357804504e-05 8.71791364133682e-06)
(-1.91945893904875e-06 2.97841528090526e-05 4.63436641415357e-05)
(-1.01001279048549e-05 0.000165497625888459 2.49561256191108e-05)
(-1.70207588949423e-05 9.62026878714239e-05 8.12034915371449e-06)
(-1.16430811640209e-06 -2.18778433515578e-05 6.91960066788812e-05)
(-6.06655090141123e-06 4.88054425748969e-05 4.70333059297316e-05)
(-1.7284153848948e-05 0.000193702981954333 2.4763188452372e-05)
(-2.43515674002832e-05 9.3962854925062e-05 8.67016194340005e-06)
(-6.67616602169166e-07 -5.87943901467633e-05 9.33541314075731e-05)
(-3.56301739606919e-06 -1.85687320540671e-05 7.14263295116626e-05)
(-1.07069556585007e-05 6.11016649027062e-05 4.80531427559039e-05)
(-2.56269622726453e-05 0.000203309545598214 2.56306275317742e-05)
(-3.28786834829323e-05 8.40862003587007e-05 9.14390876030492e-06)
(-2.53036522303301e-07 -9.03596718446594e-05 0.000118163821697641)
(-1.91898777559909e-06 -6.2310776606873e-05 9.66273907827338e-05)
(-6.28031926947428e-06 -1.72587827001684e-05 7.3879245851544e-05)
(-1.61056402754248e-05 6.3359160742394e-05 5.0359426204341e-05)
(-3.5133218450196e-05 0.000206645592326858 2.70136797961682e-05)
(-4.23661432305938e-05 7.21945055828451e-05 9.41623614638236e-06)
(1.12624396338407e-07 -0.000119160961918185 0.000143281704549764)
(-6.06738559368335e-07 -9.7189660425026e-05 0.000122012854175661)
(-3.12018434485813e-06 -6.65925577005697e-05 0.000100073676113933)
(-9.26517253920942e-06 -2.15096737037034e-05 7.75909477035022e-05)
(-2.19829416258606e-05 6.05342901935843e-05 5.36731722558926e-05)
(-4.54334591966022e-05 0.000207570818888825 2.95492424259101e-05)
(-5.25041377595982e-05 6.18176431897273e-05 1.12501306559079e-05)
(4.46558550792407e-07 -0.000146425173580017 0.000168589164135164)
(5.83204743979524e-07 -0.000128450853196774 0.000147406376628205)
(-5.5125455857038e-07 -0.000105000815906655 0.000125856963460104)
(-4.22062089411013e-06 -7.50783179907103e-05 0.000104279700582939)
(-1.22521713752012e-05 -2.96753044898788e-05 8.15447658223359e-05)
(-2.78954007579217e-05 5.44608514006199e-05 5.71848954151614e-05)
(-5.60124694720673e-05 0.000207372338998771 3.26210484074225e-05)
(-6.26750935626313e-05 5.21183724190923e-05 1.34695621138821e-05)
(-3.83229745407369e-06 0.000110059521417158 8.9405831102303e-06)
(-3.13620070665225e-06 0.000135444187531578 2.39032390216428e-05)
(-1.04412145517082e-05 8.59210831510709e-05 7.76815022955662e-06)
(-1.90134780451482e-06 4.28993230856029e-05 4.30800086400958e-05)
(-9.85712435454764e-06 0.000175396275628115 2.29050136035069e-05)
(-1.64906222589648e-05 0.000105439699039828 7.19108405376612e-06)
(-1.18416608631909e-06 -7.10850959987832e-06 6.47283591821029e-05)
(-6.0088716650716e-06 6.22853360466446e-05 4.38170145058914e-05)
(-1.69003065442952e-05 0.000203805125804524 2.28274987510911e-05)
(-2.36104775996529e-05 0.000104195356947761 7.88238427313008e-06)
(-7.08934902783937e-07 -4.29496733265106e-05 8.77677188691151e-05)
(-3.60604770686642e-06 -3.14040521448559e-06 6.69637221216063e-05)
(-1.05925979207129e-05 7.51006366505359e-05 4.48928061230241e-05)
(-2.50703051572022e-05 0.000214038669353309 2.38671019531847e-05)
(-3.19237684704931e-05 9.50175531588009e-05 8.74890896040826e-06)
(-3.09414078097036e-07 -7.37165709982117e-05 0.000111656132678808)
(-2.03263544179472e-06 -4.58624239374065e-05 9.10400791430477e-05)
(-6.35692091877573e-06 -1.3224485791526e-06 6.93069340157664e-05)
(-1.59872773033135e-05 7.79578418896119e-05 4.70037985175796e-05)
(-3.44683566611557e-05 0.000218072565765728 2.5054743864717e-05)
(-4.12540698666516e-05 8.38321694787092e-05 8.80926714697278e-06)
(4.33642959460284e-08 -0.000101657881031451 0.000136082124850337)
(-7.8549358221205e-07 -7.98440355993874e-05 0.000115588083123464)
(-3.37852570494215e-06 -4.94364233529162e-05 9.44173194960984e-05)
(-9.52962609387539e-06 -4.66822597089783e-06 7.27195299095955e-05)
(-2.20373248127759e-05 7.63738706384127e-05 4.96419909258227e-05)
(-4.47965050528438e-05 0.000220295953703607 2.62635836151652e-05)
(-5.12061825804479e-05 7.2894574521318e-05 8.64899075660235e-06)
(3.50063026349448e-07 -0.000127825160204694 0.000160890829538548)
(2.90380696993183e-07 -0.000109889172102935 0.000140437278265986)
(-1.01948569380299e-06 -8.64473869238255e-05 0.000119610612316107)
(-4.82502007077328e-06 -5.64724062805743e-05 9.87622300563069e-05)
(-1.28727726158129e-05 -1.10750663311549e-05 7.66993327304553e-05)
(-2.82901618226767e-05 7.23049979529224e-05 5.27995708217044e-05)
(-5.56568615784026e-05 0.000221410873177546 2.84684415025828e-05)
(-6.15873554577872e-05 6.38491080872139e-05 1.02193219436318e-05)
(6.19737199692839e-07 -0.000153021118455585 0.00018607434088927)
(1.3017831144556e-06 -0.000138031023154733 0.000165525384909868)
(1.04459887724587e-06 -0.000118993668134341 0.00014479620979162)
(-1.01754409934842e-06 -9.62369134906846e-05 0.0001243326552213)
(-6.09437618721355e-06 -6.61720094090172e-05 0.00010314014249437)
(-1.60122355442088e-05 -1.99673912891751e-05 8.04175589287591e-05)
(-3.43827800053423e-05 6.61525080877541e-05 5.59249930701497e-05)
(-6.65556818103357e-05 0.000222310601424601 3.11118192946478e-05)
(-7.17297809341298e-05 5.52070432160935e-05 1.2138870756939e-05)
(-3.60468516469038e-06 0.000116867104417872 8.41560268191781e-06)
(-3.04136209926613e-06 0.000144389890282733 2.18510570614333e-05)
(-1.00799742337105e-05 9.35603659316071e-05 6.82435188888918e-06)
(-1.87470036905189e-06 5.48196365861916e-05 3.98565940707506e-05)
(-9.59511222701002e-06 0.000184096356925808 2.08603185384728e-05)
(-1.59328789424414e-05 0.000113412619881779 6.23836967480292e-06)
(-1.19696542145737e-06 6.47089765038168e-06 6.0291220227681e-05)
(-5.93694964222698e-06 7.451138714553e-05 4.0588595705059e-05)
(-1.65131145694381e-05 0.000212645431484913 2.0805421559393e-05)
(-2.28838945007909e-05 0.000113134738768548 6.91374212511878e-06)
(-7.45590529421304e-07 -2.82118919351309e-05 8.21786226756978e-05)
(-3.64670125854227e-06 1.11197402296073e-05 6.25150747107863e-05)
(-1.04845876323764e-05 8.78680110964585e-05 4.17054588262952e-05)
(-2.45176980469377e-05 0.000223588644373557 2.19438962527572e-05)
(-3.09530968683159e-05 0.000105094430308322 7.928984208336e-06)
(-3.61250090832874e-07 -5.80593660202879e-05 0.0001050650305882)
(-2.14108391697526e-06 -3.03680370036398e-05 8.54542860752595e-05)
(-6.42296824086277e-06 1.36388984092176e-05 6.48440905328063e-05)
(-1.58289328448115e-05 9.1505835216934e-05 4.38340727325626e-05)
(-3.37363945070421e-05 0.000228385237131196 2.3297345301743e-05)
(-4.00364040340028e-05 9.45443285954215e-05 8.39576488788613e-06)
(-2.18881661400523e-08 -8.52184967747724e-05 0.000128670816558691)
(-9.42553581187127e-07 -6.35147607474384e-05 0.000109051212117721)
(-3.57557297620218e-06 -3.33434971276757e-05 8.87889492521553e-05)
(-9.67195174743038e-06 1.09324781964201e-05 6.80973395972066e-05)
(-2.19090977441454e-05 9.06096164905952e-05 4.62506197013813e-05)
(-4.39552638395999e-05 0.000231309318459524 2.4287248418547e-05)
(-4.98080736790227e-05 8.42719027930581e-05 8.02689043043956e-06)
(2.72981188768293e-07 -0.000110506452597536 0.000152845342131897)
(7.81143466214875e-08 -9.26934193921255e-05 0.000133169064876014)
(-1.35338139863278e-06 -6.93716408590505e-05 0.000113107973136151)
(-5.24193543521598e-06 -3.95508437083924e-05 9.30270306890935e-05)
(-1.32505904078144e-05 5.50208786348325e-06 7.17626087411736e-05)
(-2.8355048246793e-05 8.78068078211682e-05 4.87052521198037e-05)
(-5.48420393750932e-05 0.000233684914660508 2.51027770196895e-05)
(-5.98944424613273e-05 7.45401933427441e-05 7.5016291883441e-06)
(5.18456486689947e-07 -0.000134574403180327 0.00017754940842878)
(9.93215431004249e-07 -0.000119639778044926 0.000157744527707051)
(5.36797070697809e-07 -0.000100623217282862 0.000137746811280703)
(-1.69616149210664e-06 -7.78421123722972e-05 0.000118029130970396)
(-6.86895780485375e-06 -4.77660291652085e-05 9.75851390986242e-05)
(-1.67458785666875e-05 -1.63491182194663e-06 7.55372075075749e-05)
(-3.4798401881384e-05 8.36177350614559e-05 5.14794751293292e-05)
(-6.60452312445794e-05 0.000235765238570974 2.68631533575959e-05)
(-7.02597532750499e-05 6.61632131647828e-05 8.74778405332201e-06)
(7.52328475795752e-07 -0.00015800649361926 0.000202851941186176)
(1.84385671774274e-06 -0.000145439445049706 0.000182794129974258)
(2.27171664702172e-06 -0.000129626718701145 0.000162683687612287)
(1.37693599046156e-06 -0.000111225915136919 0.000143033785176925)
(-1.72369493441092e-06 -8.83642835340865e-05 0.000122918650811945)
(-8.16476439769746e-06 -5.77698112328243e-05 0.000101696815822919)
(-1.98753013656378e-05 -1.04455389032781e-05 7.87901410871242e-05)
(-4.09427413288734e-05 7.81857558475248e-05 5.40778617817552e-05)
(-7.70611741181762e-05 0.000238608697644623 2.89370094985587e-05)
(-8.00370019041218e-05 5.80874956699465e-05 1.0318899738129e-05)
(-3.39352196247217e-06 0.000122606220642314 7.8443504578915e-06)
(-2.93653690073193e-06 0.000152227924433679 1.98609872216463e-05)
(-9.69980704148944e-06 0.000100097154038432 5.92138175017901e-06)
(-1.84019968531774e-06 6.55967498651976e-05 3.66957113629863e-05)
(-9.31280652277631e-06 0.000191665568515045 1.88485397316307e-05)
(-1.53592086840837e-05 0.0001202409910605 5.27660840357216e-06)
(-1.20190006273675e-06 1.89003003878405e-05 5.59115024579559e-05)
(-5.84168861964652e-06 8.55557005329639e-05 3.73918053730983e-05)
(-1.60929906212534e-05 0.000220312326318325 1.87784493939953e-05)
(-2.21333839677797e-05 0.000120822865066734 5.92804100453162e-06)
(-7.74755291262142e-07 -1.46004480395063e-05 7.66256557564088e-05)
(-3.67095963893382e-06 2.41858981378092e-05 5.80878117495011e-05)
(-1.03552052262718e-05 9.93829338298627e-05 3.84929788021001e-05)
(-2.39471635582786e-05 0.000231879472452449 1.99097290189694e-05)
(-2.99760189977578e-05 0.000113892505379942 6.94275872716081e-06)
(-4.06089984040785e-07 -4.34693473108224e-05 9.84518586953119e-05)
(-2.2387066628196e-06 -1.59747477952689e-05 7.98746403581814e-05)
(-6.4790758159036e-06 2.74372242280977e-05 6.04034158411953e-05)
(-1.56531973894985e-05 0.000103824336583351 4.06403014791826e-05)
(-3.29712081012687e-05 0.000237536223065325 2.13688656907333e-05)
(-3.87800233384884e-05 0.000104458871305473 7.58886858328169e-06)
(-8.15169164563111e-08 -6.97726113740543e-05 0.000121143642187265)
(-1.0894351739773e-06 -4.81380062597971e-05 0.000102461831291305)
(-3.75170835680076e-06 -1.8192525178226e-05 8.31947532369275e-05)
(-9.76507669375457e-06 2.55638989752797e-05 6.36124764712197e-05)
(-2.16927611661148e-05 0.000103805563552305 4.30673752798011e-05)
(-4.29982550245768e-05 0.000241216564392144 2.25371020273884e-05)
(-4.8281280376074e-05 9.47134747183194e-05 7.65335684645402e-06)
(2.01224227628759e-07 -9.42617091493998e-05 0.000144565225498982)
(-1.0952168832494e-07 -7.65236819824517e-05 0.000125742700860252)
(-1.62822456469846e-06 -5.3334464579486e-05 0.000106541560869026)
(-5.547842502142e-06 -2.37263070160074e-05 8.73550404169434e-05)
(-1.34574563127765e-05 2.08112816136779e-05 6.71048438545545e-05)
(-2.8184756295941e-05 0.000101693178216222 4.52945535990043e-05)
(-5.37625974683178e-05 0.000244263704316559 2.31225240240644e-05)
(-5.81378624912644e-05 8.56503098794842e-05 6.90676035329967e-06)
(4.35931974820107e-07 -0.000117420213347554 0.000168662648356619)
(7.56964167534035e-07 -0.0001025954175621 0.000149644654025407)
(1.48512407270479e-07 -8.36644374008871e-05 0.00013041749883329)
(-2.21442127067134e-06 -6.09733424391561e-05 0.000111465247735939)
(-7.43838312048047e-06 -3.10785320458426e-05 9.18014913027974e-05)
(-1.72095669345261e-05 1.4658364978677e-05 7.05621363673289e-05)
(-3.48328180886151e-05 9.87555610908641e-05 4.73321974788504e-05)
(-6.49780434502879e-05 0.000247550315486348 2.34282118742628e-05)
(-6.82284553963662e-05 7.6431156337391e-05 5.94262316558638e-06)
(6.46412820012067e-07 -0.000139690980975587 0.000193478771775374)
(1.52164720473324e-06 -0.000127195135665426 0.000174191634285365)
(1.73262708993315e-06 -0.000111414589967163 0.000154831215255298)
(6.4228595290813e-07 -9.30039336643373e-05 0.000135934994096598)
(-2.60285271442066e-06 -7.01561141906426e-05 0.000116589783261575)
(-9.09812536376809e-06 -3.96078612740144e-05 9.61289132067186e-05)
(-2.07086120914225e-05 7.57379021836874e-06 7.38894751525019e-05)
(-4.1358947340929e-05 9.52244124100223e-05 4.95857331932393e-05)
(-7.63452372247943e-05 0.000251383350249079 2.45855686681645e-05)
(-7.82124469978314e-05 6.82621721192955e-05 6.78067690461695e-06)
(8.48317231935446e-07 -0.000161509481929084 0.000219125781063332)
(2.25479714780099e-06 -0.000151049307514003 0.000199425300626823)
(3.21831061489517e-06 -0.000137831360870109 0.00017978080167389)
(3.21391955966537e-06 -0.000122603017446752 0.000160744024539952)
(1.55295601099029e-06 -0.000104083480221976 0.000141404406424814)
(-2.57843653574155e-06 -8.07539810060068e-05 0.000121200447587784)
(-1.03071152238176e-05 -4.93610955295021e-05 9.97246098006851e-05)
(-2.3751606518981e-05 -5.50200596128975e-07 7.65015531870047e-05)
(-4.74706344128675e-05 9.12325786987638e-05 5.14593065988869e-05)
(-8.73053350110237e-05 0.000257009937578678 2.59013648743719e-05)
(-8.71164616998119e-05 6.06442069988479e-05 7.89167161426427e-06)
(-3.24558730297023e-06 0.000127308814862767 6.9642285343497e-06)
(-2.8314801384357e-06 0.000159007020238577 1.79223057887176e-05)
(-9.31152604714707e-06 0.000105587992359609 5.04165938470265e-06)
(-1.79866730138602e-06 7.52766044764159e-05 3.36094420768487e-05)
(-9.01106616708836e-06 0.0001981583619436 1.68871932422065e-05)
(-1.47858574249436e-05 0.000125965322082013 4.34462186010889e-06)
(-1.19965371153785e-06 3.02243631740089e-05 5.16125403399819e-05)
(-5.72428245989149e-06 9.54775159317565e-05 3.42530393001811e-05)
(-1.56373917040693e-05 0.00022687515463149 1.67799864296071e-05)
(-2.13495224556644e-05 0.000127356269876756 4.95247496289859e-06)
(-7.96408741607129e-07 -2.08661218811521e-06 7.11427731869535e-05)
(-3.67360958623834e-06 3.61097129111226e-05 5.37138338989091e-05)
(-1.01888649945166e-05 0.000109730838153317 3.5305111342488e-05)
(-2.33287684867793e-05 0.000238996486662375 1.78626427098396e-05)
(-2.89662808644808e-05 0.000121422112453384 5.93588749583196e-06)
(-4.45061340831638e-07 -2.99615873245237e-05 9.18713693743461e-05)
(-2.31627829910104e-06 -2.71076483052165e-06 7.43277148446808e-05)
(-6.50751596068574e-06 4.0046252690076e-05 5.59790872886237e-05)
(-1.54413089436887e-05 0.000114891323740231 3.7414101892082e-05)
(-3.21571552276917e-05 0.000245426411059299 1.93130900935976e-05)
(-3.74835894134689e-05 0.000113109075497916 6.60020627526991e-06)
(-1.35213796683017e-07 -5.53697004948418e-05 0.000113583264266904)
(-1.22555340215352e-06 -3.38186405784297e-05 9.5862866341903e-05)
(-3.9076526843057e-06 -4.13380328501127e-06 7.76165843297757e-05)
(-9.82673093862428e-06 3.90387448544111e-05 5.91563198173543e-05)
(-2.14235708899172e-05 0.000115784203376575 3.9860034537192e-05)
(-4.19664544145379e-05 0.000249988181108782 2.06129036546556e-05)
(-4.6676592549598e-05 0.000104412124845644 6.89521203532674e-06)
(1.35472723178281e-07 -7.90205345541742e-05 0.000136151309170647)
(-2.8291201546798e-07 -6.13156797036228e-05 0.000118227205383717)
(-1.87570035650713e-06 -3.82363389029782e-05 9.9947929530238e-05)
(-5.79954452006165e-06 -8.83155916820651e-06 8.17392609036387e-05)
(-1.35715698324256e-05 3.51702172866325e-05 6.26007826760328e-05)
(-2.78816825822306e-05 0.00011456106055706 4.21084235078428e-05)
(-5.25290388173471e-05 0.000253749623290967 2.13925685327605e-05)
(-5.62532731535556e-05 9.57618871581688e-05 6.6035211901143e-06)
(3.59506796159132e-07 -0.000101358123779913 0.000159531225167594)
(5.47271185163043e-07 -8.65939012961067e-05 0.000141361718986571)
(-1.8055285120049e-07 -6.77471173421445e-05 0.000122975200052663)
(-2.63012199245273e-06 -4.51622285693422e-05 0.000104867500132423)
(-7.85512575014445e-06 -1.54955185189768e-05 8.6100845785398e-05)
(-1.74588844045852e-05 2.96824977480923e-05 6.58878079723786e-05)
(-3.45818850041124e-05 0.000112283906791921 4.39149978781234e-05)
(-6.36041061117431e-05 0.000257661187836621 2.14565370531044e-05)
(-6.60570483694975e-05 8.72743536448011e-05 5.42825773316722e-06)
(5.59356672686219e-07 -0.000122689113122982 0.000183741750350515)
(1.26865075404551e-06 -0.000110297294498224 0.000165260217102255)
(1.30548554041306e-06 -9.45850249073063e-05 0.000146683439733715)
(5.18911451509096e-08 -7.62291184087868e-05 0.000128557943749169)
(-3.30218757749932e-06 -5.3496508913322e-05 0.000109991629031723)
(-9.80060551024827e-06 -2.31732676539291e-05 9.03247396001909e-05)
(-2.12293864614447e-05 2.35583653145184e-05 6.88919253442318e-05)
(-4.13190752928641e-05 0.000109960916886231 4.53905487681663e-05)
(-7.49802746364516e-05 0.000262626041772026 2.11022253560972e-05)
(-7.5735426575135e-05 7.808871280521e-05 4.00605941857981e-06)
(7.38963404778229e-07 -0.000143316990144919 0.000208871481400811)
(1.92097698582238e-06 -0.00013293479523463 0.000189979894084536)
(2.65494884340676e-06 -0.000119759314200311 0.000171113980381247)
(2.43425613765e-06 -0.000104531541416678 0.0001528478023107)
(5.94838314393635e-07 -8.60349516170115e-05 0.000134287974134496)
(-3.64766534824564e-06 -6.27708701892181e-05 0.000114873062346024)
(-1.13841049075868e-05 -3.14826709432234e-05 9.41620534056917e-05)
(-2.46656319927821e-05 1.71093229453206e-05 7.15937583409452e-05)
(-4.78537980653162e-05 0.000107781320192385 4.69342740894553e-05)
(-8.63383016970285e-05 0.000269012352504369 2.14447058291516e-05)
(-8.48949239910334e-05 6.97690332904624e-05 4.28959126485486e-06)
(9.12927966386175e-07 -0.00016357949057255 0.000235036548493805)
(2.55182934362083e-06 -0.000155049548520603 0.000215581373061688)
(3.92948486313622e-06 -0.000144064656469296 0.000196282962887536)
(4.6223057237391e-06 -0.000131398573305076 0.000177713397835066)
(4.06402637331711e-06 -0.000116045759148278 0.000158958561150768)
(1.61190015828296e-06 -9.70724843470711e-05 0.000139469946482792)
(-3.50376208856199e-06 -7.30380617709967e-05 0.000118928423512682)
(-1.24616947681473e-05 -4.0552253660572e-05 9.70353260076167e-05)
(-2.75968360068533e-05 1.01712569044297e-05 7.3354785541859e-05)
(-5.38780951092479e-05 0.000105893900136723 4.78431993687651e-05)
(-9.70634231361587e-05 0.000278306656734094 2.17335505412092e-05)
(-9.22624050306725e-05 6.27856836689728e-05 4.72418347866341e-06)
(-3.10492479992744e-06 0.000130991831799398 6.10085710054405e-06)
(-2.72998309970493e-06 0.000164786777695343 1.60250591549789e-05)
(-8.91454874982492e-06 0.000110062575076126 4.17053502177573e-06)
(-1.75235196191578e-06 8.39086309316306e-05 3.06015278475017e-05)
(-8.6993773588601e-06 0.000203625243944115 1.4975212398405e-05)
(-1.41949750837446e-05 0.000130650679903877 3.44759250934923e-06)
(-1.19050394999433e-06 4.04879757005365e-05 4.74097339171004e-05)
(-5.58569476106824e-06 0.00010432517063726 3.11846239567045e-05)
(-1.51514190942658e-05 0.000232388377470535 1.48256785326701e-05)
(-2.05386889592804e-05 0.000132797311155355 4.0081234824828e-06)
(-8.11145765390955e-07 9.36686950602533e-06 6.57582538116394e-05)
(-3.65451831922578e-06 4.69414130023328e-05 4.94186848310749e-05)
(-9.98361608040957e-06 0.000118977288963645 3.21706404884097e-05)
(-2.2659324679655e-05 0.000245029969061823 1.58441623597995e-05)
(-2.79118207293658e-05 0.000127804046927999 4.93914263819658e-06)
(-4.78224592977704e-07 -1.75082224597423e-05 8.53679538320826e-05)
(-2.37246639703265e-06 9.45851399930008e-06 6.88487116080571e-05)
(-6.49910541286887e-06 5.15220279131233e-05 5.16032562886444e-05)
(-1.51778880961253e-05 0.000124799100885334 3.42058380388116e-05)
(-3.12879815868567e-05 0.000252156285205786 1.72369101498882e-05)
(-3.61410448614006e-05 0.000120496199762257 5.5818751721292e-06)
(-1.8247966078038e-07 -4.20133481095731e-05 0.000106052775803145)
(-1.3414470102165e-06 -2.05794465166424e-05 8.92957838430433e-05)
(-4.03241907203216e-06 8.80000406492073e-06 7.20701430790556e-05)
(-9.84470211453659e-06 5.13262017611993e-05 5.47124745576189e-05)
(-2.10949536958498e-05 0.000126516826456988 3.66090610061207e-05)
(-4.08711230639144e-05 0.000257518751703239 1.85448587503848e-05)
(-4.50044984927396e-05 0.000112870821149006 5.92329374720426e-06)
(7.58280276218016e-08 -6.48115618431722e-05 0.000127694606651097)
(-4.41406829389757e-07 -4.71406547024989e-05 0.000110685803625033)
(-2.0984113961834e-06 -2.41858614924738e-05 9.33510452645992e-05)
(-6.01091556559862e-06 4.97924862396255e-06 7.61457927563773e-05)
(-1.36221328032057e-05 4.8386783033685e-05 5.81267637010102e-05)
(-2.74904538772387e-05 0.00012623586763351 3.88942680591919e-05)
(-5.11988063862625e-05 0.000262140036112812 1.94840342116207e-05)
(-5.42553691741101e-05 0.000105178972600244 5.90007547904666e-06)
(2.89688602319654e-07 -8.63142116030035e-05 0.000150259917957174)
(3.5380380565324e-07 -7.15669901407384e-05 0.000132969175957362)
(-4.78222043649237e-07 -5.27775600098033e-05 0.000115465139491556)
(-2.98860894352292e-06 -3.02764738906866e-05 9.82591452955224e-05)
(-8.18063541927264e-06 -8.20680722947659e-07 8.04677022391794e-05)
(-1.75763718336319e-05 4.37866072082764e-05 6.1376091257565e-05)
(-3.41602553852042e-05 0.000124823393478334 4.07365565356473e-05)
(-6.20593908084817e-05 0.000266702187874595 1.97574481149181e-05)
(-6.37229320703856e-05 9.70171597397969e-05 5.21171251587494e-06)
(4.79608125429472e-07 -0.000106803801306951 0.00017376184689265)
(1.04348420705099e-06 -9.44637158610974e-05 0.000156135067289714)
(9.37725677682138e-07 -7.88100844760475e-05 0.000138396163516393)
(-4.41027342260135e-07 -6.05087916846006e-05 0.000121095952722546)
(-3.86211294909584e-06 -3.78935007373414e-05 0.000103374743948921)
(-1.03132927660278e-05 -7.83115920412732e-06 8.46142997184528e-05)
(-2.14937900103598e-05 3.82904685817205e-05 6.4216300258181e-05)
(-4.09477827747186e-05 0.000123106447104864 4.19727706726988e-05)
(-7.32671476751047e-05 0.00027223970310973 1.9161804156086e-05)
(-7.30854068824916e-05 8.84918346302349e-05 3.59769015313841e-06)
(6.48951164359587e-07 -0.000126467350785447 0.000198263961653637)
(1.65518786577341e-06 -0.000116180597033608 0.000180205672544666)
(2.19925102216e-06 -0.000103063111004586 0.000162144208666347)
(1.79103526493002e-06 -8.78697909375302e-05 0.000144661721108867)
(-1.97972006280799e-07 -6.94478024320204e-05 0.00012688730774612)
(-4.51234079803869e-06 -4.63382975223648e-05 0.000108267347097441)
(-1.21970038676101e-05 -1.53238716075869e-05 8.83564221054494e-05)
(-2.52149892352757e-05 3.27516040338142e-05 6.65862433491402e-05)
(-4.77037500375446e-05 0.000122070624440403 4.27138510815554e-05)
(-8.46272442232138e-05 0.000279639259364016 1.79179388592e-05)
(-8.18040246282149e-05 7.89956651390823e-05 1.44882815127745e-06)
(8.01296052765152e-07 -0.000145517094915109 0.000223860584005532)
(2.2092776666392e-06 -0.00013705950457767 0.000205261308669704)
(3.3474592646047e-06 -0.000126120543510057 0.000186779057000807)
(3.80683096064109e-06 -0.000113462349599626 0.000169007802619353)
(3.0436704458077e-06 -9.81362459294813e-05 0.000151049807026809)
(4.40127688778946e-07 -7.92305999349884e-05 0.000132363557662617)
(-4.74714990454898e-06 -5.53132334466198e-05 0.000112623793442737)
(-1.36623783499811e-05 -2.29957088046155e-05 9.14955476074398e-05)
(-2.85610204650397e-05 2.74222699465534e-05 6.84556958375813e-05)
(-5.41811837273906e-05 0.000121882436805343 4.32822749607937e-05)
(-9.58005099447485e-05 0.000289411883516445 1.7163846484287e-05)