/*--------------------------------*- C++ -*----------------------------------*\
  =========                 |
  \\      /  F ield         | OpenFOAM: The Open Source CFD Toolbox
   \\    /   O peration     | Website:  https://openfoam.org
    \\  /    A nd           | Version:  12
     \\/     M anipulation  |
\*---------------------------------------------------------------------------*/
/*   Windows 32 and 64 bit porting by blueCAPE: http://www.bluecape.com.pt   *\
|  Based on Windows porting (2.0.x v4) by Symscape: http://www.symscape.com   |
\*---------------------------------------------------------------------------*/
FoamFile
{
    format      ascii;
    class       surfaceScalarField;
    location    "0";
    object      phi;
}
// * * * * * * * * * * * * * * * * * * * * * * * * * * * * * * * * * * * * * //

dimensions      [0 3 -1 0 0 0 0];

internalField   nonuniform List<scalar> 
28828
(
1.72537981666477e-06
8.93260904876801e-07
-1.00893974112802e-06
1.84825520147953e-06
8.91780561181796e-07
-1.01465460293981e-06
1.75312932427666e-06
1.76649936957691e-06
-9.90296254436837e-07
1.80921618063227e-06
9.69853257443058e-07
-2.10066873254445e-06
1.97828205472368e-06
8.89330667437338e-07
-1.01935615674698e-06
1.87736187244408e-06
1.76356715048612e-06
-9.96017923998866e-07
1.93886873889166e-06
9.6843161551812e-07
-2.1127374396323e-06
1.82710433981173e-06
2.64698355946659e-06
-1.00140287066147e-06
1.90664800658599e-06
1.95858155807696e-06
-2.10690751058647e-06
1.9568612623525e-06
1.13248386161559e-06
-3.3663459820914e-06
2.11509795388626e-06
8.85733567059616e-07
-1.02254808537406e-06
2.00877522653727e-06
1.75864387770095e-06
-1.0007252607083e-06
2.07631338313962e-06
9.65984148472672e-07
-2.12278358965892e-06
1.95525647607699e-06
2.64235755305666e-06
-1.00694166852072e-06
2.04258314648696e-06
1.95562568784504e-06
-2.11914580946692e-06
2.09901751097751e-06
1.13149118544905e-06
-3.38638352924267e-06
1.90875471780931e-06
3.51573726266111e-06
-9.93253748189778e-07
2.03553952962605e-06
2.9794372435454e-06
-2.15753389173596e-06
2.11979990416156e-06
2.32151852874008e-06
-3.43955382424736e-06
2.10417024011751e-06
1.32790602478264e-06
-4.83991401572153e-06
2.2579300125573e-06
8.80756008527196e-07
-1.02358670179384e-06
2.14691091076893e-06
1.75151754063983e-06
-1.00391832933576e-06
2.22126298679316e-06
9.62294985441742e-07
-2.12979132525482e-06
2.09056806453777e-06
2.63474443887241e-06
-1.01141124015385e-06
2.18656676479202e-06
1.9505864194889e-06
-2.12930978046621e-06
2.25031544706412e-06
1.12935127264468e-06
-3.40343149644354e-06
2.04042912151897e-06
3.50898004315683e-06
-9.98296299729206e-07
2.17910188459978e-06
2.97466427704688e-06
-2.16954168110584e-06
2.27294007431229e-06
2.31918196553631e-06
-3.45997500269265e-06
2.26046460275613e-06
1.32780792592263e-06
-4.87048439305996e-06
1.96352347869615e-06
4.32747029912444e-06
-9.37178258628314e-07
2.13553071164428e-06
3.98232184569515e-06
-2.13594761385421e-06
2.31667776713016e-06
3.54669197995147e-06
-3.53815111619412e-06
2.30085107414257e-06
2.74135788098804e-06
-5.01153526236778e-06
2.18897250126179e-06
1.53869632989622e-06
-6.53380677221125e-06
2.40543997757317e-06
8.74155613397007e-07
-1.02166424926019e-06
2.29098525165952e-06
1.74164555958174e-06
-1.00496256020785e-06
2.3729702846388e-06
9.57122555678912e-07
-2.13241522587002e-06
2.23255517496762e-06
2.6238327436695e-06
-1.01430134863119e-06
2.33826285229348e-06
1.94304045706687e-06
-2.13635845959893e-06
2.41065189443139e-06
1.12579882542737e-06
-3.41592531653488e-06
2.17898395463875e-06
3.49840088767316e-06
-1.00221070783594e-06
2.33089415062205e-06
2.96670667582105e-06
-2.17932279035685e-06
2.435766409459e-06
2.31447203548133e-06
-3.47725509861108e-06
2.42789322203591e-06
1.32647046343709e-06
-4.89732932644418e-06
2.09571382488572e-06
4.31824424929434e-06
-9.41454079777071e-07
2.28352890352804e-06
3.97525485397526e-06
-2.14688444140524e-06
2.4821449285058e-06
3.54247102543462e-06
-3.55829632284413e-06
2.4707968103258e-06
2.74066101859731e-06
-5.04277132630751e-06
2.35674847123181e-06
1.54022314151104e-06
-6.57848269097081e-06
1.98105014869177e-06
5.05302617694318e-06
-8.48783157124484e-07
2.18524168752141e-06
4.9047148682634e-06
-1.99964251182412e-06
2.44900884363918e-06
4.72635196088885e-06
-3.47740914222218e-06
2.53974875237666e-06
4.17883057806805e-06
-5.14888295181164e-06
2.39260475918232e-06
3.17440272172201e-06
-6.81611395197115e-06
2.18758406103503e-06
1.81816282710116e-06
-8.51178875722786e-06
2.55554710826852e-06
8.65659287513554e-07
-1.01576513196861e-06
2.43962336301944e-06
1.72855733797554e-06
-1.00303854676e-06
2.53019985573579e-06
9.50185920784969e-07
-2.12907846446321e-06
2.38035519738487e-06
2.60882108831957e-06
-1.01497458623437e-06
2.49688467840758e-06
1.93249257370376e-06
-2.1389529696238e-06
2.5795342181495e-06
1.12052817745552e-06
-3.42182447562843e-06
2.32401663319879e-06
3.48329699032808e-06
-1.00449630956327e-06
2.49050467487312e-06
2.95493169841486e-06
-2.18580208565444e-06
2.60812096307303e-06
2.30685390819476e-06
-3.4897662447553e-06
2.60673684614045e-06
1.32357533140563e-06
-4.91834305179263e-06
2.23436519871709e-06
4.30433709038746e-06
-9.44587169808525e-07
2.43956775768139e-06
3.96392317530144e-06
-2.15546540913761e-06
2.65773207376875e-06
3.53458421862231e-06
-3.57502045159092e-06
2.65265871735917e-06
2.73736007256373e-06
-5.07000405289699e-06
2.53812441619545e-06
1.54051389249704e-06
-6.61921854083187e-06
2.11033155276665e-06
5.04112421069914e-06
-8.52160974067128e-07
2.33299699577866e-06
4.89488437560087e-06
-2.00883827646022e-06
2.62077654345792e-06
4.71956093332559e-06
-3.49574046704534e-06
2.72513402830173e-06
4.17663887310199e-06
-5.17965679071095e-06
2.57500508144735e-06
3.17685360494035e-06
-6.8617993623091e-06
2.3619868251513e-06
1.82266075606807e-06
-8.5755463520322e-06
1.97109275071736e-06
5.68449252888426e-06
-7.50143991130146e-07
2.19552773106378e-06
5.7153043238592e-06
-1.79634585894693e-06
2.5005848978381e-06
5.78934179249084e-06
-3.22430954960055e-06
2.69399063870418e-06
5.52420431319607e-06
-5.00366075248977e-06
2.644365895673e-06
4.8085478613338e-06
-6.96780833593515e-06
2.39185511891027e-06
3.70696799276091e-06
-8.87893920724445e-06
2.1107072996487e-06
2.27226524284569e-06
-1.09436552959389e-05
2.70525386066113e-06
8.54990277328371e-07
-1.00469578687083e-06
2.59070438876951e-06
1.71172403242789e-06
-9.9714453730923e-07
2.69085779082615e-06
9.41176414932953e-07
-2.11759826564067e-06
2.53249549592385e-06
2.5890242543907e-06
-1.01260629646912e-06
2.66104611790619e-06
1.91837890091992e-06
-2.13539157328775e-06
2.75577724496959e-06
1.11318092189613e-06
-3.41850123000548e-06
2.47449239513587e-06
3.46287011369584e-06
-1.00452417997204e-06
2.65703373011211e-06
2.93859493059868e-06
-2.18760498614618e-06
2.78938669272514e-06
2.29570303925991e-06
-3.49539174420206e-06
2.79691883464832e-06
1.31874093642001e-06
-4.9307462771831e-06
2.37884716328673e-06
4.284921163138e-06
-9.46105728502331e-07
2.6031345903962e-06
3.94749302281228e-06
-2.16062379844884e-06
2.84318069237e-06
3.52222860975614e-06
-3.58662375856981e-06
2.84668211259379e-06
2.73080082582412e-06
-5.09101264043221e-06
2.73404062439066e-06
1.53920491122243e-06
-6.65346369868263e-06
2.24526593958671e-06
5.02382653309018e-06
-8.54423556412984e-07
2.48817586296132e-06
4.87980772160417e-06
-2.01565013540084e-06
2.80249834384282e-06
4.70783456008611e-06
-3.51043617454472e-06
2.92308973787637e-06
4.17038323295542e-06
-5.20599687363636e-06
2.77198838659744e-06
3.17666752402111e-06
-6.90313839729784e-06
2.55270206732301e-06
1.82605415464179e-06
-8.63598840004452e-06
2.09496121412388e-06
5.66988550378995e-06
-7.52629536042628e-07
2.3393750861363e-06
5.70243498603835e-06
-1.80355843735412e-06
2.67158549536214e-06
5.77935499875396e-06
-3.23963159889278e-06
2.88696153159317e-06
5.51942607935351e-06
-5.03149624722312e-06
2.8435485838039e-06
4.81056322751117e-06
-7.01254653914179e-06
2.58159859454655e-06
3.714898679614e-06
-8.94377806005758e-06
2.28676725992344e-06
2.28227944994573e-06
-1.10338872647579e-05
1.94807777879054e-06
6.22375540647899e-06
-6.52226758882294e-07
2.18398173447252e-06
6.41091857177246e-06
-1.57765059013044e-06
2.50424182864397e-06
6.71065469954834e-06
-2.87518454138045e-06
2.74818836063917e-06
6.70543572889649e-06
-4.58601266753973e-06
2.80638706058447e-06
6.29071847055452e-06
-6.67875169948409e-06
2.64627141578481e-06
5.53729060710923e-06
-8.9887477625708e-06
2.32257670576123e-06
4.4841685054994e-06
-1.12657986827878e-05
1.97915333789075e-06
3.01718322701263e-06
-1.41161712993577e-05
2.85047516874293e-06
8.41878573813837e-07
-9.87098680504721e-07
2.74118418678693e-06
1.69060262795517e-06
-9.86090960540238e-07
2.85189361799017e-06
9.29770683821088e-07
-2.09550113200414e-06
2.68674713929826e-06
2.56367403889011e-06
-1.00620079766805e-06
2.82854758250418e-06
1.90008830303146e-06
-2.12355656029662e-06
2.9374815525182e-06
1.1033434755445e-06
-3.40264493470136e-06
2.62882105640239e-06
3.43619288643436e-06
-1.00149673150236e-06
2.82894327814958e-06
2.91685739177533e-06
-2.18299338019221e-06
2.97830193293724e-06
2.28029558992331e-06
-3.49141971363255e-06
2.99781932221538e-06
1.31150795156513e-06
-4.9309086257066e-06
2.52809096784688e-06
4.25904498200104e-06
-9.45418246775253e-07
2.77320310568327e-06
3.92501046648046e-06
-2.16100755554349e-06
3.03771843648265e-06
3.50447082494002e-06
-3.59090887585002e-06
3.05270823778791e-06
2.72019721329563e-06
-5.10287166490193e-06
2.94525694966295e-06
1.53584364143868e-06
-6.67780584891051e-06
2.3851812546548e-06
5.000147363802e-06
-8.55141210435088e-07
2.6501460979605e-06
4.85849415511086e-06
-2.01907658958114e-06
2.99377412417971e-06
4.69013499690361e-06
-3.51980443145256e-06
3.13375337709959e-06
4.15907770904964e-06
-5.22556170863648e-06
2.98450151714791e-06
3.17308221840487e-06
-6.93740044802532e-06
2.76163083968558e-06
1.82794117769474e-06
-8.69033422085626e-06
2.22354322598086e-06
5.64929848596471e-06
-7.54053776144017e-07
2.48971820349294e-06
5.68348944598204e-06
-1.80844806612718e-06
2.8517549199569e-06
5.76328412504605e-06
-3.25126784739046e-06
3.09233463185318e-06
5.50914487695328e-06
-5.05456851195648e-06
3.05815110296262e-06
4.80839005813341e-06
-7.05231941462083e-06
2.78887959301842e-06
3.72041085490519e-06
-9.00477350211696e-06
2.48187565384985e-06
2.29152420004461e-06
-1.1122622709211e-05
2.06530531786028e-06
6.20657735706219e-06
-6.53919244633607e-07
2.32177017919424e-06
6.39497286827196e-06
-1.5829554869261e-06
2.67008522565732e-06
6.69709475419053e-06
-2.88714029727985e-06
2.93996443598169e-06
6.69711919806441e-06
-4.60909844593054e-06
3.01368195317046e-06
6.29052831897223e-06
-6.71875385166187e-06
2.85366688232082e-06
5.54648142729212e-06
-9.05152229981058e-06
2.51541781310331e-06
4.5011176740266e-06
-1.13554546178525e-05
2.1525187744339e-06
3.03505249054451e-06
-1.42423080349814e-05
1.92165175791991e-06
6.67718757069808e-06
-5.60293548184803e-07
2.1626044376033e-06
7.00015785356701e-06
-1.36726250088454e-06
2.48918146457339e-06
7.4945067015512e-06
-2.51302185010207e-06
2.74956489206301e-06
7.71098641414947e-06
-4.05630117264122e-06
2.86363583304645e-06
7.54996862634472e-06
-6.03767391913519e-06
2.81318584447306e-06
7.12832556021831e-06
-8.46905568078931e-06
2.58477430698725e-06
6.53134424456013e-06
-1.12287179471175e-05
2.20739482512538e-06
5.66247167383354e-06
-1.4083649781113e-05
1.81065011665072e-06
4.060030040417e-06
-1.83237304378757e-05
2.98593510117632e-06
-9.61549753255184e-07
8.26090981537331e-07
2.88693289973469e-06
1.66466704563152e-06
-9.68536041093186e-07
3.00906105873685e-06
9.1564288366065e-07
-2.0599078761651e-06
2.83994565889264e-06
2.53199039383772e-06
-9.94585478491223e-07
2.99616366427598e-06
1.87697609536422e-06
-2.10091117030981e-06
3.12161174163688e-06
1.09055820857565e-06
-3.37018847254186e-06
2.78466487911646e-06
3.40229161501561e-06
-9.9446088083414e-07
3.00384563888447e-06
2.8888162134722e-06
-2.16983017289801e-06
3.17271645924705e-06
2.25981028415505e-06
-3.47443619284456e-06
3.20800409937399e-06
1.30132120457618e-06
-4.91414995547883e-06
2.68040368008194e-06
4.22567720597429e-06
-9.41796579530932e-07
2.94808059814088e-06
3.89541214448087e-06
-2.154928334633e-06
3.2398627341432e-06
3.4802395688355e-06
-3.58508008877105e-06
3.26996355783622e-06
2.70460755079323e-06
-5.10177222508745e-06
3.17218430207574e-06
1.52986346840196e-06
-6.68769914476331e-06
2.52885827601569e-06
4.96915387307692e-06
-8.53785511248129e-07
2.81775964613339e-06
4.82984192231505e-06
-2.01786272933583e-06
3.19365095872659e-06
4.66526929828449e-06
-3.52168137487555e-06
3.35678602462661e-06
4.14154554454614e-06
-5.23528735751509e-06
3.21325859530981e-06
3.16514946859995e-06
-6.96093200048161e-06
2.99083407697457e-06
1.82780665414651e-06
-8.73481642187324e-06
2.35602501544747e-06
5.62170521088671e-06
-7.54039383537486e-07
2.6458046779859e-06
5.65738004747402e-06
-1.81011312866191e-06
3.04053078471661e-06
5.73991564569331e-06
-3.25763168959126e-06
3.31006098742875e-06
5.49209049054827e-06
-5.0705409725417e-06
3.2890205191817e-06
4.80086459863468e-06
-7.08421084764516e-06
3.01566156569821e-06
3.72264912888746e-06
-9.05888775561855e-06
2.69917498486836e-06
2.29957812185786e-06
-1.12072135104091e-05
2.18623428162895e-06
6.18299308069354e-06
-6.54623413007796e-07
2.46496177904909e-06
6.37229735083104e-06
-1.58605305807644e-06
2.84393550035193e-06
6.67648175785979e-06
-2.89549487203943e-06
3.14316044886761e-06
6.68199085081356e-06
-4.62730758751862e-06
3.23620135792551e-06
6.28457581651645e-06
-6.75327123487883e-06
3.07964148817213e-06
5.55168586311987e-06
-9.10956664974423e-06
2.72888515196493e-06
4.51622314186075e-06
-1.14429371453443e-05
2.34750310515916e-06
3.05289581019634e-06
-1.43705059303914e-05
2.03181591627477e-06
6.65774360805964e-06
-5.61330320803753e-07
2.2932476617192e-06
6.98130214650307e-06
-1.37089150118929e-06
2.64784068796126e-06
7.47728521444095e-06
-2.52180416615938e-06
2.93521665722327e-06
7.69853503977828e-06
-4.0742057663801e-06
3.06949316222734e-06
7.54602693506511e-06
-6.07045208262588e-06
3.02923433009109e-06
7.13589242498504e-06
-8.52421114904661e-06
2.79678082022786e-06
6.55176628396185e-06
-1.1314174895709e-05
2.39982093477628e-06
5.69343669963517e-06
-1.42062623003617e-05
1.97741712756052e-06
4.09172023014461e-06
-1.85007998037991e-05
1.89567127889636e-06
7.05396262093425e-06
-4.77436217155296e-07
2.13756460084886e-06
7.4945313661468e-06
-1.17388980610555e-06
2.46752029398058e-06
8.15424425036635e-06
-2.17163105765926e-06
2.73446843061517e-06
8.55572206059025e-06
-3.52661319467602e-06
2.86822308459652e-06
8.5918632217158e-06
-5.28542809806271e-06
2.87725568155732e-06
8.41900109910026e-06
-7.52739968936261e-06
2.76308646717701e-06
8.20250974173344e-06
-1.03428114238501e-05
2.48576369395454e-06
7.95083771937823e-06
-1.37095770742079e-05
2.06233341153356e-06
7.4297650383312e-06
-1.7620818738096e-05
1.61394729509722e-06
5.90851160075243e-06
-2.43687069687198e-05
3.1052059360338e-06
-9.2674375973207e-07
8.07474053129674e-07
3.15675592906997e-06
-2.00774117616285e-06
8.98497635185291e-07
3.02263919456358e-06
-9.43080670352107e-07
1.63346644078969e-06
2.98783914889816e-06
2.49322664360756e-06
-9.76452343018632e-07
3.1594314153915e-06
1.84840224352916e-06
-2.06456193663872e-06
3.30370807516215e-06
1.07433516717597e-06
-3.31633835336225e-06
2.93873410228192e-06
3.36023193991056e-06
-9.82310304942416e-07
3.17828808977677e-06
2.85352975040223e-06
-2.14558075456087e-06
3.36929646726234e-06
2.23334226522898e-06
-3.44027358546406e-06
3.42483226377817e-06
1.28752681065066e-06
-4.87454252520158e-06
2.83332961016467e-06
4.18374411692491e-06
-9.34378023824646e-07
3.12521387457662e-06
3.85756117399734e-06
-2.14033852590236e-06
3.4471672079823e-06
3.44833507458597e-06
-3.5656579115965e-06
3.49676275202242e-06
2.68291383539466e-06
-5.08282565832907e-06
3.41458411110642e-06
1.52054936161378e-06
-6.67709890220752e-06
2.67455428598821e-06
4.92970344885058e-06
-8.49721839626206e-07
2.98920088421337e-06
4.79264215673083e-06
-2.01046728605227e-06
3.40042456827634e-06
4.63188718647645e-06
-3.51334799460273e-06
3.59114156650697e-06
4.11639277331522e-06
-5.23121830566554e-06
3.4585397161622e-06
3.1516863193401e-06
-6.96887365633118e-06
3.24245453756071e-06
1.82498121157245e-06
-8.76430158185896e-06
2.49116529381005e-06
5.58614418430819e-06
-7.52130241288291e-07
2.80637938948427e-06
5.62292358639468e-06
-1.80744146128838e-06
3.23678425819896e-06
5.70787652171775e-06
-3.25672206472573e-06
3.53955264694042e-06
5.46676570023681e-06
-5.07639059192724e-06
3.53667879859783e-06
4.78654943104184e-06
-7.10434300348144e-06
3.26400983878439e-06
3.72050856471551e-06
-9.1019796361548e-06
2.94251519337984e-06
2.30589668470327e-06
-1.12840552119555e-05
2.30994225206975e-06
6.15201350639731e-06
-6.54016009728893e-07
2.61269586242749e-06
6.34176200473367e-06
-1.58615506462314e-06
3.02506782951537e-06
6.64749412288644e-06
-2.8988227763017e-06
3.35749648013272e-06
6.65857259351727e-06
-4.63844749462302e-06
3.47454835285634e-06
6.27135204811027e-06
-6.77937278075706e-06
3.3260679770697e-06
5.55157271241153e-06
-9.15955841167779e-06
2.96625461069178e-06
4.5285748919277e-06
-1.15252512963282e-05
2.56873659805653e-06
3.07038521301626e-06
-1.44988352991102e-05
2.14465490842206e-06
6.63161901177432e-06
-5.61464749677526e-07
2.42814312665208e-06
6.95524318952902e-06
-1.3724645069938e-06
2.81317743166508e-06
7.45224604266286e-06
-2.52715317191809e-06
3.13085475639738e-06
7.67815827462752e-06
-4.08729843017497e-06
3.28938381322059e-06
7.53485960963479e-06
-6.09747978497115e-06
3.26365445554649e-06
7.13778067755813e-06
-8.5737839044833e-06
3.03075777309268e-06
6.56881401287381e-06
-1.13961320479604e-05
2.61590022258568e-06
5.72373949706149e-06
-1.43298575950918e-05
2.16801738293147e-06
4.12487433680732e-06
-1.86859849707371e-05
1.99869977000722e-06
7.03267292511038e-06
-4.77957579069123e-07
2.26057405500766e-06
7.4730937631285e-06
-1.1761311451096e-06
2.61804645603575e-06
8.13352444334951e-06
-2.1776560646321e-06
2.9120088646069e-06
8.53892078855701e-06
-3.53972843206646e-06
3.06748164947314e-06
8.58317681225961e-06
-5.31061183672784e-06
3.09204262933134e-06
8.42247993364969e-06
-7.57182430291504e-06
2.98499564284907e-06
8.22173625519049e-06
-1.04160879226667e-05
2.69986169972829e-06
7.98808895044175e-06
-1.38229225820193e-05
2.25129403231809e-06
7.48294193306562e-06
-1.77864425775126e-05
1.77000438175443e-06
5.9640052641004e-06
-2.46208676889117e-05
1.87066024078498e-06
7.36430130837117e-06
-4.04829948454384e-07
2.11148941101391e-06
7.90572534983263e-06
-1.00107964646427e-06
2.44275836175109e-06
8.7047738894567e-06
-1.86166168154429e-06
2.71445608910255e-06
9.25893521894286e-06
-3.03614164056931e-06
2.85771334308978e-06
9.44613428241642e-06
-4.56112299168723e-06
2.88974584604107e-06
9.44227682927876e-06
-6.50272861796787e-06
2.8403642885812e-06
9.46859282062512e-06
-8.99671277647681e-06
2.68401147296574e-06
9.64893800274359e-06
-1.22451820008672e-05
2.36480606305456e-06
9.96259213565676e-06
-1.64327536106485e-05
1.90878246388716e-06
1.0183789278727e-05
-2.2057004554529e-05
1.37750795693366e-06
9.46707478494319e-06
-3.39562792376081e-05
3.20098426163915e-06
-8.81777478747039e-07
7.86000298942078e-07
3.28799599146845e-06
-1.93610257962622e-06
8.7811984646712e-07
3.14183702002842e-06
-9.08452754760202e-07
1.59673003420943e-06
3.47757385905788e-06
-3.23579374030623e-06
1.05418778645687e-06
3.31249456465727e-06
-2.011440598052e-06
1.81379559454076e-06
3.1250076587207e-06
-9.50456283361715e-07
2.44675494262493e-06
3.08668568420022e-06
3.30910849286184e-06
-9.6383298138433e-07
3.34754863367818e-06
2.81007685511726e-06
-2.10738669156354e-06
3.56319128307257e-06
2.19993878628319e-06
-3.38405876858399e-06
3.64392314676482e-06
1.26937049849468e-06
-4.80479883305195e-06
2.98355501872066e-06
4.13218838662956e-06
-9.22181461271589e-07
3.30098665547765e-06
3.81029476991425e-06
-2.11484754146325e-06
3.65591936847149e-06
3.40745658431647e-06
-3.52844574936762e-06
3.7300915199326e-06
2.65381153304973e-06
-5.03988475816745e-06
3.67104465460037e-06
1.50699503705468e-06
-6.63799791293178e-06
2.81981250200831e-06
4.88069465057178e-06
-8.42208307031969e-07
3.161817453431e-06
4.74561972928797e-06
-1.9950526506366e-06
3.6113927427758e-06
4.58850054468882e-06
-3.49147072090957e-06
3.83474493241998e-06
4.08199013808293e-06
-5.20833514703924e-06
3.71984876378572e-06
3.13121437228821e-06
-6.95479724429338e-06
3.51846683077962e-06
1.81857394223299e-06
-8.77168596353429e-06
2.62718628192964e-06
5.54147483565366e-06
-7.47791914156149e-07
2.96954661197013e-06
5.5788460998422e-06
-1.79909247537682e-06
3.4386306839731e-06
5.66563986540415e-06
-3.24606501024865e-06
3.77944314217126e-06
5.4314242064426e-06
-5.06826734654449e-06
3.80108388669122e-06
4.76367160334181e-06
-7.10760606896768e-06
3.53596298753565e-06
3.71254782617962e-06
-9.12839087187811e-06
3.21658424524963e-06
2.30976481402191e-06
-1.1348137414648e-05
2.43520374965709e-06
6.11259850220348e-06
-6.51715432255208e-07
2.76363465109971e-06
6.30216110686583e-06
-1.58230609209372e-06
3.21219717753395e-06
6.60866279162244e-06
-2.89535582237611e-06
3.58211666851781e-06
6.62515017969845e-06
-4.63972432057573e-06
3.7288998252851e-06
6.24901839033545e-06
-6.79320827051245e-06
3.59479581714359e-06
5.54443284136291e-06
-9.19699256553888e-06
3.23144116771404e-06
4.53695041436718e-06
-1.15982172536932e-05
2.82234351159869e-06
3.08706403383612e-06
-1.4624729256097e-05
2.2592382495516e-06
6.59785630972059e-06
-5.60425894038852e-07
2.56634194303032e-06
6.92085472052886e-06
-1.37130716144915e-06
2.98431815003637e-06
7.41802244500694e-06
-2.5278229763144e-06
3.335961444972e-06
7.64825241140561e-06
-4.09360700140806e-06
3.52357876060395e-06
7.51470655915796e-06
-6.11599427298483e-06
3.51799392113969e-06
7.1322404493232e-06
-8.61437725945763e-06
3.28989379139699e-06
6.58101930080143e-06
-1.14711361683412e-05
2.86048262893624e-06
5.7525309429506e-06
-1.44519767376127e-05
2.38872545460883e-06
4.1594386384734e-06
-1.8878986332167e-05
2.10345600062167e-06
7.00453115331824e-06
-4.77668206030046e-07
2.38669255071847e-06
7.44415111274397e-06
-1.17649099326344e-06
2.77386797557184e-06
8.10443224324603e-06
-2.18047149001563e-06
3.09792300450033e-06
8.51330781735434e-06
-3.54821512394291e-06
3.27905518453938e-06
8.5659998404671e-06
-5.33001000339349e-06
3.32380701241005e-06
8.41864353987931e-06
-7.6101047752572e-06
3.22872569047473e-06
8.23574521944284e-06
-1.0484442646454e-05
2.93941069470661e-06
8.02320122752435e-06
-1.39351402638341e-05
2.46667521900476e-06
7.53766903918868e-06
-1.79580314626969e-05
1.95112603866621e-06
6.02382179797817e-06
-2.48909338547064e-05
1.96666780592669e-06
7.34162634018914e-06
-4.04960873507459e-07
2.22669175892133e-06
7.88215655376689e-06
-1.00222251019154e-06
2.58464083424538e-06
8.68092275622752e-06
-1.86541135093145e-06
2.88296734846502e-06
9.23790403888183e-06
-3.04514917166835e-06
3.04835547355378e-06
9.43227418226868e-06
-4.57946593413625e-06
3.09789831181998e-06
9.44012720419211e-06
-6.53640935829298e-06
3.061803797702e-06
9.48286774444374e-06
-9.05439298378704e-06
2.91022058836914e-06
9.68479474024458e-06
-1.23390001145206e-05
2.57900413953739e-06
1.0024534316779e-05
-1.65787103495406e-05
2.0925215943795e-06
1.02719618908555e-05
-2.22781368613747e-05
1.5165566014482e-06
9.56878664972504e-06
-3.43287084937921e-05
1.84618045388329e-06
7.61814648863931e-06
-3.42231505799931e-07
2.08513032353271e-06
8.2449504122565e-06
-8.49670278145265e-07
2.41605533708019e-06
9.16060783494183e-06
-1.58647496124553e-06
2.69116733124224e-06
9.83954220618729e-06
-2.59544105696371e-06
2.84220805504864e-06
1.01422295855027e-05
-3.90455942812075e-06
2.88692172364183e-06
1.02505482485993e-05
-5.55645339776904e-06
2.86508099769151e-06
1.04116760832348e-05
-7.64454703831659e-06
2.78111119465119e-06
1.08083178853365e-05
-1.03624878258125e-05
2.58880214699082e-06
1.15670430962031e-05
-1.40544388263102e-05
2.24730542054355e-06
1.27823456670305e-05
-1.9219422729176e-05
1.79580794808617e-06
1.45925683779889e-05
-2.73397194697702e-05
1.03494784940013e-06
1.70968540902782e-05
3.26565648611654e-06
-8.26515715010644e-07
7.61844656168441e-07
3.39466734798056e-06
-1.84288822517404e-06
8.54440496605449e-07
3.23729292487348e-06
-8.63781767929055e-07
1.55432719040916e-06
3.63508794258135e-06
-3.12331783281716e-06
1.02970218578345e-06
3.44810240461136e-06
-1.93868563066484e-06
1.77274599016229e-06
3.24495228536665e-06
-9.15395624011508e-07
2.39218168436817e-06
3.85852479207859e-06
-4.69642185383563e-06
1.24602736767268e-06
3.74772349896653e-06
-3.30045783447859e-06
2.15867433814201e-06
3.50550169386035e-06
-2.05226594205153e-06
2.7576529145135e-06
3.22305524753751e-06
-9.37808596940793e-07
3.24819434441256e-06
3.12676583801199e-06
4.07005347587092e-06
-9.0415546517852e-07
3.47053932236246e-06
3.75250120540839e-06
-2.07580950540026e-06
3.86081600955484e-06
3.35626397588712e-06
-3.46860708685031e-06
3.96505104430286e-06
2.61582457569241e-06
-4.96547011089788e-06
3.93812930301724e-06
1.48806011368471e-06
-6.55994341974978e-06
2.96135626279046e-06
4.82106637162202e-06
-8.3042131934325e-07
3.33194706540363e-06
4.68749926226768e-06
-1.96951510449408e-06
3.82257247063959e-06
4.53353010998904e-06
-3.4520993617059e-06
4.08405953990334e-06
4.03647500311352e-06
-5.16042140531211e-06
3.99534494391141e-06
3.10189208199888e-06
-6.91027556475544e-06
3.82007109333379e-06
1.80736453535503e-06
-8.74696756365548e-06
2.76167552684475e-06
5.4866171451806e-06
-7.40411272411768e-07
3.13262754389557e-06
5.523830037325e-06
-1.78349903318202e-06
3.64320679161829e-06
5.6115561736945e-06
-3.22268300456227e-06
4.02726743087835e-06
5.38406493319765e-06
-5.0413672083014e-06
4.08124772934077e-06
4.73005395919628e-06
-7.08733599932157e-06
3.8332153187464e-06
3.69686136689709e-06
-9.13033450412935e-06
3.52686923074015e-06
2.31019305011628e-06
-1.1392165988233e-05
2.56021114070696e-06
6.06374947217806e-06
-6.4728161156095e-07
2.91584377556461e-06
6.2522235955459e-06
-1.5733779891484e-06
3.40330803110945e-06
6.55838683868621e-06
-2.88294891388524e-06
3.81535802318412e-06
6.57976224857866e-06
-4.62764182627614e-06
3.99874323543181e-06
6.21534561608178e-06
-6.78978186424337e-06
3.88746007289056e-06
5.52806159407505e-06
-9.21578145249447e-06
3.52905371558728e-06
4.53967906856528e-06
-1.16559149620355e-05
3.11644043479598e-06
3.10224257832119e-06
-1.4744480000911e-05
2.37427195613564e-06
6.5554647634174e-06
-5.57899649410648e-07
2.70645201380352e-06
6.87695402836384e-06
-1.36661804449256e-06
3.15984923407025e-06
7.37312336346259e-06
-2.52229666115266e-06
3.54943007939507e-06
7.60699158458086e-06
-4.09066369082875e-06
3.77184180959966e-06
7.4834607564442e-06
-6.12242716167056e-06
3.79361127938386e-06
7.11705804831507e-06
-8.64144808980736e-06
3.57783742066931e-06
6.58641760554389e-06
-1.15344006822778e-05
3.13984452703671e-06
5.77860850837855e-06
-1.45691209143071e-05
2.6485458110352e-06
4.19533504088594e-06
-1.90798888627166e-05
2.20896228866009e-06
6.96869457584483e-06
-4.76344320805044e-07
2.51490823819308e-06
7.40661654645755e-06
-1.17440309960381e-06
2.93398605347772e-06
8.06560908753495e-06
-2.17901105596247e-06
3.29147134518883e-06
8.47722979999306e-06
-3.5503469447759e-06
3.50286339866443e-06
8.53842246922386e-06
-5.34112891632981e-06
3.57362550598032e-06
8.40543502773268e-06
-7.63900488447965e-06
3.49703118113484e-06
8.24255499930159e-06
-1.05442155570286e-05
3.20916429386449e-06
8.05466000301539e-06
-1.40430160813179e-05
2.71509225312754e-06
7.59338974426265e-06
-1.81343426925484e-05
2.16563729324047e-06
6.0885805902336e-06
-2.51820832779047e-05
2.0634818052197e-06
7.31209007224002e-06
-4.043727710199e-07
2.34390717798904e-06
7.85093827837745e-06
-1.00167061729641e-06
2.73044878540095e-06
8.64834777453264e-06
-1.86621390756682e-06
3.05818873479366e-06
9.20741518108238e-06
-3.04979895599404e-06
3.24939537877242e-06
9.40890708781742e-06
-4.59216052936961e-06
3.32101559031565e-06
9.42921664404153e-06
-6.56369841770341e-06
3.3034989582154e-06
9.49004551178844e-06
-9.10609793616979e-06
3.16191102353056e-06
9.7164080876299e-06
-1.24293371563718e-05
2.82205734200672e-06
1.00865247393468e-05
-1.67270467169068e-05
2.30508142404029e-06
1.03656035434881e-05
-2.25123718908012e-05
1.67981228955934e-06
9.68084775845783e-06
-3.47350426942601e-05
1.93529815972875e-06
7.59458757887811e-06
-3.42078826211016e-07
2.19251903442497e-06
8.21978555167226e-06
-8.49978363934809e-07
2.54903297356802e-06
9.13414847331436e-06
-1.58842533584129e-06
2.85007367624898e-06
9.81467622407837e-06
-2.60108876472525e-06
3.02323277384209e-06
1.01232459703616e-05
-3.91714406895254e-06
3.08626445893164e-06
1.02420948846253e-05
-5.58077432124738e-06
3.08024451162236e-06
1.04188331010826e-05
-7.68753595546069e-06
3.00834443898656e-06
1.08373238816455e-05
-1.04341528954652e-05
2.81815465156815e-06
1.16257416165891e-05
-1.41695568858302e-05
2.46144929747634e-06
1.28794635806871e-05
-1.94003532973939e-05
1.97731456513669e-06
1.47370274255871e-05
-2.76278825466419e-05
1.14225198091274e-06
1.73010174860277e-05
-5.17370342352651e-05
1.82190716732132e-06
7.82450920575018e-06
-2.88726351987215e-07
2.05853667325665e-06
8.52268320768802e-06
-7.18772401192629e-07
2.38790043819569e-06
9.53523139463597e-06
-1.34603440465392e-06
2.6649004317552e-06
1.0315437005208e-05
-2.20703233616266e-06
2.82230495899518e-06
1.0706072762357e-05
-3.32300728390275e-06
2.8778704991846e-06
1.08880575550271e-05
-4.72108906914362e-06
2.87236970585335e-06
1.11183782241946e-05
-6.45517317925692e-06
2.82236534604144e-06
1.15939093037193e-05
-8.63296037158285e-06
2.70918058395665e-06
1.24866697491458e-05
-1.14909673599685e-05
2.49283742895583e-06
1.4019294496539e-05
-1.54965063519455e-05
2.18203766583206e-06
1.66564734822713e-05
-2.14734192065848e-05
1.96838496462128e-06
2.25782791167065e-05
3.29217540814907e-06
-7.61924666169554e-07
7.3540686875747e-07
3.46813763169993e-06
-1.7276008255927e-06
8.27615968501085e-07
3.30134441881492e-06
-8.08951143387531e-07
1.50674533648469e-06
3.76633521719216e-06
-2.9747791189692e-06