/*--------------------------------*- C++ -*----------------------------------*\
  =========                 |
  \\      /  F ield         | OpenFOAM: The Open Source CFD Toolbox
   \\    /   O peration     | Website:  https://openfoam.org
    \\  /    A nd           | Version:  12
     \\/     M anipulation  |
\*---------------------------------------------------------------------------*/
/*   Windows 32 and 64 bit porting by blueCAPE: http://www.bluecape.com.pt   *\
|  Based on Windows porting (2.0.x v4) by Symscape: http://www.symscape.com   |
\*---------------------------------------------------------------------------*/
FoamFile
{
    format      ascii;
    class       volVectorField;
    location    "0";
    object      U;
}
// * * * * * * * * * * * * * * * * * * * * * * * * * * * * * * * * * * * * * //

dimensions      [0 1 -1 0 0 0 0];

internalField   nonuniform List<vector> 
10103
(
(0.000254070765621015 0.000245715755968606 0.00115867256033176)
(0.000255490420258855 0.000245285833462027 0.00124155236455721)
(0.00024683501604424 0.000765267476154281 0.00115819482616526)
(0.000790988776045919 0.000255855492859727 0.00115644445103306)
(0.00025665619676472 0.000244590393349948 0.00132941541921002)
(0.000248164296683339 0.00076397023999709 0.00124066226057815)
(0.000795448269839528 0.000255486151687422 0.00123963522258272)
(0.000233454922786886 0.00130528183670155 0.00115708222631196)
(0.000757763716928341 0.000782058468163351 0.00115616728327553)
(0.0013865319271145 0.00027323197610331 0.00115136897822232)
(0.000257440660542962 0.000243578865392548 0.00142212010028266)
(0.000249249038872214 0.000761844837078624 0.00132802451158445)
(0.000799135002662716 0.000254846140878152 0.00132797405378437)
(0.000234648585501057 0.00130298681578489 0.00123865545269934)
(0.00076194505474472 0.000780897320074402 0.00123893137044078)
(0.00139460315220602 0.000272987494628486 0.00123522409104876)
(0.000213287528874482 0.00184796583158555 0.00115509691353902)
(0.000712784002953929 0.00133113106042649 0.00115527724460479)
(0.00133569403116601 0.000820655280407636 0.00115139152543053)
(0.00206187940352594 0.000296820988301226 0.00114234016114772)
(0.000257684412884702 0.000242189424585215 0.00151927301554799)
(0.000249951278774908 0.00075873347326353 0.00142012681412175)
(0.000801664710432406 0.00025387818638416 0.00142136845588836)
(0.000235607534661638 0.00129928657818754 0.00132493546755647)
(0.000765370585618052 0.000778907291312473 0.00132674439191218)
(0.0014013994964768 0.000272465786245409 0.00132458860274117)
(0.000214317332842597 0.00184447511552097 0.00123521372135509)
(0.000716552347956765 0.00132902302628375 0.00123712498864814)
(0.00134332029441155 0.000819815335664212 0.00123480685189459)
(0.0020745510023961 0.000296793787497377 0.0012272392581403)
(0.000189806918750445 0.00236757636974194 0.00115196845723966)
(0.000656706005024673 0.00188187465762865 0.0011534998060616)
(0.00125772888780642 0.00138635664511553 0.00115095714068889)
(0.00199982769094219 0.000885922680302984 0.00114267715251513)
(0.0028386798031743 0.000330878542287966 0.00112791845989185)
(0.00025718404062071 0.000240355486663899 0.00162013730944954)
(0.000250127264172135 0.000754441098395061 0.00151656373833079)
(0.000802539339604647 0.000252518462976357 0.00151948396644765)
(0.000236189368719852 0.00129389809330532 0.00141574045922022)
(0.000767668628365091 0.000775913958593064 0.00141949696658066)
(0.00140626567589844 0.000271602759758281 0.00141948014506198)
(0.000215113735339462 0.00183899889988957 0.00131973868456982)
(0.000719579329240775 0.00132549979596732 0.00132381973717104)
(0.00134968600365152 0.000818136993256439 0.0013236184318015)
(0.00208552526464026 0.000296489012035903 0.00131824686575968)
(0.000190656365854769 0.00236268538709416 0.0012300367148001)
(0.000659962135043079 0.00187859941581243 0.00123385954525651)
(0.00126462415857605 0.00138471874513306 0.0012334392184573)
(0.00201188556401772 0.000885687445262527 0.00122714639209928)
(0.00285744504009229 0.00033121985353707 0.00121417033679389)
(0.000167120752653657 0.00284137235279479 0.0011474738651653)
(0.000591966555750642 0.00240453900857815 0.00115058594853341)
(0.00115933793570252 0.00195039334324262 0.00114971608932581)
(0.00188732696787069 0.00148445412701858 0.00114293535344357)
(0.00276063868909674 0.000987273364491941 0.00112862177063348)
(0.00374564557956005 0.000387275724476771 0.00110646525799581)
(0.000255686568627563 0.00023800529863805 0.00172352256187046)
(0.000249577880463983 0.000748757035970236 0.00161658636111097)
(0.000801135969564771 0.000250686888947367 0.00162165148884207)
(0.000236265443061773 0.00128650235396119 0.00151063900782791)
(0.000768364801010585 0.000771717406941124 0.00151683669939994)
(0.00140835244123966 0.000270324840643019 0.00151969752822171)
(0.000215557139487928 0.00183113611320914 0.00140844956299092)
(0.000721511303985469 0.00132026834589375 0.00141522041044832)
(0.00135415538249409 0.000815430550774009 0.00141782136253346)
(0.00209387114413313 0.000295834624668285 0.00141556932454501)
(0.000191276861776716 0.00235524793195906 0.00131210626541022)
(0.000662490505080814 0.00187331743539769 0.00131875122551376)
(0.00127027082684725 0.00138165289125544 0.00132109493123202)
(0.00202224296366754 0.000884611734219634 0.00131760349600821)
(0.00287426995607846 0.000331294107544166 0.0013073858871736)
(0.000167786454480382 0.00283492326629144 0.00122294197080796)
(0.000594647931879564 0.00239987202863995 0.00122886863243185)
(0.001165292229755 0.00194768219217188 0.00123068950449633)
(0.00189825009585357 0.00148372853541052 0.00122647863008836)
(0.00277854002202207 0.000988093875560251 0.00121448553563757)
(0.00377262988546274 0.000388260299289945 0.00119415676258569)
(0.000146559648932848 0.00325744030052513 0.0011414985873869)
(0.000524788033677224 0.00287706727889842 0.00114633257871099)
(0.00104623261357214 0.00248006970558655 0.00114739300552505)
(0.0017365998190985 0.00207114937053469 0.00114267859088615)
(0.00260188735823655 0.0016405560901732 0.0011299208379362)
(0.00363030055486492 0.00114760012427202 0.00110773559518924)
(0.00483615926353267 0.000489967409220703 0.0010761592112623)
(0.000252892809933666 0.000235064582352472 0.00182766191663997)
(0.000248062757060397 0.000741453635968837 0.00171899599906351)
(0.000796666608999989 0.000248307000904724 0.00172675244939747)
(0.000235648514996628 0.0012767459513616 0.0016088589736499)
(0.000766857986044892 0.000766091616518796 0.00161807663538005)
(0.00140655910705146 0.000268539729318661 0.00162472622956243)
(0.000215521063018402 0.00182045679891382 0.00150087485590312)
(0.000721902385124424 0.00131299469992937 0.00151094208724985)
(0.00135590412239839 0.000811473915626553 0.00151718902570086)
(0.00209836459410386 0.000294743350353588 0.00151923798398242)
(0.000191571409728794 0.00234478354910325 0.00139790395094884)
(0.000663963219473014 0.00186562532492423 0.00140798786055166)
(0.00127406280494141 0.00137684418009244 0.00141387908053014)
(0.00202998829283159 0.000882483093356779 0.00141422741220685)
(0.00288796458447302 0.000331019919050946 0.00140805461575105)
(0.000168233331659047 0.00282543439854109 0.00130191730095898)
(0.000596620683305737 0.00239263848579318 0.00131126095335628)
(0.00117000986480923 0.00194294421481582 0.00131649673321808)
(0.00190746223996763 0.00148156904442448 0.00131576595303967)
(0.00279447064636048 0.000988097055188753 0.00130719322884619)
(0.00379773867394683 0.00038900575863661 0.0012898934383523)
(0.000147051507924811 0.00324936742572122 0.00121390834664988)
(0.000526883981139204 0.00287083882400094 0.00122200322259005)
(0.00105112222413571 0.00247600253251856 0.00122626743796314)
(0.00174600105882443 0.00206954655590306 0.00122471627370105)
(0.00261806795210605 0.00164142473078753 0.00121491103664806)
(0.00365591392444487 0.00115020636191843 0.00119511218763451)
(0.00487439225507721 0.000492160951551293 0.00116501297662208)
(0.000127736824330316 0.00361383785243827 0.0011340423830026)
(0.000459879190074155 0.00328977880862608 0.0011406167499189)
(0.000927910226490039 0.00295267219860874 0.00114375482381717)
(0.00156201554518258 0.00261171355188142 0.00114150766105584)
(0.00238042249166788 0.00226309864262203 0.00113129579195075)
(0.00339697368724918 0.00188095923432705 0.00111066032160765)
(0.00462488260817763 0.00141147661287362 0.00107843178628265)
(0.0062087000450007 0.000672162367233415 0.00103470314281269)
(0.000248463351178274 0.000231462036150583 0.0019300908407857)
(0.000245295990762911 0.000732295878286541 0.00182202454324538)
(0.000788197870470924 0.000245290147223788 0.00183308554555417)
(0.000234115486701886 0.00126424935069722 0.00170918644050556)
(0.000762405413109998 0.000758789819137609 0.0017220826897768)
(0.00139952826341223 0.000266152686724403 0.00173361522027546)
(0.000214838457402749 0.0018064788176018 0.00159620977997158)
(0.00072019076219626 0.00130330523534144 0.00161026672725037)
(0.00135388121626183 0.000806010435403204 0.00162117928567801)
(0.00209741745762034 0.000293110249308984 0.00162901498695763)
(0.000191419872576392 0.0023307586440931 0.00148690999986495)
(0.000663968406234295 0.00185506712915583 0.00150113856051846)
(0.00127522024319827 0.00136992667251156 0.00151152086039983)
(0.00203392616789983 0.000879045198596879 0.00151701688957819)
(0.00289694140875042 0.000330294978532367 0.0015165657550315)
(0.000168376896253365 0.00281235942365522 0.00138407046345651)
(0.000597587985425089 0.00238234354536166 0.00139751921027308)
(0.00117292427383035 0.00193574822680851 0.00140703603944)
(0.00191408751322078 0.00147762491201748 0.0014109246059954)
(0.00280725738602792 0.000987041129592589 0.00140720342758429)
(0.00381957359144981 0.000389419387841949 0.0013945475227625)
(0.000147335580160049 0.00323784725963625 0.00128927437724485)
(0.000528298540652677 0.00286154899164975 0.00130127699086552)
(0.00105479704708989 0.00246933946231975 0.00130952566273858)
(0.0017536818934638 0.00206590066596737 0.00131212491506445)
(0.00263221987571498 0.00164088461843304 0.00130648352080739)
(0.00367958198514157 0.00115206867845918 0.00129042003944714)
(0.00491126521453097 0.000494178580160859 0.00126313931045788)
(0.000128074588786983 0.00360417854011746 0.00120304682961967)
(0.00046142499067056 0.0032819125997569 0.00121323094135367)
(0.000931721001471994 0.00294702953685506 0.00121999875366593)
(0.00156969393862436 0.00260882444132983 0.00122144200784634)
(0.0023942453621408 0.0022634102710651 0.00121482818240427)
(0.00341993512086727 0.00188444351940872 0.00119727929524751)
(0.00466046925924035 0.00141713410579322 0.00116708647612338)
(0.00626219330620508 0.000676193766470648 0.00112398179084159)
(0.000110371967644362 0.00391428628182383 0.00112519049491336)
(0.000399233388804233 0.00364227580483298 0.00113340970778119)
(0.000812175055770574 0.00336093208046058 0.00113863976443332)
(0.00138023484411093 0.00308478703756646 0.00113905797514362)
(0.00212531946608381 0.00281893395292321 0.0011320687560724)
(0.00307413314814995 0.00255066675093854 0.00111460442048568)
(0.00426877407806829 0.00224803019140484 0.00108389551692854)
(0.00576241202883858 0.00184253237157287 0.00103909734874914)
(0.00799388832749244 0.000955349583021248 0.000979689965976495)
(0.000242042477252975 0.000227137021631912 0.00202755304614163)
(0.000240956305280589 0.000721056729062033 0.00192321752415384)
(0.00077466051268029 0.000241549526184356 0.00193822756276289)
(0.000231403678754619 0.00124862312563778 0.00180985315357458)
(0.000754120722524124 0.000749551221567353 0.00182714473222742)
(0.00138559512218828 0.000263051028856992 0.0018448229410855)
(0.000213310417844932 0.0017886913823693 0.00169322131480789)
(0.00071568793774774 0.00129079284908038 0.00171203575954425)
(0.00134677603248338 0.000798750094808727 0.00172881352058394)
(0.00208900831523631 0.00029080945079281 0.00174426074558079)
(0.000190677184451234 0.00231259607137475 0.00157828215960637)
(0.000661993866917495 0.00184113795273421 0.00159744375691091)
(0.00127275584045298 0.00136048102510341 0.00161343177877226)
(0.00203251227346712 0.000873991261520701 0.00162569586288531)
(0.00289910551008149 0.000328990795885689 0.00163312309312988)
(0.000168110870172926 0.00279510258399145 0.00146883216734327)
(0.000597178499949628 0.00236843390931701 0.00148715764053266)
(0.00117331347628656 0.00192559772535649 0.00150197627852449)
(0.00191698558187315 0.00147147644805301 0.00151189265523757)
(0.00281533895312419 0.000984623730188977 0.0015148661974787)
(0.00383623592326635 0.000389380217414922 0.00150900668337081)
(0.000147339576347681 0.00322229712871018 0.00136721274208572)
(0.00052876776900158 0.00284863739904292 0.00138384895163553)
(0.00105673939723324 0.00245955322232042 0.00139699722779625)
(0.00175881865986698 0.0020597331305421 0.00140495818209736)
(0.00264320668286783 0.00163853633987322 0.00140503138625415)
(0.00369992066860534 0.00115291186281328 0.0013944974043793)
(0.00494526115172128 0.000495914014684411 0.00137188071482537)
(0.000128218081186143 0.00359076148504134 0.00127442986152958)
(0.000462324751249707 0.00327057688397837 0.00128888722562219)
(0.000934355247116055 0.00293828749895215 0.00130009121405254)
(0.00157566003957551 0.00260330678964296 0.00130625444130819)
(0.00240597720031688 0.00226169010748755 0.00130452974073603)
(0.00344080844367887 0.00188661344942114 0.0012915546471412)
(0.00469455921007431 0.00142221873990503 0.00126490897641636)
(0.0063154599159988 0.000680193658011514 0.00122379517833886)
(0.000110580562507906 0.0039031724057902 0.00119054599249478)
(0.000400294844407072 0.00363280043250247 0.00120262174302817)
(0.000814981212673345 0.00335360209896543 0.00121181006648582)
(0.00138618969841871 0.00308028442129983 0.00121634651355696)
(0.00213650672380503 0.00281804485584184 0.00121352721218835)
(0.0030935015852523 0.00255402751784359 0.00119988993029394)
(0.00430024749574632 0.00225566712707458 0.00117200752582314)
(0.00581083461206969 0.00185291808975428 0.00112836373228503)
(0.00806829067427393 0.000962888023851309 0.00106812772386869)
(9.45810957100507e-05 0.00416489010800516 0.00111508965146062)
(0.000343740305759806 0.003939032389777 0.00112477172424894)
(0.000703570374095769 0.00370700511850862 0.00113198013557817)
(0.00120351690964988 0.00348654063599997 0.00113506676908356)
(0.00186442056115929 0.00329084010467561 0.001131593531471)
(0.00271279156302526 0.00312121366903927 0.00111838706770571)
(0.00379926121074751 0.0029673723221204 0.00109172734742071)
(0.00520774565768837 0.00280211815212424 0.00104832164105108)
(0.00709534778261855 0.00250684176587507 0.000987514727474749)
(0.0104600701661949 0.00152847512618853 0.000907279460705869)
(0.000233303809393548 0.000222050578887106 0.00211597847230812)
(0.000754921263348713 0.000237006859047108 0.00203891157101452)
(0.000234709589035352 0.000707542228085276 0.00201934594196155)
(0.000227221012030519 0.00122949499110215 0.00190842900515986)
(0.000740997858138701 0.000738116283135178 0.00193084323096483)
(0.00136282495099014 0.000259117050156301 0.00195603831700469)
(0.000210704177193592 0.00176657792039047 0.0017901467974465)
(0.000707580291446495 0.00127503159176238 0.00181452916507209)
(0.0013330029974544 0.000789373152559358 0.00183852720351825)
(0.00207062108912976 0.000287693301968545 0.00186375086898971)
(0.000189171136560062 0.00228969108037866 0.00167077050709731)
(0.000657419715565394 0.00182329349711532 0.00169571570238762)
(0.00126544887914599 0.00134803669298884 0.00171858950876486)
(0.00202378807978186 0.000866957933553074 0.0017395818392199)
(0.00289172557849526 0.000326946237555221 0.00175761163598035)
(0.000167311265156893 0.00277302474892475 0.0015553255251075)
(0.000594938316440503 0.00235030448834389 0.00157937053666814)
(0.00117027413880653 0.0019119301587902 0.00160066877649955)
(0.00191469484770318 0.00146262552116787 0.00161832466263589)
(0.00281666120004187 0.000980467244553814 0.00163033556748294)
(0.00384516804960398 0.000388730512468933 0.00163411710411366)
(0.000146970582009084 0.00320208752942759 0.00144710955852949)
(0.000527965592321973 0.0028314857561482 0.00146917709690423)
(0.00105629786878174 0.0024460440252722 0.00148828023680891)
(0.00176035083114651 0.00205047735042985 0.00150306977557915)
(0.00264952695166473 0.00163388417854606 0.00151082266487342)
(0.00371505252784299 0.00115237819025118 0.00150818639885368)
(0.00497428107798104 0.0004972251543895 0.00149275613884254)
(0.000128104568413972 0.00357299203461133 0.00134775995992048)
(0.000462348226570289 0.00325517363318064 0.00136722163060801)
(0.000935350474271476 0.00292585069363958 0.00138378831625821)
(0.00157915798599445 0.00259457705873003 0.00139590905903491)
(0.00241454211405715 0.00225739285797629 0.00140069539774242)
(0.00345824075648918 0.00188701332833642 0.00139424274781702)
(0.00472565247134869 0.00142642315196393 0.00137320648135378)
(0.00636700259045446 0.00068405413236729 0.00133601743823721)
(0.000110610686879611 0.00388808752780914 0.00125770046828117)
(0.000400753568195062 0.00361954393422196 0.00127428877138596)
(0.000816667078103591 0.00334275705609576 0.00128823944224881)
(0.00139046917688546 0.00307263060220514 0.00129792911048297)
(0.0021455674495839 0.00281451034356161 0.00130060339951623)
(0.00311061632152041 0.00255543639279648 0.00129237665295024)
(0.00432992921169739 0.00226221702473315 0.00126901004510268)
(0.00585874518562769 0.00186309902102465 0.00122806471693492)
(0.00814445382249825 0.00097070874229302 0.00116826036157879)
(9.46865484690718e-05 0.00415252935471643 0.00117664160178772)
(0.000344397578641611 0.00392807337487155 0.00119033122691619)
(0.000705498626888577 0.00369799448827673 0.00120172627586366)
(0.0012078890091739 0.00348023994946452 0.00120925153278435)
(0.00187302845779416 0.00328823764486023 0.0012104070336785)
(0.00272825764812595 0.00312341779001972 0.00120169514180126)
(0.00382532248414363 0.00297535707523564 0.00117875977122664)
(0.00524953752658892 0.00281616576087716 0.00113742420821398)
(0.00715999039079741 0.00252538338090255 0.00107625451787022)
(0.0105645441622806 0.00154296026532649 0.000992953907818406)
(8.05316629412253e-05 0.004372283020316 0.00110393887465475)
(0.000293937601429262 0.00418636286986269 0.00111484035564201)
(0.000604504626321746 0.00399677381931735 0.00112380977717754)
(0.00103890449395785 0.00382232365674461 0.00112940346585418)
(0.00161535830605253 0.00368101141533387 0.00112942774644246)
(0.00235492543870474 0.00358457492667905 0.0011208899289325)
(0.00329940363554394 0.0035406754730584 0.00109991443301878)
(0.00452849537118602 0.00355713547128031 0.00106185062988856)
(0.00618378312592511 0.00362679986596617 0.00100258441035403)
(0.00864070558912367 0.00365958245847881 0.000920975286674813)
(0.0142957816750294 0.00299121046987978 0.000810577363278256)
(0.000222021864370994 0.000216197939929953 0.00219059113064139)
(0.000727923000336098 0.000231604691919743 0.00213096971485003)
(0.000226250228593722 0.000691627787315051 0.00210639038658959)
(0.00132911447557236 0.000254234829906655 0.00206399526719407)
(0.000721978574883868 0.000724252780314815 0.00202993594462613)
(0.000221268080040619 0.00120655143336471 0.00200174530082364)
(0.000206766478982224 0.00173965217487521 0.00188460060169156)
(0.000694954816065526 0.00125560324093352 0.00191534316158791)
(0.00131072869378782 0.000777543673863327 0.00194799875061989)
(0.00203923603676674 0.000283593285208912 0.00198543295190195)
(0.000186703885109479 0.00226144041971345 0.00176263000176199)
(0.000649523687368342 0.00180097249477373 0.00179422929407146)
(0.00125183842711993 0.0013320818871163 0.00182539723958634)
(0.00200533095757218 0.000857522711022705 0.0018574064810193)
(0.00287129488144557 0.000323960138695567 0.00188938831769081)
(0.000165831920728301 0.00274546988861524 0.00164229299993208)
(0.000590327105164961 0.00232731337938573 0.00167294309497433)
(0.00116270427527335 0.00189412260790406 0.00170203866957193)
(0.0019053790541111 0.00145048852788418 0.00172946288046305)
(0.00280855657309473 0.000974101399761867 0.00175343386747301)
(0.003842942888969 0.000387263699859798 0.00177057741084203)
(0.00014612513231707 0.00317655792967592 0.00152806307052711)
(0.000525500476407555 0.00280942827663483 0.00155641299748331)
(0.00105267006697723 0.00242814206775313 0.0015826594180063)
(0.00175693608482646 0.00203746934189797 0.00160602105761686)
(0.00264922177893939 0.00162631425920401 0.00162390934919936)
(0.00372245069994261 0.00115000185586742 0.00163227021970009)
(0.00499544276558653 0.000497924513778223 0.00162746242706534)
(0.000127657528793336 0.0035502370915042 0.00142238882035916)
(0.000461215389630881 0.00323505312806765 0.00144764172776513)
(0.000934133956679364 0.0029090518549746 0.00147061589245201)
(0.00157922865888466 0.00258195396841502 0.00149016013583858)
(0.00241853589691561 0.0022498498181951 0.00150347273375596)
(0.00347041110089169 0.00188505437612086 0.0015060767677055)
(0.00475166376927617 0.00142933347488626 0.0014934495300322)
(0.00641469913616394 0.000687616591981531 0.0014628969453965)
(0.00011040895490157 0.00386844576165047 0.00132618476411836)
(0.00040041222760627 0.00360189666463054 0.001347995001778)
(0.00081682832088376 0.00332776341382832 0.00136761310450662)
(0.00139239625043126 0.00306116871051862 0.00138367400970847)
(0.00215150937635399 0.00280766575401139 0.00139347071046402)
(0.00312418409334755 0.00255426819448089 0.00139269082853734)
(0.00435633092060707 0.00226717220716818 0.00137611079252969)
(0.00590466348615044 0.00187276309201582 0.00134004242412023)
(0.0082211027828298 0.000978721412988238 0.0012825444408323)
(9.46311476549676e-05 0.0041360758177785 0.00123942906967068)
(0.000344501989776158 0.00391311898137455 0.00125775619318096)
(0.000706379297857349 0.00368515091761218 0.00127411621535192)
(0.00121065427474148 0.00347035386744369 0.0012870889793747)
(0.0018795211240078 0.00328243193562598 0.00129418326963837)
(0.00274134326085322 0.0031230118805626 0.00129158381751657)
(0.00384924452917352 0.00298160106254278 0.00127419503519582)
(0.00529025058575736 0.00282959305140086 0.00123671021121569)
(0.00722572398828277 0.00254445893975856 0.00117660182883829)
(0.0106740303769686 0.00155840610189992 0.00109123871253425)
(8.05583494512911e-05 0.00435893961622229 0.00116160921006309)
(0.000294272888894327 0.00417412571046897 0.00117658472702435)
(0.000605704028105804 0.00398619821288153 0.00118987248378466)
(0.00104190949393528 0.00381419246480704 0.00120011645584112)
(0.00162164620391561 0.00367639698266637 0.00120510474782531)
(0.00236669270944052 0.00358483398117318 0.00120159883072911)
(0.00331984190961761 0.00354738565867187 0.00118518529153007)
(0.00456219914630825 0.00357191213912068 0.00115033656773168)
(0.00623732569924063 0.00365082353908433 0.00109180697393575)
(0.00872488674556847 0.0036922977265358 0.00100755745061145)
(0.0144474192918687 0.00302340604556679 0.000890624209322023)
(6.82576895219388e-05 0.00454276135132489 0.00109198278207991)
(0.000250011117221278 0.00439086577924347 0.00110381688776142)
(0.000516068213890332 0.00423717065274189 0.00111425639173782)
(0.000889948137514285 0.0041001539751602 0.00112207144889422)
(0.00138702713545057 0.00399969630485134 0.00112535146647667)
(0.00202269341616155 0.00395301977016311 0.00112140821067515)
(0.00282597123305612 0.00397807130993375 0.00110663078472048)
(0.00385370487738382 0.0041025688232982 0.00107623205741244)
(0.00520866538274016 0.00437240972535163 0.001024398386427)
(0.00709089972320596 0.00486184177349414 0.000945559774868506)
(0.0101517183421865 0.00575461874214434 0.000834661231880008)
(0.019530105477587 0.00922503554639239 0.000675446826038225)
(0.000208160881484002 0.000209625370723575 0.00224620398475833)
(0.000692909121599231 0.000225323865700799 0.0022094084620993)
(0.000215380932842221 0.000673291270764348 0.00217965018400392)
(0.00128242755915746 0.000248305545556196 0.00216432992936582)
(0.000696086008628694 0.000707793465348649 0.00212031025807441)
(0.000213275938533274 0.00117959327223123 0.00208588959925688)
(0.00199143335069602 0.000278326585642379 0.00210612733971647)
(0.00127797722331581 0.000762935999984539 0.00205397667584886)
(0.000676865233313736 0.00123214036134466 0.00201129196290414)
(0.000201242627524743 0.0017075162770901 0.00197351399562846)
(0.000183064661709924 0.00222729240173958 0.00185154521288494)
(0.000637509482465865 0.00177363472705342 0.00189061618924419)
(0.00123025733441009 0.00131208752700311 0.00193152664653773)
(0.00197425509511351 0.000845209117121092 0.00197708079870953)
(0.00283342106648675 0.000319784080163717 0.00202695801449842)
(0.000163510147389335 0.00271179980369764 0.00172802526968003)
(0.000582727018847887 0.00229881153139538 0.00176615741667544)
(0.00114930585102011 0.00187150916512738 0.00180445730033032)
(0.00188679418249739 0.00143439603620858 0.00184396558807938)
(0.00278762114338067 0.000964944298540827 0.00188344173681974)
(0.00382498971708547 0.000384706116836199 0.00191873739907704)
(0.000144682476223123 0.00314504328311467 0.00160882324626275)
(0.000520915372455162 0.00278177237658252 0.00164432505049769)
(0.00104489415888543 0.0024051186492229 0.00167900794695943)
(0.00174691290739037 0.00201994322652236 0.00171295811237817)
(0.00263977391699043 0.00161507016488664 0.00174398925937634)
(0.00371873712320763 0.00114517339366318 0.0017673575722793)
(0.00500478286483436 0.000497762653990426 0.00177785126096139)
(0.000126789988135927 0.00352184726297569 0.00149740362348979)
(0.000458596779725265 0.0032095283009812 0.0015292669071574)
(0.000930012975490574 0.00288715863524631 0.00155979580520884)
(0.00157467815905367 0.00256465223388164 0.00158846413579925)
(0.00241615188435401 0.00223824439277813 0.00161276815302871)
(0.00347489036914418 0.00187997385023684 0.001627693353471)
(0.00476970795139606 0.00143039267014609 0.00162726293114763)
(0.0064555785482861 0.000690651325572136 0.00160714963629689)
(0.0001099134152916 0.00384363590645882 0.00139532902648923)
(0.000399035712522057 0.0035792075090058 0.00142310844996989)
(0.000814973166158002 0.00330792301497974 0.00144939144626736)
(0.00139112669776805 0.0030451445053666 0.00147323333844567)
(0.00215305835183204 0.00279670887573592 0.00149213189949493)
(0.00313248816650525 0.00254972563917477 0.00150139579406127)
(0.0043774042137749 0.00226984798757454 0.00149464063588041)
(0.0059464721133742 0.00188146151551691 0.00146651112671822)
(0.00829636743381228 0.000986774510537804 0.00141405732834619)
(9.43701417271757e-05 0.00411496974898969 0.00130295682140141)
(0.000343887397932329 0.00389356984812969 0.001326589551791)
(0.000705865877101858 0.00366783038198912 0.00134877262725092)
(0.0012112199634063 0.0034561858348125 0.00136835460889869)
(0.00188300683879163 0.00327267588352524 0.00138296488127796)
(0.00275084621766957 0.00311923065587733 0.00138851448297613)
(0.00386958077468469 0.00298539912283638 0.00137907379984145)
(0.00532837450947668 0.0028418685549862 0.00134790483927823)
(0.00729126040589582 0.00256380307281766 0.00129096272669131)
(0.010787794993281 0.00157477837790473 0.00120522378654833)
(8.04423460475964e-05 0.00434146454681491 0.00121998110721576)
(0.000294109157933639 0.00415777111319649 0.00123962126027439)
(0.000605941052574906 0.00397157098284367 0.00125796215037967)
(0.00104340443018925 0.00380214269643449 0.00127381435729615)
(0.00162588132667364 0.00366811057651297 0.00128502554113131)
(0.00237602699284746 0.00358186669068099 0.00128814481399227)
(0.0033378560249651 0.00355162549045578 0.00127817073100958)
(0.00459418076658808 0.0035853797220253 0.00124851576097625)
(0.00629091048359007 0.00367509565417626 0.0011924530923946)
(0.00881240961068475 0.00372697026431253 0.00110668453676904)
(0.0146094650521977 0.00305840596456669 0.000983729181255799)
(6.82273186490907e-05 0.00452873817191573 0.00114576121213717)
(0.000250100574474471 0.00437761617791791 0.00116166310785427)
(0.000516688735234532 0.00422523551896976 0.00117646489896275)
(0.000891828214618402 0.00409029517592618 0.00118903743021446)
(0.00139134487122643 0.00399298454239215 0.00119749142564946)
(0.00203122460719411 0.00395088796321005 0.00119896927606737)
(0.00284129809331823 0.00398235865989642 0.00118943610366894)
(0.00387953982215183 0.00411557605107303 0.00116335908445049)
(0.00525032701971024 0.00439692166624998 0.0011137818457112)
(0.007156205728614 0.00490111095957205 0.00103371923043158)
(0.0102558037903133 0.00581331767953689 0.000916825565004012)
(0.0197459467361756 0.00933201588499459 0.000745017455672127)
(5.7670460162992e-05 0.00468198966721916 0.00107950127848952)
(0.000211799108943417 0.00455877013937899 0.00109195323986092)
(0.000438420570465243 0.0044350896266039 0.00110352518642419)
(0.000757947081375647 0.00432826655019065 0.00111319335216291)
(0.00118313037297951 0.00425817811864646 0.00111933670020324)
(0.0017248526753373 0.00424395981420994 0.00111961737535782)
(0.00240182250852964 0.00430741280197473 0.00111083480534115)
(0.00324916356078597 0.00448241795954592 0.00108864027341708)
(0.00432728541322729 0.00482995842040224 0.00104722681819081)
(0.00573556335176374 0.00546451634788207 0.000979450085096341)
(0.00764896916583066 0.00664441202691364 0.000876574751921977)
(0.0101330469000317 0.00949684168398756 0.000716235197180261)
(0.000191961090435632 0.000202436703737285 0.00227772247305301)
(0.000649717067395743 0.000218202102550226 0.00226869376690536)
(0.000202062411448386 0.000652679882543176 0.00223403911036409)
(0.00122120436288273 0.000241271258419683 0.00225156897506518)
(0.000662634714914923 0.000688687163332379 0.00219706635805196)
(0.000203078547644661 0.00114861485618328 0.00215632192194246)
(0.00192370670634114 0.000271713275974883 0.00222121584653534)
(0.00123285821783602 0.00074527986820737 0.00215215397747916)
(0.000652455458527308 0.0012043889374844 0.00209837634146536)
(0.000193912175257566 0.0016699356151206 0.00205314463801075)
(0.0027728394616596 0.000314119869987367 0.00216750051505554)
(0.00192732477913261 0.000829509449255937 0.0020954129739218)