/*--------------------------------*- C++ -*----------------------------------*\
  =========                 |
  \\      /  F ield         | OpenFOAM: The Open Source CFD Toolbox
   \\    /   O peration     | Website:  https://openfoam.org
    \\  /    A nd           | Version:  12
     \\/     M anipulation  |
\*---------------------------------------------------------------------------*/
/*   Windows 32 and 64 bit porting by blueCAPE: http://www.bluecape.com.pt   *\
|  Based on Windows porting (2.0.x v4) by Symscape: http://www.symscape.com   |
\*---------------------------------------------------------------------------*/
FoamFile
{
    format      ascii;
    class       volScalarField;
    location    "700";
    object      k;
}
// * * * * * * * * * * * * * * * * * * * * * * * * * * * * * * * * * * * * * //

dimensions      [0 2 -2 0 0 0 0];

internalField   nonuniform List<scalar> 
10123
(
1.43137583204892e-06
1.60165430819578e-06
1.94137891003621e-05
1.46668442698902e-06
1.75303056997921e-06
2.08627447232813e-05
1.64773826654264e-06
3.93032291928633e-05
1.95097739641845e-05
1.52351653785481e-06
1.87861209414398e-06
2.21819497972735e-05
1.80545839683989e-06
4.16892248614983e-05
2.09738195521986e-05
1.71650216351569e-06
5.37950084304345e-05
3.93066708787492e-05
1.96639362844344e-05
1.54499417399378e-06
1.98983635957997e-06
2.33727624297938e-05
1.93567184389339e-06
4.39128340756194e-05
2.23040632602165e-05
1.88366639196845e-06
5.68993258214277e-05
4.16945761716065e-05
2.11477793271897e-05
1.7451014520112e-06
6.53740675823601e-05
5.37343444743103e-05
3.91842590797836e-05
1.96242414298543e-05
1.50152997650211e-06
2.08917588909745e-06
2.44540184741959e-05
2.05179480412301e-06
4.59728802525503e-05
2.35036185802553e-05
2.02122317644494e-06
5.98260422336585e-05
4.39191708726572e-05
2.24916633918633e-05
1.91758777147803e-06
6.91046299822791e-05
5.68355886626631e-05
4.15683373289858e-05
2.11163388410035e-05
1.70046668341511e-06
7.52424411851325e-05
6.5252274396611e-05
5.34247016322008e-05
3.88039951358738e-05
1.92315195706205e-05
1.41101146510322e-06
2.17781070002982e-06
2.5435577503056e-05
2.15478729721468e-06
4.78748284825294e-05
2.45912067509574e-05
2.14410730012549e-06
6.25678342948336e-05
4.59795483270345e-05
2.37024140732855e-05
2.05959240296528e-06
7.26452063894382e-05
5.9758727244045e-05
4.37886668955898e-05
2.24638704512577e-05
1.87105050450591e-06
7.95528663473626e-05
6.89760845183098e-05
5.65087298916122e-05
4.11690108143937e-05
2.07092354372092e-05
1.602191674681e-06
8.39322951944929e-05
7.50558110783812e-05
6.48006996595397e-05
5.27807463747867e-05
3.80595167968474e-05
1.85227978003233e-05
1.30193712638727e-06
2.25688309058778e-06
2.63246130751224e-05
2.24707577130731e-06
4.96253958515995e-05
2.55769588112864e-05
2.25288359157913e-06
6.51230375260514e-05
4.78812978341015e-05
2.48019112533652e-05
2.18623335407899e-06
7.59822832552648e-05
6.24968623206555e-05
4.58444628439963e-05
2.36765633785556e-05
2.01132252650533e-06
8.36607123287874e-05
7.25092744611133e-05
5.94153804232474e-05
4.33706059066034e-05
2.20399706322646e-05
1.76536217440415e-06
8.88000732092894e-05
7.9355382424478e-05
6.849753408663e-05
5.58263631092071e-05
4.03827275467894e-05
1.99638705011103e-05
1.48216435763119e-06
9.17074682337658e-05
8.36934143260811e-05
7.44773453200865e-05
6.39478411703245e-05
5.17463854536951e-05
3.69551632318847e-05
1.76130147617882e-05
1.18781645923951e-06
2.32749342540775e-06
2.71301427059576e-05
2.32966005216048e-06
5.12320909455877e-05
2.64702772429794e-05
2.350554047889e-06
6.74937730915353e-05
4.96311703932865e-05
2.57962564055668e-05
2.29796067879609e-06
7.91090713544372e-05
6.50483623733796e-05
4.77413612808426e-05
2.47761542031345e-05
2.13621227467253e-06
8.75465508084031e-05
7.58390570128396e-05
6.21376760940022e-05
4.54081337567912e-05
2.32355140955831e-05
1.89919150684268e-06
9.34512744806512e-05
8.34516546007929e-05
7.20047626618114e-05
5.86964843837299e-05
4.25440401287663e-05
2.12576972804942e-05
1.63514142004764e-06
9.71273192982358e-05
8.85464062160226e-05
7.87409186647744e-05
6.75910231984344e-05
5.47278379388408e-05
3.92131736662877e-05
1.90003366593589e-05
1.35555366820841e-06
9.87097053319975e-05
9.14357725111112e-05
8.30114776370214e-05
7.34480671745134e-05
6.26685161108802e-05
5.03297087435948e-05
3.55536006946078e-05
1.65757115098444e-05
1.06988463068304e-06
2.39094699832639e-06
2.78601808573464e-05
2.40356888230606e-06
5.27030551604868e-05
2.72796091248362e-05
2.43796501564619e-06
6.96846112344103e-05
5.12368663370481e-05
2.66964364103599e-05
2.39848994459782e-06
8.20237551021351e-05
6.74153483850003e-05
4.94858198750189e-05
2.57708021901919e-05
2.24622900435574e-06
9.11991145122162e-05
7.89587457272822e-05
6.46738474139779e-05
4.72871320119778e-05
2.43174193018119e-05
2.01817993362172e-06
9.78605267267116e-05
8.73261264886625e-05
7.53097035818658e-05
6.13839496128057e-05
4.45429317843242e-05
2.24178150625239e-05
1.76038910341209e-06
0.00010231421233003
9.31820823110101e-05
8.28024423833712e-05
7.1047049811086e-05
5.75368182487611e-05
4.13121233220481e-05
2.02424820174405e-05
1.49699779685412e-06
0.000104691763331604
9.68375170921079e-05
8.78201296363847e-05
7.76444003972038e-05
6.62286487840359e-05
5.32217164889279e-05
3.77264929724135e-05
1.78969146956476e-05
1.22355633776012e-06
0.000105005464872395
9.84198816542364e-05
9.06796502233217e-05
8.18406847299012e-05
7.19624813507698e-05
6.09841651523316e-05
4.85690671078664e-05
3.39030710835252e-05
1.54306313296816e-05
9.48048616109592e-07
2.44838477808456e-06
2.85221921928774e-05
2.46988536740756e-06
5.40466603242711e-05
2.80128231340663e-05
2.51608010779724e-06
7.1701776318346e-05
5.27066015683661e-05
2.75113503381744e-05
2.48828980037027e-06
8.47280650620622e-05
6.96024165935461e-05
5.10856797874702e-05
2.66697348165222e-05
2.34518881191013e-06
9.46132075925996e-05
8.18665394797302e-05
6.70258974210384e-05
4.9014046961741e-05
2.52960365879407e-05
2.12282218890132e-06
0.000102012311966004
9.0967721151414e-05
7.84055955218516e-05
6.38868054478087e-05
4.63849033807606e-05
2.34659615432167e-05
1.87161057685822e-06
0.000107236464336324
9.75762136293822e-05
8.66436588270248e-05
7.4303197379442e-05
6.01660691244362e-05
4.3251661002786e-05
2.13541274663775e-05
1.61250265798299e-06
0.00011041940642918
0.000102005457247288
9.24130331751816e-05
8.16415887376889e-05
6.96052847972052e-05
5.59453485473684e-05
3.97443874819967e-05
1.90760371512605e-05
1.35279452797723e-06
0.000111572094464471
0.000104381075952667
9.60294897857154e-05
8.65696523838681e-05
7.60587456527845e-05
6.44336666126697e-05
5.13495599315899e-05
3.59742407594345e-05
1.66741622866507e-05
1.0859055542469e-06
0.000110602392701043
0.000104707019519444
9.76133757685437e-05
8.94028686190481e-05
8.01884914321318e-05
7.00522301421329e-05
5.89263776227403e-05
4.64926161898525e-05
3.20230585734202e-05
1.41777503924675e-05
8.23498815948474e-07
2.50036652042276e-06
2.91222383334343e-05
2.52968565191808e-06
5.52709884393933e-05
2.86770666703919e-05
2.58603273488349e-06
7.35524551560343e-05
5.40487285792853e-05
2.82487797015657e-05
2.56827140310928e-06
8.72262878767907e-05
7.16158213332661e-05
5.254928763102e-05
2.74824267511691e-05
2.43335864562105e-06
9.77881456691276e-05
8.45641843691384e-05
6.9198419903464e-05
5.05966552517905e-05
2.61793777710119e-05
2.21689211136575e-06
0.00010589845779417
9.4371294243851e-05
8.12905837343216e-05
6.62069410644155e-05
4.8076532608825e-05
2.44122798537074e-05
1.96924363716546e-06
0.000111874107492602
0.000101713482623347
9.02535051237565e-05
7.73526070337223e-05
6.26135640316236e-05
4.50373300639096e-05
2.23570600613898e-05
1.71506055710527e-06
0.000115855457688427
0.000106909634227457
9.67662856216845e-05
8.54214713754685e-05
7.27857866990459e-05
5.84933988018281e-05
4.16071668353479e-05
2.01297288453832e-05
1.4576705086049e-06
0.000117859127251744
0.000110087417148964
0.000101147587108128
9.10863172384126e-05
7.99600612093474e-05
6.77043318362747e-05
5.39667001514387e-05
3.78955648968232e-05
1.77813258738425e-05
1.2018043011623e-06
0.000117794386700799
0.000111250185306238
0.000103515128356345
9.46613253695767e-05
8.48015309568883e-05
7.40184407374336e-05
6.22412260622853e-05
4.91424790282174e-05
3.39776464100588e-05
1.53316507744413e-05
9.44499809216759e-07
0.00011546346144457
0.000110301430812583
0.00010386668408826
9.62597058234471e-05
8.76215779574401e-05
7.80930539035869e-05
6.77470175083635e-05
5.65131026207399e-05
4.41124353934628e-05
2.99175035381519e-05
1.28167262124989e-05
6.97686634826316e-07
2.54718865601992e-06
2.96643497721332e-05
2.58362542731384e-06
5.63833671660847e-05
2.92784024436485e-05
2.64891625310488e-06
7.52441578169662e-05
5.52712556352383e-05
2.89157247186057e-05
2.63972329019296e-06
8.95243861023968e-05
7.34627640860753e-05
5.38850158476246e-05
2.82165733116578e-05
2.5117131394976e-06
0.000100726627217472
8.70559868487714e-05
7.11977068409717e-05
5.20433294914875e-05
2.69764120963061e-05
2.30052805152032e-06
0.000109516366388799
9.75361907670903e-05
8.39664087741304e-05
6.83489045803241e-05
4.96254892745418e-05
2.52670881449041e-05
2.05693378843081e-06
0.000116216616745095
0.000105585811485993
9.36268319872895e-05
8.01933461342218e-05
6.48811290156574e-05
4.66757795677216e-05
2.32610862612328e-05
1.80502668624904e-06
0.00012097656953076
0.000111530003942076
0.000100864700173859
8.89729763171746e-05
7.57633143145093e-05
6.0863891607055e-05
4.33204533532636e-05
2.10789557772132e-05
1.55072915195212e-06
0.000123822647218139
0.000115502964224399
0.000106004053504838
9.53669687469381e-05
8.36485436215289e-05
7.07838180266855e-05
5.64135041613995e-05
3.96671723718573e-05
1.87682290762332e-05
1.29547051091726e-06
0.000124673906080716
0.00011751325328618
0.000109165711457493
9.96921460279991e-05
8.92071093201032e-05
7.77948857348338e-05
6.53827207748521e-05
5.16348400327673e-05
3.5788802167034e-05
1.63578665590296e-05
1.04595886074212e-06
0.000123342693270785
0.000117466583234293
0.000110344069375099
0.00010205830602605
9.27486490569195e-05
8.25575311670805e-05
7.15572515192869e-05
5.96722865606106e-05
4.66146034940653e-05
3.17417896999701e-05
1.38705140588833e-05
8.01395825818326e-07
0.000119506082855787
0.000115165334233181
0.000109440694777998
0.00010245807683452
9.43814608748734e-05
8.53787087417245e-05
7.55840912292154e-05
6.50594248874529e-05
5.3750199549756e-05
4.14316001244969e-05
2.75840778979475e-05
1.13493449855106e-05
5.72337043147644e-07
2.590592521273e-06
3.01524348507947e-05
2.63223040359232e-06
5.7389854472346e-05
2.98210130605568e-05
2.7055011852248e-06
7.67842814159562e-05
5.63815083325546e-05
2.95189123317802e-05
2.70370490890843e-06
9.16292350272406e-05
7.51507740116235e-05
5.51009060425855e-05
2.8879756337531e-05
2.58141004575493e-06
0.00010343368284664
8.93479267204718e-05
7.30309925545705e-05
5.33624527261584e-05
2.76955554435825e-05
2.37461322908125e-06
0.000112867617945167
0.000100465126050837
8.64373905711373e-05
7.03189825213404e-05
5.10400015347562e-05
2.60365676699204e-05
2.13478425913525e-06
0.000120260116260167
0.000109190622224324
9.67629932735849e-05
8.28271294886253e-05
6.69732475220546e-05
4.81746748390372e-05
2.40766128936813e-05
1.88564318836719e-06
0.000125769863005258
0.000115856204676154
0.000104700192446112
9.2290945294698e-05
7.85359287845535e-05
6.30586705845709e-05
4.48908617039348e-05
2.1933276346854e-05
1.63229050054564e-06
0.000129435397518857
0.000120604565920815
0.000110579686906935
9.9396491403528e-05
8.71132494257822e-05
7.36654638392739e-05
5.86881398236332e-05
4.12947617991537e-05
1.96562336288318e-05
1.37829358733869e-06
0.00013119028040737
0.000123453771434256
0.000114528117387712
0.000104465823732078
9.33819522733443e-05
8.13642196443055e-05
6.83390115168717e-05
5.39630316610524e-05
3.74565552345417e-05
1.72704641785723e-05
1.1272555185303e-06
0.000130864646519643
0.000124318970448594
0.000116544637187095
0.000107610520651259
9.7653757922925e-05
8.68203941317672e-05
7.5183660065326e-05
6.2664285935881e-05
4.89658872482422e-05
3.34303017254806e-05
1.48069337094936e-05
8.87792719435533e-07
0.000128164886627944
0.000123013176600317
0.000116531797744871
0.000108820586610687
0.000100032458741126
9.03386916023987e-05
7.98720347515703e-05
6.86910256975531e-05
5.67349324460008e-05
4.37706061034599e-05
2.92656265413144e-05
1.22943995023249e-05
6.58670378921419e-07
0.000122592232185423
0.000119217713013937
0.000114296511705544
0.000107999014702296
0.000100510558473134
9.20253127907154e-05
8.27050323811309e-05
7.26714967516792e-05
6.19909796461018e-05
5.06380930076384e-05
3.84477921602121e-05
2.50168814249954e-05
9.77723366940696e-06
4.48850513151438e-07
2.63558522807966e-06
3.06047709869409e-05
2.67710262041554e-06
5.82971625422749e-05
3.03091257271537e-05
2.75635307203417e-06
7.8179878437232e-05
5.7385787967423e-05
3.00625189661881e-05
2.76108097994884e-06
9.35480646056282e-05
7.66872493130586e-05
5.62043633814686e-05
2.94784664578461e-05
2.64358070637228e-06
0.000105915742775869
9.14468986638969e-05
7.47058456785317e-05
5.45621459848242e-05
2.83438168566629e-05
2.44020867596343e-06
0.000115956742021979
0.000103163143552738
8.87095354815559e-05
7.21244254799668e-05
5.23284490568556e-05
2.6729141096256e-05
2.20348826933773e-06
0.000124005674178151
0.000112529515722669
9.96647178498223e-05
8.52582805942987e-05
6.88961516078898e-05
4.95419198470035e-05
2.48100710928805e-05
1.95705647107969e-06
0.000130230485539538
0.000119884306016277
0.000108270168980487
9.53747363002181e-05
8.11053200159175e-05
6.5082165472602e-05
4.6325913173142e-05
2.2702090508716e-05
1.70526388577948e-06
0.000134682615127984
0.000125379464588875
0.000114863737738685
0.000103166840594662
9.03490856364973e-05
7.63474231484337e-05
6.07925097430795e-05
4.27848269195459e-05
2.04541905185649e-05
1.45073102816356e-06
0.000137312594533822
0.000129044825286318
0.00011957971741379
0.00010896314913813
9.73111630798867e-05
8.47158245639715e-05
7.11037642128224e-05
5.61254579281381e-05
3.89866691504983e-05
1.80901621770326e-05
1.19929471996254e-06
0.0001379723555682
0.000130809559759588
0.000122426136494287
0.000112880894264139
0.000102307971401605
9.08591270233628e-05
7.86096801010772e-05
6.54779046428941e-05
5.11599664624277e-05
3.49826320066375e-05
1.56375907415123e-05
9.56238538336581e-07
0.000136402096896392
0.000130503998864644
0.000123314031584663
0.000114912213182541
0.000105444016436925
9.50834655565619e-05
8.39649261762924e-05
7.21453405809514e-05
5.95592448668783e-05
4.5966038023854e-05
3.08200249254e-05
1.31329853806333e-05
7.29871723945156e-07
0.000132170989562786
0.000127838719073376
0.000122059617054527
0.000114960617156112
0.000106706998458852
9.74895254265153e-05
8.74676479546022e-05
7.67586370025319e-05
6.54237491916828e-05
5.34314410853399e-05
4.06096019656937e-05
2.65440807516538e-05
1.06072750972806e-05
5.1852103646886e-07
0.000124501711787904
0.000122324226182694
0.000118356121698639
0.000112843986811621
0.000106009139334561
9.80731031293905e-05
8.92228898647287e-05
7.96091264284969e-05
6.9353840599996e-05
5.85395203667097e-05
4.71737470917974e-05
3.51530547117329e-05
2.22019570953538e-05
8.09683718726603e-06
3.26947909302259e-07
2.67513172181513e-06
3.09834318642748e-05
2.7226457842337e-06
5.9107916225319e-05
3.07614937802387e-05
2.80309035144438e-06
7.94380449535455e-05
5.8290684323204e-05
3.05510787118474e-05
2.81237363903526e-06
9.52881243207861e-05
7.80792377384039e-05
5.72018080596612e-05
3.0017341461694e-05
2.69913381654944e-06
0.000108179964146874
9.33601445711301e-05
7.62297030664649e-05
5.56498868062324e-05
2.89277379520979e-05
2.49844575661546e-06
0.000118790127110077
0.000105636701342869
9.07897729207064e-05
7.37728390740732e-05
5.34989237832101e-05
2.73520201610505e-05
2.26403699774092e-06
0.000127457870858818
0.000115607033202495
0.000102337069664204
8.74928245070463e-05
7.06570664905581e-05
5.0785760483712e-05
2.54682836129574e-05
2.01981133373582e-06
0.000134359572216814
0.00012361540557948
0.000111576249092053
9.82270878031252e-05
8.34757958643973e-05
6.69405068074355e-05
4.76333148797006e-05
2.33930943047357e-05
1.76965156550152e-06
0.000139559179157334
0.000129822841084046
0.000118852050708877
0.000106675441067587
9.33554341621431e-05
7.88314062817295e-05
6.2731001991647e-05
4.41446332186892e-05
2.11707651670602e-05
1.51541699566783e-06
0.000143024834172852
0.000134271756127404
0.000124307593244397
0.000113173484456218
0.000100986817986376
8.78447904478331e-05
7.36753173064477e-05
5.81241052412917e-05
4.03854771839421e-05
1.88251904275143e-05
1.26240090351807e-06
0.00014463229142136
0.000136907808437698
0.000127961870571445
0.000117845636466133
0.000106692432616988
9.46592888493635e-05
8.18252084896706e-05
6.81072615979201e-05
5.31955336325907e-05
3.64044280178788e-05
1.63821026808561e-05
1.01689852423204e-06
0.000144156078004984
0.000137582541916435
0.000129738914798534
0.000120691432967117
0.000110581081676751
9.95850576678244e-05
8.78413043702005e-05
7.5406790212958e-05
6.22127085565552e-05
4.80119258271438e-05
3.22461914985814e-05
1.38744574245822e-05
7.8565278100419e-07
0.000141231365357877
0.000136039442809181
0.00012947097430081
0.000121620857536262
0.00011264230452509
0.000102722296580624
9.20225085115635e-05
8.06578078283288e-05
6.86862631172083e-05
5.60716497506326e-05
4.26357460075643e-05
2.79534863529335e-05
1.13411982746891e-05
5.74232095944248e-07
0.000135220280945564
0.000131855603563861
0.000126877867718912
0.000120458607896183
0.000112784883401674
0.000104060401229848
9.44674840845083e-05
8.41484161174737e-05
7.32187030291315e-05
6.1755348287733e-05
4.9760424340838e-05
3.7124919844633e-05
2.35653107612177e-05
8.80738777429328e-06
3.79679658226764e-07
0.000124876824600758
0.000124271336953956
0.00012149220315856
0.000116920560284679
0.000110845009350282
0.000103522720813054
9.5176824617384e-05
8.59814489251823e-05
7.60872768121689e-05
6.56266309283442e-05
5.47008082820236e-05
4.3349224818539e-05
3.15301634996584e-05
1.91117013405307e-05
6.29332420989969e-06
2.08069552955784e-07
2.70822981462069e-06
3.13050254910576e-05
2.76351968192806e-06
5.98187464516679e-05
3.11437529062074e-05
2.85008167122683e-06
8.05616302497162e-05
5.90995551948485e-05
3.1002478006194e-05
2.85902554068866e-06
9.68566254970155e-05
7.93337308604357e-05
5.80994957367446e-05
3.05011537539304e-05
2.74867169728629e-06
0.000110233723244772
9.50948953168021e-05
7.76096168092258e-05
5.66322099123322e-05
2.94525826651267e-05
2.5502905375721e-06
0.000121375121375013
0.000107892960865387
9.26853651096247e-05
7.52717097296845e-05
5.45589815436259e-05
2.79118059681621e-05
2.31748668452393e-06
0.000130623557240442
0.000118429567522779
0.000104786531541302
8.95377169606839e-05
7.22636021115736e-05
5.19142534565617e-05
2.60587830284998e-05
2.07484465925581e-06
0.000138162444234492
0.000127054100580987
0.000114622981042911
0.000100853075183091
8.56533718998176e-05
6.86408438668542e-05
4.88210325010825e-05
2.4011476997179e-05
1.82600147226499e-06
0.000144067104123826
0.000133935842389207
0.000122545839915309
0.000109923893003603
9.61350380877781e-05
8.11216939334978e-05
6.45096472025658e-05
4.53817381693985e-05
2.18127274903981e-05
1.57218129504286e-06
0.000148322514778276
0.000139129444216428
0.000128706954106
0.000117092782092374
0.000104406390775412
9.07505800671376e-05
7.60554486771999e-05
5.99633269015694e-05
4.1659949688298e-05
1.94835403972463e-05
1.31815451596062e-06
0.000150828435053718
0.000142597776068749
0.000133137208083232
0.000122492128169139
0.000110796646355807
9.82132062663664e-05
8.48256378546097e-05
7.05509608525581e-05
5.50746930426437e-05
3.77018252843956e-05
1.70478673717351e-05
1.07007199646404e-06
0.000151393384324643
0.000144215612878835
0.000135776118775859
0.000126131335593093
0.000115420780200283
0.000103825182662295
9.14874109774842e-05
7.84659450680735e-05
6.46899996205548e-05
4.99072757308568e-05
3.35495555804114e-05
1.45371278351277e-05
8.34907377451893e-07
0.000149709830113442
0.00014375990098967
0.000136475866298254
0.000127931771439145
0.000118274385392301
0.000107689791854931
9.63429526512284e-05
8.43488458021614e-05
7.17640783558138e-05
5.85491375244345e-05
4.45205978320718e-05
2.92434829067043e-05
1.19870031884648e-05
6.1742481266434e-07
0.000145270434511809
0.00014087190619922
0.000134987162649592
0.000127731650931044
0.0001192702626087
0.00010979639300237
9.94893627908949e-05
8.84878451840725e-05
7.69030667673508e-05
6.48083600521475e-05
5.22017024544421e-05
3.89695299761141e-05
2.48203993688966e-05
9.42981489213479e-06
4.2114083548664e-07
0.000137089734239052
0.00013492733955962
0.00013090329543939
0.000125268027594309
0.000118247030321196
0.000110062826594521
0.000100919423154505
9.09787001270957e-05
8.03805335363451e-05
6.92501009170985e-05
5.76834343750412e-05
4.57154055054123e-05
3.33006801513954e-05
2.03032763882351e-05
6.87870866824656e-06
2.43772365497888e-07
0.000123087292638965
0.000124713782839419
0.000123504828623533
0.000120113981921193
0.000114953474756206
0.000108348299096694
0.000100568830608279
9.18264738802964e-05
8.22948599140454e-05
7.21326091194698e-05
6.14838613426294e-05
5.04663137109994e-05
3.9147386965457e-05
2.75471692375754e-05
1.57018966278866e-05
4.36425727833733e-06
1.03698127055503e-07
2.73339961970559e-06
3.15711564955436e-05
2.79731351844247e-06
6.04355605883875e-05
3.14660786277896e-05
2.89256859480811e-06
8.15538125373292e-05
5.98094103957577e-05
3.13877778274459e-05
2.90528147352733e-06
9.82576636413548e-05
8.04543225844238e-05
5.89027597632584e-05
3.09439657657038e-05
2.7932001665267e-06
0.000112084363179207
9.66582900342382e-05
7.88524269048264e-05
5.75151554922074e-05
2.99230234086945e-05
2.59640576711483e-06
0.000123719423250109
0.000109939292705235
9.44035215800235e-05
7.66280803511653e-05
5.55152986077215e-05
2.84140724442658e-05
2.36473840725997e-06
0.000133510728845268
0.000121004474894342
0.000107020283345982
9.14002424109518e-05
7.37232714747248e-05
5.2934967966478e-05
2.65880951118936e-05
2.12309799078874e-06
0.000141647007367414
0.000130207221698743
0.000117416762337173
0.000103259195061894
8.76450016409105e-05
7.01907463522408e-05
4.98970331900716e-05
2.4564560839676e-05
1.87509155941258e-06
0.000148213332228982
0.000137723781410668
0.000125949689834109
0.000112916729023398
9.86929632191898e-05
8.32242591408906e-05
6.61354767447464e-05
4.65037967143366e-05
2.23866431060369e-05
1.62153861955781e-06
0.000153209664972214
0.000143619900484101
0.000132778915506895
0.000120722040341796
0.000107571469632669
9.34359472674029e-05
7.82484272996883e-05
6.16490591898663e-05
4.28173626528892e-05
2.00712671699922e-05
1.36674794233652e-06
0.000156558327392733
0.000147874938959223
0.000137946969930794
0.000126815479156209
0.000114616528723185
0.000101518461530623
8.76105854075961e-05
7.28108978843511e-05
5.68017781338752e-05
3.88815082244373e-05
1.76419613400568e-05
1.11678638386468e-06
0.000158100616092206
0.000150387200791203
0.000141409706088443
0.000131217412881999
0.000119950475830768
0.000107793616679724
9.48959704178724e-05
8.13186204067551e-05
6.69900641846191e-05
5.16543348619441e-05
3.47360363997867e-05
1.51275278732511e-05
8.77657130559922e-07
0.000157579062087488
0.000150966840613212
0.000143041263883874
0.000133863162420257
0.000123576625038712
0.000112369866649587
0.000100411524713767
8.78188731622981e-05
7.46485752352566e-05
6.08592227551617e-05
4.62634979097913e-05
3.04190495376203e-05
1.25617564407199e-05
6.55473788651175e-07
0.000154587777725547
0.000149310931700675
0.000142624081829662
0.000134608660431397
0.000125417504126646
0.00011524071697765
0.000104256270102333
9.26023595526808e-05
8.03882569804139e-05
6.76853612468722e-05
5.44888984368088e-05
4.06816400444618e-05
2.59650833362791e-05
9.97403560707644e-06
4.52634466530916e-07
0.000148400136239838
0.000144921953754266
0.000139811894648745
0.000133217773378539
0.000125321695175459
0.00011632670974224
0.00010642124996147
9.57623218763159e-05
8.44820918429935e-05
7.27008403449162e-05
6.05110457745219e-05
4.79443550368895e-05
3.4952878140067e-05
2.13953006793211e-05
7.38461596416844e-06
2.71783018708307e-07
0.000137409341983872
0.000136838414232055
0.000134007490088991
0.000129313164498346
0.000123051462807899
0.00011548311205983
0.00010683446817024
9.72949123234463e-05
8.70208693507312e-05
7.61598173006828e-05
6.48488721599489e-05
5.3201048520203e-05
4.12805144969737e-05
2.9105603609558e-05
1.67137487339629e-05
4.81548335244331e-06
1.23012930157121e-07
0.000107628033094178
0.000118326492062008
0.000123043111171648
0.000124075004091664
0.000122248004740615
0.000118237036196289
0.00011249744031126
0.000105377522510573
9.71476898936619e-05
8.80126747056811e-05
7.81534471209807e-05
6.7736637550037e-05
5.69150265398504e-05
4.58174773557447e-05
3.45327923239668e-05
2.31480581349845e-05
1.19230284804119e-05
2.42193746398362e-06
3.48285701401609e-08
2.75311631884084e-06
3.1780507272484e-05
2.82212110122181e-06
6.09612831114565e-05
3.17310443276997e-05
2.92705561643126e-06
8.24183305865438e-05
6.04249055170507e-05
3.17097460859649e-05
2.94803625898098e-06
9.94955672348931e-05
8.14438380487221e-05
5.96078960646225e-05
3.13289273627204e-05
2.83599102203435e-06
0.000113736776245065
9.8054850167565e-05
7.9962806266097e-05
5.83054786470897e-05
3.03487716405812e-05
2.63725910275132e-06
0.000125830705212728
0.000111782998039015
9.59513016884249e-05
7.78485735933892e-05
5.6373938919558e-05
2.88631760811638e-05
2.40658805625357e-06
0.000136127830902231
0.000123339463403491
0.000109045687480957
9.30875948830604e-05
7.50431498844037e-05
5.38546756316533e-05
2.70617329320691e-05
2.16533459902891e-06
0.000144822472824734
0.000133082777026514
0.000119964972915815
0.000105452631999077
8.94579713099536e-05
7.15977095738789e-05
5.08688258367488e-05
2.50588005535216e-05
1.91779328567118e-06
0.000152007685503252
0.000141194546164609
0.000129070412743245
0.000115660332021419
0.000101035691925139
8.51460211334282e-05
6.76159728727744e-05
4.7518586147362e-05
2.28977688980788e-05
1.66420923213433e-06
0.00015769596094754
0.000147750017109972
0.000136528725734218
0.000124065766547894
0.000110486551432956
9.59059299951527e-05
8.02601737413821e-05
6.31882068364652e-05
4.38652002377165e-05
2.05948729881318e-05
1.40862234007215e-06
0.000161829464703515
0.000152743253956815
0.00014239304569159
0.000130816700540245
0.00011815301202214
0.000104576655763865
9.01828451952444e-05
7.48913547264519e-05
5.83826319311116e-05
3.99504550024574e-05
1.81701077655951e-05
1.15698490567474e-06
0.00016427965140731
0.000156094732388872
0.00014663498632664
0.000135944357736947
0.000124164695534224
0.000111486402762364
9.8064765844484e-05
8.3964661123434e-05
6.91149692199018e-05
5.32574481396653e-05
3.58119741726324e-05
1.56519626151475e-05
9.1484639131277e-07
0.000164834002446715
0.000157646737132031
0.000149151069788128
0.000139399057316562
0.000128534465775946
0.000116749864700803
0.000104218454619839
9.10611632298572e-05
7.73361020522051e-05
6.30012634211866e-05
4.78668775374523e-05
3.14858445885696e-05
1.30711294531457e-05
6.88190862817038e-07
0.000163163795194191
0.000157145220291401
0.000149755275684552
0.000141056631521655
0.000131196793633096
0.000120367658100628
0.000108746977962765
9.64755695931612e-05
8.36624444660679e-05
7.03786565421052e-05
5.66180365643415e-05
4.22609392740767e-05
2.70042424927828e-05
1.04555445820816e-05
4.79928532511312e-07
0.000158731395797311
0.000154191387561854
0.000148154507848724
0.000140709426913042
0.000132015032206684
0.000122266059794249
0.000111643994725521
0.00010030197732157
8.83687414730493e-05
7.59618049705189e-05
6.31717707865221e-05
5.00283175825514e-05
3.64817027473777e-05
2.2386350080863e-05
7.82239797586283e-06
2.92506449607874e-07
0.000150439066743143
0.00014807474129998
0.0001438705366838
0.000138032913173277
0.000130772131434885
0.000122307552331967
0.000112837070044875
0.000102533392024136
9.15424548829645e-05
8.00036479105791e-05
6.80491725127012e-05
5.57889287834921e-05
4.32850363295322e-05
3.05550811590705e-05
1.76351870139936e-05
5.19756819017492e-06
1.37875755788164e-07
0.000135584436619082
0.000137232999788386
0.000135989820812021
0.000132479781680934
0.000127133005932303
0.000120284082173119
0.000112201886773379
0.000103107784628266
9.31820020981623e-05
8.25874067747429e-05
7.1480037922219e-05
6.00061602395897e-05
4.82908665136624e-05
3.6421341507262e-05
2.44859842698355e-05
1.27467395861051e-05
2.72323700544883e-06
4.09944406113961e-08
0.000100163883914729
0.000107744435862855
0.000109843051518365
0.000118471282913542
0.000122642291658834
0.000123048260785427
0.000120551290872414
0.000115890633369404
0.00010956360903277
0.000101928056044676
9.32452152881861e-05
8.37222535571443e-05
7.3545504136955e-05
6.2885547243857e-05
5.18978258384316e-05
4.07132391987518e-05
2.94367540285355e-05
1.82554340307047e-05
7.76835365049555e-06
8.63080452654807e-07
6.38762681363014e-09
3.1958329472218e-05
2.84161418974315e-06
6.139800679926e-05
3.19361479275393e-05
2.95134162125135e-06
8.31585651938661e-05
6.09488411801134e-05
3.19710864840149e-05
2.98213469812003e-06
0.000100574384799665
8.23058871357054e-05
6.02183520760646e-05
3.16470396478053e-05
2.87698325746666e-06
0.000115195920158855
9.92887416023613e-05
8.09431218945213e-05
5.89994290742234e-05
3.07262488660144e-05
2.67503119135516e-06
0.00012771458833332
0.000113429239678708
9.73339413441365e-05
7.89391663718668e-05
5.71413383816041e-05
2.92644911321821e-05
2.44330495461806e-06
0.000138483048331298
0.000125442169045604
0.000110870008951011
9.46066645620035e-05
7.62298013617998e-05
5.46794238705537e-05
2.74841861504299e-05
2.20269776713585e-06
0.000147698414848117
0.000135689208575969
0.000122275286738682
0.000107440730344106
9.10994580738394e-05
7.28688032989594e-05
5.17431731197144e-05
2.54996804863558e-05
1.95500459801286e-06
0.000155461308132784
0.000144357329035587
0.00013191609031625
0.000118162054500814
0.000103170387506011
8.68942282722908e-05
6.895856804953e-05
4.84334751784727e-05
2.33528325777892e-05
1.70098347860354e-06
0.000161794230836031
0.000151529567884811
0.000139964206569969
0.000127130700315878
0.000113157971381027