/*--------------------------------*- C++ -*----------------------------------*\
  =========                 |
  \\      /  F ield         | OpenFOAM: The Open Source CFD Toolbox
   \\    /   O peration     | Website:  https://openfoam.org
    \\  /    A nd           | Version:  12
     \\/     M anipulation  |
\*---------------------------------------------------------------------------*/
/*   Windows 32 and 64 bit porting by blueCAPE: http://www.bluecape.com.pt   *\
|  Based on Windows porting (2.0.x v4) by Symscape: http://www.symscape.com   |
\*---------------------------------------------------------------------------*/
FoamFile
{
    format      ascii;
    class       volScalarField;
    location    "700";
    object      nut;
}
// * * * * * * * * * * * * * * * * * * * * * * * * * * * * * * * * * * * * * //

dimensions      [0 2 -1 0 0 0 0];

internalField   nonuniform List<scalar> 
10123
(
5.80245536269744e-07
6.49273111483106e-07
4.24396605399619e-05
6.15818530831519e-07
7.10638329970564e-07
4.52630098155395e-05
6.9183888319808e-07
0.000193379291477324
4.38892322917817e-05
6.66164232356485e-07
7.61546194961073e-07
4.77629799548833e-05
7.58062377691872e-07
0.0002022420362904
4.68237252013724e-05
7.50545432133015e-07
0.000400273770653868
0.000196288140987984
4.5772189460767e-05
6.97164556254247e-07
8.06632891690798e-07
4.99590036888537e-05
8.12734958653345e-07
0.000210127953842644
4.94128524373627e-05
8.23644326160673e-07
0.000416352832135391
0.000205306513674544
4.88534060057169e-05
7.87458524714227e-07
0.000614964603224827
0.000402557789857422
0.000199695899636163
4.6925630119362e-05
6.86501584727488e-07
8.46903427999845e-07
5.1910868820149e-05
8.61489902456003e-07
0.000217133351867332
5.16844295952743e-05
8.83790906886116e-07
0.000430801186649454
0.000213317265970471
5.15590080829139e-05
8.65298030813311e-07
0.000638905399159567
0.00041876349345712
0.000208935650176332
5.01178630218265e-05
7.77457036183848e-07
0.000814949162816001
0.000615650146411036
0.000404614892229566
0.000201448435503107
4.66259394650292e-05
6.45419100585629e-07
8.82834250320319e-07
5.36483023459993e-05
9.04734211686323e-07
0.000223366394626295
5.37002529939092e-05
9.37520840334509e-07
0.00044374218486276
0.000220428706378899
5.39299401498211e-05
9.29374381498675e-07
0.000660662087601187
0.000433317100927751
0.000217119866972843
5.29090430743909e-05
8.55450622451928e-07
0.000847284266986212
0.00063965476697375
0.000420989649718497
0.000210866577641464
4.98479971689206e-05
7.32868737487877e-07
0.000990855662731302
0.000813972606322687
0.000614973239269699
0.000404507775735037
0.00020016837329999
4.5131544844161e-05
5.9396774792734e-07
9.14888676942453e-07
5.51946203543787e-05
9.43484280669942e-07
0.000228911666682445
5.54907965480735e-05
9.85083833937639e-07
0.000455307790611361
0.000226753177004974
5.60362702286168e-05
9.86517072660416e-07
0.000680323039306924
0.000446348246172673
0.000224378741136138
5.53513882237886e-05
9.1958080015036e-07
0.000876976300475694
0.000661463089433652
0.000435681544884948
0.000219180169599054
5.26546764621268e-05
8.0750716413825e-07
0.00103211041369728
0.000846291430906347
0.000639028161021252
0.000420991469676342
0.000209641099357439
4.83098629641824e-05
6.76191844725256e-07
0.00113934410385352
0.000988751265858431
0.000810486788017647
0.000611555576649382
0.000400879184240812
0.000196129695130979
4.30463572566111e-05
5.41181382601382e-07
9.43512413086589e-07
5.65737912444285e-05
9.7815481858371e-07
0.000233846654272026
5.70846831986304e-05
1.02779194084104e-06
0.000465624805518853
0.000232376261887243
5.79020547313257e-05
1.03693422347114e-06
0.000698008550538226
0.000457991197505424
0.000230829377373484
5.75172984031629e-05
9.76678177839185e-07
0.000904038082240276
0.000681167875964522
0.000448830221077714
0.000226545007283465
5.51059129655751e-05
8.68721295380069e-07
0.001070347852682
0.000875961097814117
0.000660876300084195
0.000435763441693669
0.000217975717701457
5.10692012240131e-05
7.4598450758233e-07
0.00119011825176231
0.0010299059749814
0.000842698963883847
0.000635555134290602
0.00041732528226633
0.000205523165197258
4.613772611847e-05
6.17605797207487e-07
0.00125945263325089
0.00113672923505833
0.000983182901545118
0.000803608395564929
0.000604427742358904
0.000393743640995184
0.000190299586404037
4.07017738097319e-05
4.87390147003246e-07
9.69234161061399e-07
5.78070122128579e-05
1.00919218353893e-06
0.000238241388288612
5.85059457190561e-05
1.06600857048358e-06
0.000474816278996076
0.000237377499675743
5.95606200768352e-05
1.08229860711262e-06
0.000713856556127689
0.00046837378421647
0.000236558679122885
5.94351353924713e-05
1.02697858704968e-06
0.000928543529305045
0.000698890225642266
0.000460572808089347
0.000233083873234524
5.72752225912418e-05
9.23147869543367e-07
0.00110546727668966
0.000902999569785463
0.000680612778901913
0.000448975217482667
0.000225349238525155
5.34744206200826e-05
8.03123433770862e-07
0.00123757737119843
0.00106804100873464
0.000872267182989234
0.000657345399050376
0.000432045432756651
0.000213765334839136
4.88132371406299e-05
6.82051042494501e-07
0.00132052396849935
0.00118732139282665
0.00102405548247305
0.000835539671637622
0.000628190592387549
0.000409982528284327
0.000199511417287005
4.36806322757351e-05
5.57396913875714e-07
0.00135069148552718
0.00125674186631743
0.00112998504807028
0.000973565861078634
0.000792742694144915
0.000593442114695125
0.000383784007111516
0.00018329661941521
3.81441549670028e-05
4.31950626213434e-07
9.92518139084919e-07
5.8913324494817e-05
1.03703492902967e-06
0.000242160140877962
5.97762394810321e-05
1.10017032240359e-06
0.000482999001525275
0.000241828985359687
6.10379536498722e-05
1.12282138398424e-06
0.000728014366432569
0.000477620243155449
0.000241649104347153
6.11368348793084e-05
1.07222561181965e-06
0.000950609999297935
0.000714768350243469
0.000471037915658791
0.000238885218016837
5.91957441202745e-05
9.71012555584064e-07
0.00113746197634767
0.000927481502465745
0.000698358767374715
0.000460767189070138
0.000231889431096081
5.55998886233668e-05
8.53863675850968e-07
0.00128146396735035
0.00110306327849781
0.000899210187308451
0.000677023574997565
0.000445201209474648
0.000221047605639736
5.11413929098553e-05
7.34674840498425e-07
0.00137803236865854
0.00123459799051903
0.00106192587970682
0.000864845815854289
0.000649756603145448
0.00042450104901867
0.000207576067525137
4.62516197643542e-05
6.162735458031e-07
0.00142309003101519
0.00131754627286007
0.00118010852200073
0.00101389185626089
0.000824157291403325
0.000616764245165046
0.000399666702054657
0.000192247827204392
4.09861401378317e-05
4.94762038743559e-07
0.00141223860990419
0.00134814071901554
0.00124953727347292
0.00111861771940063
0.000959511938963292
0.000777670207045189
0.000578843186771096
0.0003714801038665
0.000175268588859074
3.53350132966709e-05
3.75203699505713e-07
1.01359032113329e-06
5.99074258523057e-05
1.06214809066298e-06
0.000245658701523382
6.09140410431518e-05
1.13075524591095e-06
0.000490281452868332
0.000245795785385834
6.23564702527148e-05
1.15891352840429e-06
0.000740631673810503
0.000485848691325332
0.00024617527617216
6.26503349384358e-05
1.11253712100447e-06
0.000970384703167333
0.000728950009686135
0.000480351356903754
0.000244034074807862
6.08978283415905e-05
1.01404360040047e-06
0.00116639840771409
0.000949524255422017
0.000714252489946448
0.000471268938691558
0.000237686729899224
5.74789383061465e-05
8.98406864868043e-07
0.00132165264699167
0.00113496705792322
0.00092360189078656
0.000694710852790977
0.000456935975306947
0.000227501125946971
5.31966990116743e-05
7.81399600717486e-07
0.00143152560562507
0.00127831459416471
0.00109670288238076
0.000891545660806151
0.000669224843785397
0.000437467271045335
0.000214693334381549
4.84854119641511e-05
6.64048819641213e-07
0.00149173150060173
0.00137479246556043
0.00122694534985781
0.00105125205028434
0.000852981729016054
0.000637919855770684
0.000413853337850712
0.000200072864650794
4.3435244914792e-05
5.47569380206659e-07
0.00149736339359664
0.00142017302427154
0.00130966351870008
0.00116789458760804
0.000998976317851989
0.000808318278574545
0.000601535187144828
0.000386878790225469
0.000183886569219284
3.80132096076164e-05
4.30335553782881e-07
0.00144282675057741
0.00141005782897007
0.00134101182538824
0.00123733454412609
0.00110229278411356
0.000940750146173577
0.000758271482489882
0.000560753868918265
0.000356931407139836
0.000166143404876
3.22454816379654e-05
3.1783387886741e-07
1.03257139224271e-06
6.07986527206296e-05
1.08479070476592e-06
0.000248781156277848
6.1934520189878e-05
1.15825536893444e-06
0.000496759474328461
0.00024933374963007
6.3535064770081e-05
1.19115180195663e-06
0.000751853984585873
0.000493168563192819
0.000250203895021073
6.39982936899711e-05
1.14836185974565e-06
0.000988033900113097
0.000741585506303719
0.000488633093641437
0.000248606521935132
6.24087883418888e-05
1.05229951214624e-06
0.00119240098424691
0.000969275216761654
0.000728442072094839
0.000480607432173976
0.000242826828130168
5.91453810370564e-05
9.38414152667572e-07
0.00135813121139779
0.00116381923207288
0.000945558922924603
0.000710544888281206
0.000467379844417756
0.000233217497770584
5.50118092816144e-05
8.22391069764606e-07
0.00148072872616062
0.00131834553943792
0.00112838107541273
0.0009157121046929
0.00068671661595434
0.000449026348665095
0.000220996031842983
5.04557765735352e-05
7.06440426523623e-07
0.00155590346105477
0.00142803933906018
0.0012702530573447
0.00108555728083542
0.000879236306637502
0.000657009478923664
0.000426514908686546
0.000206971834882381
4.55593036241377e-05
5.90244353488047e-07
0.00157856343323113
0.00148845533601614
0.00136628145235982
0.00121393695378493
0.00103552911863028
0.000836427860066892
0.000622108106387265
0.000400623699891169
0.00019141712913813
4.03207688978912e-05
4.76563766853695e-07
0.00154246712728739
0.00149468560760454
0.00141212898821107
0.00129626670439785
0.00115030016296149
0.000979037389568917
0.000787919035290794
0.00058264460196233
0.000371726683565798
0.000174356381861175
3.47335817986169e-05
3.65080021117989e-07
0.00144087197537726
0.00144126121781144
0.00140351538803119
0.00132880728343663
0.00121977131518014
0.00108067284962057
0.000916911047485731
0.000734290385909908
0.000539030457105929
0.000339978292159456
0.000155777272524146
2.88611840275796e-05
2.60763016438316e-07
1.05016574689984e-06
6.15955737992476e-05
1.10519991682673e-06
0.000251553215182655
6.28472634767564e-05
1.18299235653365e-06
0.000502512135746456
0.000252487491310466
6.45898272566696e-05
1.22001945974028e-06
0.000761816074768823
0.000499676714328344
0.000253792174408157
6.5200575090029e-05
1.18022432969056e-06
0.00100373143651388
0.000752820983291048
0.000495994140219461
0.00025267020319194
6.37516607195139e-05
1.08618670921823e-06
0.00121563690309624
0.000986900640919277
0.000741078449798008
0.000488903577260838
0.000247385638244518
6.06208954885544e-05
9.73929972809645e-07
0.00139097948476433
0.00118974413526693
0.000965228233585066
0.000724673560298412
0.000476659551316429
0.000238281001060536
5.66199892316817e-05
8.59122972634646e-07
0.00152551775567381
0.00135467988019582
0.00115702664499102
0.000937460679564458
0.000702368629035515
0.000459307964540544
0.000226575211195941
5.21942523666451e-05
7.43597850266227e-07
0.00161513691935085
0.00147701468871509
0.00130991249896465
0.00111680259964121
0.000902993778536434
0.000674154383458056
0.000437796699777526
0.00021307745605038
4.74313282719038e-05
6.27978778476886e-07
0.00165478777994917
0.00155229066095554
0.00141894383878659
0.00125650947418592
0.00106908663914104
0.000862022570207506
0.000640663417667499
0.000412884232240415
0.000198051750626206
4.23187164295453e-05
5.13603138397984e-07
0.00163805655018585
0.00157540251830269
0.0014795533844214
0.00135175882338592
0.00119514487619292
0.00101448335005566
0.000815095383388945
0.000602479918936294
0.000384929224877962
0.000181537900991027
3.68781213087694e-05
4.04439542056755e-07
0.00155715667730268
0.00154023042051746
0.00148691641491421
0.00139831913502464
0.00127694722441341
0.00112700594528242
0.000953731645027265
0.000762722145851891
0.00055995800520503
0.00035405235398314
0.000163514910657512
3.11354545298272e-05
3.00097963459881e-07
0.0014047806325621
0.00144024309385793
0.0014358961822675
0.00139221593776553
0.00131112696182891
0.00119640468421546
0.00105320475948576
0.000887420420817931
0.000705253344216525
0.000513274249344212
0.00032027263255109
0.000143968996844108
2.5169847858094e-05
2.04774082545654e-07
1.0684055458184e-06
6.23471629807931e-05
1.12404007193767e-06
0.000253994825947578
6.36623021358284e-05
1.205229390291e-06
0.000507594953496873
0.000255285651097768
6.55317217016097e-05
1.24591223196335e-06
0.000770636193105762
0.000505453185043818
0.000256985989602468
6.62740674982206e-05
1.208646091414e-06
0.00101764819373
0.000762792056729194
0.000502533083893104
0.000256283595925565
6.49464552206053e-05
1.11619028097046e-06
0.00123630040520625
0.00100257450436649
0.000752308709246057
0.000496269439432753
0.000251430369798789
6.192901743281e-05
1.00527335106055e-06
0.0014203516120537
0.00121290884264644
0.000982775789159059
0.000737247813787452
0.000484895474480915
0.000242765850526268
5.80424116746353e-05
8.91657732959001e-07
0.00156590366536933
0.00138739711981531
0.00118276301546793
0.000956937230840724
0.000716327374799628
0.000468436818439361
0.000231512650007465
5.37314714207079e-05
7.76843179794973e-07
0.00166916670996141
0.00152159630839542
0.00134591014873064
0.00114505380070423
0.000924368519861304
0.000689489693695829
0.000447826448142938
0.000218478386092724
4.9081163407144e-05
6.60984417727677e-07
0.00172532752634795
0.00161121503839727
0.00146738547053162
0.00129549549208749
0.00109964638967348
0.000885176183142066
0.000657321849569011
0.000423803591291129
0.0002039191916621
4.40774096458426e-05
5.46424451528781e-07
0.00172807851220003
0.00165117771799122
0.00154259443649506
0.00140338468981962
0.0012366040653455
0.00104701381563206
0.000839829027157765
0.000620361124699444
0.000396700858667758
0.000187861412222026
3.87313393733225e-05
4.35619353970118e-07
0.00166940013504745
0.001635174266038
0.00156648749140589
0.00146422917690266
0.00133077526931633
0.00117026345255123
0.000987795411647336
0.000788764743049369
0.000578910214628508
0.000366613685269041
0.000170291917043774
3.30954735859246e-05
3.32538600708675e-07
0.00153997341162405
0.00155562682704245
0.00153322378901002
0.00147348453593481
0.00137828634461688
0.0012513077018053
0.00109750509369689
0.000922510691597667
0.000732265010326109
0.000533078542316441
0.000333508076402356
0.000151164125200429
2.72112294119373e-05
2.36559280234967e-07
0.00133336679308394
0.00140550051244638
0.00143680397775892
0.00142656357175738
0.00137570137254565
0.00128736267017351
0.00116649375241201
0.00101905285647284
0.000851477466599751
0.000670438678313814
0.000482813430578073
0.000297241769015206
0.000130401017290041
2.11379222483037e-05
1.49551153897568e-07
1.08443798567217e-06
6.28395806258776e-05
1.1431629183902e-06
0.000256026471987321
6.44317997817759e-05
1.22566556211834e-06
0.000512036310153658
0.000257746881195427
6.63720486131963e-05
1.2690595538443e-06
0.000778409381833397
0.000510555162347887
0.000259817607566727
6.72314184241834e-05
1.23404707194269e-06
0.00102994429292899
0.000771618073902133
0.000508332116986222
0.000259495219616358
6.60107257530086e-05
1.14282847955636e-06
0.00125459755011996
0.00101646829704225
0.000762269850222507
0.000502805283599641
0.000255020742180134
6.30899208686389e-05
1.03289568739489e-06
0.00144645568226652
0.00123350739004811
0.000998375578940904
0.000748415138485756
0.000492199438421216
0.000246738609849721
5.92996652139056e-05
9.20247990944254e-07
0.0016020131763538
0.00141665126596222
0.00120575637875036
0.00097430667329191
0.000728742480614433
0.000476531273304243
0.000235879902575512
5.50902429879999e-05
8.061734185704e-07
0.00171791372525729
0.00156179577900699
0.00137832370296959
0.00117043304870357
0.000943504488666727
0.000703159298728478
0.000456725525309986
0.000223253187299667
5.05375838349223e-05
6.90458490591423e-07
0.00178974786619104
0.00166496557028864
0.00151148487955085
0.00133088337831973
0.00112727452901649
0.00090600200550366
0.000672216072756524
0.000433505846370984
0.000209104717023695
4.5624940870008e-05
5.7517841840378e-07
0.00181152156781914
0.00172130852823075
0.00160079460456943
0.00145087571519254
0.001274568954746
0.00107663142262499
0.000862195610776898
0.000636407359805584
0.000407179448024106
0.000193448658891769
4.03603775741857e-05
4.6325217186647e-07
0.00177539534504032
0.00172460228477357
0.00164120896169647
0.00152586707416769
0.00138084880529044
0.0012102418016315
0.00101904101307955
0.000812452378543736
0.000595986065804507
0.000377809624025563
0.000176255346400947
3.47846896301326e-05
3.57952625136389e-07
0.0016715290454062
0.00166701010761379
0.00162664908548921
0.00155104782302453
0.00144197127477143
0.00130296631513383
0.00113882889189067
0.00095494174682654
0.000756984370060784
0.000551004395840315
0.00034532815791234
0.000157479708178777
2.89663191055968e-05
2.61975853025981e-07
0.00148944168797939
0.0015394976492673
0.00154999318466672
0.00152107306042615
0.00145389703293187
0.00135152075650209
0.00121868459711231
0.00106100368860113
0.00088459044324496
0.000695829237505154
0.000501332304431377
0.000309523622048516
0.000136995309927696
2.29307021958566e-05
1.73671743365712e-07
0.00122642567504012
0.00133593933778714
0.00140492427165621
0.00143073058059726
0.00141276862991842
0.00135314409454543
0.00125652717281176
0.00112895336255327
0.000977122046765623
0.00080803584672438
0.000628815848689968
0.00044661352340206
0.000269960867218754
0.000114521579079848
1.66650676649944e-05
9.51297181051685e-08
1.09785363012195e-06
6.32240356096324e-05
1.16032653337979e-06
0.000257609794067885
6.49607318693959e-05
1.24621299899824e-06
0.000515774706809502
0.00025980286900388
6.71628214685073e-05
1.29011102177179e-06
0.000785200361616797
0.000515011877398685
0.000262304870421866
6.80850382188962e-05
1.25669720477131e-06
0.00104076093948467
0.00077939546927463
0.000513452191185788
0.00026234101301555
6.69583537650836e-05
1.16654268397736e-06
0.0012707328346273
0.00102874263933169
0.000771083014325055
0.000508596267370655
0.000258207360646856
6.41214200442181e-05
1.05728177511665e-06
0.00146953309565795
0.00125174566823037
0.00101219958805949
0.000758313620643363
0.000498672648896149
0.000250258907829786
6.04123970879376e-05
9.45321932929962e-07
0.00163406348601309
0.00144265007214908
0.00122619979145878
0.000989742217316558
0.000739760544092314
0.000483701779326821
0.000239742110085675
5.62878496259632e-05
8.31841691346845e-07
0.00176146413655251
0.00159773957312011
0.00140730659822411
0.00119310449239938
0.000960564378924003
0.000715310047154049
0.000464608957662471
0.000227470588689722
5.18211844988381e-05
7.16319819240039e-07
0.00184786033598169
0.00171346363581234
0.0015512543368399
0.00136275063241366
0.00115209171737237
0.000924641401875276
0.000685486265870437
0.000442108022952869
0.000213683527964932
4.69881033188317e-05
6.00582528914119e-07
0.0018877519480069
0.00178536235141359
0.00165389484135775
0.0014941167778662
0.00130903129155186
0.00110340381157942
0.000882307404119822
0.000650747790669002
0.000416483838297489
0.00019838045381144
4.17907788637244e-05
4.87476765556683e-07
0.00187371774791589
0.00180751005279141
0.00171038457742515
0.0015827836462157
0.00142691766855957
0.00124684439141056
0.00104747852485017
0.000833862845178319
0.000611301406888285
0.00038776932803267
0.000181517855176027
3.62664941009258e-05
3.80393089278553e-07
0.00179614421562053
0.00177222234088486
0.00171469519753079
0.00162391234599334
0.00150153267247939
0.0013510076720223
0.00117699741600494
0.000984667395656587
0.000779451185683101
0.000567145427572501
0.000355859088957478
0.000163031563922447
3.04725515953677e-05
2.81681134340037e-07
0.00164320281977617
0.00166991106277679
0.00165936750629981
0.00161185685142598
0.00152853557021564
0.00141232690044435
0.00126774246619665
0.0011000876462867
0.000915155178127132
0.000719039872784284
0.00051808623544025
0.000320500486379446
0.000142793183941745
2.44580521016858e-05
1.92636725889676e-07
0.00140435079582456
0.00149046111362248
0.00153600775411515
0.00154021784180391
0.00150328417717826
0.00142744641592718
0.00131715575958809
0.00117806002899834
0.00101643532070352
0.000838932664810256
0.000652381691193448
0.000463681017507122
0.000281176502347754
0.000120461935534916
1.81845028509152e-05
1.1145325132863e-07
0.00108584868668354
0.0012314273412506
0.00133935117739512
0.00140366394986251
0.00142148954069962
0.00139333598133144
0.0013232215189415
0.0012172506397021
0.00108241457512859
0.00092607655179662
0.000755747036916008
0.000578942054384752
0.000403115402349879
0.000236938222134462
9.5374221786123e-05
1.16341531497259e-05
4.67929045892213e-08
1.10805404899533e-06
6.35058923836293e-05
1.17450824540822e-06
0.000258908488404405
6.53524763019651e-05
1.26479263847098e-06
0.000518908597227293
0.000261424097395354
6.77265936429246e-05
1.31098392586243e-06
0.000791022869640905
0.000518775082907893
0.000264404589812505
6.88765525370115e-05
1.27705597760271e-06
0.00105021288832924
0.000786190951144486
0.000517927074795676
0.000264842037826824
6.78016809450642e-05
1.18763783036899e-06
0.00128489828184527
0.00103953964713486
0.000778847374359044
0.000513707848106242
0.000261029534787991
6.50379906163779e-05
1.07883855628484e-06
0.00148983714924221
0.00126782816634264
0.00102440929944831
0.000767066472249296
0.000504402637771117
0.000253378291046367
6.13984236810683e-05
9.67308351569562e-07
0.00166233285065183
0.00146563392521435
0.00124429829879995
0.00100341559006714
0.000749519619036964
0.000490049100286453
0.000243158155551558
5.73444520347882e-05
8.54206738721707e-07
0.00180004064992687
0.00162964393997089
0.00143306457164854
0.00121325894867279
0.000975719251945661
0.000726086171839078
0.000471584772987747
0.000231193700427862
5.29511802259824e-05
7.38806099087864e-07
0.0018997005600868
0.00175679512074493
0.00158681867664745
0.00139124701411473
0.00117425914787802
0.000941253640780397
0.000697275260108378
0.000449721001493895
0.000217721261780777
4.81855671056328e-05
6.22721266065753e-07
0.00195645721428906
0.00184315090095053
0.00170181750845371
0.00153312039456052
0.00134006785968522
0.00112745015675899
0.000900302636352039
0.000663517967664565
0.000424725975153023
0.000202728092979362
4.30464531746698e-05
5.08758998787332e-07
0.00196349358636148
0.0018832650324328
0.00177358581607783
0.00163472823642091
0.00146887287097973
0.00128006891039492
0.00107317821993985
0.000853107256707101
0.000624980768625814
0.000396604934787111
0.000186154860829445
3.75636569324317e-05
3.99870977915663e-07
0.00191175888071821
0.00186984742396094
0.00179636102833621
0.00169139682530316
0.00155654259571108
0.00139520391332791
0.00121193028494001
0.00101170674724818
0.000799745063266721
0.000581612118323528
0.000365218585513907
0.00016792168657666
3.17892529951351e-05
2.99039783302468e-07
0.00178956614765131
0.00179349480778163
0.00176277583888636
0.00169747564210974
0.00159866969229394
0.00146918772304295
0.00131333636190245
0.00113615462307477
0.000943141677705906
0.000740114871213407
0.000533160083275054
0.000330272625026555
0.00014787892242094
2.57615967261854e-05
2.07042392097154e-07
0.00158307277410818
0.00164271569873368
0.0016637660137613
0.00164613265403074
0.00159025544967817
0.00149835106222459
0.00137455462243511
0.00122415137031286
0.00105300239816093
0.000867406781660695
0.000673896517616997
0.000479112208522713
0.000291204385812259
0.000125678704194325
1.946224646185e-05
1.2425973926792e-07
0.0012843617571686
0.00140741069809221
0.00149007148061634
0.00152993932837312
0.00152583022775756
0.00147888136071769
0.00139300563780547
0.00127392476054763
0.00112811297705058
0.00096248202985431
0.00078418984187672
0.000600472836015558
0.000418560497341538
0.000246969609665388
0.000100592781628143
1.28363016156594e-05
5.55085723981995e-08
0.000906741526954768
0.000921592466144378
0.0010937906288273
0.00124009779738103
0.00134469114551869
0.00140110250047046
0.00140744142711169
0.0013664823871691
0.00128420671121615
0.00116788141398776
0.00102528536152371
0.000864315628428462
0.000692882766241383
0.000518836726854611
0.000350044096306256
0.00019590403619525
7.16217893125119e-05
6.31266526513789e-06
1.52289777969624e-08
1.116049049054e-06
6.36853234310196e-05
1.18492879107828e-06
0.000259954054798085
6.56326844386768e-05
1.27986641907446e-06
0.000521555826717192
0.000262740955347214
6.81240089087084e-05
1.33027892603341e-06
0.00079600620429027
0.000521934050822527
0.000266066923171779
6.94754022340418e-05
1.29662050200834e-06
0.00105838378265946
0.000792023220893387
0.000521723276767793
0.000266981742313266
6.85681956243115e-05
1.20632492434559e-06
0.00129726386908392
0.00104897561922471
0.000785634481743133
0.00051818007843024
0.000263514309474465
6.58508519439933e-05
1.09793179956832e-06
0.00150761712643697
0.0012819471949925
0.00103514832242828
0.000774776609620348
0.000509459626375697
0.00025613835905792
6.22717573645189e-05
9.86553268547497e-07
0.00168713114608321
0.00148585564046166
0.00126025594317225
0.00101548866379749
0.000758144127679493
0.000495661687790988
0.000246179562601059
5.82773477182957e-05
8.73660634178713e-07
0.00183396345844562
0.00165778569505765
0.0014558355816092
0.00123109931165105
0.000989139145475327
0.000735624170485406
0.000477752141157446
0.000234480030294689
5.39437553209027e-05
7.58249409457937e-07
0.00194549487774588
0.00179518099267033
0.00161839077150689
0.00141657434858953
0.00119396392412098
0.000956006146733958
0.000707723648047305
0.000456449518723888
0.000221278403734796
4.92360281769712e-05
6.41798418186697e-07
0.00201761572443033
0.00189470864418354
0.0017446463194094
0.00156800861095096
0.00136782511486778
0.00114892797513404
0.000916336180259144
0.000674855769181045
0.000432012035311969
0.000206553895560933
4.41450144900438e-05
5.27070342270755e-07
0.00204427592297373
0.00195155367042266
0.00183062522475101
0.00168162545306068
0.00150672493697537
0.0013099932088347
0.00109625806775654
0.0008703202773074
0.00063715430961088
0.000404422580669081
0.000190232954638449
3.86975798674578e-05
4.16815835036789e-07
0.00201717737819817
0.0019590105946717
0.00187101510619972
0.0017530821822654
0.00160676242619487
0.00143545607621071
0.00124363382298104
0.00103613366795969
0.000817975632305395
0.000594523220761945
0.000373510958566797
0.000172219713474348
3.29363939104061e-05
3.1396617092645e-07
0.00192538987952248
0.00190820249901097
0.00185879850060211
0.00177694513575088
0.00166365063925194
0.00152171046912949
0.00135526653638306
0.00116914353679318
0.000968578899991138
0.000759134810052032
0.000546657062180443
0.000338945235659895
0.00015234516117638
2.68952382907592e-05
2.19527152602636e-07
0.0017547358728417
0.00178772016586264
0.00178499741190745
0.00174638775651151
0.00167232523443748
0.00156497046230914
0.00142819818922138
0.00126694372276197
0.00108670387241982
0.000893444327990598
0.000693407392580587
0.000492980169711599
0.000300117160612615
0.000130236992673348
2.05422622934329e-05
1.33734498432157e-07
0.00148985630328246
0.001584173439835
0.00163883005767737
0.00165318900172418
0.00162681204619194
0.00156104449158114
0.00145952276031208
0.00132749059787118
0.00117092070002787
0.000996274883105975
0.00081035208635202
0.00062009903126882
0.000432510452880924
0.000255930156820097
0.00010515250687778
1.38257545478744e-05
6.22153088084738e-08
0.0011319733340663
0.0012900959296159
0.00141128282319545
0.00148930264606245
0.00152084604642054
0.00150548918816837
0.00144632597218112
0.00134900105283913
0.00122025074383262
0.00106728440356554
0.000897552380280609
0.000718629690801912
0.000538114507916335
0.000363691345994897
0.000204635930795719
7.59930142301633e-05
7.11773465900015e-06
1.79250383092499e-08
0.000744580533847301
0.000916128245268121
0.000749314370624778
0.000931802933220671
0.00110891835513223
0.00125395158738772
0.00135116040499909
0.00139498543542202
0.00138616651569978
0.00133004772641224
0.00123412436213874
0.00110658259826733
0.000955766720355733
0.000789942147026865
0.000617288115469577
0.000445940742935494
0.000284522572999545
0.000144463925056469
4.2622713495595e-05
1.9671100797678e-06
2.68198663426737e-09
6.38994145898611e-05
1.19311298040071e-06
0.000260760651221375
6.57953982180697e-05
1.29048987577482e-06
0.000523774381331816
0.00026379123573651
6.83947306569655e-05
1.34566821051905e-06
0.000800264212936428
0.000524596654744392
0.000267394170798397
6.9877062339359e-05
1.31536402384226e-06
0.00106542287106126
0.000797014845941016
0.000524908070405257
0.000268678546646636
6.91917069620302e-05
1.22360293760256e-06
0.00130797682989791
0.00105713451319414
0.000791469370393931
0.000522003381078478
0.000265662042064537
6.65735850860752e-05
1.11468235949281e-06
0.00152310325910768
0.00129427342565082
0.00104453625505613
0.000781520648541846
0.000513891580467781
0.000258570977758426
6.30439555103339e-05
1.00357498478439e-06
0.00170877401462542
0.00150356390190819
0.00127426481162809
0.00102610663086129
0.000765740105696882
0.000500612709745124
0.000248848557650364
5.9100776303418e-05
8.90614587157926e-07
0.00186360963908808
0.00168247315311469
0.00147587053393558
0.00124682777358138
0.00100098501550831
0.000744048081168033
0.000483198982225984
0.000237380021782897
5.48164267628363e-05
7.75005428153594e-07
0.00198561328988862
0.00182893913269736
0.00164624312676481
0.00143896611263812
0.00121140501314394
0.000969065606976809
0.000716964952806674
0.000462390206391719
0.000224410583878763
5.01552421029526e-05
6.58123879962923e-07
0.00207145971219975
0.00194025948192574
0.00178259721162327
0.00159898871007593
0.00139249949167137
0.00116801932041936
0.000930570564353472
0.000684897118494776
0.000438442646269519
0.000209915580024153
4.51036384191887e-05
5.42635754475561e-07
0.00211598700879124
0.00201235189364404
0.00188153412230517
0.00172355589043533