/*--------------------------------*- C++ -*----------------------------------*\
  =========                 |
  \\      /  F ield         | OpenFOAM: The Open Source CFD Toolbox
   \\    /   O peration     | Website:  https://openfoam.org
    \\  /    A nd           | Version:  12
     \\/     M anipulation  |
\*---------------------------------------------------------------------------*/
/*   Windows 32 and 64 bit porting by blueCAPE: http://www.bluecape.com.pt   *\
|  Based on Windows porting (2.0.x v4) by Symscape: http://www.symscape.com   |
\*---------------------------------------------------------------------------*/
FoamFile
{
    format      ascii;
    class       volScalarField;
    location    "700";
    object      omega;
}
// * * * * * * * * * * * * * * * * * * * * * * * * * * * * * * * * * * * * * //

dimensions      [0 0 -1 0 0 0 0];

internalField   nonuniform List<scalar> 
10123
(
2.4668450553724
2.46684219609402
0.457444495393211
2.38168283927508
2.46683931339845
0.460922612267794
2.3816791836357
0.203244250677545
0.444523017274051
2.28699840648233
2.46683931529591
0.464417208018144
2.38167524199934
0.206135310077854
0.447931459148062
2.28700634235754
0.134395537190852
0.20024985045406
0.429604450127715
2.2161111894368
2.46684257495257
0.467838841930479
2.3816766133706
0.208981400487552
0.45138181991193
2.28699006614779
0.136661315667297
0.203084526766168
0.43288239359841
2.21611856020545
0.106305415367882
0.133482311926797
0.196219647730252
0.418198783477969
2.18721997138311
2.46684075188066
0.471077040897149
2.38168177975574
0.211726479866804
0.454752403466679
2.2869925009371
0.138871581805412
0.205886619973542
0.436231499172631
2.21610093076907
0.108160973554428
0.13572240548825
0.198952822526477
0.42133358383232
2.18721627597823
0.0923277728455323
0.105989212829725
0.132038396653698
0.192624951586062
0.41246395871647
2.18619415481029
2.46683983912002
0.474117099531162
2.38167991149401
0.214333174704399
0.457934653561996
2.28699694756701
0.141000419678793
0.20859147196554
0.43950380822672
2.21610627962873
0.109958188539632
0.137909921201122
0.201679687382393
0.424575254927086
2.18721040747276
0.0938915892187306
0.107833300210738
0.134228311620957
0.195237250373519
0.415447693254987
2.18619186864619
0.0847068835062544
0.0922092592494771
0.105371576390044
0.130481413562145
0.19013751358117
0.410417987336406
2.19193235816322
2.46683902366161
0.476941645872449
2.38167801768962
0.216788408257242
0.460922538553366
2.28699681586872
0.143030799975129
0.211160427679702
0.442604605056303
2.21611304524432
0.111685594732572
0.140018164866897
0.204317319064469
0.427750127654071
2.18721674721401
0.0953967767240777
0.109619532245096
0.136373415676667
0.197876504913475
0.418575748881818
2.18618763127396
0.0860373774266891
0.093768387019459
0.107190165105027
0.132606874795174
0.192627913470043
0.413246266417933
2.19192876872599
0.0804914581324381
0.0846455698374441
0.091892115233919
0.104565870400013
0.129082245943233
0.188422070442752
0.409163884804286
2.19485831816654
2.46683922026381
0.479553201388627
2.38168846883936
0.219084130602917
0.463701920721433
2.28699404469502
0.144953130270467
0.213581068867393
0.44551538844805
2.21611036339766
0.113335390080017
0.142029721810558
0.206825326239115
0.430760047689793
2.18722228380152
0.0968394501606127
0.111336807986508
0.138443610024297
0.200437583247968
0.42165192163858
2.18619195470714
0.0873092558148158
0.0952686766673076
0.10895346474467
0.134698046618128
0.195177887598633
0.416252785847347
2.19192409953256
0.0816114862152659
0.0859752330474848
0.0934389646118369
0.106349582517146
0.13113952176977
0.190796855569305
0.411817795497135
2.19485256507884
0.0783750835291111
0.0804376008737201
0.0844313682698966
0.0913978345421344
0.103682395295595
0.127823546854971
0.186829626729307
0.407247890161513
2.19512978926904
2.46684144490748
0.481951579762662
2.38167607866074
0.221217041837587
0.466270714703632
2.2870032034923
0.146761209160198
0.215845505184938
0.448222942876024
2.21610739294635
0.114902292901914
0.143934931152856
0.209190464110228
0.433595414900936
2.18722087556737
0.0982173819901291
0.112977321516724
0.140420463991942
0.202876034947293
0.424571362652904
2.18619356682262
0.0885241280228181
0.0967067199261343
0.110649852480538
0.136720128912628
0.197661780780111
0.419225020160476
2.19192845008472
0.0826729824826651
0.0872457907036805
0.0949278432092443
0.108081763276541
0.133173073678037
0.193259226773773
0.414692472845477
2.19484716477973
0.0792804718649492
0.0815596498784271
0.0857571988426864
0.0929272457464815
0.105427635476555
0.129814596518655
0.189094406151917
0.409721969743316
2.19512578434
0.0777420054820369
0.0783135218870613
0.0802485399060627
0.0840628128016201
0.0907765935684737
0.102763460230088
0.126553129384971
0.184962882521727
0.40453462248751
2.19480782889558
2.46684134190426
0.484138222336895
2.38168001700634
0.223185616461581
0.468628059865746
2.28699143810773
0.148451189530242
0.217949893351172
0.450725306028212
2.21610474814862
0.116382408052259
0.145727526399866
0.21140438291913
0.436230218151978
2.18721581172656
0.0995289421134591
0.114535764561825
0.142294059974549
0.205178233164207
0.427328635932745
2.18619437688367
0.0896841512835097
0.0980803616132212
0.112271226745811
0.138653113683587
0.200030260807969
0.422050513485285
2.19193137006673
0.0836827777202768
0.0884593073955513
0.0963552905092966
0.109749793247169
0.135143543737076
0.195666724720274
0.417550759792903
2.19485215648466
0.0801283111634519
0.0826224066705346
0.0870239956866813
0.0944001661811174
0.107125167270711
0.131790836976019
0.191469026058044
0.412440412864464
2.19512023060204
0.0784012901733832
0.0792238406367931
0.081373439811204
0.0853835168408657
0.0922866865902216
0.10447049600845
0.128480955925539
0.187124303470997
0.40682441016835
2.19480370200702
0.0783170718640433
0.077667722695821
0.0781196190308434
0.0799226286768919
0.0835721664065709
0.0900796115210599
0.101800243951118
0.125155064042301
0.182708486340177
0.401238009263837
2.19480462754855
2.46684135423385
0.486120675677696
2.38166944341922
0.224990965500698
0.470779251865378
2.28699600929124
0.150020880304006
0.21989282075949
0.4530208266613
2.21610270323235
0.117772829546996
0.147403548907186
0.213462897038735
0.438663684370963
2.18721568896869
0.100772554791875
0.116008208032742
0.144057925326791
0.207334386772123
0.429890169878727
2.18619013076977
0.0907909828183916
0.099387976352334
0.113812111093118
0.140486536728336
0.202268475943982
0.424716958474108
2.19192852834522
0.084647133077854
0.0896180042524439
0.0977190562558232
0.111345039051802
0.137029184426906
0.197965306221858
0.420271567160274
2.19485722225925
0.0809314602778891
0.0836332736209704
0.0882338208244893
0.0958127834958324
0.108761333914834
0.133709199918104
0.193798130506485
0.41517083242
2.19512551711557
0.0790082713975014
0.0800756622593844
0.0824385431020628
0.0866455549016772
0.0937418217639718
0.10613297457951
0.130400543418852
0.189408818447049
0.409375517709745
2.19479822028894
0.0786678686046004
0.0783356558707361
0.0790394837134118
0.0810529703399449
0.0848884297269725
0.0915709104932823
0.103470632129954
0.127022933977791
0.184775030358746
0.403324289969174
2.19479845649307
0.0800258668605652
0.0782247568478442
0.0774539658203159
0.0777960223291378
0.0794902944301715
0.0830114714530994
0.0893440134210342
0.100780584411763
0.123587990608461
0.180070364878345
0.397473554788173
2.19512984994708
2.46684023512167
0.487911301397436
2.3816810154834
0.226638415906041
0.472731561557064
2.28698810655358
0.151470000484005
0.221675788846247
0.455114428910163
2.2161098911632
0.119071505821316
0.148960760212432
0.215364416461567
0.440895712756784
2.18721400243467
0.101946529573471
0.117391704811876
0.145707910019736
0.209340161659423
0.432253418357099
2.18619131242228
0.0918452499080806
0.100627963121721
0.115268477742728
0.142213582239365
0.204365759980771
0.427203066441884
2.19192536960754
0.0855709785400513
0.0907235493075102
0.0990174485347807
0.112861759273517
0.138818842512312
0.200138411628259
0.422838051774584
2.1948520024247
0.0817006973616567
0.0845984611816012
0.0893888619471619
0.0971626080524657
0.110326898394937
0.135546370024825
0.196023670615238
0.417770911651559
2.19513081886213
0.0795824743099407
0.0808822005564733
0.0834511303806078
0.087850701598672
0.0951377269000973
0.107736372605531
0.132266195184419
0.191654929253536
0.411951623121158
2.1948037338463
0.0789793450526873
0.0789498014772179
0.0798998707542605
0.0821230012952235
0.0861464035295307
0.0930084822002609
0.105098647813072
0.128886134411903
0.186967604875153
0.405693319005261
2.19479308644803
0.0799645522998586
0.0785894924234604
0.0781402196940145
0.0787324905282198
0.080629953853205
0.0843252076444512
0.0908180261095958
0.102416269471366
0.125400208150014
0.18205120662141
0.399340158446763
2.19512375222342
0.082940111889189
0.079905941275559
0.0779761274520243
0.0771052944333189
0.0773763571091476
0.0790051390406465
0.0824333957328523
0.0886017659169451
0.0997164424406415
0.121865428116995
0.177073827593636
0.39323906374268
2.19485512541243
2.46684157136204
0.489522752869672
2.38167806884209
0.228142003395483
0.474499785843276
2.2869980268954
0.152800849877779
0.223304164653552
0.457021075694735
2.21611621628068
0.120277371483722
0.150398791571946
0.217110343024093
0.442937141239227
2.1872198198386
0.103049161442907
0.118684160914161
0.14724164386752
0.21119408641003
0.434428768301953
2.18619249244023
0.0928464886658931
0.10179862276435
0.116637301482315
0.143829961145537
0.206317561103963
0.429498235881986
2.19192787852776
0.0864571459014312
0.0917765584949288
0.100248821891778
0.114295779543162
0.14050541384745
0.202175895789519
0.425231675604228
2.19484666157227
0.0824440505772455
0.0855229389392027
0.0904907358005788
0.0984478040589139
0.111815826530291
0.137290609901899
0.198127859914531
0.42022397778171
2.19512536240018
0.0801389628136784
0.0816542765906636
0.0844176133858835
0.0890009491699437
0.0964715942638882
0.109270911302852
0.134053408473514
0.193801646427532
0.41441457249839
2.19480917919174
0.0792792175510262
0.0795300613084033
0.0807136366197911
0.0831397023884446
0.0873474130668889
0.094387574590674
0.106669133326947
0.13069772940525
0.18912509036709
0.408104631607274
2.19479873516039
0.0798901884704747
0.0789125122019817
0.0787701467309143
0.079607781202947
0.0817087198951115
0.0855808960561093
0.0922390944636844
0.104010580214055
0.127207507467811
0.184150535744781
0.401509978925435
2.19511849637825
0.0823069948554901
0.0798667361465238
0.0783714515328657
0.0778224254284914
0.0783371910981504
0.0801581322446003
0.0837468644015549
0.090060353001592
0.101319977424427
0.123627496360452
0.178978335514688
0.394868155547468
2.19485121234245
0.0872678832152131
0.0827761046189727
0.0795994258617311
0.0775734652740955
0.0766596686662064
0.0769182150528444
0.078527021109848
0.0818907194908793
0.0878988808127784
0.0986569910186151
0.120047073188743
0.173765754942949
0.388450249065087
2.19193028517839
2.46683971118927
0.490876721950751
2.38167898747652
0.229521063371215
0.476092203867949
2.28699457069218
0.154020204296049
0.224790495355517
0.458747583392879
2.21611194521933
0.121390696988442
0.151719786485094
0.218705943730284
0.444796397303328
2.18722480066893
0.104078937523246
0.119884440139578
0.148658562138414
0.2128975355905
0.43641822729796
2.18619416202211
0.0937933381997351
0.102898231606164
0.117916401061551
0.145333199566765
0.20812302467173
0.431609319900091
2.19192945581725
0.0873063212839604
0.092776564706332
0.101411450047119
0.115643992426783
0.142084542409153
0.204072853490747
0.427447281686997
2.19485167765564
0.0831663456824606
0.0864095105172455
0.0915400359704798
0.0996666586129437
0.113223817585646
0.138934778204303
0.200101001701844
0.422510121320942
2.19511985189796
0.0806885341794875
0.0823999531919823
0.0853427978435376
0.0900978107152802
0.0977414134030156
0.110730332659787
0.135750154987889
0.195830936344374
0.416742169473262
2.194803673513
0.0795863929815552
0.0800916216712345
0.0814916869597103
0.084109246078929
0.0884931410621747
0.095705042880006
0.108171916481163
0.132432709588775
0.191186856091017
0.410417996937324
2.19480427094206
0.0798414855541176
0.0792219749178346
0.0793637871354262
0.0804347482789255
0.0827330058736471
0.0867793009670199
0.0936020041687724
0.105548046187803
0.12896358892249
0.186215101828858
0.403745158172434
2.19512409084142
0.0817072516245569
0.0798104529744422
0.0787200869851765
0.0784796635630625
0.0792350285342286
0.0812496240477097
0.0850023448036319
0.0914662340282061
0.102881661718645
0.125380038636915
0.180983486829135
0.396821195095957
2.19484812406656
0.0858267997129893
0.0821782684967074
0.0796097855573574
0.0780195613543905
0.0774200505400156
0.0779101137840549
0.0796968036476002
0.0832062302384767
0.0893443606742138
0.100231836106475
0.121764973141762
0.175597753213329
0.389812416657193
2.191928534589
0.0933739406393532
0.0870325020157977
0.0823745782519667
0.0791019685667492
0.0770582493047876
0.076181409793537
0.0764880992120522
0.0781207038701028
0.0814511755395598
0.087315249343817
0.097705954524331
0.118264182144383
0.170259078930125
0.383047921747172
2.18619449453526
2.46683697653489
0.493055993621887
2.38167783474619
0.230866424735354
0.477427200302099
2.28699446087051
0.155141429188307
0.226154761030871
0.460300372674848
2.21610848010708
0.122413894982037
0.152930072001116
0.220161399357703
0.446477884376997
2.18722111815423
0.10503477216154
0.120992687611632
0.149960430433576
0.21445438142755
0.438227842855969
2.18619486765446
0.0946838506887875
0.103925229788528
0.119104504650426
0.146722481804338
0.20978263699594
0.433540251508649
2.19193189144893
0.0881173702184217
0.0937222055864508
0.102503578635973
0.116904135162295
0.143553732440651
0.205828186008844
0.429484441793866
2.19485546680011
0.083869205447247
0.0872588819489867
0.092536312524169
0.100817422784597
0.114547728566633
0.140474530335173
0.201938844130444
0.424632258562216
2.19512517373702
0.0812375948253352
0.0831240824370707
0.0862294179899914
0.0911418565852579
0.0989454054363475
0.112110309035634
0.13734945501255
0.197733496003508
0.418911304430641
2.19479811794301
0.07991339834769
0.0806453649994255
0.0822420355811533
0.0850363647933613
0.0895849372862916
0.0969587152282284
0.109600648202788
0.134079172698286
0.193135180108662
0.412607448218945
2.19479880177259
0.0798402260236292
0.0795370534638662
0.0799364704292359
0.0812237983116933
0.0837086390812412
0.0879217221977139
0.094903299746493
0.107018343751911
0.130643955363487
0.188186510190523
0.405895674557168
2.19512953416903
0.0811966069459928
0.0797763885222377
0.0790508203564926
0.0790969508487166
0.0800819620896093
0.0822852569904424
0.0861999696211864
0.0928137970967842
0.104386179687902
0.127079679219329
0.182951565198071
0.398866788006737
2.19485128990139
0.0844923190213282
0.081606849405318
0.0795936723266115
0.0784120616597771
0.078116885194502
0.0788372618597382
0.0808045081810214
0.0844635896339967
0.0907366992421427
0.101762617819264
0.123464435293421
0.177505322280631
0.391530530107908
2.19192757390239
0.0907858844269403
0.0856484604745031
0.0818570487754717
0.0791931768632041
0.0775741891255098
0.0769950448257785
0.0775159416212781
0.0793102012947931
0.08277130234478
0.0887507235383675
0.0992563692804066
0.119942121376487
0.172015456395223
0.384087137806217
2.18619132202322
0.10182176314653
0.0930216915086884
0.0864759799582211
0.0817208787386586
0.0784594214529546
0.0765053191528954
0.0757459342517874
0.0761603196173886
0.0778687545368829
0.0812174746880127
0.0869901870253167
0.0970620515212529
0.116795311203787
0.166882970826008
0.377635682999298
2.18721927385254
2.46684051526965
0.495144373325771
2.38167412571227
0.232206802028282
0.479424292337441
2.28699401588481
0.156195387610333
0.227478454804769
0.461601780990263
2.21610814297376
0.123352752025711
0.154042526671713
0.221496061599249
0.447986144266644
2.18721875631647
0.105916468482526
0.122011095862933
0.151152567155261
0.215872498399537
0.439864199297044
2.18619564684664
0.0955158457132434
0.104878476637731
0.120201539118008
0.147998942498781
0.211299094677029
0.435296129575954
2.19192909503075
0.0888877954680958
0.0946115257504398
0.103523586432385
0.11807478399863
0.14491190216976
0.207442180207512
0.431348270961142
2.19485509325376
0.084551454345015
0.0880699367322793
0.0934782258497587
0.1018983260677
0.115785266710749
0.141907362760549
0.20363978811914
0.426583661602583
2.19513098617177
0.0817882698456691
0.0838283313767176
0.0870782813567066
0.0921326620626005
0.1000818270978
0.113407737324885
0.138847187809562
0.199505960004793
0.420922981621293
2.1948035679242
0.08026716732327
0.0811977805122594
0.0829696014698606
0.085923850855225
0.0906233325012843
0.0981467841295936
0.110951090435961
0.135630487999449
0.194960978438801
0.414648368865694
2.19479330899603
0.0798984396297212
0.0798704957320541
0.0804991978655269
0.0819829681211894
0.084640181690735
0.0890093048761392
0.0961406845941983
0.108415213795852
0.132237287448606
0.190048084677894
0.40793370775229
2.19512410041133
0.0807983937244739
0.0797868939407098
0.0793833857998527
0.0796895620539562
0.0808881848921229
0.0832703610631291
0.0873406077614527
0.0940993420222408
0.105823410336723
0.128703515525735
0.184827853699994
0.40084182922872
2.19485422049954
0.0833506735213467
0.0811184339984626
0.0795919102676576
0.0787799734109966
0.0787691054347828
0.0797107182180039
0.0818548548545192
0.0856622715185127
0.0920700098658785
0.103234787195652
0.125107378773152
0.179373136116238
0.393370510866147
2.19192816768127
0.0884068800049877
0.0843589274538807
0.081348563315306
0.0792450339607032
0.0780291050681104
0.0777414867392428
0.0784775815622653
0.0804370865201148
0.0840328160790536
0.0901318028459186
0.100758713286569
0.121589612597272
0.173820617229339
0.385550527610693
2.18619182578834
0.0976178705823713
0.0905272457807951
0.0852230694074848
0.0813313702739573
0.0786591331940657
0.0771046992492753
0.0766192019583665
0.0772275587725791
0.0790808149806428
0.0825454816838738
0.0884197627764764
0.0985923593577134
0.118433367914257
0.168545161573884
0.378273122154689
2.18721627760417
0.113355842437776
0.101275794894049
0.0922124314429138
0.0855717509400727
0.08086832260449
0.0777617893662361
0.0760030192742996
0.0754376057693174
0.0760289650610706
0.077890546931061
0.0813550809190438
0.0871698874330878
0.0971121091807837
0.116263087438642
0.164634597628468
0.375124619916162
2.21610793272684
2.46684683132917
0.497137435764655
2.38168912766569
0.233424407831656
0.481482575846073
2.28699037836349
0.157164119024235
0.228783080793456
0.463448346345778
2.21610762436778
0.124215958112513
0.155085171272014
0.222775103128987
0.449267052805463
2.18721827039258
0.106725373897781
0.122945055388299
0.152246195926201
0.217167772775618
0.441331586350188
2.18619321540822
0.0962873287311371
0.105757671685006
0.121209269862036
0.149166653057085
0.212678226825218
0.436884229893637
2.19192982442465
0.08961431047224
0.0954423305197647
0.104470238022651
0.119155569585691
0.146159567682868
0.208916745581772
0.43304198247832
2.19485129777261
0.085209774511688
0.0888402072705164
0.0943638373936659
0.102907704528475
0.116934899920996
0.143232068605394
0.205204028945234
0.428368568676423
2.19512616140045
0.0823388806441692
0.0845115782857006
0.0878883564117567
0.0930689438943934
0.101148935026534
0.11462036101045
0.140240907961769
0.20114646994392
0.422778925993648
2.19480946564975
0.0806493761128403
0.0817510811523667
0.0836761738823392
0.0867725422710883
0.0916079468719145
0.0992675546943274
0.11222028340361
0.137082900253888
0.196661374744383
0.416541059400459
2.19479888806657
0.080021339720237
0.0802294260784412
0.0810586148312308
0.0827172344756145
0.0855303915356259
0.0900425273099886
0.097312372384677
0.109734628800828
0.133737471821473
0.19179141703067
0.40983542287377
2.19511868394786
0.0805200573051934
0.0798545070403249
0.079730963569139
0.0802686403516754
0.0816615775269655
0.0842092295222359
0.0884251736148646
0.0953205118904226
0.107187400873013
0.130241281263107
0.186597525549504
0.402717123640596
2.19485078695816
0.0824262220915056
0.0807375183015818
0.0796283495508465
0.0791435578083598
0.079391739987853
0.0805401028309596
0.0828525584033386
0.0868026959404626
0.0933404639352688
0.104638849222375
0.126673449120047
0.181150214470562
0.395157333286261
2.19192838294759
0.0863828240875216
0.0832513877669699
0.0809088022897826
0.0792993178176601
0.0784511676997416
0.0784383882128867
0.0793827637204162
0.0815050677715605
0.0852345505247419
0.091452508089593
0.102199883573614
0.123175936973859
0.175583395599604
0.387166824831875
2.18619221863761
0.0937418283397863
0.0882209586637437
0.0840333878035352
0.0809277266035275
0.078806015222788
0.0776364849833859
0.0774223506468863
0.0782275167913606
0.0802297240638213
0.0838140096227132
0.0897927859732803
0.10006915746255
0.120028680346186
0.170238075069898
0.379432866531816
2.18721703674516
0.106986478861527
0.0972270669944055
0.0899335983758049
0.0845217598503416
0.080645579415963
0.0780881517120391
0.0766934930274553
0.0763741433847489
0.0771384348208148
0.0791285602622743
0.0826953738711443
0.0885985931906911
0.0986249652300311
0.11785095198147
0.166152565456912
0.375145699799445
2.21610689741159
0.118697588998311
0.128393510590472
0.112492380103465
0.100052596136933
0.0909115860158801
0.0843885698273946
0.0799304597294141
0.0771159024807345
0.0756480160438209
0.075360968717842
0.0762260440399095
0.0783702565614818
0.0821423613241128
0.0883080841896216
0.0986526917275983
0.118160189981557
0.166472083354235
0.383663217081845
2.28699329689139
2.46684168690837
0.499024038197857
2.38167991399186
0.234507913941974
0.483464063660954
2.28700087197223
0.158023985860356
0.229979012739749
0.465470934460984
2.21610385708458
0.124993456958799
0.156042392559698
0.224033470053465
0.450935530494414
2.18721747623277
0.107462697471868
0.12380299918096
0.153266702535273
0.218387512726157
0.442607120754112
2.18619299786248
0.0969970013129136
0.106563962012418
0.12213224332457
0.150234593790679
0.213931224577468
0.438311354053736
2.19192854893152
0.0902933699247294
0.0962125927536448
0.105343055790454
0.12014765769539
0.147299503236914
0.210256190559397
0.43457474266638
2.19484813244492
0.0858394874405287
0.0895664244913891
0.0951909598726795
0.103844223730406
0.117995995805922
0.14444874667027
0.206633017376764
0.429992124464076
2.19512383944597
0.0828847951158673
0.0851705661265818
0.0886572730971291
0.093948823565099
0.102145074722108
0.115746633334851
0.141529397877656
0.202655151859379
0.424474876876177
2.19480452127757
0.0810569910778958
0.0823036884376733
0.0843607910635176
0.087581542522936
0.0925375961541703
0.100319365437973
0.113406092848289
0.138434162474577
0.198235342886373
0.418288674994392
2.19480494210627
0.0802082689701515
0.0806156948857085
0.0816171415991024
0.0834285600389063
0.0863802036809082
0.0910210718401782
0.098416767926527
0.110973867523329
0.135141216352808
0.193414192910596
0.411600448555591
2.19512428016752
0.0803608013777019
0.0799848524560773
0.0801010410782385
0.0808410442940898
0.0824070090613048
0.085104565436287
0.0894540881648157
0.0964755887145411
0.108474459290892
0.131687622514934
0.18825326159022
0.404468772175332
2.19484557546146
0.081715174990685
0.0804726312153765
0.0797166571739088
0.0795165558846904
0.0799959369726738
0.0813329412412236
0.0838015601489706
0.0878855364377563
0.0945457285007867
0.105969390632789
0.128153877254694
0.182823696273652
0.39685976214342
2.19192679512677
0.0847432496293462
0.0823524863702099
0.0805656318509204
0.0793815344569146
0.0788607839516644
0.0791002365709459
0.080240288565664
0.0825181567164814
0.0863764887577391
0.0927090361424492
0.103571398745879
0.124683679921916
0.177256975438282
0.388750769524656
2.18619212621969
0.0904588538104335
0.086250292694691
0.0829998446274531
0.0805716980025762
0.0789410035130458
0.0781267523821779
0.0781712199105833
0.0791684551725069
0.0813181435309274
0.085021307529436
0.0911033996211403
0.101481399569923
0.121558203046135
0.171889335136991
0.380795350780987
2.18721760680369
0.100975554764372
0.0934712939735955
0.0877885635608249
0.0834949379830841
0.0803855194833343
0.0783498183373912
0.0773109355422101
0.0772385071416417
0.0781798928661744
0.0803027851722615
0.0839748223750983
0.0899677728399917
0.100078590103923
0.11938835789699
0.167710571413111
0.375933781565218
2.21610658901665
0.119777058821723
0.106374259958516
0.0963590136412991
0.0889542377643629
0.0835936064873383
0.0798970083069543
0.0775771775737209
0.0764326939636283
0.0763629955311413
0.077380880390305
0.0796388483754805
0.0835008085633497
0.0897408744853439
0.10014354729181
0.119656329045553
0.167735675643797
0.382598837399113
2.2869931937742
0.134523908914427
0.117608464119913
0.14659141186199
0.127141993966535
0.110596322164954
0.098128398275539
0.0892205621378422
0.0830765902113833
0.0790407269197805
0.0766348861176759
0.0755557690527977
0.0756583861776205
0.0769492205269311
0.0796077883431612
0.0840739106064798
0.0912974197664667
0.103460170903848
0.126366731511475
0.182258542767306
0.438755543745007
2.3816773476856
0.500134933588091
2.38168072632047
0.235457330359003
0.485385738098148
2.28699323927617
0.158767912593236
0.231049530549956
0.467449556083
2.216099536876
0.125676474311684
0.156893656090523
0.225204430957721
0.452895965976803
2.18721449372076
0.108122252006951
0.12457577435102
0.154204376838841
0.219591142689256
0.4440741559227
2.18619219450096
0.0976428522386662
0.107298776326941
0.122978784757888
0.151223477152151
0.215090337850082
0.439581120565238
2.19192932749898
0.0909216413944445
0.0969209183774485
0.106142805876138
0.121054593680307
0.148338295973656
0.211467753823629
0.43595275594541
2.19485120746516
0.0864353118574864
0.0902450560323807
0.0959575165404238
0.104707178681734
0.118969161202458
0.145559235473784
0.207930371822425
0.431461007473789
2.19511854645403
0.0834194591356892
0.0858006731152553
0.0893818849845052
0.0947701494981987
0.103068863077456
0.116785770263504
0.142712568912819
0.204033493698003
0.426018877130125
2.19480201920139
0.0814832533907479
0.0828510720645647
0.0850203741442649
0.0883486408743872
0.093410519317029
0.10130064166075
0.114507048640982
0.139683164455912
0.199682718486593
0.419888607170674
2.19480002580432
0.0804532912849073
0.0810264366089944
0.0821734567201634
0.0841162333965782
0.0871889085594819
0.0919438900169728
0.0994523503900417
0.112131010436739
0.136446662046212
0.194915975394136
0.413230606324147
2.19513035328083
0.0803140912737578
0.080177604033064
0.0804958326454591
0.0814095121620013
0.08312667860315
0.0859573912153135
0.0904271057953903
0.0975631291916685
0.109682190126802
0.133039831668626
0.189793481705218
0.406096697268415
2.19485095472063
0.0812030483404818
0.0803238195709515
0.0798632690516618
0.079906996929004
0.0805887583315716
0.0820941863663839
0.0847044445987293
0.0889111497387205
0.0956842092110856
0.107223188125684
0.129544281266137
0.184387815333654
0.398451614744325
2.19192216402112
0.0834635764970477
0.0816606247424613
0.0803301611967748
0.0795068722109975
0.0792721666990706
0.0797377818857839
0.0810572593581088
0.0834798670932374
0.0874590673983915
0.0938991720733371
0.104868600504449
0.126105710372004
0.178830240896737
0.390267343468218
2.18619187020659
0.0878238176523396
0.0846490593060058
0.082155924025483
0.0802949386231462
0.0790905652154609
0.0785954720226964
0.0788792253258679
0.0800581858938475
0.0823493242151509
0.0861669582585296
0.0923479735670855
0.102821824401485
0.123007310525015
0.173454120570166
0.382158598830073
2.18721789611615
0.0958664512067216
0.0902741399989352
0.0859327025443161
0.0825873128319481
0.0801485862327036
0.0785849651900935
0.07787901667513
0.0780443996299287
0.079160034902305
0.0814148374618839
0.0851911583129573
0.0912718956510843
0.101464247046772
0.12085875822862
0.16923954721511
0.377005188926891
2.21610750088685
0.110851675221216
0.100565773386016
0.0928684224637508
0.0870647698327024
0.0827841384864114
0.0798066798861448
0.0779644852797444
0.077140549773331
0.0772916448194628
0.0784672261537595
0.0808428072215939
0.084796533799253
0.0911108620116057
0.101571918395516
0.121113835794397
0.169115305660108
0.382898422350263
2.28700518891891
0.136477909403636
0.11881211118324
0.10505299735147
0.0949407527727967
0.0876502929078289
0.0825622025097677
0.0792041431086404
0.0772321973796722
0.0764352355950859
0.0767280688947019
0.078153859481553
0.0809134794966538
0.0854574846375213
0.092734559849308
0.104897051922734
0.12763893082532
0.182973943501417
0.433201779775089
2.38167783015298
0.153388462898934
0.13302505431617
0.115130384131191
0.168870000863039
0.14502211316965
0.124388373176054
0.107716927571193
0.0956715466928132
0.0873457280651729
0.0818075621339587
0.07833387776579
0.0764468363738527
0.0758780178331381
0.0765376030350755
0.078512903756502
0.082122827782496
0.0880942738547609
0.0980535624195517
0.115919154045051
0.15255948746332
0.258250611132617
0.759608096611693
3.68516784033527
0.236151578651143
0.486479000268769
2.28699720412472
0.159393105917847
0.231993103514276
0.46937431708298
2.216105981041
0.126260178834745
0.157631977175765
0.22626550858265
0.454940902116604
2.1872105355144
0.108698947495646
0.125255180643366
0.155042230761542
0.220734101290046
0.446049973697213
2.18618859941252
0.0982198360842088
0.1079562123557
0.123741878081306
0.152135136290666
0.216229780731223
0.440805138724676
2.19192917620613
0.0914951439565465
0.0975655683116682
0.106871417763226
0.121883988800889
0.149291314359034
0.212567364680388
0.437178440885262
2.19485327382979
0.0869920572274366
0.0908727140880095
0.0966619795319052
0.105496865075629
0.119856956954692
0.14656796052188
0.209101953999956
0.43278293505965
2.19512410109662
0.0839354257976389
0.0863966584838447
0.0900585953206263
0.095530835030409
0.10391943877813
0.11773799202094
0.143791763996222
0.205284817992411
0.427416728059819
2.19479656489602
0.0819189582434784
0.0833867738686241
0.0856504798419962
0.0890708042128367
0.0942246695248142
0.102210032429387