/*--------------------------------*- C++ -*----------------------------------*\
  =========                 |
  \\      /  F ield         | OpenFOAM: The Open Source CFD Toolbox
   \\    /   O peration     | Website:  https://openfoam.org
    \\  /    A nd           | Version:  12
     \\/     M anipulation  |
\*---------------------------------------------------------------------------*/
/*   Windows 32 and 64 bit porting by blueCAPE: http://www.bluecape.com.pt   *\
|  Based on Windows porting (2.0.x v4) by Symscape: http://www.symscape.com   |
\*---------------------------------------------------------------------------*/
FoamFile
{
    format      ascii;
    class       volScalarField;
    location    "700";
    object      p;
}
// * * * * * * * * * * * * * * * * * * * * * * * * * * * * * * * * * * * * * //

dimensions      [0 2 -2 0 0 0 0];

internalField   nonuniform List<scalar> 
10123
(
83333.3354575276
83333.3354549274
83333.3354574793
83333.3354574873
83333.33545231
83333.3354548908
83333.3354548827
83333.3354574561
83333.3354574487
83333.3354574063
83333.3354496998
83333.3354522914
83333.3354522568
83333.3354548639
83333.335454855
83333.3354547996
83333.3354577596
83333.3354574455
83333.3354573782
83333.3354572722
83333.3354470575
83333.335449668
83333.3354496488
83333.3354522393
83333.3354522486
83333.3354521707
83333.3354551369
83333.3354548513
83333.3354547823
83333.3354546683
83333.335458691
83333.3354577437
83333.3354573981
83333.3354572505
83333.3354570843
83333.3354444081
83333.3354470205
83333.3354470096
83333.3354495912
83333.3354496243
83333.3354495648
83333.3354524578
83333.3354522184
83333.335452172
83333.3354520402
83333.3354559588
83333.3354551227
83333.3354548033
83333.3354546569
83333.3354544866
83333.3354602023
83333.3354586442
83333.3354577029
83333.3354572871
83333.3354570648
83333.3354568427
83333.3354417626
83333.3354443734
83333.3354443626
83333.3354469341
83333.3354469762
83333.3354469282
83333.3354497438
83333.335449565
83333.3354495462
83333.3354494379
83333.3354531563
83333.335452435
83333.3354521635
83333.3354520463
83333.3354518627
83333.3354572827
83333.3354559145
83333.335455086
83333.335454695
83333.335454476
83333.3354542537
83333.3354622384
83333.3354601264
83333.3354585764
83333.3354575998
83333.3354571061
83333.3354568241
83333.3354565513
83333.3354391278
83333.3354417346
83333.3354417195
83333.3354442912
83333.33544433
83333.3354442837
83333.3354470388
83333.3354469038
83333.3354468977
83333.3354468048
83333.3354503207
83333.3354497151
83333.3354495034
83333.3354494211
83333.3354492654
83333.3354542948
83333.335453107
83333.3354523908
83333.3354520525
83333.3354518687
83333.3354516372
83333.3354590653
83333.3354572119
83333.3354558521
83333.3354549868
83333.3354545188
83333.3354542433
83333.3354539729
83333.3354647526
83333.3354621375
83333.3354600134
83333.3354584393
83333.3354574075
83333.3354568611
83333.3354565339
83333.3354562168
83333.3354365102
83333.3354391089
83333.3354390871
83333.3354416657
83333.3354416925
83333.3354416434
83333.3354443648
83333.3354442577
83333.3354442526
83333.3354441638
83333.3354475102
83333.3354470059
83333.3354468364
83333.3354467736
83333.3354466375
83333.3354512836
83333.3354502684
83333.3354496611
83333.3354493874
83333.3354492468
83333.3354490464
83333.3354558339
83333.3354542213
83333.3354530372
83333.3354522859
83333.3354518776
83333.3354516423
83333.3354513657
83333.3354612674
83333.3354589712
83333.3354571059
83333.3354557221
83333.3354548006
83333.3354542812
83333.335453963
83333.3354536497
83333.335467697
83333.3354646156
83333.3354619578
83333.3354597993
83333.3354581919
83333.3354571298
83333.3354565612
83333.3354562
83333.3354558464
83333.3354339156
83333.3354365011
83333.3354364718
83333.3354390597
83333.3354390684
83333.3354390142
83333.3354417224
83333.3354416304
83333.3354416171
83333.3354415272
83333.3354447462
83333.3354443291
83333.3354441869
83333.335444131
83333.3354440013
83333.3354483126
83333.3354474558
83333.3354469404
83333.3354467157
83333.3354466028
83333.335446425
83333.3354525931
83333.3354512083
83333.3354501899
83333.3354495452
83333.3354492114
83333.3354490259
83333.3354487822
83333.3354577377
83333.3354557383
83333.335454111
83333.335452903
83333.3354520988
83333.3354516451
83333.3354513702
83333.3354510531
83333.3354638455
83333.3354611385
83333.3354588028
83333.335456905
83333.3354554863
83333.3354545333
83333.3354539907
83333.3354536396
83333.3354532902
83333.3354709927
83333.3354674916
83333.3354643424
83333.3354616321
83333.3354594497
83333.3354578356
83333.3354567823
83333.3354562142
83333.3354558286
83333.3354554477
83333.3354313489
83333.3354339161
83333.3354338793
83333.3354364754
83333.3354364623
83333.3354364019
83333.3354391105
83333.3354390224
83333.3354389952
83333.3354389018
83333.3354420278
83333.3354416845
83333.3354415579
83333.3354414984
83333.3354413693
83333.3354454033
83333.3354446913
83333.3354442556
83333.3354440641
83333.3354439643
83333.3354437946
83333.3354494079
83333.3354482378
83333.3354473702
83333.335446815
83333.335446539
83333.3354463871
83333.3354461682
83333.3354542145
83333.3354524974
83333.3354510932
83333.3354500453
83333.3354493537
83333.3354489816
83333.3354487602
83333.3354484768
83333.3354599645
83333.3354576072
83333.335455569
83333.3354539111
83333.3354526698
83333.3354518362
83333.3354513624
83333.3354510553
83333.3354507044
83333.3354667334
83333.3354636559
83333.335460886
83333.3354585
83333.3354565761
83333.3354551475
83333.3354541987
83333.3354536539
83333.3354532787
83333.3354529003
83333.3354745724
83333.3354707049
83333.3354671047
83333.3354638778
83333.3354611375
83333.3354589664
83333.3354573893
83333.335456378
83333.3354558253
83333.3354554254
83333.3354550279
83333.3354288152
83333.3354313584
83333.3354313146
83333.3354339124
83333.3354338791
83333.3354338122
83333.3354365264
83333.3354364359
83333.3354363916
83333.3354362935
83333.3354393507
83333.33543907
83333.3354389496
83333.3354388798
83333.3354387484
83333.3354425546
83333.3354419737
83333.3354416062
83333.3354414347
83333.3354413356
83333.335441168
83333.3354463007
83333.3354453304
83333.3354445999
83333.3354441238
83333.3354438879
83333.3354437534
83333.3354435441
83333.335450764
83333.3354493132
83333.3354481165
83333.3354472154
83333.3354466201
83333.3354463121
83333.3354461274
83333.3354458699
83333.335456107
83333.3354540839
83333.3354523251
83333.3354508882
83333.3354498098
83333.3354490932
83333.3354487042
83333.335448452
83333.3354481348
83333.3354624596
83333.3354597791
83333.3354573613
83333.3354552764
83333.3354535927
83333.3354523414
83333.3354515113
83333.3354510344
83333.3354507022
83333.3354503238
83333.3354698758
83333.3354664712
83333.3354633006
83333.3354604561
83333.3354580383
83333.335456121
83333.3354547231
83333.3354538082
83333.335453276
83333.3354528853
83333.3354524872
83333.3354783674
83333.3354741898
83333.3354701854
83333.3354664786
83333.3354632039
83333.3354604798
83333.3354583689
83333.3354568692
83333.3354559239
83333.3354553989
83333.3354549973
83333.3354545952
83333.3354263186
83333.3354288328
83333.3354287825
83333.3354313736
83333.3354313236
83333.3354312503
83333.3354339682
83333.3354338735
83333.3354338109
83333.3354337076
83333.3354367104
83333.3354364836
83333.3354363634
83333.3354362796
83333.3354361446
83333.3354397603
83333.3354392971
83333.3354389885
83333.335438827
83333.3354387209
83333.3354385523
83333.3354432704
83333.3354424833
83333.3354418773
83333.3354414708
83333.3354412597
83333.3354411293
83333.3354409235
83333.3354474103
83333.335446208
83333.3354452041
83333.3354444389
83333.3354439268
83333.3354436636
83333.335443499
83333.3354432525
83333.3354523427
83333.3354506357
83333.3354491393
83333.3354479072
83333.335446977
83333.3354463618
83333.3354460394
83333.3354458254
83333.3354455339
83333.3354582269
83333.3354559274
83333.3354538416
83333.3354520362
83333.3354505737
83333.3354494871
83333.3354487749
83333.3354483827
83333.3354481052
83333.3354477602
83333.3354651792
83333.3354622101
83333.3354594403
83333.3354569532
83333.335454837
83333.3354531575
83333.3354519331
83333.3354511327
83333.3354506652
83333.3354503158
83333.3354499175
83333.3354732221
83333.3354695317
83333.3354659969
83333.3354627235
83333.3354598301
83333.335457423
83333.3354555577
83333.3354542272
83333.335453369
83333.3354528612
83333.3354524644
83333.3354520572
83333.3354823028
83333.3354778763
83333.3354735215
83333.3354693768
83333.3354655959
83333.3354623298
83333.3354596796
83333.335457676
83333.3354562861
83333.3354554255
83333.3354549408
83333.3354545524
83333.3354541583
83333.3354238633
83333.3354263433
83333.3354262873
83333.3354288653
83333.3354288
83333.3354287205
83333.335431434
83333.3354313379
83333.3354312579
83333.3354311493
83333.3354341073
83333.3354339238
83333.3354338019
83333.3354337025
83333.335433563
83333.3354370164
83333.3354366582
83333.3354363997
83333.3354362423
83333.3354361249
83333.3354359535
83333.3354403122
83333.335439691
83333.3354391977
83333.335438851
83333.335438654
83333.3354385191
83333.3354383135
83333.335444152
83333.3354431802
83333.3354423545
83333.3354417128
83333.3354412725
83333.335441038
83333.3354408799
83333.335440638
83333.3354486966
83333.3354472854
83333.3354460347
83333.3354449928
83333.335444198
83333.33544367
83333.3354433946
83333.3354432026
83333.3354429228
83333.3354541084
83333.3354521707
83333.3354503983
83333.3354488536
83333.3354475952
83333.3354466583
83333.3354460488
83333.3354457233
83333.3354454846
83333.3354451644
83333.3354605393
83333.335457991
83333.3354556014
83333.3354534482
83333.3354516117
83333.3354501521
83333.3354490904
83333.3354484055
83333.3354480203
83333.335447724
83333.3354473577
83333.3354680859
83333.3354648583
83333.3354617647
83333.3354588986
83333.3354563641
83333.3354542551
83333.3354526211
83333.3354514565
83333.3354507055
83333.3354502588
83333.3354499004
83333.3354494914
83333.335476723
83333.3354727858
83333.3354689251
83333.335465254
83333.3354619064
83333.3354590161
83333.335456673
83333.3354549026
83333.3354536694
83333.3354528862
83333.3354524132
83333.3354520227
83333.3354516185
83333.3354862954
83333.3354816871
83333.3354770437
83333.335472512
83333.3354682593
83333.3354644684
83333.3354612791
83333.3354587586
83333.3354569028
83333.3354556488
83333.335454889
83333.335454458
83333.3354540993
83333.3354537268
83333.3354214524
83333.3354238932
83333.3354238332
83333.3354263924
83333.3354263123
83333.3354262274
83333.3354289293
83333.3354288329
83333.3354287368
83333.3354286229
83333.3354315391
83333.3354313912
83333.3354312678
83333.3354311528
83333.3354310088
83333.3354343209
83333.3354340545
83333.3354338396
83333.3354336829
83333.3354335519
83333.3354333766
83333.3354374191
83333.3354369491
83333.3354365573
83333.3354362615
83333.3354360719
83333.3354359275
83333.3354357201
83333.3354409824
83333.335440223
83333.3354395615
83333.3354390314
83333.3354386523
83333.335438435
83333.3354382746
83333.3354380338
83333.3354451665
83333.3354440311
83333.335443009
83333.3354421432
83333.3354414716
83333.335441017
83333.3354407723
83333.3354405888
83333.3354403141
83333.3354501309
83333.3354485328
83333.3354470547
83333.3354457534
83333.3354446839
83333.3354438827
83333.3354433607
83333.3354430828
83333.3354428672
83333.3354425586
83333.3354560334
83333.3354538871
83333.3354518582
83333.3354500182
83333.3354484412
83333.3354471843
83333.3354462702
83333.335445686
83333.3354453662
83333.3354451084
83333.3354447654
83333.3354630162
83333.3354602414
83333.3354575698
83333.3354550872
83333.3354528878
83333.3354510558
83333.3354496367
83333.3354486288
83333.3354479883
83333.3354476196
83333.3354473129
83333.335446933
83333.3354711478
83333.3354676861
83333.335464295
83333.3354610723
83333.335458135
83333.3354556001
83333.3354535468
83333.3354519973
83333.3354509191
83333.3354502341
83333.3354498182
83333.3354494611
83333.3354490525
83333.3354803333
83333.3354761832
83333.335472034
83333.3354679992
83333.3354642215
83333.3354608592
83333.335458035
83333.3354558072
83333.335454169
83333.3354530571
83333.3354523636
83333.3354519375
83333.335451568
83333.33545118
83333.3354902091
83333.3354855356
83333.3354806761
83333.3354758183
83333.3354711376
83333.3354668461
83333.335463124
83333.335460078
83333.3354577372
83333.3354560634
83333.3354549669
83333.3354543228
83333.3354539608
83333.3354536479
83333.3354533102
83333.3354190895
83333.3354214853
83333.3354214231
83333.3354239553
83333.3354238637
83333.335423775
83333.3354264586
83333.3354263608
83333.3354262512
83333.3354261326
83333.3354290025
83333.3354288879
83333.3354287645
83333.3354286347
83333.3354284863
83333.3354316688
83333.3354314841
83333.3354313081
83333.3354311512
83333.3354310062
83333.3354308268
83333.3354345858
83333.3354342523
83333.3354339521
83333.3354337013
83333.3354335154
83333.3354333589
83333.3354331484
83333.3354378949
83333.3354373305
83333.3354368192
83333.33543639
83333.3354360635
83333.3354358559
83333.3354356877
83333.3354354457
83333.3354417454
83333.3354408658
83333.3354400548
83333.3354393512
83333.335438791
83333.3354383987
83333.3354381725
83333.3354379886
83333.3354377153
83333.3354462915
83333.3354450114
83333.3354438082
83333.3354427334
83333.3354418381
83333.3354411594
83333.3354407108
83333.3354404641
83333.3354402583
83333.335439955
83333.3354516908
83333.3354499241
83333.335448235
83333.3354466883
83333.3354453525
83333.3354442821
83333.3354435015
83333.3354430028
83333.3354427299
83333.3354424955
83333.3354421638
83333.3354580962
83333.3354557586
83333.3354534901
83333.3354513691
83333.3354494823
83333.3354479068
83333.3354466855
83333.3354458201
83333.3354452761
83333.3354449704
83333.3354447009
83333.3354443419
83333.3354656367
83333.3354626512
83333.3354597156
83333.3354569195
83333.3354543679
83333.3354521653
83333.3354503821
83333.3354490384
83333.3354481077
83333.3354475258
83333.3354471837
83333.3354468755
83333.3354464927
83333.335474343
83333.335470662
83333.3354669944
83333.3354634366
83333.3354601117
83333.335457157
83333.3354546792
83333.3354527284
83333.3354512968
83333.3354503268
83333.3354497218
83333.3354493479
83333.3354490048
83333.3354486082
83333.3354839996
83333.3354796769
83333.3354752739
83333.3354709104
83333.3354667298
83333.3354629104
83333.3354596067
83333.3354569101
83333.3354548436
83333.3354533691
83333.3354523985
83333.3354518081
83333.3354514425
83333.3354511099
83333.3354507509
83333.3354938302
83333.3354892853
83333.335484335
83333.3354792253
83333.335474171
83333.335469412
83333.3354651701
83333.3354615951
83333.3354587537
83333.3354566371
83333.3354551744
83333.3354542537
83333.3354537411
83333.3354534644
83333.3354532097
83333.33545292
83333.3354167827
83333.3354191228
83333.3354190599
83333.3354215551
83333.3354214564
83333.3354213662
83333.3354240204
83333.335423924
83333.3354238046
83333.3354236825
83333.335426499
83333.3354264175
83333.3354262938
83333.3354261521
83333.3354259995
83333.335429057
83333.3354289459
83333.3354288062
83333.3354286502
83333.3354284917
83333.3354283085
83333.3354318081
83333.3354315984
83333.3354313814
83333.3354311712
83333.3354309869
83333.3354308175
83333.3354306033
83333.3354348835
83333.3354344977
83333.3354341231
83333.3354337853
83333.3354335053
83333.3354333027
83333.3354331236
83333.3354328791
83333.3354384261
83333.3354377826
83333.3354371658
83333.3354366107
83333.3354361513
83333.3354358123
83333.3354355967
83333.3354354065
83333.3354351324
83333.335442583
83333.3354415987
83333.3354406511
83333.3354397861
83333.3354390509
83333.3354384824
83333.3354380953
83333.3354378678
83333.3354376629
83333.335437361
83333.3354475088
83333.3354460989
83333.3354447286
83333.335443456
83333.3354423442
83333.3354414451
83333.3354407842
83333.3354403567
83333.3354401147
83333.3354398908
83333.3354395642
83333.3354533593
83333.3354514376
83333.3354495511
83333.3354477704
83333.3354461752
83333.3354448372
83333.3354437974
83333.3354430602
83333.335442598
83333.3354423376
83333.3354420906
83333.3354417425
83333.335460282
83333.3354577642
83333.335455269
83333.3354528784
83333.335450689
83333.3354487956
83333.3354472623
83333.3354461079
83333.3354453117
83333.3354448204
83333.3354445378
83333.3354442654
83333.3354439
83333.3354683908
83333.3354652003
83333.3354620123
83333.3354589151
83333.3354560204
83333.3354534496
83333.3354512964
83333.3354496042
83333.3354483656
83333.3354475316
83333.3354470212
83333.3354467162
83333.3354464173
83333.3354460438
83333.3354776633
83333.3354737643
83333.3354698319
83333.3354659556
83333.3354622579
83333.3354588908
83333.3354559862
83333.3354536217
83333.3354518152
83333.33545053
83333.3354496865
83333.3354491743
83333.335448855
83333.3354485403
83333.3354481691
83333.3354876855
83333.3354832133
83333.3354785988
83333.3354739406
83333.3354693864
83333.3354651284
83333.3354613506
83333.3354581782
83333.3354556658
83333.3354538016
83333.3354525172
83333.3354517048
83333.3354512315
83333.3354509395
83333.3354506598
83333.3354503442
83333.3354973898
83333.3354927443
83333.3354878923
83333.3354826587
83333.3354772976
83333.3354721138
83333.3354673731
83333.3354632712
83333.3354599178
83333.3354573379
83333.3354554841
83333.3354542567
83333.3354535288
83333.3354531638
83333.3354529857
83333.3354527967
83333.3354525754
83333.3354145612
83333.3354168142
83333.3354167528
83333.3354191935
83333.3354190936
83333.3354190034
83333.3354216143
83333.3354215232
83333.3354213982
83333.3354212756
83333.3354240281
83333.3354239787
83333.3354238583
83333.335423708
83333.3354235522
83333.3354264843
83333.3354264418
83333.3354263374
83333.3354261823
83333.3354260124
83333.3354258257
83333.3354290828
83333.335428986
83333.3354288436
83333.3354286712
83333.3354284891
83333.3354283071
83333.3354280893
83333.3354319438
83333.3354317208
83333.3354314709
83333.3354312161
83333.3354309778
83333.3354307776
83333.3354305867
83333.3354303389
83333.3354352025
83333.3354347755
83333.3354343369
83333.3354339179
83333.3354335496
83333.3354332571
83333.3354330468
83333.335432847
83333.3354325708
83333.3354389984
83333.3354382877
83333.3354375761
83333.3354369044
83333.335436316
83333.3354358468
83333.3354355121
83333.3354352952
83333.3354350853
83333.3354347827
83333.3354434804
83333.3354424039
83333.3354413308
83333.3354403132
83333.3354394086
83333.3354386664
83333.3354381126
83333.3354377447
83333.3354375214
83333.3354372993
83333.335436974
83333.3354488037
83333.335447276
83333.3354457498
83333.3354442884
83333.335442965
83333.3354418465
83333.3354409727
83333.3354403501
83333.3354399558
83333.335439725
83333.3354394886
83333.3354391456
83333.335455124
83333.3354530569
83333.3354509831
83333.3354489767
83333.3354471268
83333.3354455207
83333.3354442179
83333.3354432369
83333.3354425617
83333.335442147
83333.335441907
83333.3354416562
83333.3354413002
83333.3354625858
83333.3354598902
83333.3354571751
83333.3354545222
83333.3354520349
83333.3354498234
83333.3354479719
83333.3354465187
83333.335445458
83333.3354447483
83333.3354443212
83333.3354440717
83333.3354438059
83333.3354434468
83333.3354712885
83333.3354678808
83333.3354644405
83333.3354610482
83333.3354578166
83333.3354548792
83333.335452351
83333.3354502983
83333.3354487345
83333.3354476268
83333.335446906
83333.335446479
83333.3354462227
83333.3354459463
83333.3354455965
83333.3354811585
83333.3354769875
83333.3354727868
83333.3354685995
83333.3354645404
83333.335460768
83333.335457436
83333.3354546484
83333.3354524491
83333.3354508239
83333.3354497094
83333.3354490079
83333.3354486015
83333.3354483491
83333.3354480787
83333.3354477497
83333.3354916754
83333.3354867596
83333.335481959
83333.3354770478
83333.335472149
83333.3354674729
83333.33546323
83333.3354595784
83333.3354566065
83333.3354543306
83333.3354527041
83333.3354516324
83333.3354509931
83333.3354506506
83333.3354504443
83333.3354502301
83333.3354499838
83333.3355024568
83333.3355008729
83333.335496076
83333.3354911739
83333.3354860094
83333.3354804558
83333.335474899
83333.3354696884
83333.3354650683
83333.3354611958
83333.3354581354
83333.335455868
83333.3354543102
83333.3354533392
83333.3354528193
83333.3354526159
83333.3354525401
83333.3354524341
83333.3354522957
83333.3354124402
83333.335414589
83333.3354145349
83333.3354168795
83333.3354167839
83333.3354166963
83333.3354192418
83333.3354191598
83333.3354190352
83333.3354189143
83333.3354215898
83333.3354215714
83333.3354214577
83333.3354213037
83333.3354211477
83333.3354239501
83333.3354239704
83333.3354238986
83333.3354237488
83333.3354235713
83333.335423382
83333.3354264073
83333.335426413
83333.335426341
83333.3354262038
83333.3354260243
83333.3354258314
83333.3354256108
83333.3354290721
83333.3354289969
83333.3354288611
83333.3354286819
83333.3354284814
83333.3354282832
83333.3354280805
83333.3354278296
83333.3354320696
83333.3354318401
83333.335431564
83333.3354312692
83333.3354309839
83333.3354307329
83333.3354305251
83333.3354303144
83333.3354300354
83333.3354355314
83333.335435072
83333.3354345772
83333.335434083
83333.3354336292
83333.3354332496
83333.3354329602
83333.3354327485
83333.3354325302
83333.3354322257
83333.3354395992
83333.3354388319
83333.3354380342
83333.3354372523
83333.3354365387
83333.3354359402
83333.3354354825
83333.3354351645
83333.3354349518
83333.3354347258
83333.3354343997
83333.3354444243
83333.3354432666
83333.3354420776
83333.3354409142
83333.3354398434
83333.3354389276
83333.3354382054
83333.335437685
83333.3354373466
83333.335437134
83333.3354369002
83333.3354365582
83333.3354501648
83333.3354485286
83333.3354468551
83333.3354452113
83333.3354436793
83333.3354423401
83333.3354412497
83333.3354404269
83333.3354398594
83333.3354395079
83333.3354392961
83333.3354390553
83333.3354387039
83333.33545698
83333.3354547707
83333.3354525147
83333.3354502874
83333.3354481851
83333.3354463092
83333.3354447369
83333.3354435038
83333.3354426058
83333.3354420079
83333.335441651
83333.3354414415
83333.3354411962
83333.3354408442
83333.3354650194
83333.3354621337
83333.3354591952
83333.3354562808
83333.335453497
83333.3354509656
83333.3354487891
83333.3354470256
83333.3354456864
83333.3354447424
83333.3354441341
83333.3354437825
83333.3354435773
83333.3354433306
83333.335442993
83333.3354743926
83333.3354707059
83333.3354669933
83333.3354633
83333.3354597317
83333.3354564273
83333.3354535192
83333.3354510948
83333.3354491892
83333.3354477876
83333.3354468326
83333.3354462393
83333.3354459081
83333.3354457124
83333.3354454741
83333.3354451671
83333.3354850996
83333.335480385
83333.335475856
83333.335471349
83333.3354669312
83333.3354627581
83333.3354589985
83333.3354557802
83333.335453173
83333.3354511864
83333.3354497751
83333.3354488519
83333.3354483065
83333.3354480184
83333.3354478437
83333.3354476364
83333.3354473761
83333.3354963197
83333.3354905656
83333.3354853238
83333.3354801894
83333.3354749811
83333.3354699068
83333.3354652097
83333.3354610788
83333.3354576365
83333.3354549308
83333.3354529387
83333.3354515806
83333.3354507406
83333.3354502877
83333.3354500875
83333.3354499735
83333.335449849
83333.3354496964
83333.3355044315
83333.3355010063
83333.3355018782
83333.3354991981
83333.3354943089
83333.3354891285
83333.3354835599
83333.3354777184
83333.3354720726
83333.3354669488
83333.3354625549
83333.3354590003
83333.3354562995
83333.3354543897
83333.3354531565
83333.3354524603
83333.3354521619
83333.3354521308
83333.335452158
83333.3354521574
83333.3354520825
83333.3354124722
83333.3354124196
83333.3354146545
83333.3354145605
83333.3354144818
83333.335416915
83333.3354168433
83333.3354167246
83333.3354166084
83333.335419187
83333.3354191966
83333.3354190929
83333.3354189415
83333.3354187886
83333.3354214545
83333.3354215311
83333.3354214909
83333.3354213496
83333.3354211698
83333.3354209804
83333.3354237812
83333.335423879
83333.3354238702
83333.3354237673
83333.3354235937
83333.3354233933
83333.3354231711
83333.3354262659
83333.3354263236
83333.3354262891
83333.3354261805
83333.3354260169
83333.3354258217
83333.3354256086
83333.3354253555
83333.3354290235
83333.3354289728
83333.3354288445
83333.3354286629
83333.3354284534
83333.3354282402
83333.3354280341
83333.3354278125
83333.3354275308
83333.3354321769
83333.3354319466
83333.3354316499
83333.3354313181
83333.3354309871
83333.335430689
83333.3354304393
83333.33543023
83333.3354300018
83333.3354296948
83333.3354358598
83333.3354353767
83333.3354348323
83333.3354342673
83333.3354337292
83333.335433262
83333.3354328908
83333.3354326155
83333.3354324079
83333.3354321747
83333.3354318466
83333.3354402169
83333.3354394029
83333.3354385272
83333.3354376403
83333.3354368029
83333.3354360738
83333.33543549
83333.3354350609
83333.3354347691
83333.3354345667
83333.3354343299
83333.3354339868
83333.3354454035
83333.3354441741
83333.3354428774
83333.3354415735
83333.335440338
83333.3354392463
83333.3354383514
83333.3354376728
83333.3354372008
83333.3354369012
83333.3354367067
83333.3354364685
83333.335436118
83333.3354515847
83333.3354498459
83333.3354480307
83333.3354462085
83333.3354444688
83333.3354429062
83333.3354415925
83333.3354405617
83333.3354398118
83333.3354393132
83333.3354390142
83333.3354388307
83333.3354385954
83333.3354382468
83333.3354589332
83333.3354565758
83333.3354541357
83333.3354516869
83333.3354493313
83333.3354471819
83333.3354453328
83333.3354438365
83333.3354427038
83333.3354419095
83333.3354414024
83333.3354411141
83333.3354409458
83333.3354407179
83333.3354403858
83333.3354676303
83333.3354645099
83333.3354613278
83333.3354581416
83333.3354550564
83333.3354522004
83333.3354496915
83333.3354476058
83333.3354459727
83333.3354447779
83333.3354439703
83333.3354434767
83333.3354432122
83333.335443063
83333.3354428508
83333.3354425567
83333.3354779028
83333.3354737428
83333.335469686
83333.3354656635
83333.3354617474
83333.3354580708
83333.3354547763
83333.3354519697
83333.3354497067
83333.3354479916
83333.3354467816
83333.3354459983
83333.3354455457
83333.3354453223
83333.3354451981
83333.3354450206
83333.3354447823
83333.3354899893
83333.3354842153
83333.3354790925
83333.3354742015
83333.3354694117
83333.335464835
83333.3354606459
83333.3354569901
83333.3354539619
83333.3354515954
83333.3354498649
83333.3354486957
83333.3354479815
83333.3354476047
83333.335447446
83333.3354473588
83333.335447246
83333.3354470772
83333.3355004018
83333.3354948827
83333.3354889116
83333.3354833371
83333.3354778479
83333.3354723985
83333.3354672575
83333.3354626486
83333.3354587278
83333.3354555768
83333.335453199
83333.3354515324
83333.3354504689
83333.3354498768
83333.3354496207
83333.3354495699
83333.3354495608
83333.3354495523
83333.335449487
83333.3355025973
83333.3355026274
83333.3354992027
83333.3355021964
83333.3355004227
83333.3354972549
83333.3354921196
83333.3354864878
83333.3354805069
83333.3354744872
83333.3354688774
83333.3354639634
83333.3354599043
83333.3354567528
83333.3354544718
83333.3354529591
83333.335452075
83333.3354516698
83333.3354516067
83333.3354517415
83333.3354518686
83333.3354519486
83333.3354519607
83333.335412548
83333.3354124497
83333.3354123732
83333.3354146845
83333.3354146164
83333.3354145034
83333.3354143979
83333.3354168359
83333.3354168676
83333.3354167742
83333.3354166318
83333.3354164855
83333.3354190012
83333.3354191269
83333.3354191143
83333.3354189848
83333.3354188098
83333.3354186244
83333.3354212042
83333.3354213835
83333.3354214311
83333.335421361
83333.3354211971
83333.3354209949
83333.3354207732
83333.335423523
83333.3354236997
83333.3354237571
83333.3354237122
83333.3354235836
83333.3354233944
83333.3354231742
83333.3354229201
83333.3354260607
83333.3354261707
83333.3354261755
83333.3354260965
83333.3354259569
83333.3354257792
83333.3354255759
83333.3354253447
83333.3354250612
83333.3354289306
83333.3354289077
83333.3354287907
83333.3354286066
83333.3354283876
83333.3354281638
83333.3354279501
83333.3354277422
83333.335427504
83333.3354271947
83333.3354322572
83333.3354320331
83333.3354317202
83333.3354313536
83333.3354309762
83333.3354306289
83333.3354303359
83333.3354300978
83333.3354298923
83333.3354296503
83333.3354293198
83333.3354361772
83333.3354356795
83333.3354350923
83333.3354344599
83333.3354338377
83333.3354332799
83333.3354328224
83333.3354324751
83333.3354322228
83333.3354320252
83333.3354317823
83333.3354314371
83333.3354408398
83333.3354399892
83333.3354390433
83333.3354380555
83333.3354370951
83333.3354362321
83333.335435517
83333.3354349695
83333.3354345827
83333.3354343259
83333.3354341409
83333.3354339004
83333.3354335488
83333.3354464081
83333.3354451157
83333.3354437177
83333.3354422772
83333.3354408774
83333.3354396065
83333.335438532
83333.3354376869
83333.3354370716
83333.335436661
83333.3354364092
83333.3354362416
83333.3354360089
83333.3354356608
83333.3354530621
83333.3354512223
83333.3354492669
83333.3354472665
83333.3354453179
83333.3354435274
83333.3354419828
83333.3354407332
83333.3354397899
83333.3354391317
83333.3354387144
83333.335438478
83333.3354383337
83333.3354381151
83333.3354377858
83333.3354610093
83333.3354584812
83333.3354558439
83333.3354531651
83333.3354505502
83333.3354481211
83333.3354459865
83333.3354442151
83333.3354428333
83333.3354418284
83333.3354411558
83333.3354407518
83333.3354405434
83333.3354404279
83333.335440233
83333.3354399448
83333.3354705352
83333.3354670698
83333.3354635895
83333.3354601025
83333.3354567001
83333.3354535096
83333.3354506587
83333.3354482388
83333.3354462964
83333.335444833
83333.3354438092
83333.3354431556
83333.335442789
83333.3354426237
83333.3354425423
83333.3354423883
83333.3354421642
83333.3354822166
83333.3354771921
83333.3354725847
83333.3354681519
83333.3354638553
83333.3354597911
83333.3354561005
83333.3354529005
83333.3354502655
83333.3354482188
83333.3354467337
83333.3354457412
83333.3354451463
83333.3354448471
83333.3354447431
83333.335444705
83333.3354446211
83333.335444471
83333.3354958264
83333.3354889285
83333.3354827324
83333.3354772032
83333.3354719784
83333.3354669803
83333.3354623543
83333.3354582531
83333.3354547918