/*--------------------------------*- C++ -*----------------------------------*\
  =========                 |
  \\      /  F ield         | OpenFOAM: The Open Source CFD Toolbox
   \\    /   O peration     | Website:  https://openfoam.org
    \\  /    A nd           | Version:  12
     \\/     M anipulation  |
\*---------------------------------------------------------------------------*/
/*   Windows 32 and 64 bit porting by blueCAPE: http://www.bluecape.com.pt   *\
|  Based on Windows porting (2.0.x v4) by Symscape: http://www.symscape.com   |
\*---------------------------------------------------------------------------*/
FoamFile
{
    format      ascii;
    class       surfaceScalarField;
    location    "700";
    object      phi;
}
// * * * * * * * * * * * * * * * * * * * * * * * * * * * * * * * * * * * * * //

dimensions      [0 3 -1 0 0 0 0];

internalField   nonuniform List<scalar> 
28900
(
1.42042491293927e-06
-1.32886875962193e-07
6.94901269409932e-08
1.49450521907853e-06
-1.46266600114309e-07
7.21771006988965e-08
-1.67311693504503e-07
-2.18577613012558e-07
3.36282564819603e-08
1.76221731160072e-06
-1.39722596361702e-07
1.40491243404621e-07
1.56808014889607e-06
-1.47725284492194e-07
7.41450738553127e-08
-1.17413244012912e-07
-2.29582552065225e-07
3.34190798062273e-08
1.85186063542954e-06
-1.57674580182996e-07
1.40197173915857e-07
-5.03029981540778e-07
-3.15540954785079e-07
2.45459824256298e-08
-7.43346176806924e-08
-2.29411928259017e-07
7.45908584004916e-08
1.89517521870996e-06
-1.45093874244436e-07
2.09407396295484e-07
1.63209293929245e-06
-1.3548673347564e-07
7.14747896021504e-08
-7.23950230295788e-08
-2.25790233968845e-07
3.30424981939693e-08
1.94610584364153e-06
-1.58795349104951e-07
1.38712953013517e-07
-4.38036244614983e-07
-3.18652152351206e-07
2.40780447661027e-08
-2.64065411506442e-08
-2.44097688537178e-07
7.19075873571532e-08
1.99747961691596e-06
-1.67596522123321e-07
2.05478192572201e-07
-4.56911384826707e-07
-4.1345137650437e-07
2.89004323488745e-08
-5.6667483685479e-07
-3.39733358684786e-07
5.72581247855338e-08
-1.61315866256539e-07
-2.37853595209491e-07
1.16682638806031e-07
2.08178380389088e-06
-1.52958810966428e-07
2.73739239445134e-07
1.68533967401247e-06
-1.20812054174947e-07
6.75743575272315e-08
-2.90649506065444e-08
-2.09225437311073e-07
3.04071357007162e-08
2.03028920673175e-06
-1.45693548955411e-07
1.32985362444577e-07
-3.80180037168014e-07
-3.0739974650518e-07
2.3753081537877e-08
2.03717442390651e-08
-2.41522498032385e-07
6.89791261560098e-08
2.10479050383079e-06
-1.70437513637584e-07
2.01841517782665e-07
-3.94355374683592e-07
-4.09835701524968e-07
2.86283468311291e-08
-4.97110131390095e-07
-3.45271507149921e-07
5.56878909981355e-08
-1.09613693590421e-07
-2.58693978989636e-07
1.11311053978479e-07
2.19987717490271e-06
-1.79461547829295e-07
2.66823791860486e-07
-3.64544669922873e-07
-5.14455320622891e-07
3.77457148817561e-08
-5.1959685525352e-07
-4.52696995134796e-07
6.62802295854061e-08
-7.24179437275847e-07
-3.61080504478497e-07
9.26356022710524e-08
-2.08704452648687e-07
-2.45209730091647e-07
1.56348634835897e-07
2.19274880868541e-06
-1.54426427649441e-07
3.28871279424311e-07
1.72662046328663e-06
-1.0523092127572e-07
6.3949063184112e-08
1.09409264559477e-08
-1.87749461644662e-07
2.69256305846012e-08
2.10119976022503e-06
-1.30482321509422e-07
1.27157006619394e-07
-3.27251361176025e-07
-2.84750520254527e-07
2.25963140739489e-08
6.65762314719032e-08
-2.24943976598028e-07
6.3445172449368e-08
2.20037601370141e-06
-1.57034968384821e-07
1.94417206879961e-07
-3.38886863777449e-07
-3.91151011438144e-07
2.82821678405606e-08
-4.33680783813834e-07
-3.34957518397623e-07
5.3758192051071e-08
-5.69998007686716e-08
-2.59130980383903e-07
1.0505295126855e-07
2.32370488713216e-06
-1.83680669569838e-07
2.61705944263837e-07
-3.07193744448636e-07
-5.04645373027205e-07
3.74583045688649e-08
-4.50867925166617e-07
-4.50779160852864e-07
6.540506620648e-08
-6.45469217931102e-07
-3.72453052779286e-07
9.0731669206981e-08
-1.5273625517262e-07
-2.72663786112413e-07
1.48561579091358e-07
2.32417595979279e-06
-1.84557370772372e-07
3.1996323439677e-07
-2.63515876432548e-07
-6.21188714936228e-07
4.82525180413756e-08
-4.1670817900694e-07
-5.65643724615978e-07
8.14758508473929e-08
-6.60850438523429e-07
-4.89430698022955e-07
1.07881384220518e-07
-8.66795832379648e-07
-3.7571150115042e-07
1.26018632170571e-07
-2.60405771370261e-07
-2.40717163852309e-07
1.88567765663548e-07
2.20688608344034e-06
-1.48916701362536e-07
3.7179829895999e-07
1.75599128684735e-06
-8.94535720611512e-08
6.00799080057946e-08
4.55570072671204e-08
-1.63233512767574e-07
2.33726072927023e-08
2.15698637201618e-06
-1.13556861201221e-07
1.21731808189688e-07
-2.80608615244769e-07
-2.55083439440397e-07
2.06916443647863e-08
1.09229604544253e-07
-2.02754623036468e-07
5.65514677033547e-08
2.28196835766501e-06
-1.41023356878763e-07
1.8658325583254e-07
-2.90246379954673e-07
-3.60549351666144e-07
2.71581384129425e-08
-3.74723563085049e-07
-3.11623818297966e-07
5.03121085070013e-08
-3.48122114613416e-09
-2.43395647238175e-07
9.62851471765509e-08
2.43438981042828e-06
-1.70267903547183e-07
2.53988161780399e-07
-2.57051622760381e-07
-4.77981619671758e-07
3.66894686824422e-08
-3.89316233247718e-07
-4.3228666743365e-07
6.40598460038903e-08
-5.72307240609159e-07
-3.65681541585061e-07
8.71489940088868e-08
-9.44227975387675e-08
-2.76533273415556e-07
1.39594467716826e-07
2.46171286881502e-06
-1.90292080215194e-07
3.14437280273638e-07
-2.11071859961394e-07
-6.04821187954573e-07
4.77317524105391e-08
-3.53446632940258e-07
-5.5733886525617e-07
8.07566878722492e-08
-5.81813132197476e-07
-4.93032969072379e-07
1.06944942440505e-07
-7.7924190526625e-07
-3.93716363019482e-07
1.24234546038928e-07
-2.00784386416953e-07
-2.74583760375321e-07
1.78978210079908e-07
2.34675279448569e-06
-1.82255661346663e-07
3.6235090924902e-07
-1.64790909758727e-07
-7.36911302746616e-07
6.02552834328696e-08
-3.08094895280313e-07
-6.81968746635113e-07
1.00642433572113e-07
-5.36395529112681e-07
-6.16752945020217e-07
1.29220039380926e-07
-8.02385679441711e-07
-5.12200787795818e-07
1.47211747204937e-07
-9.9943975631087e-07
-3.69521047408272e-07
1.50963219467047e-07
-3.15857991869736e-07
-2.27069699042845e-07
2.10591898595132e-07
2.15062719892045e-06
-1.39115455180706e-07
4.01748089335982e-07
1.77377129560657e-06
-7.39262800276761e-08
5.61518291932526e-08
7.34422957087402e-08
-1.37272945772795e-07
1.99315370605396e-08
2.19804679568759e-06
-9.67866844266622e-08
1.15821451843884e-07
-2.41144377416887e-07
-2.20914268181516e-07
1.82180976267572e-08
1.46303627313606e-07
-1.76562795108071e-07
4.9303528509506e-08
2.34744218906479e-06
-1.22744049932168e-07
1.79031424656691e-07
-2.49093026895706e-07
-3.21579751931545e-07
2.53443435154318e-08
-3.22184926136319e-07
-2.80263262538306e-07
4.56598313523277e-08
4.70817259881021e-08
-2.20992647764789e-07
8.59566549458661e-08
2.52937582236433e-06
-1.53476359794724e-07
2.45083405209889e-07
-2.14547743361212e-07
-4.38136943490425e-07
3.50835692178808e-08
-3.34900577436396e-07
-4.0021858544099e-07
6.13388453414087e-08
-5.03038292538296e-07
-3.43689893419021e-07
8.13353647035221e-08
-3.44522872632838e-08
-2.62150860252996e-07
1.28185849131532e-07
2.58547717584126e-06
-1.77291569863222e-07
3.07480813365714e-07
-1.66197467563372e-07
-5.69286089144813e-07
4.64306566697258e-08
-2.97646791831299e-07
-5.3029954605917e-07
7.89020573184959e-08
-5.09970067499428e-07
-4.77500835444807e-07
1.04034527715105e-07
-6.97047469191371e-07
-3.91069651058897e-07
1.19485852645719e-07
-1.37428269845392e-07
-2.82459849009052e-07
1.6840788262515e-07
2.49313718065832e-06
-1.89777886850199e-07
3.57802567892318e-07
-1.15874205130395e-07
-7.13049948599248e-07
5.93115042562829e-08
-2.50088819068245e-07
-6.67228149592361e-07
9.96146409829411e-08
-4.63219644054187e-07
-6.1394514132711e-07
1.2849095356547e-07
-7.13287813822111e-07
-5.22670702213254e-07
1.46801829806883e-07
-9.0509212570231e-07
-3.9447366652309e-07
1.49779041345381e-07
-2.53163468120419e-07
-2.6626562362638e-07
2.00301102725767e-07
2.29487840012534e-06
-1.75271686262582e-07
3.9338042109193e-07
-6.93637179581019e-08
-8.6554864535836e-07
7.43106057014063e-08
-2.02546816561627e-07
-8.06210680459467e-07
1.23813344419298e-07
-4.10634593037645e-07
-7.45538466038185e-07
1.55808697113862e-07
-6.64180824212044e-07
-6.4687019506922e-07
1.74441878535578e-07
-9.3658040241079e-07
-5.0555087938973e-07
1.78490224345905e-07
-1.11841897374206e-06
-3.48738470066324e-07
1.64638422869023e-07
-3.76095319192847e-07
-2.09496687528945e-07
2.22202856786119e-07
2.05885558204e-06
-1.2819077935862e-07
4.19590490142924e-07
1.7803527874455e-06
-5.88983531951558e-08
5.23161911732228e-08
9.38347328419835e-08
-1.10933249654424e-07
1.66173191443193e-08
2.22511204438735e-06
-8.04562721215192e-08
1.09551774060579e-07
-2.09553892576408e-07
-1.84556044860514e-07
1.56925872091781e-08
1.7598466044706e-07
-1.48694213675711e-07
4.21513868041495e-08
2.3974223765805e-06
-1.05002791149734e-07
1.70836983820406e-07
-2.15821037743294e-07
-2.7733111189104e-07
2.31436297382117e-08
-2.77244848737476e-07
-2.4358273528095e-07
4.03002262351577e-08
9.20587095460116e-08
-1.93486579898322e-07
7.50630284038628e-08
2.60608711574854e-06
-1.33774535367513e-07
2.36062397387914e-07
-1.80092050748467e-07
-3.88872565132002e-07
3.28375028074703e-08
-2.88366827210706e-07
-3.58363423094415e-07
5.69105100874975e-08
-4.40391221796039e-07
-3.1171122921637e-07
7.37293828213975e-08
2.29446226305937e-08
-2.39916677849554e-07
1.15001261014836e-07
2.69237882029882e-06
-1.60582026049458e-07
2.98807217003042e-07
-1.29555453437515e-07
-5.18973161442557e-07
4.41938258021962e-08
-2.4993569243194e-07
-4.88300048594495e-07
7.54538988982574e-08
-4.45250085748476e-07
-4.45986744668354e-07
9.89157621902656e-08
-6.18423717552572e-07
-3.71151293776826e-07
1.11713335147791e-07
-7.16452109092701e-08
-2.70370923623931e-07
1.55498685327174e-07
2.62577078502623e-06
-1.77680977771226e-07
3.52538400978145e-07
-7.51588836451881e-08
-6.67320880931731e-07
5.73191753970893e-08
-1.99874325998913e-07
-6.31018117064471e-07
9.69361427796516e-08
-3.97703576799014e-07
-5.89354645107086e-07
1.25238622711319e-07
-6.31655125479876e-07
-5.11643927491784e-07
1.42976073151377e-07
-8.15733102692332e-07
-3.97076485885646e-07
1.44739527311412e-07
-1.86068146499132e-07
-2.77949882951987e-07
1.89481372418387e-07
2.44621376549248e-06
-1.8449741490569e-07
3.9095924042083e-07
-2.23804088552173e-08
-8.32786410934714e-07
7.27529084449952e-08
-1.48241261714486e-07
-7.84206079387395e-07
1.21985414450087e-07
-3.43183268881005e-07
-7.36512963926649e-07
1.54731185954586e-07
-5.81171566144031e-07
-6.51484860187733e-07
1.74297489993035e-07
-8.39833894440981e-07
-5.23530453153108e-07
1.7911029349591e-07
-1.01960177414534e-06
-3.79867776925672e-07
1.64559724353437e-07
-3.10361656437735e-07
-2.53142770668853e-07
2.12429264800445e-07
2.2054528213408e-06
-1.66843214944659e-07
4.13630406033018e-07
2.66358068995646e-08
-1.01142397119411e-06
9.09726377898755e-08
-9.92828057286912e-08
-9.43070980302702e-07
1.51715349379372e-07
-2.91005997236834e-07
-8.81667867771085e-07
1.89815673160176e-07
-5.26075016333402e-07
-7.83019718703972e-07
2.08887142973722e-07
-7.90216000463545e-07
-6.4008439037095e-07
2.12172456821515e-07
-1.05916226493145e-06
-4.78713583587601e-07
1.98686124977484e-07
-1.22795427177761e-06
-3.22520234993686e-07
1.67069897625302e-07
-4.40683487898623e-07
-1.91332693020935e-07
2.24305076723571e-07
1.95686290281756e-06
-1.17097671877982e-07
4.26664722862139e-07
1.77642371847745e-06
-4.47729734484873e-08
4.87145748708146e-08
1.06603727545957e-07
-8.52311268730624e-08
1.35631659673273e-08
2.23871504074137e-06
-6.46739242584446e-08
1.03383220923395e-07
-1.85944442853726e-07
-1.47708713959435e-07
1.31692245802805e-08
1.97315288110046e-07
-1.20464983804488e-07
3.52852879580768e-08
2.43204091965617e-06
-8.76549062295526e-08
1.62604699834386e-07
-1.90556564430712e-07
-2.30546411427685e-07
2.07261072912214e-08
-2.40761624666134e-07
-2.0418588114468e-07
3.47031319774378e-08
1.28719097464799e-07
-1.63748831708045e-07
6.42372410187631e-08
2.66559221543014e-06
-1.15171630876583e-07
2.26510605520306e-07
-1.5377075662786e-07
-3.33753916413111e-07
3.01017925784268e-08
-2.50238229546802e-07
-3.10201313307634e-07
5.1630571234167e-08
-3.85866344716215e-07
-2.72797470273899e-07
6.50884585140877e-08
7.47069166796876e-08
-2.11442570188012e-07
1.00973103341294e-07
2.77947756427616e-06
-1.40523397718596e-07
2.89478975190402e-07
-1.01384037831927e-07
-4.58219044823e-07
4.11747798462106e-08
-2.10838613913253e-07
-4.35329342936153e-07
7.07072990802192e-08
-3.89162469572127e-07
-4.02647432971421e-07
9.17621727945259e-08
-5.46506785454479e-07
-3.39642047762646e-07
1.01541934355847e-07
-8.31780361297602e-09
-2.49432516281178e-07
1.40517043036188e-07
2.7411591300701e-06
-1.6170088096643e-07
3.45127776659586e-07
-4.33682374839295e-08
-6.05028272857697e-07
5.42646050064506e-08
-1.58411428813922e-07
-5.78024101117797e-07
9.24561217514027e-08
-3.40671383280187e-07
-5.47098544120039e-07
1.19534479639251e-07
-5.5741270754537e-07
-4.82475027025368e-07
1.35996457579481e-07
-7.29524952642199e-07
-3.80887614380664e-07
1.36022295849233e-07
-1.16067296746553e-07
-2.68597346311141e-07
1.76409068401196e-07
2.58436123892781e-06
-1.73875252164546e-07
3.88285088985193e-07
1.54435165187466e-08
-7.75011532174857e-07
6.98666062835915e-08
-1.02326256263107e-07
-7.37555672488847e-07
1.17941194236769e-07
-2.83747907869004e-07
-7.02377906153321e-07
1.50524435406985e-07
-5.06117630957667e-07
-6.31647178347565e-07
1.70187707287663e-07
-7.5049610727115e-07
-5.18593930938479e-07
1.75156056215709e-07
-9.25156722437156e-07
-3.87762608144807e-07
1.60104085241269e-07
-2.39846100242794e-07
-2.68126377306051e-07
2.02600221604856e-07
2.35965898606762e-06
-1.77440561354983e-07
4.14203034763412e-07
7.3079631188073e-08
-9.67937702369786e-07
8.87072285307158e-08
-4.69516099374115e-08
-9.12714688433432e-07
1.48929317375112e-07
-2.2739239567344e-07
-8.65993426494218e-07
1.87852506167603e-07
-4.49056480046657e-07
-7.82149207826633e-07
2.08376371995705e-07
-6.99549685730674e-07
-6.5303351018379e-07
2.13135408958288e-07
-9.57127232924773e-07
-5.03582166381866e-07
2.00793404320213e-07
-1.12612788820539e-06
-3.58961087804265e-07
1.68554925784505e-07
-3.7203707902394e-07
-2.38979534972927e-07
2.15936211172941e-07
2.10441181474841e-06
-1.58116205833619e-07
4.24196231879008e-07
1.28962586213724e-07
-1.18067406890509e-06
1.12358083152974e-07
5.68063717180014e-09
-1.09892666412175e-06
1.86832477941613e-07
-1.74843586631383e-07
-1.03188926610187e-06
2.32990715242081e-07
-3.96129986386361e-07
-9.27033465788512e-07
2.54330820829382e-07
-6.45224395601849e-07
-7.76342764520686e-07
2.54825001050565e-07
-9.09094634976149e-07
-6.07691701307701e-07
2.39253442798894e-07
-1.17541449506423e-06
-4.44303653009506e-07
2.070074340527e-07
-1.33443520705007e-06
-2.95848863852525e-07
1.59076022175979e-07
-5.05236139854897e-07
-1.74773843070027e-07
2.18162983520831e-07
1.85772135906529e-06
-1.07192400852993e-07
4.24855251936191e-07
1.76281720978424e-06
-3.18577090459248e-08
4.54901321398306e-08
1.12085200207948e-07
-6.11039796253417e-08
1.08525659040594e-08
2.23968236001791e-06
-4.97675184295394e-08
9.75327484246771e-08
-1.70036671275595e-07
-1.11894780067163e-07
1.07567960836868e-08
2.10210052869879e-07
-9.2914789711441e-08
2.8897976398711e-08
2.45163111206969e-06
-7.07639692373064e-08
1.54540974499731e-07
-1.73082860919084e-07
-1.83441676603518e-07
1.82588425683466e-08
-2.13043484500263e-07
-1.64112215303215e-07
2.91037860208151e-08
1.55961446615602e-07
-1.33383827131598e-07
5.37530606309515e-08
2.70805776439879e-06
-9.67717340234544e-08
2.16905129319739e-07
-1.35390233409927e-07
-2.75986636053629e-07
2.70600298051441e-08
-2.20776217289811e-07
-2.58844198536966e-07
4.59234148685723e-08
-3.40737218245411e-07
-2.30151800389616e-07
5.59811249502612e-08
1.17327902770828e-07
-1.8033754594385e-07
8.67762648931563e-08
2.8481305209441e-06
-1.21652594607887e-07
2.79528331669252e-07
-8.15701441972217e-08
-3.91233432211335e-07
3.76665861189774e-08
-1.80472900404465e-07
-3.75256320608079e-07
6.47912109887497e-08
-3.42390721589678e-07
-3.51157969898219e-07
8.32185148755978e-08
-4.83001769089139e-07
-2.99740892439656e-07
8.98793421283345e-08
4.93374357760029e-08
-2.21559260048352e-07
1.24363442382617e-07
2.83617220539658e-06
-1.4214321762552e-07
3.3659782702887e-07
-2.06404958295017e-08
-5.31351267013574e-07
5.04049408443886e-08
-1.25981866039639e-07
-5.1276017654359e-07
8.6175536610469e-08
-2.92959474689013e-07
-4.91344236347588e-07
1.11694093213904e-07
-4.92148741853942e-07
-4.39438213327085e-07
1.26297899007665e-07
-6.49828731819192e-07
-3.51853562932314e-07
1.24264319497143e-07
-4.82577520972289e-08
-2.49801285092572e-07
1.60792561876786e-07
2.70555933973885e-06
-1.59059183677128e-07
3.82992607018543e-07
4.33467691982238e-08
-6.98703860600357e-07
6.57722374629175e-08
-6.58521675916728e-08
-6.72035133270742e-07
1.11802129131096e-07
-2.33503433606358e-07
-6.48395310823719e-07
1.43507359911483e-07
-4.39926306837665e-07
-5.91761173619479e-07
1.62627434298342e-07
-6.68461286563725e-07
-4.94098767016209e-07
1.67174389413735e-07
-8.33231646499055e-07
-3.76008447301791e-07
1.51511221533853e-07
-1.66201709693228e-07
-2.61555191676598e-07
1.90463306800146e-07
2.50143384486515e-06
-1.68284298816348e-07
4.14807677807602e-07
1.09002855927288e-07
-8.95722251638238e-07
8.47876059501058e-08
-3.98240085024962e-09
-8.54024612447587e-07
1.43366665893723e-07
-1.72467974779925e-07
-8.2140794108291e-07
1.82045501485154e-07
-3.8031213770451e-07
-7.53064727360966e-07
2.03195886411001e-07
-6.16778031108785e-07
-6.40047435920257e-07
2.08870641662247e-07
-8.62149547988698e-07
-5.05029731814924e-07
1.97440364927178e-07
-1.02792408021604e-06
-3.71640224779566e-07
1.65418669459843e-07
-2.97815102413396e-07
-2.56934011899293e-07
2.07872923351235e-07
2.26040971935418e-06
-1.70419237629568e-07
4.28635435106656e-07
1.7590925777291e-07
-1.1238854384155e-06
1.09001595711898e-07
5.75197489421763e-08
-1.05847252687778e-06
1.82625905941752e-07
-1.13097258258089e-07
-1.00849363994234e-06
2.29684036347693e-07
-3.22958017920295e-07
-9.20331263564365e-07
2.52861032033241e-07
-5.60527733579389e-07
-7.84779958516999e-07
2.55425300615041e-07
-8.12893510232085e-07
-6.28411505155047e-07
2.41761541560904e-07
-1.069411008658e-06
-4.75145054748343e-07
2.10968416017212e-07
-1.23028953056317e-06
-3.37036763265097e-07
1.62470747686659e-07
-4.33422733728493e-07
-2.26010163704055e-07
2.1203062576809e-07
2.00553326182386e-06
-1.49991737954056e-07
4.26353046547027e-07
2.44521722544973e-07
-1.38035070660735e-06
1.39745367749131e-07
1.18060326602744e-07
-1.28001526973314e-06
2.31441160607577e-07
-5.71213002428452e-08
-1.20258020389947e-06
2.87730106370622e-07
-2.70397839275102e-07
-1.08552446821518e-06
3.12979693592049e-07
-5.10141381644522e-07
-9.20282934382851e-07
3.11406663791299e-07
-7.61254590241053e-07
-7.38289637582634e-07
2.89916383043433e-07
-1.02459529827683e-06
-5.65106209920446e-07
2.54199343731193e-07
-1.29178742510023e-06
-4.09066884859296e-07
2.0354318998757e-07
-1.44154175631771e-06
-2.71468639542883e-07
1.4167053762111e-07
-5.67752240884021e-07
-1.61669447313411e-07
2.0548937361415e-07
1.76708170157648e-06
-9.98931380320196e-08
4.1724541483128e-07
1.74048388120336e-06
-2.01861495685927e-08
4.25320241077656e-08
1.10867319887041e-07
-3.91378406111678e-08
8.50421035007231e-09
2.22897456423329e-06
-3.59746319865089e-08
9.21618334554888e-08
-1.61395055735151e-07
-7.82964462739117e-08
8.5489310440047e-09
2.15061122199016e-07
-6.68640182016935e-08
2.30890004673284e-08
2.45706750425513e-06
-5.47776992583919e-08
1.46861655149393e-07
-1.62970788707365e-07
-1.3782862779614e-07
1.58221082638565e-08
-1.93919189660984e-07
-1.24965847665522e-07
2.36800971544668e-08
1.73823361863097e-07
-1.03544666417691e-07
4.38088253422662e-08
2.73389207979105e-06
-7.87300418842432e-08
2.07461501312138e-07
-1.24522190485361e-07
-2.1823810346933e-07
2.39283332518492e-08
-1.99866408687962e-07
-2.06826592103057e-07
4.00633487020027e-08
-3.05537081315552e-07
-1.86263001695403e-07
4.67851620937455e-08
1.49827227380459e-07
-1.4830394097164e-07
7.27827702566868e-08
2.89851443624003e-06
-1.02822947042041e-07
2.69348945771768e-07
-6.96953567878813e-08
-3.217542482396e-07
3.38928796378628e-08
-1.58701210519901e-07
-3.11698385901138e-07
5.81431634890238e-08
-3.05358863122527e-07
-2.95146649604812e-07
7.38875605183216e-08
-4.2959231098516e-07
-2.55169950295976e-07
7.74027831672379e-08
9.76040496517447e-08
-1.90763209295311e-07
1.07625438076527e-07
2.91224895383168e-06
-1.23700510648487e-07
3.27160957895381e-07
-6.66926999707055e-09
-4.512337804424e-07
4.60293304750896e-08
-1.02570260688363e-07
-4.39868542626291e-07
7.88666970593981e-08
-2.54989090219743e-07
-4.26586684658595e-07
1.02250700505551e-07
-4.36763160875266e-07
-3.86580688007321e-07
1.14674730468755e-07
-5.7851263392324e-07
-3.13441751408749e-07
1.10447444618323e-07
1.43160072703532e-08
-2.23843121936992e-07
1.43482195234399e-07
2.80645708801226e-06
-1.4051334601664e-07
3.76203235546643e-07
6.13159753028854e-08
-6.1010915957257e-07
6.07884910047884e-08
-3.91128579947976e-08
-5.93100928983767e-07
1.04007002454348e-07
-1.9325281495597e-07
-5.79499100952719e-07
1.34079405600547e-07
-3.83626942085029e-07
-5.36165654342568e-07
1.52121142535593e-07
-5.95394109375221e-07
-4.54343929736575e-07
1.55723865441207e-07
-7.47335321529542e-07
-3.50671323016906e-07
1.39248622179753e-07
-9.4288825038776e-08
-2.45313238247261e-07
1.75148692013951e-07
2.62683875485712e-06
-1.54872527906137e-07
4.12474828182175e-07
1.33618968506797e-07
-8.02774108913652e-07
7.9454260937845e-08
2.8488486814832e-08
-7.7408435815225e-07
1.35350012395816e-07
-1.27641180545682e-07
-7.54399867328737e-07
1.72980602747259e-07
-3.21238056333824e-07
-7.01425610525323e-07
1.94098699805509e-07
-5.42886834562443e-07
-6.05541309886508e-07
2.00178937984957e-07
-7.74087604240717e-07
-4.86250010741267e-07
1.89355371928093e-07
-9.31488878565272e-07
-3.64281267576371e-07
1.57800390932157e-07
-2.2000212341823e-07
-2.53070758785375e-07
1.97413440634478e-07
2.40485445630282e-06
-1.62556438793584e-07
4.32919783571693e-07
2.10496016657643e-07
-1.03388443885804e-06
1.0357559358514e-07
9.86116647217781e-08
-9.85263816422733e-07
1.74934838189069e-07
-6.10735428214762e-08
-9.51716273047057e-07
2.21651322095538e-07
-2.58706189039369e-07
-8.81065764347238e-07
2.45795932074367e-07
-4.84006139646426e-07
-7.63325726824388e-07
2.49951605968024e-07
-7.24244631156164e-07
-6.22820317493301e-07
2.38011510828143e-07
-9.69940676565214e-07
-4.82530865562071e-07
2.08864765811617e-07
-1.12897435896902e-06
-3.54025404132133e-07
1.61185557954961e-07
-3.5550919520832e-07
-2.46784976722915e-07
2.06363342002432e-07
2.16263126797769e-06
-1.63835791632645e-07
4.35361237565754e-07
2.92519438243703e-07
-1.30670031667594e-06
1.34817033351537e-07
1.70527947630493e-07
-1.22711462461688e-06
2.2517661285088e-07
4.50126439919294e-09
-1.16994856933728e-06
2.8245765955568e-07
-1.98843569247254e-07
-1.07214810077125e-06
3.09947208188617e-07
-4.29107162722038e-07
-9.23979827334277e-07
3.11026269472779e-07
-6.70830538616629e-07
-7.55489947757284e-07
2.92079066641703e-07
-9.2398927767046e-07
-5.92585337191415e-07
2.58597820216728e-07
-1.1823148624712e-06
-4.45165654661222e-07
2.09622845642608e-07
-1.33539287405476e-06
-3.16914080956366e-07
1.47219811405795e-07
-4.92229736641436e-07
-2.16095571588983e-07
2.02618738138008e-07
1.91482196027707e-06
-1.44340264337334e-07
4.22947713710467e-07
3.81595388467886e-07
-1.61880513936706e-06
1.7501833738957e-07
2.44816020619582e-07
-1.49360926015631e-06
2.88219817119767e-07
6.82644085485363e-08
-1.40056240551137e-06
3.57021959739546e-07
-1.43488528465878e-07
-1.26491078779744e-06
3.8733440312134e-07
-3.80170690285705e-07
-1.07788425431864e-06
3.84443443209299e-07
-6.24779137439364e-07
-8.7562607085729e-07
3.56513256272398e-07
-8.75894018239418e-07
-6.86897599061203e-07
3.12078192077808e-07
-1.14185138436283e-06
-5.2085618440104e-07
2.56529886038368e-07
-1.41165158920924e-06
-3.76441797837018e-07
1.8873997819383e-07
-1.55067675690307e-06
-2.51874046938176e-07
1.16232923652869e-07
-6.27010563527198e-07
-1.5376250607766e-07
1.88282815199065e-07
1.68803248924448e-06
-9.48538314418346e-08
4.07023975395835e-07
1.71029817774646e-06
-9.7527188381482e-09
3.9933805737474e-08
1.0362293563011e-07
-1.93986517027599e-08
6.46442760477584e-09
2.20768777230177e-06
-2.34572623015816e-08
8.72596671242989e-08
-1.59440380558418e-07
-4.76364249614361e-08
6.54455398387431e-09
2.1251109333547e-07
-4.28634948958104e-08
1.79384662903243e-08
2.44949550732566e-06
-3.99127049535243e-08
1.39609254026075e-07
-1.59524620899991e-07
-9.49777551619914e-08
1.32341220369917e-08
-1.82927166690585e-07
-8.78690142428502e-08
1.85629964908689e-08
1.82629161105507e-07
-7.50918631186372e-08
3.45992738061403e-08
2.74391260626272e-06
-6.15688874643103e-08
1.98397643187249e-07
-1.20586026925556e-07
-1.62616786797983e-07
2.08512363444828e-08
-1.8705334620068e-07
-1.56190570893019e-07
3.42358819853772e-08
-2.80198283747696e-07
-1.42998623945488e-07
3.7792782578502e-08
1.72119488666203e-07
-1.1653544567557e-07
5.93119618439194e-08
2.93105939329055e-06
-8.43156830918185e-08
2.59232542967963e-07
-6.51132461778463e-08
-2.52875114487803e-07
3.0054398564542e-08
-1.45164807152119e-07
-2.4773035110904e-07
5.12956561348471e-08
-2.78078429291774e-07
-2.37716060818512e-07
6.42368833956963e-08
-3.87049037182449e-07
-2.08694745477099e-07
6.46374479610926e-08
1.35452897012912e-07
-1.58707396525194e-07
9.08277403905091e-08
2.9696024083436e-06
-1.05273033143065e-07
3.17270273308647e-07
-7.97475318785303e-10
-3.68986279874907e-07
4.13603626908672e-08
-8.7812599130335e-08
-3.63550693408514e-07
7.09882966490693e-08
-2.26799740340156e-07
-3.57016521207616e-07
9.18236101265014e-08
-3.9193450623016e-07
-3.27979167461549e-07
1.01869615954183e-07
-5.1762147223728e-07
-2.69618905164979e-07
9.53617182849996e-08
6.77978152220516e-08
-1.94722018645189e-07
1.25167368995351e-07
2.88851967317355e-06
-1.2314954447531e-07
3.68240820701642e-07
6.98996525321307e-08
-5.15073938440431e-07
5.52566726479265e-08
-2.18695836764304e-08
-5.06176247224642e-07
9.50931927528765e-08
-1.63112374961302e-07
-5.00820071374684e-07
1.22959122155195e-07
-3.37776685709786e-07
-4.69623703301875e-07
1.39443958768635e-07
-5.32371222970077e-07
-4.03546726723073e-07
1.4175514348381e-07
-6.69594075523457e-07
-3.15445062218454e-07
1.24308427803981e-07
-2.7025209461238e-08
-2.21879071913136e-07
1.57584951841092e-07
2.73244540867509e-06
-1.37750071589365e-07
4.08348366156052e-07
1.47080168942923e-07
-6.96692726525907e-07
7.312239195888e-08
5.02524151945045e-08
-6.79517989552243e-07
1.25441858867367e-07
-9.35509464915127e-08
-6.70865672678117e-07
1.61283279800739e-07
-2.72761387023788e-07
-6.32301755831549e-07
1.8174038461111e-07
-4.79017445016522e-07
-5.53812398967221e-07
1.87721711481418e-07
-6.94674534669925e-07
-4.51469811946732e-07
1.7711097452008e-07
-8.40464468214311e-07
-3.43023539170849e-07
1.45934307570175e-07
-1.43553504903445e-07
-2.39478598824191e-07
1.83316102061589e-07
2.53361233334445e-06
-1.50396625831173e-07
4.3410621627043e-07
2.31903821409541e-07
-9.20671102040139e-07
9.6488965989579e-08
1.2772013715586e-07
-8.88074310311354e-07
1.64335760543315e-07
-2.0350579649234e-08
-8.69539808389054e-07
2.09768074659316e-07
-2.05063052640917e-07
-8.16260309897538e-07
2.34172324542279e-07
-4.17221579757019e-07
-7.17686726840375e-07
2.39459656760908e-07
-6.44188835040558e-07
-5.95113319096416e-07
2.28986373433137e-07
-8.76846140443573e-07
-4.69495901751858e-07
2.01474181122402e-07
-1.02860531679176e-06
-3.50816004309023e-07
1.55179574389954e-07
-2.73513060124662e-07
-2.45425915740178e-07
1.98281850160588e-07
2.30899687235141e-06
-1.57429332312075e-07
4.43983420957368e-07
3.25714548196497e-07
-1.19434098106497e-06
1.27261264505177e-07
2.10387294968671e-07
-1.13603312192077e-06
2.14485546106949e-07
5.49335177280951e-08
-1.09851183161199e-06
2.71297956467723e-07
-1.37263515156094e-07
-1.0210814222915e-06
3.00086912721764e-07
-3.56863154713575e-07
-8.93183221921945e-07
3.03409785001979e-07
-5.8821345424346e-07
-7.42464663212392e-07
2.86978845992771e-07
-8.30463362802219e-07
-5.94004009955682e-07
2.55957249662906e-07
-1.07879424578243e-06
-4.57976149831512e-07
2.09294235058822e-07
-1.23124611728779e-06
-3.37905505469542e-07
1.48152516734012e-07
-4.10359579506922e-07
-2.39401469276718e-07
2.00042782958328e-07
2.07277904717678e-06
-1.59126544278617e-07
4.36521339368192e-07
4.30478438434183e-07
-1.52341551822192e-06
1.67832291941278e-07
2.98611855287296e-07
-1.42512354781082e-06
2.79030023173587e-07
1.31176289210192e-07
-1.35664207738794e-06
3.48958252582837e-07
-7.15523152958756e-08
-1.24363603171846e-06
3.82009571398902e-07
-3.00423461572576e-07
-1.07620574442278e-06
3.82425759584888e-07
-5.37779005779851e-07
-8.89181047785274e-07
3.57717172423833e-07
-7.80807680247111e-07
-7.11737221925495e-07
3.16145626908316e-07
-1.03722724304457e-06
-5.54247267957933e-07
2.6305715039549e-07
-1.29883509436091e-06
-4.17238819364369e-07
1.97132148954757e-07
-1.44269683992875e-06
-3.01111377746241e-07
1.24255470198335e-07
-5.47192906127863e-07
-2.1125330381141e-07
1.89733292020452e-07
1.83491738012012e-06
-1.41182189294455e-07
4.17257658210331e-07
5.5083603179572e-07
-1.90601433591052e-06
2.20784329329009e-07
3.94602508244559e-07
-1.74822509471115e-06
3.60821835981848e-07
2.08652198373899e-07
-1.63352243532553e-06
4.4476828443634e-07
-9.2771766023883e-09
-1.47203632483305e-06
4.81014429743091e-07
-2.49900550892547e-07
-1.25507054032594e-06
4.76667845712357e-07
-4.94460771887084e-07
-1.02485334737411e-06
4.41925911448194e-07
-7.39644018820752e-07
-8.14031357260166e-07
3.87132381739285e-07
-9.93041193995205e-07
-6.32670284535871e-07
3.20470209860723e-07
-1.26352294343909e-06
-4.79278201427038e-07
2.46333426103907e-07
-1.53643323239845e-06
-3.49497769482345e-07
1.63491451919099e-07