/*--------------------------------*- C++ -*----------------------------------*\
  =========                 |
  \\      /  F ield         | OpenFOAM: The Open Source CFD Toolbox
   \\    /   O peration     | Website:  https://openfoam.org
    \\  /    A nd           | Version:  12
     \\/     M anipulation  |
\*---------------------------------------------------------------------------*/
/*   Windows 32 and 64 bit porting by blueCAPE: http://www.bluecape.com.pt   *\
|  Based on Windows porting (2.0.x v4) by Symscape: http://www.symscape.com   |
\*---------------------------------------------------------------------------*/
FoamFile
{
    format      ascii;
    class       volVectorField;
    location    "700";
    object      U;
}
// * * * * * * * * * * * * * * * * * * * * * * * * * * * * * * * * * * * * * //

dimensions      [0 1 -1 0 0 0 0];

internalField   nonuniform List<vector> 
10123
(
(1.2319179095706e-06 0.000814042484066758 -2.37968268546026e-06)
(3.72528432168776e-06 0.000769490698506906 -1.35845564601537e-05)
(4.4948131190015e-06 0.000729280010619749 -5.34873330979039e-05)
(-4.12939351871814e-07 0.000971801296874736 9.21238804291622e-06)
(4.53939634733898e-06 0.000726904326408332 -2.20016023918129e-05)
(5.17257147379675e-06 0.000674366197591163 -6.81585017806407e-05)
(3.81280123623927e-06 0.000924255999569591 -6.04045925842769e-06)
(5.57598288075609e-06 0.000510697924112417 -0.000123240475824008)
(9.40714749086202e-06 0.000874058914180828 -3.20090074625252e-05)
(-1.02527621963165e-05 0.00105308261562837 1.64265991078637e-05)
(3.31829904784558e-06 0.000680701204625727 -2.1702792012031e-05)
(5.23099522264475e-06 0.000627447778227736 -7.58517041678215e-05)
(4.98968666223252e-06 0.000878569209625714 -1.5147833661627e-05)
(5.60298161281173e-06 0.000463741485949316 -0.00013157611226041)
(1.07404467857121e-05 0.000819754070491153 -5.01883688087157e-05)
(-7.10250813589122e-06 0.00100501350838847 -7.36612245527927e-07)
(6.24190219366771e-06 0.000383685567327893 -0.000187454881816068)
(1.48070429417457e-05 0.000600017612314116 -0.000101479853062658)
(8.20727898303101e-06 0.000953791737110256 -1.66813066214556e-05)
(-2.40956398892177e-05 0.00109827579872585 1.99204201142434e-05)
(2.30346358533517e-06 0.000624366606957715 -1.99840564281189e-05)
(4.38796785443387e-06 0.000579630961002654 -7.30164911955438e-05)
(2.13088533180467e-06 0.00082522309659754 -1.54980131220412e-05)
(5.39768610452623e-06 0.00042163431610742 -0.000131650353669465)
(1.07211938042506e-05 0.000770713273172333 -6.08229647085065e-05)
(-6.56852839313758e-06 0.000958989208006319 -1.14289809736115e-05)
(6.16921171550328e-06 0.000343094668327763 -0.000191361680362803)
(1.48488255528781e-05 0.000553451681244041 -0.000112977574513628)
(9.57476637818836e-06 0.000900609546748793 -3.76684395800409e-05)
(-2.23104617261572e-05 0.0010496486579985 1.57471425949224e-06)
(7.26586131521653e-06 0.000294459286286766 -0.000250942203523275)
(1.81578843055851e-05 0.000438855488152195 -0.000166413740736032)
(2.11097052470373e-05 0.000660520146009136 -8.41059270616626e-05)
(3.89126874635282e-06 0.00100309230124506 -7.23596442660048e-06)
(-4.26049316514375e-05 0.00113470910553747 2.1415084178663e-05)
(1.25979518823509e-06 0.000571544103461347 -1.80440534196176e-05)
(3.43372344088552e-06 0.000531392692359411 -6.71901900759459e-05)
(-4.36706990761001e-07 0.000760606981060297 -1.52923882632381e-05)
(4.89026212557925e-06 0.000381356966523723 -0.000124596300706164)
(8.70588787676476e-06 0.000718491831488502 -6.03921971684476e-05)
(-9.6663159375796e-06 0.000904402636046506 -1.27495242960377e-05)
(5.95530259119085e-06 0.000305858424488099 -0.000186402090692423)
(1.43618099695652e-05 0.000509897830951881 -0.000116264579297848)
(9.09693768824495e-06 0.000851464816428853 -5.06550569357441e-05)
(-2.24600477727924e-05 0.00100263528107879 -1.00057241585541e-05)
(7.19801413298878e-06 0.000258279392245081 -0.000250999792960736)
(1.80012465216665e-05 0.000398442765966212 -0.000173502130306072)
(2.14559492296337e-05 0.000614626947732285 -9.83899851125828e-05)
(4.98300102696737e-06 0.000950135920481761 -3.05489542027701e-05)
(-4.13716755664781e-05 0.00108607795054872 2.19395666328391e-06)
(8.73869165053834e-06 0.000221581189351394 -0.000314556377521917)
(2.18523521084993e-05 0.000337228609349144 -0.000229158659893605)
(2.89261261844723e-05 0.000485285456244418 -0.000147926017195731)
(2.54759040460043e-05 0.000708155572834972 -7.19184676702704e-05)
(-4.49755002169034e-06 0.00104985616504506 -1.00742799629189e-06)
(-6.41985170752441e-05 0.00116693576247538 2.24331447137568e-05)
(3.23385998714482e-07 0.000523621272445566 -1.58224457503255e-05)
(2.50607310866192e-06 0.000487355080306153 -5.93626282991955e-05)
(-2.82365347926607e-06 0.000699850605103181 -1.37719579722675e-05)
(4.27529301687101e-06 0.000344115764181677 -0.000113277105542037)
(6.22315249891319e-06 0.000664888250221406 -5.66934322438475e-05)
(-1.2785387502349e-05 0.000836849930577365 -1.31386539345808e-05)
(5.54788545588037e-06 0.000271594737889037 -0.000174222321907257)
(1.30657087145865e-05 0.000466912023199909 -0.000111959338338056)
(6.51377466245077e-06 0.000797821290957945 -5.22018735687365e-05)
(-2.50347348704462e-05 0.000946539178994333 -1.23533785908224e-05)
(6.96936114126033e-06 0.000225202322557842 -0.000241106117832134)
(1.74746940821459e-05 0.000360139853989092 -0.000171748520466382)
(2.07208068025813e-05 0.0005706263948721 -0.000104423313882071)
(4.2098554649997e-06 0.00090059503469029 -4.54218489378933e-05)
(-4.15798182972006e-05 0.00103844207737002 -9.65445293237474e-06)
(8.65950234594152e-06 0.000188300512689759 -0.000310900943604341)
(2.17280439995037e-05 0.000300962274970411 -0.000232722907940296)
(2.90455247842199e-05 0.000445025191665896 -0.000158201221882509)
(2.62183108294107e-05 0.000662101451193678 -8.88401280333937e-05)
(-3.17446062690497e-06 0.000996529049731286 -2.62717552967306e-05)
(-6.27825645865969e-05 0.00111916544782598 2.48317463877081e-06)
(1.07855740003893e-05 0.000158188780994764 -0.000381035655359145)
(2.6557590025795e-05 0.000259902334629031 -0.000290941364332608)
(3.60769489979411e-05 0.000377811247181488 -0.000209321504692423)
(3.88109191049277e-05 0.000528502200814459 -0.000133870254764706)
(2.68658335744553e-05 0.000755529860884947 -6.27697656285857e-05)
(-1.666558132523e-05 0.00109773733223787 3.06946210885556e-06)
(-8.73537840651527e-05 0.00119840279430326 2.36456246207132e-05)
(-5.04186850372237e-07 0.000480935550191982 -1.33458630189692e-05)
(1.64154106350327e-06 0.000448522842520888 -5.05220022506362e-05)
(-5.07167078682667e-06 0.000644493349182394 -1.22771569244394e-05)
(3.62882741888781e-06 0.000311457493139334 -9.9168654703575e-05)
(3.71929225121669e-06 0.00061554377514818 -5.05562326083769e-05)
(-1.55847303553048e-05 0.000773209766816222 -1.13675530912275e-05)
(5.04174517293978e-06 0.000241475349241104 -0.00015699616095383)
(1.13689063184059e-05 0.000426461497993141 -0.000103026103793988)
(3.24845270281661e-06 0.000741775024932042 -5.01894348419052e-05)
(-2.80152750235967e-05 0.000876536258939006 -1.3013661153979e-05)
(6.56983038846338e-06 0.000195723160863962 -0.000223334808197909)
(1.63962579913757e-05 0.0003240527960241 -0.000162412430140196)
(1.88590793275144e-05 0.000526130896501007 -0.000102634648965555)
(1.50944303700167e-06 0.000845761551446505 -4.85052060893615e-05)
(-4.34354264554913e-05 0.000981060124018417 -1.24092356913985e-05)
(8.39470649238926e-06 0.000158346692327912 -0.000295963750947486)
(2.1151334746819e-05 0.000266813672800279 -0.000226255987176658)
(2.82899242243025e-05 0.000405973109803269 -0.000159550206800191)
(2.54231100569392e-05 0.000617386356269334 -9.73028878078914e-05)
(-3.76444832721278e-06 0.00094614730794652 -4.26602903235402e-05)
(-6.25210241089148e-05 0.00107152404452747 -9.4467457814932e-06)
(1.06609157900635e-05 0.00012645551907142 -0.000373400060703331)
(2.64133541968111e-05 0.000226354436726864 -0.000291340748224779)
(3.62013589794124e-05 0.000341278766423179 -0.000216512611179294)
(3.94114842656097e-05 0.000487697323427857 -0.000147146562603124)
(2.82370105240971e-05 0.00070871680918374 -8.20685591899129e-05)
(-1.46802840093018e-05 0.00104384249434945 -2.37479758661955e-05)
(-8.52520916491812e-05 0.00115223730713673 2.92298620127607e-06)
(1.34752034629675e-05 9.97379178262948e-05 -0.000453131978610567)
(3.27226282656504e-05 0.000194681540170661 -0.000354924948776061)
(4.45581428171182e-05 0.000298248071564434 -0.00026926105538346)
(4.99657905519445e-05 0.00041879410247524 -0.000193321288859562)
(4.63658303328733e-05 0.000573582527193221 -0.000122434360570425)
(2.47331685380454e-05 0.000804028116684438 -5.55932507575826e-05)
(-3.19672617903391e-05 0.00114726772176436 5.54844978155978e-06)
(-0.000110813273107183 0.00123100299325952 2.42340286219896e-05)
(-1.24783259951332e-06 0.000443757741057062 -1.07011070755509e-05)
(8.06605333765923e-07 0.000415392951610118 -4.11812622572129e-05)
(-7.17499477787361e-06 0.000594779256537853 -1.06108627971971e-05)
(2.97832750515006e-06 0.000283887380849583 -8.35555087453134e-05)
(1.30592850880074e-06 0.000571546670733387 -4.32578532709237e-05)
(-1.83590191176491e-05 0.000714882696941823 -1.0001657977018e-05)
(4.48347468341962e-06 0.000216157759272258 -0.000136486283809663)
(9.50068126622609e-06 0.000390477942310059 -9.09149089019948e-05)
(-1.641814329008e-07 0.000689732908638514 -4.53683240051603e-05)
(-3.09171134705595e-05 0.000810576626875925 -1.07940093526439e-05)
(6.06164626623645e-06 0.000170798515531548 -0.00019985140753664)
(1.49702398001699e-05 0.000291822904735056 -0.000147661392534044)
(1.63379383507055e-05 0.000483627982511136 -9.59302977634376e-05)
(-2.06290922099929e-06 0.000787899322526393 -4.7722875396456e-05)
(-4.5990300633662e-05 0.000909293656700154 -1.32850657716019e-05)
(7.94873240657676e-06 0.000132492812698925 -0.000272209877793421)
(2.00455946305492e-05 0.000235685800419296 -0.000211624998205802)
(2.66746815223692e-05 0.000368403741907022 -0.000153057644543586)
(2.323353580358e-05 0.000571450253592321 -9.76726936480352e-05)
(-6.14558696643067e-06 0.000889769056477942 -4.69264694116675e-05)
(-6.34899462024332e-05 0.00101321197883779 -1.21599435400114e-05)
(1.03135382321471e-05 9.85066387372342e-05 -0.00035292685337488)
(2.57025205091995e-05 0.000195243755458598 -0.000280270725868019)
(3.53762633470723e-05 0.000306120324746734 -0.000213533229624307)
(3.86014586225837e-05 0.000447573170861909 -0.00015132758469377)
(2.77093452644798e-05 0.00066287189656409 -9.26944794360098e-05)
(-1.4636699354547e-05 0.000992461194857036 -4.12700683680211e-05)
(-8.41700732264837e-05 0.00110504790136349 -9.07716044244721e-06)
(1.32647692818953e-05 6.83889556897551e-05 -0.000440933106102577)
(3.24554123842318e-05 0.000162608247839177 -0.000352028605499525)
(4.46318709966594e-05 0.000264172082722803 -0.000273874699476688)
(5.05521261508011e-05 0.000381404344379381 -0.000203971113106731)
(4.76490213669042e-05 0.000531732695999001 -0.000138409179628634)
(2.69218325890474e-05 0.000756297789115995 -7.68394079311389e-05)
(-2.89721707728861e-05 0.00109283711189464 -2.25248302785605e-05)
(-0.000107709886943927 0.00118679607777961 2.60822787942064e-06)
(1.68862111492387e-05 4.22348886683335e-05 -0.000533885660181464)
(4.06771412587508e-05 0.000135623607495459 -0.00042406962724019)
(5.52971223151871e-05 0.000232210411958455 -0.000330904049379335)
(6.24459966393591e-05 0.000338332520086498 -0.000251139827081359)
(6.17587814322699e-05 0.000462680959066428 -0.00017948054102194)
(5.04887512120548e-05 0.000620369875960905 -0.000112538325747182)
(1.89642886255516e-05 0.000853741979390606 -4.98810902398866e-05)
(-4.98675947341204e-05 0.00119906787700861 6.51611030371171e-06)
(-0.000133135269218939 0.00126463621593292 2.42261579071953e-05)
(-1.91503796362248e-06 0.000412119962277283 -8.0727395171647e-06)
(3.07523807114478e-08 0.000388097228992232 -3.17580326556742e-05)
(-9.0888782561588e-06 0.00055099973522345 -8.75907062452348e-06)
(2.31186578657365e-06 0.0002615654658016 -6.72943500938855e-05)
(-1.01325591712819e-06 0.00053344264963243 -3.53667040485591e-05)
(-2.09766854791036e-05 0.000662246454330266 -8.66607594068793e-06)
(3.90956392183501e-06 0.000195781990681579 -0.000114237497057722)
(7.57326763403304e-06 0.000359548919303631 -7.70279548368068e-05)
(-3.58656534517333e-06 0.00064297816982442 -3.92282603938908e-05)
(-3.39145550306496e-05 0.000750022082605267 -9.6408003190024e-06)
(5.48355947912471e-06 0.000150766595661344 -0.000172687912535911)
(1.33137307961919e-05 0.000264279722469565 -0.000129276098439746)
(1.34620262636943e-05 0.000445396602183213 -8.56590301049973e-05)
(-6.04061598762034e-06 0.000733906621161856 -4.38348900297176e-05)
(-4.87710934563743e-05 0.000841492088647116 -1.09031356277422e-05)
(7.37197907014927e-06 0.000111527196414102 -0.000242097526535804)
(1.85522140378907e-05 0.000208919982669694 -0.000190902721957483)
(2.44316661775055e-05 0.000334364868103098 -0.000140809818234255)
(2.01032370441757e-05 0.000527141968695977 -9.27937897018048e-05)
(-9.68515562865956e-06 0.000829981535002924 -4.70774253502735e-05)
(-6.54574618129722e-05 0.00094035510107945 -1.31157494057254e-05)
(9.75816217779445e-06 7.52218687622733e-05 -0.000322563253283173)
(2.44158976577727e-05 0.000167721332247473 -0.000260091108697865)
(3.36754036423219e-05 0.000273428088943779 -0.000202141586092929)
(3.65683979046816e-05 0.00040840959931643 -0.000147418283642565)
(2.55293432623229e-05 0.000615265447234236 -9.49219028714738e-05)
(-1.63867190883972e-05 0.000934421081821428 -4.64233679722705e-05)
(-8.41295668521315e-05 0.00104612214330105 -1.20198327729718e-05)
(1.2780278904412e-05 4.14711116315424e-05 -0.000414093842206604)
(3.14957971684154e-05 0.000133444728273405 -0.000336009478899502)
(4.35820897073354e-05 0.000231858703156835 -0.000266792035840042)
(4.96155401186327e-05 0.000344898955131057 -0.000204268485128662)
(4.70453584805957e-05 0.000490206965622765 -0.000145149523832465)
(2.69250431715337e-05 0.000709182719863184 -8.92633978239559e-05)
(-2.79464212975042e-05 0.00104040987850269 -4.08626982603882e-05)
(-0.000105609182192339 0.0011402982598836 -9.59561985938366e-06)
(1.65308104110584e-05 1.03219725782655e-05 -0.000516226098700158)
(4.01770627279043e-05 0.000103916270703869 -0.000417450789547475)
(5.51761991739239e-05 0.000199450149324832 -0.000332915669888726)
(6.29576690925658e-05 0.000303180900903324 -0.000259751180754531)
(6.30308418770133e-05 0.000424016256511154 -0.000193251985738702)
(5.25966112511601e-05 0.000577315675443994 -0.000130778002786765)
(2.21228491766913e-05 0.000805143305466333 -7.27314028683091e-05)
(-4.55948598856614e-05 0.00114434059078203 -2.25848752434044e-05)
(-0.000128955888940884 0.00122270094728129 1.7623984248569e-06)
(2.11721137626475e-05 -1.81022748201774e-05 -0.000626715882084966)
(5.0809442333217e-05 7.84662081572235e-05 -0.000501410641535222)
(6.89274970932542e-05 0.000173194405543428 -0.000397230854962069)
(7.78458143526601e-05 0.000272039542418331 -0.000310304672305967)
(7.8212753092621e-05 0.000381685949643398 -0.0002347568647318)
(7.00347858244995e-05 0.00050867819191836 -0.000166785442304024)
(5.0600587931899e-05 0.000668712239860532 -0.000103727903873985)
(9.57475497351308e-06 0.000905400939190975 -4.55793735636562e-05)
(-6.98475650221849e-05 0.00125396765387306 5.72739410073793e-06)
(-0.000152637166441097 0.00129882733474861 2.28190450207945e-05)
(-2.41065534154062e-06 0.000385828067716208 -5.57331950557288e-06)
(-6.44128469023154e-07 0.000366455896993532 -2.26947134539391e-05)
(-1.07332909418816e-05 0.000513109583183508 -6.88716550022924e-06)
(1.66631411692898e-06 0.000244358232023338 -5.12157539612675e-05)
(-3.1763117607346e-06 0.00050135792485472 -2.73033181091578e-05)
(-2.33442080327213e-05 0.000615603926871956 -7.19110683020996e-06)
(3.33313004166134e-06 0.000180273023216623 -9.14778999564231e-05)
(5.65696843453569e-06 0.0003338999485043 -6.23641625596762e-05)
(-6.90560242083747e-06 0.000602153907495825 -3.23829065617078e-05)
(-3.67975151479091e-05 0.000695222584767738 -8.52073210613923e-06)
(4.87192540121418e-06 0.00013558348994638 -0.000143657343128432)
(1.15407894155994e-05 0.000241617951530627 -0.000108840841089612)
(1.04176209944536e-05 0.000412130538318612 -7.33070689398157e-05)
(-1.01974076194992e-05 0.000685190411796812 -3.85337444202518e-05)
(-5.17267722174553e-05 0.000779054917729339 -9.83883793470724e-06)
(6.71144936265553e-06 9.56196324970854e-05 -0.000207998253272573)
(1.67986279187237e-05 0.000186965100841117 -0.000166101140703818)
(2.1740041721251e-05 0.000304882714560162 -0.000124538965991615)
(1.64037524125093e-05 0.000486955904458208 -8.39881673753371e-05)
(-1.39511769106191e-05 0.000773984875355275 -4.4001148992928e-05)
(-6.79187725290736e-05 0.000871193950597022 -1.08469219015071e-05)
(9.05432351884674e-06 5.72737534809612e-05 -0.000285206674631836)
(2.26967652655417e-05 0.000144916992679097 -0.000233115625414914)
(3.12796307556182e-05 0.000244843763849841 -0.000184270858990161)
(3.35634878474504e-05 0.000372528206638971 -0.00013742221293405)
(2.20951438699919e-05 0.000569018495221974 -9.15855611758263e-05)
(-1.96107981136263e-05 0.000872690862005459 -4.73313940013044e-05)
(-8.53501095604463e-05 0.000972579664840258 -1.31715090928763e-05)
(1.20512615463441e-05 1.99392534219832e-05 -0.000376178327332154)
(2.9883413397748e-05 0.000108431395724882 -0.000309746307330877)
(4.15453366310803e-05 0.000202624333177016 -0.00025029360749138)
(4.74018478914283e-05 0.00031043771859297 -0.000195913099181821)
(4.48356392519194e-05 0.000449245721297684 -0.000143589735619099)
(2.50581105700928e-05 0.000659831486031893 -9.30716560283357e-05)
(-2.88317916004906e-05 0.000980695659256275 -4.67062603417159e-05)
(-0.000104565764179525 0.00108102290236566 -1.29098803891038e-05)
(1.5837776327848e-05 -1.63018924046251e-05 -0.000481810764263265)
(3.88249177700899e-05 7.57245461521907e-05 -0.000395787628225393)
(5.37125580480115e-05 0.0001689236255428 -0.000321479018394511)
(6.17200289507125e-05 0.000269321320145486 -0.000256438103119553)
(6.223854482722e-05 0.000385881394570738 -0.000196558308995263)
(5.24165952501539e-05 0.000534269953942492 -0.000139731393366694)
(2.28893480557977e-05 0.000756789318554426 -8.65936183406252e-05)
(-4.34003453666277e-05 0.00109092824897637 -4.15005498271365e-05)
(-0.000125791894965381 0.00117716510829702 -1.11637365588991e-05)
(2.06069815355214e-05 -5.13356604172774e-05 -0.000602327755416679)
(4.99344022414348e-05 4.61646131391201e-05 -0.000490371524001875)
(6.84547868569558e-05 0.000140681539324974 -0.000396340169676911)
(7.8144157478043e-05 0.000238052945679603 -0.000316934257729113)
(7.9417327022124e-05 0.000345096999358137 -0.00024694832769454)
(7.21419037452848e-05 0.000468602836107649 -0.000183184944285489)
(5.36492215243654e-05 0.000624473193033448 -0.000123832898736379)
(1.38196517338792e-05 0.000856037701681512 -6.98138676928183e-05)
(-6.41330084599967e-05 0.00119918827738696 -2.42137561435402e-05)
(-0.000147607793087457 0.0012594914737865 4.23736220464195e-07)
(2.65973452286022e-05 -8.53813459384778e-05 -0.00073556621799587)
(6.36327125721617e-05 1.93751524948593e-05 -0.000590209924412339)
(8.6164832161528e-05 0.000116883583316722 -0.000471180349973776)
(9.72278936581445e-05 0.000213323090526135 -0.000373654996265627)
(9.81223065760684e-05 0.000315243841106872 -0.00029103991228426)
(9.02194233524241e-05 0.000427309844021114 -0.000219078101920353)
(7.3980060235643e-05 0.00055644070136961 -0.000154823987757237)
(4.64840683389008e-05 0.000719185016985864 -9.61376636147959e-05)
(-3.2987885327748e-06 0.000960102753247365 -4.31110419096348e-05)
(-9.10690225080192e-05 0.00131314888602813 2.75403141592548e-06)
(-0.00016752897426256 0.00133346934014795 1.88083803068428e-05)
(-2.86862538735447e-06 0.00036449042156421 -3.25258103061623e-06)
(-1.2025293081675e-06 0.000350068957918111 -1.43270438416133e-05)
(-1.20969085370503e-05 0.000480988143072806 -5.07078770455731e-06)
(1.09606315887244e-06 0.000232007913155111 -3.60127478625954e-05)
(-5.11748653271182e-06 0.000475118739582739 -1.94408734060695e-05)
(-2.54013868217661e-05 0.000574953239655294 -5.74161318603828e-06)
(2.74900340269396e-06 0.000169401486949094 -6.92168147121535e-05)
(3.80790243331448e-06 0.000313497074480785 -4.77054423267356e-05)
(-1.00265780164225e-05 0.000567331264384332 -2.52393558107678e-05)
(-3.94644430986106e-05 0.000646440203801374 -7.23054726593142e-06)
(4.250874643562e-06 0.000125032480717707 -0.000114251132657348)
(9.73605288961056e-06 0.000223827009143744 -8.76360909129552e-05)
(7.3329296399308e-06 0.000384112756621002 -5.9962312432701e-05)
(-1.4332205697321e-05 0.000642336112184451 -3.24134172806395e-05)
(-5.46419633410883e-05 0.000722371001920816 -8.76369918683281e-06)
(6.01103790075633e-06 8.45874238774294e-05 -0.00017202416331404)
(1.48996214542644e-05 0.000169817183392526 -0.000139054519173831)
(1.87811758947054e-05 0.000280201399348001 -0.000105857912415561)
(1.23859610700982e-05 0.000451634126644851 -7.28866455202447e-05)
(-1.85891131845298e-05 0.00072318158021973 -3.94281915421702e-05)
(-7.06614964733434e-05 0.000807290232855138 -9.95385820260428e-06)
(8.25354220648202e-06 4.4703485850676e-05 -0.000243646753471835)
(2.06835992545176e-05 0.000127098299183619 -0.000201682817261898)
(2.83834927081102e-05 0.000220953819466813 -0.000161878248362973)
(2.98824830785907e-05 0.000341076652715203 -0.000123049061667693)
(1.78230368009485e-05 0.000526734495577847 -8.41027292814967e-05)
(-2.38637994334818e-05 0.000814628277621459 -4.50068089977364e-05)
(-8.73538438407067e-05 0.000902347441589991 -1.11577915529222e-05)
(1.114556186468e-05 4.39016621930342e-06 -0.00033065776093876)
(2.77741799939481e-05 8.85751963347307e-05 -0.000275970583278036)
(3.87370327940362e-05 0.000177881752015869 -0.000226540670952374)
(4.41508721048255e-05 0.000279888657218794 -0.000180719297654013)
(4.13052211204722e-05 0.000411342366770792 -0.000135666437556832)
(2.16348486277102e-05 0.000611576200315066 -9.1104530600066e-05)
(-3.15192671247253e-05 0.000917037544035691 -4.82594492526983e-05)
(-0.000105043644414296 0.00100707284530166 -1.43125072975111e-05)
(1.48564778901075e-05 -3.65902016398679e-05 -0.000435004836251161)
(3.67107204565395e-05 5.23781046752462e-05 -0.000362586126268873)
(5.11154078067129e-05 0.000142058322411914 -0.000299411349409356)
(5.90419879561637e-05 0.000238161222599522 -0.000243433952782706)
(5.97327062696098e-05 0.000349458265779985 -0.000191016334871672)
(5.0307320281258e-05 0.000491452105101259 -0.000140258767043457)
(2.15894489980925e-05 0.000705725201799325 -9.17442532768182e-05)
(-4.32778253734325e-05 0.00102953403528996 -4.79275476002516e-05)
(-0.000123882678304089 0.00111784149518962 -1.48009079797795e-05)
(1.96187068040115e-05 -7.81541386444875e-05 -0.000558653394423045)
(4.79963990629508e-05 1.81536154953003e-05 -0.00046201140194972)
(6.63500210290705e-05 0.000110968338475234 -0.000379972225360966)
(7.63682804457519e-05 0.00020582050266553 -0.00030983199239788)
(7.82554529510678e-05 0.000309437405311418 -0.000247105744486238)
(7.17187357960874e-05 0.000428752147446686 -0.000189134715278473)
(5.40931048749987e-05 0.00057993243143868 -0.000134666676980597)
(1.55362246259622e-05 0.000806531666902205 -8.48692429007439e-05)
(-6.06661905233127e-05 0.00114488601515742 -4.3570264517895e-05)
(-0.000143461911112435 0.00121523655806414 -1.3036668230786e-05)
(2.5727007513176e-05 -0.000120466534312408 -0.000702683157056819)
(6.22078794937384e-05 -1.43269987385729e-05 -0.000573751707015924)
(8.51544129768255e-05 8.36387462102896e-05 -0.000466878971686204)
(9.71396557012546e-05 0.000179453187374372 -0.000378115907904154)
(9.91323095359324e-05 0.00027970133234684 -0.00030176693071819)
(9.22913699392413e-05 0.000389175809382817 -0.000234276879904514)
(7.70302792023278e-05 0.000514968840401344 -0.000173394053224681)
(5.05457701879847e-05 0.000673811453634067 -0.000117814223672596)
(2.08550044205292e-06 0.000910088375891917 -6.85397214535868e-05)
(-8.38591372807671e-05 0.00125856699351624 -2.79159649229161e-05)
(-0.000161779194466477 0.00129707108209448 -2.99218785873575e-06)
(3.35366323853678e-05 -0.000164607156856568 -0.00086507798061884)
(7.99142551526145e-05 -4.5673184909676e-05 -0.000694158748182814)
(0.000107972230683807 5.95336606194556e-05 -0.000555850879766262)
(0.000121678987626973 0.000158000974472146 -0.000443962087213437)
(0.000122991149306857 0.000256844870955405 -0.000350971680487648)
(0.000114220808432702 0.000360771324799996 -0.000271991351513116)
(9.74958114565537e-05 0.00047478667248757 -0.00020375060961278)
(7.32555829842873e-05 0.000606384167372974 -0.000143872665413521)
(3.81249439150039e-05 0.000772664150150571 -9.04324667875157e-05)
(-1.92414026256136e-05 0.00101895525756402 -4.32022723565102e-05)
(-0.000112312848946036 0.0013781229312159 -2.99101362149332e-06)
(-0.0001758125595744 0.00136822589996949 1.30894707160348e-05)
(-3.26376440250134e-06 0.000347726763778223 -1.17467366711405e-06)
(-1.69449835068972e-06 0.00033843383258122 -6.75493098044827e-06)
(-1.3262792816441e-05 0.000454248652347673 -3.35353148870168e-06)
(6.10963375248195e-07 0.000224229124149327 -2.21398400398034e-05)
(-6.81901940614014e-06 0.000454362823995931 -1.20576899186185e-05)
(-2.71364260562084e-05 0.000540207842856939 -4.34106829041144e-06)
(2.20150530929779e-06 0.000162828890866713 -4.81180485380151e-05)
(2.03306163852418e-06 0.000298106444668976 -3.36459109962777e-05)
(-1.28690805449437e-05 0.000538404604405841 -1.81731590790358e-05)
(-4.18010218096467e-05 0.000603718607474655 -5.90661814215147e-06)
(3.62653956007048e-06 0.000118798879170823 -8.56697374728391e-05)
(7.94311011261024e-06 0.000210729896663017 -6.66729681813495e-05)
(4.32450620984775e-06 0.000361368912343564 -4.64061500101444e-05)
(-1.83003825065169e-05 0.000605464003850119 -2.58661684179263e-05)
(-5.73595860763765e-05 0.000671689200459482 -7.50198459641126e-06)
(5.29261500042587e-06 7.80952386079896e-05 -0.000135936657511291)
(1.29425246003296e-05 0.000157317320930544 -0.000111303681574707)
(1.57154355584241e-05 0.000260364721695994 -8.60970505767419e-05)
(8.24453954140034e-06 0.000421522334821946 -6.0578429411453e-05)
(-2.33354981669751e-05 0.00067816381561307 -3.39280912934888e-05)
(-7.34125947017177e-05 0.000748994608041357 -9.05031294613207e-06)
(7.39928821792652e-06 3.72017749329311e-05 -0.0002003410675462)
(1.85033730476039e-05 0.00011414118472073 -0.000167929341129482)
(2.51839234148219e-05 0.000201830550782592 -0.000136816551426654)
(2.57831602605506e-05 0.000314349582891005 -0.000105943599712017)
(1.30394543364894e-05 0.000489220415315173 -7.41429890081115e-05)
(-2.87189273461201e-05 0.000761592425108528 -4.11188093004762e-05)
(-8.9771208796884e-05 0.000837134642277862 -1.06146842551531e-05)
(1.01315662594223e-05 -5.25789498583479e-06 -0.000280823402875847)
(2.53335578369445e-05 7.40373406749657e-05 -0.000237431843506757)
(3.53779250178389e-05 0.000158045404788571 -0.000197823288508939)
(4.0140489605304e-05 0.000253939220379399 -0.00016059223532061)
(3.68424271050172e-05 0.000377733610035982 -0.000123078048818824)
(1.70956256023573e-05 0.000567104444368631 -8.48759140484199e-05)
(-3.55261670219995e-05 0.000856835451004736 -4.66379160074946e-05)
(-0.000106505784049329 0.000936007803938177 -1.26216266344777e-05)
(1.36730335912421e-05 -5.00132418945986e-05 -0.000380008982992517)
(3.40215732629014e-05 3.48120868426616e-05 -0.000321146075333852)
(4.76313482792472e-05 0.000120135796607244 -0.0002692913403008)
(5.51978037818607e-05 0.000211310355509727 -0.000222765564981236)
(5.58143969423887e-05 0.000316761617980604 -0.000178346548283502)
(4.65587978786281e-05 0.00045146322580382 -0.000134240599379708)
(1.84577030081251e-05 0.000655476925988763 -9.10347345101837e-05)
(-4.52555181766132e-05 0.000963870382413319 -5.00926080236013e-05)
(-0.000123628747723058 0.00104364440385424 -1.62458475957323e-05)
(1.82893204739064e-05 -9.73963882074503e-05 -0.00050111007052395)
(4.51550597852816e-05 -4.1088212311329e-06 -0.000420637859096666)
(6.29095890318455e-05 8.55993219781382e-05 -0.00035157455280181)
(7.29152091741702e-05 0.000176872544921819 -0.000291765119907969)
(7.51632306424951e-05 0.00027617393969546 -0.000237377616660413)
(6.91928189079985e-05 0.000390326416990456 -0.000186140612838375)
(5.23411337092506e-05 0.000535275817928263 -0.00013704396651244)
(1.5006533931313e-05 0.000753806002835391 -9.11817302736898e-05)
(-5.94771446294132e-05 0.00108184704934296 -5.04684519563234e-05)
(-0.000140811876700257 0.00115616828076772 -1.7174916070992e-05)
(2.43216385614367e-05 -0.000147662475277019 -0.000647435704507824)
(5.94353702063106e-05 -4.27332460249485e-05 -0.000537209096765039)
(8.21188414801012e-05 5.38978868511854e-05 -0.000444679142183838)
(9.45342977702196e-05 0.000147868511957836 -0.000366748031640322)
(9.73426641711456e-05 0.000245536519912939 -0.000298652233210001)
(9.14532246217112e-05 0.000351662072948407 -0.000237505992191798)
(7.71743175625731e-05 0.000473427834429233 -0.000181634970432427)
(5.17944329363786e-05 0.000627825548069623 -0.000130271128681761)
(4.87306636004566e-06 0.000859468776412578 -8.46699045575216e-05)
(-7.90864806718304e-05 0.00120350956926499 -4.75846994541387e-05)
(-0.000156935504184666 0.00125439363769254 -1.61439146057487e-05)
(3.22214126345115e-05 -0.000201751805986614 -0.000821254856097972)
(7.76922417966317e-05 -8.14086035366327e-05 -0.000670909498672415)
(0.000106168784063447 2.46716187327241e-05 -0.000547413475463863)
(0.00012098147407892 0.000123235933325019 -0.000445910432780903)
(0.000123632455289529 0.000221306861575899 -0.000360133561048811)
(0.000116145857396657 0.000323593776622085 -0.000286140455747092)
(0.000100545141811298 0.000435131626214831 -0.000221425196953524)
(7.73127117170531e-05 0.000563553534005122 -0.00016425960893745)
(4.3227856464503e-05 0.000726176050581844 -0.000113451783439031)
(-1.27034049309337e-05 0.000968389877433121 -6.96765134785432e-05)
(-0.000103623371071965 0.00132390742910587 -3.43470233228804e-05)