/*--------------------------------*- C++ -*----------------------------------*\
  =========                 |
  \\      /  F ield         | OpenFOAM: The Open Source CFD Toolbox
   \\    /   O peration     | Website:  https://openfoam.org
    \\  /    A nd           | Version:  12
     \\/     M anipulation  |
\*---------------------------------------------------------------------------*/
/*   Windows 32 and 64 bit porting by blueCAPE: http://www.bluecape.com.pt   *\
|  Based on Windows porting (2.0.x v4) by Symscape: http://www.symscape.com   |
\*---------------------------------------------------------------------------*/
FoamFile
{
    format      ascii;
    class       volScalarField;
    location    "300";
    object      nut;
}
// * * * * * * * * * * * * * * * * * * * * * * * * * * * * * * * * * * * * * //

dimensions      [0 2 -1 0 0 0 0];

internalField   nonuniform List<scalar> 
10123
(
3.58810728548293e-05
3.78072729762386e-05
0.000381649484607188
3.80154539686466e-05
3.95914284977341e-05
0.000391401170540035
4.00516678339627e-05
0.000971707021918165
0.000390495105129734
4.0724369666167e-05
4.12316749857846e-05
0.000400188919740662
4.19375881860607e-05
0.00099120240600864
0.000400470867850171
4.2895139095191e-05
0.00164199890915362
0.000981862188969239
0.000401670114716644
4.23207742785975e-05
4.27361403070529e-05
0.00040806215559991
4.36696828485982e-05
0.00100865773300276
0.00040943458093969
4.49069888564289e-05
0.00167226770723082
0.00100154650470077
0.000411927543082474
4.45722666593843e-05
0.00230883253279527
0.00164921349819688
0.000993726815102338
0.000408313505260292
4.17836727300798e-05
4.41119966859228e-05
0.000415158427832458
4.52575228360786e-05
0.00102428424414348
0.000417442891199652
4.67523746955163e-05
0.00169927817673821
0.00101915866310647
0.000421121039457107
4.66603159165659e-05
0.00235041699460766
0.00167960503617954
0.00101364508455015
0.000418738349396714
4.40110982194338e-05
0.00293359997551577
0.00231119501785163
0.00165496226836874
0.000999450109364958
0.000406259301697925
3.96485945584148e-05
4.53647065751685e-05
0.000421557624249098
4.67096364427971e-05
0.00103829643048288
0.000424665016801091
4.84432351526315e-05
0.00172342799636173
0.00103491216759883
0.000429311052200306
4.85741128467459e-05
0.00238742506034335
0.00170671955330383
0.00103145157725914
0.000428070953282596
4.60778670498175e-05
0.00298659165904393
0.00235281728154085
0.00168546155078268
0.00101948317956016
0.000416644175990123
4.17697668501879e-05
0.00350185673765107
0.00293094156848406
0.00230808014149416
0.00165300149987236
0.000993562592485253
0.000396808698767561
3.68877910359417e-05
4.64996223367165e-05
0.000427318930378404
4.80316333518957e-05
0.00105086071486305
0.000431179457911081
4.99893285650166e-05
0.00174501835504208
0.00104903678466255
0.000436701441763949
5.03272600614035e-05
0.00242043813495297
0.00173095578228627
0.00104736371634214
0.000436368642776932
4.7972283042612e-05
0.00303365610202342
0.00238985425062569
0.0017126681047678
0.00103738692453654
0.000425940383919346
4.37405945079951e-05
0.00356603992414331
0.00298387786513911
0.00234965214776949
0.00168345977930801
0.00101347752351479
0.000406968297305967
3.88682230862494e-05
0.00401142096524277
0.00349548371219325
0.00291882695292393
0.00229492608638873
0.00163859331891372
0.000976511481041769
0.000383345045013349
3.39531328713077e-05
4.75223911900055e-05
0.000432490509545862
4.9228791149113e-05
0.00106211358273146
0.00043704692528022
5.1396871751272e-05
0.00176430640138244
0.00106170183073699
0.000443370252679532
5.19304575720982e-05
0.00244987456026978
0.00175262092025234
0.00106163066131782
0.000443860847423443
4.9707534671574e-05
0.00307554850304328
0.00242288883780437
0.00173698143978646
0.00105337428869987
0.000434193684039609
4.55467257242964e-05
0.00362295692799019
0.00303088800161559
0.00238664408454484
0.00171063460946872
0.00103128022940712
0.000416070785225084
4.07111475259422e-05
0.00408641314330567
0.00355953361461473
0.00297154447424065
0.00233624554695809
0.00166876302378846
0.000996073883363255
0.000393170475009106
3.57816397230422e-05
0.00446564707264947
0.00400285967938908
0.00347610252119364
0.0028939647554914
0.002268405292406
0.00161134754789108
0.000951626500403023
0.000367817968888428
3.08717296790757e-05
4.8438656307021e-05
0.000437117021155798
5.03086665332275e-05
0.00107217050559004
0.000442315629090473
5.26715747332899e-05
0.00178151474762866
0.00107304592690434
0.000449380389233815
5.33901608024175e-05
0.00247609429134736
0.00177197525815916
0.00107442546201994
0.000450623788393613
5.12943619335182e-05
0.00311281482381232
0.00245234253317665
0.00175871563946418
0.00106771045344395
0.000441646326869514
4.72009379498645e-05
0.00367352648708002
0.00307272791711724
0.00241963819462246
0.00173491836226032
0.00104716983635206
0.000424139759588026
4.23991331082461e-05
0.00415283314145984
0.00361632605509895
0.00301836036855774
0.00237302301110444
0.00169569169586219
0.00101357294953887
0.000401987506116299
3.74861656599375e-05
0.00455099278895682
0.00407766389948257
0.00353978229538948
0.00294619649299982
0.00230919560470483
0.00164096632730348
0.000970661162071733
0.000377252415379002
3.2539494613679e-05
0.00486956208806658
0.00445582913355232
0.00397834651794634
0.00344106136682644
0.00285417101307084
0.00222789257790804
0.00157329062707608
0.000921230104694505
0.000350522337618444
2.75990479933586e-05
4.92546765187106e-05
0.000441238638111707
5.12755573959879e-05
0.00108113352073879
0.00044703073408354
5.38216179646744e-05
0.00179683759440954
0.00108318566796251
0.000454780058412125
5.47132491134112e-05
0.00249941423435593
0.00178924295937275
0.00108588962362905
0.000456723159236897
5.27400684100122e-05
0.00314592672117898
0.00247857758742626
0.00177813412038808
0.00108057062171574
0.000448374682015064
4.87136795881417e-05
0.00371842377678193
0.00310994654011868
0.00244905823504549
0.00175662905566571
0.0010614193987683
0.000431421347408933
4.39445204209631e-05
0.00421175761931189
0.00366678096696223
0.00306002930304143
0.00240583155648397
0.00171975817791068
0.00102918595844959
0.000409790224323997
3.90458933483632e-05
0.00462650276769185
0.0041439100686493
0.00359624583762131
0.00299259378448279
0.00234551776899454
0.00166741819829486
0.000987706307619585
0.000385737001096169
3.40973335496703e-05
0.00496477885608299
0.00454094778511773
0.00405265771056639
0.00350403072228923
0.00290559379449313
0.00226786166707207
0.00160213312655224
0.000939612500702883
0.000359528513811479
2.90961218651755e-05
0.0052281613889545
0.00485885385788567
0.00442766628631433
0.00393516512770156
0.0033887295187708
0.00279884500582493
0.00217417784345968
0.00152598202969056
0.000885935579772865
0.000331173963021867
2.41480509272562e-05
4.99765705522814e-05
0.000444893004023071
5.21372289604546e-05
0.00108909389273912
0.000451231943706114
5.48514749848763e-05
0.00181044631724864
0.00109222375323272
0.00045961500533637
5.59063350734069e-05
0.00252011421428968
0.00180461927072815
0.00109614057119643
0.000462207500346503
5.40511241147358e-05
0.00317530038728059
0.00250191122601247
0.00179546270712099
0.00109209897459667
0.000454446730480412
5.00929819644314e-05
0.00375823372978307
0.0031430160490862
0.00247526730073826
0.00177603108197169
0.0010742051330939
0.000437996513707648
4.53582888739642e-05
0.00426398764990364
0.00371157565285223
0.00309710051251403
0.00243509290047832
0.00174127886837861
0.00104318514465417
0.0004168207083829
4.04728890306291e-05
0.00469340624856049
0.00420267587068186
0.00364641149231939
0.00303389995904213
0.00237793015745422
0.00169106289218151
0.00100290863504877
0.00039322766757646
3.55209718072326e-05
0.00504894102393933
0.00461624849964784
0.00411846572193873
0.00355987885773439
0.00295129143446243
0.00230347001556243
0.00162790923089174
0.000956096585424965
0.000367635144358983
3.04978961007222e-05
0.0053327547376297
0.00495380968301376
0.00451218962082552
0.00400856183800818
0.00345059894008109
0.00284912350197907
0.00221305309246036
0.00155385918746464
0.00090356661830874
0.000339715295186707
2.54652538491341e-05
0.00554594587331864
0.00521664984987044
0.00482779643879641
0.00437790938500804
0.00387171768211229
0.00331856188136973
0.00272794110400819
0.00210774951048046
0.00146977462233191
0.000845467792560509
0.000309515870567728
2.0576611849406e-05
5.06102260081661e-05
0.000448120574426289
5.28984583778724e-05
0.00109613605581298
0.00045495908340515
5.57693540318929e-05
0.00182249336404946
0.00110025155228323
0.000463925475212776
5.69754020690654e-05
0.00253844175830793
0.00181827621684277
0.00110528127895689
0.000467121069381097
5.52340678959617e-05
0.00320130537827535
0.00252262378755051
0.00181089724853585
0.00110241334024096
0.000459911257261476
5.13445825966161e-05
0.00379347458616554
0.00317235292090524
0.00249858217163381
0.00179335130620623
0.00108567269016264
0.000443934607541928
4.66479534712401e-05
0.00431022046316379
0.00375129504710751
0.00313004450553227
0.00246116725084174
0.00176051696355761
0.00105574917660297
0.000423170080649383
4.17786640240464e-05
0.00475262727559266
0.00425476453618401
0.00369095560952935
0.00307065849515409
0.0024068472239608
0.00171221011449457
0.00101653185477629
0.000399960304337121
3.68219969789727e-05
0.00512342633562193
0.00468296165231364
0.00417684625766618
0.00360951020836161
0.00299198972245032
0.00233525706540098
0.0016509540745007
0.000970790321791976
0.000374771947380046
3.17759171635637e-05
0.00542511955501869
0.00503773214113057
0.00458696155135076
0.00407357614742708
0.003505493653451
0.00289382484202101
0.00224770497894537
0.00157879183497262
0.000919396125215163
0.000347414256901518
2.67019992454779e-05
0.00565941521097975
0.00532094818922197
0.00492206308836751
0.00446132966872986
0.00394372571859214
0.00337893296888825
0.00277674895282742
0.00214527914186855
0.00149651743579281
0.000862255502965123
0.000317550306695484
2.17076141296828e-05
0.0058269396543358
0.00553364129562225
0.00518303545165638
0.00477243817098836
0.00430467597935298
0.00378748895398627
0.00323009668285079
0.00264102430023442
0.00202827493332573
0.00140416261338039
0.000799260332192467
0.000285374358929991
1.69737595089648e-05
5.11607002845248e-05
0.00045095059663219
5.35671077657928e-05
0.00110233027439644
0.000458248023985724
5.65805147308561e-05
0.00183311528162417
0.0011073529196361
0.000467751733802112
5.79279727878252e-05
0.00255461640465807
0.00183036659227384
0.00111340338025522
0.000471504916164554
5.6294818279144e-05
0.00322426896247276
0.00254096304375524
0.00182460973834904
0.00111161580227636
0.000464812291369305
5.24745614745596e-05
0.00382460540504497
0.00319832596024579
0.00251928254284265
0.00180878510314634
0.00109593961782963
0.000449284704173209
4.78189894839415e-05
0.00435107459895006
0.00378645652649087
0.00315927565720922
0.00248437017509443
0.00177769843200056
0.00106702407834201
0.000428910183692988
4.29704146958676e-05
0.00480497294380018
0.00430087282558683
0.00373045965816044
0.00310333433388668
0.00243262391068925
0.00173112035022298
0.00102876071380295
0.000406043113465504
3.80123857591753e-05
0.00518927935459986
0.00474201352998819
0.00422860075400446
0.00365359269581525
0.00302822079718053
0.0023636260237304
0.00167156643912125
0.000983945203594608
0.00038117447446604
3.29418734301715e-05
0.00550677878054335
0.00511200009927732
0.00465320998350446
0.0041312670559708
0.00355429662559615
0.00293365293484695
0.00227864991239805
0.00160108529395478
0.000933493519656741
0.000354151852874849
2.78259824805289e-05
0.00575952557861542
0.00541304283716696
0.00500537408190558
0.00453514379115576
0.00400753555387681
0.00343252275809064
0.00282016369621376
0.00217874989557965
0.00152045442300078
0.000877349749710033
0.000324801185136816
2.27731370382967e-05
0.005948780884222
0.00564677931642822
0.00528655150339649
0.00486541970154932
0.0043864222310142
0.00385762793299844
0.00328857692030061
0.00268804412828864
0.00206421845784458
0.00142960981316629
0.000815112674691129
0.000292862360122646
1.79167585202887e-05
0.00607478755305974
0.00581385924180147
0.00549765319707496
0.00512268054512908
0.00469047284124352
0.00420743827627093
0.00368189762844835
0.00312228984591039
0.00253699221723834
0.0019346693244754
0.00132806976097133
0.000746561935192442
0.000258608093196338
1.34436437774638e-05
5.16337268997647e-05
0.000453407040885209
5.41478592688838e-05
0.001107747699328
0.000461130310421891
5.72930123645701e-05
0.00184243358054115
0.0011136022328491
0.000471128989449971
5.87714250453647e-05
0.00256883329852466
0.00184102717848443
0.00112059070414948
0.000475398658116174
5.72404071461437e-05
0.00324447980794653
0.00255714859436041
0.00183675271573626
0.0011197976416147
0.000469188958631746
5.34888095109516e-05
0.00385203255294181
0.00322126158439488
0.00253761518565973
0.00182250321000896
0.0011051068238984
0.000454087662125691
4.88769132846186e-05
0.00438709799764093
0.0038175180695717
0.00318516037188122
0.00250497880136682
0.00179301677304455
0.00107712638098784
0.000434087879061552
4.40529282284822e-05
0.00485115983194879
0.00434161790913895
0.00376543712715336
0.00313233707630159
0.00245557150337731
0.00174801699806902
0.00103974176479374
0.000411548439317221
3.90991196662706e-05
0.00524741438981303
0.0047942104295857
0.00427442112142678
0.00369269945834301
0.00306044024171658
0.00238892388527555
0.00169000367577228
0.000995755298124438
0.000386958394736627
3.40084135163358e-05
0.00557889553854658
0.00517766035176451
0.00471185869882824
0.00418242522125169
0.00359766067706137
0.00296912428146788
0.00230627654920023
0.00162102478993539
0.000946104007811633
0.000360181070294038
2.88489999802387e-05
0.0058479429576781
0.00549445786247271
0.00507910513905865
0.00460055999207507
0.00406418013620267
0.00348018759567647
0.00285886310000586
0.00220865095348487
0.00154185715000775
0.000890766424486163
0.00033109714918948
2.37376702909495e-05
0.00605617545091468
0.00574658747097151
0.00537795318030567
0.00494761510944731
0.00445878451823023
0.00391981066486902
0.00334051367332658
0.00272988956624658
0.00209629277868797
0.00145240595135894
0.000829385874392194
0.000299626343008157
1.88091993179975e-05
0.00620449460197824
0.00593533121978783
0.00560991376276818
0.00522473009515841
0.00478149579104761
0.00428693548826145
0.00374969612586368
0.00317848993253622
0.0025819093270705
0.00196878892457018
0.00135206042235675
0.000761388967627988
0.000265513283758271
1.42046505880364e-05
0.00629282384012124
0.00606097298827883
0.00577565839583414
0.00543274519860663
0.00503283270050385
0.00458131681257659
0.00408563610924559
0.00355358291682521
0.00299340359677885
0.0024140629365804
0.00182513616906015
0.00123984793877583
0.000686303056047256
0.000228967672880627
1.00491710638062e-05
5.2033954325086e-05
0.000455523569350625
5.46466248334802e-05
0.00111245233569351
0.000463635079177889
5.79119694864809e-05
0.00185055603743404
0.00111906770163153
0.000474089419042309
5.9511723646386e-05
0.00258126529471351
0.00185037980600502
0.00112691822893013
0.000478837185453575
5.8077858532524e-05
0.00326219418211442
0.00257137557158436
0.00184746263493796
0.0011270417902264
0.000473078953603328
5.43935039242878e-05
0.0038761154656949
0.00324144849146698
0.00255379870308763
0.00183465684281342
0.00111326329572407
0.000458380798164591
4.98270457795218e-05
0.00441877466780317
0.00384488490265464
0.00320802270677956
0.00252323730356182
0.00180664014460185
0.00108615370460758
0.000438739746599647
4.50314550527619e-05
0.00489182239791239
0.00437754604965313
0.00379634224841527
0.00315802844888723
0.00247596279298362
0.00176309013169082
0.00104958857943618
0.000416517610712838
4.00867486137563e-05
0.00529864423187492
0.00484026717442556
0.00431491925720337
0.00372733641658739
0.00308904972315221
0.00241145535331295
0.0017064854872083
0.00100636672213695
0.000392194919294475
3.4982389448102e-05
0.00564248924290997
0.00523562621573039
0.00476370796278668
0.0042277317173499
0.00363614569010334
0.0030006817726484
0.00233092186457902
0.00163886414557218
0.000957423765974064
0.000365627399339657
2.97843513432888e-05
0.00592594749573945
0.00556635847491961
0.00514429973999061
0.00465848894137811
0.00411443110154801
0.00352255987098382
0.00289334442063003
0.00223535363568299
0.00156099772442215
0.000902752856551112
0.00033671315331088
2.46128088038819e-05
0.00615092976326792
0.00583473262240035
0.00545876046403948
0.0050203772615091
0.00452294004112355
0.00397503753318355
0.00338673146762365
0.0027672077023341
0.00212495561988837
0.00147278274926656
0.000842039287950984
0.000305446417864801
1.96123160357443e-05
0.00631870995774096
0.00604239004232575
0.005708946208428
0.00531485969287003
0.00486199347702248
0.00435734123113162
0.00380983485801132
0.00322842802203699
0.00262190488496962
0.00199925343218055
0.00137356823272886
0.00077475303107299
0.000271739058665848
1.49281639634627e-05
0.00642987982315042
0.00619027222297409
0.00589615599807101
0.00554335663134224
0.00513263839042745
0.00466970536987226
0.00416232498776212
0.00361857312347859
0.00304693133615806
0.00245655917306397
0.00185718897274681
0.00126221575718169
0.000700008236457611
0.000235254267119273
1.06369050614597e-05
0.00648403408021607
0.00627833213074161
0.00602073931552102
0.0057065961420705
0.00533575677122449
0.00491282385737654
0.00444447199253893
0.00393777989551544
0.00340037632724828
0.00284104340385561
0.00226970786217914
0.00169704645140086
0.00113703480369006
0.000616735132412961
0.000195697994463703
6.80828825525441e-06
5.23648595806975e-05
0.000457318090333992
5.50685987459938e-05
0.00111648471046366
0.000465791524928088
5.84433517588877e-05
0.00185757749139479
0.0011238099326218
0.000476662544444499
6.0154902239141e-05
0.00259206511058241
0.00185853268003802
0.00113245319188351
0.000481852023104134
5.88130624866305e-05
0.00327763819557638
0.00258381688031
0.00185686103846299
0.00113342226980355
0.000476514849033179
5.51946504498929e-05
0.00389717148765597
0.00325914241404591
0.00256802722462719
0.0018453809879129
0.00112048961592982
0.000462199555417856
5.06753218264505e-05
0.00444653405002523
0.00386891549303081
0.0032281494557238
0.00253936178587973
0.00181871688233488
0.0010941919125327
0.000442901777828573
4.59111331551374e-05
0.00492752155765173
0.00440914022288906
0.00382357678694965
0.00318072813051387
0.00249403758685801
0.00177650371416558
0.00105839409058462
0.000420986750797677
4.09800812712343e-05
0.00534368650869977
0.00488081627470539
0.00435063650174316
0.00375795095735715
0.00311440377863542
0.00243148690360296
0.00172119704632527
0.00101588828215153
0.000396926074812275
3.58680574677897e-05
0.005698465265806
0.00528670780455544
0.004809466150089
0.00426778850301106
0.00367024614268172
0.00302871622920849
0.00235288203286372
0.00165481834630841
0.000967598105178732
0.000370561289551358
3.06386667372318e-05
0.00599466173785409
0.00562976268084536
0.00520186402671415
0.00470971769916222
0.00415895263902433
0.00356018213714432
0.0029240348937791
0.00225918318052347
0.0015781241482891
0.000913510017341762
0.000341784231340675
2.54120699058501e-05
0.00623444010029368
0.00591249674835049
0.00553013425120611
0.00508473405633574
0.00457977641887909
0.00402405470277846
0.0034278379183337
0.00280047303067737
0.00215055890872349
0.00149100005211838
0.000853325207681591
0.00031061348018575
2.03378586995078e-05
0.00641937810256029
0.00613684322274606
0.00579641207074301
0.00539456298044951
0.0049332823974121
0.0044197936109856
0.00386327527206571
0.00327289109519921
0.00265759029948808
0.00202648453373717
0.00139278334820804
0.000786565125922469
0.000277051885355937
1.55723844969136e-05
0.00655045239035827
0.00630411828979233
0.00600235539296693
0.00564096020882012
0.0052208246360097
0.00474791326664506
0.00423028075142017
0.0036762535576752
0.00309452235237734
0.00249442083910456
0.00188582492005894
0.00128228076695112
0.000712365666522986
0.000240908912317116
1.12002368312121e-05
0.00662795265288589
0.00641494519476242
0.0061489667267292
0.00582526132446275
0.00544383864145667
0.00500960742763311
0.00452957473351432
0.0040111096068156
0.00346208630712205
0.00289149916801708
0.00230945467712969
0.00172677548766655
0.00115759378023427
0.000629196038751295
0.000201369979318635
7.23185889243145e-06
0.0066510916083766
0.00646891403768523
0.00623626183313227
0.00594792052886559
0.00560316255359257
0.00520592771740057
0.00476221763658805
0.00427841696217081
0.00376145004521035
0.00321944396418498
0.00266209810752783
0.00210049235980539
0.00154666106583999
0.00101587611299835
0.000534874391474371
0.000157373502484854
3.84662219129685e-06
5.26292897743946e-05
0.000458803128648517
5.54172048422001e-05
0.00111989546608241
0.000467619457332283
5.88931232184894e-05
0.00186357764153259
0.00112787928137864
0.000478877340256044
6.07073855394624e-05
0.00260136362309372
0.00186558023252082
0.00113725561624942
0.000484474858734962
5.94521751777335e-05
0.00329100990555619
0.00259462458663787
0.00186505546738458
0.00113900562646297
0.000479529902010616
5.58985672855152e-05
0.00391547995464577
0.00327456902235972
0.00258047263979936
0.00185479570444517
0.00112685758254582
0.000465574156405336
5.14268872153998e-05
0.00447075313600037
0.00388992639620795
0.00324579446841662
0.00255354396973764
0.00182937909305637
0.0011013186009726
0.000446607870823261
4.66970242191716e-05
0.00495875281348809
0.00443682765629944
0.00384749608201499
0.00320071896482259
0.00251000778569808
0.00178840193625703
0.00106624105486199
0.00042499049538757
4.17840883097778e-05
0.00538317670871679
0.00491641681654035
0.00438205145032321
0.00378493866836752
0.00313681548633491
0.00244925220562658
0.00173429685857186
0.00102440979961593
0.000401186811315568
3.66697765302621e-05
0.00574762395806594
0.00533162129785054
0.00484975987444732
0.00430312806240526
0.00370039930040766
0.00305357251607385
0.00237241545695341
0.00166906651485238
0.000976733702349227
0.000375025082911424
3.14159636832055e-05
0.00605508197941901
0.00568557319099407
0.00525260043956487
0.00475494251887538
0.00419833187908324
0.00359353373052248
0.00295131188322232
0.00228042540613222
0.00159344584174192
0.000923181892946571
0.000346382246722461
2.61421319769792e-05
0.00630793067067594
0.0059810005589911
0.00559308415388719
0.00514157603872793
0.00463006014236907
0.00406750418893076
0.0034643543717625
0.00283009439879591
0.0021734141650463
0.00150730018083838
0.000863448559845556
0.000315270835388813
2.09998946647086e-05
0.00650800855421289
0.00622008820464559
0.00587358779801914
0.00546498257331588
0.00499636314429195
0.00447514933077844
0.00391073257916967
0.00331245769406618
0.00268941392459099
0.00205081282459246
0.00140995313859726
0.000797078034907825
0.000281753237833767
1.6150218404123e-05
0.00665661005798205
0.00640445588243628
0.00609605731570583
0.00572718728419983
0.0052988429964878
0.00481721092019919
0.00429059471043923
0.00372753988529976
0.00313691978463538
0.00252821828198082
0.00191142600211544
0.00130019507810391
0.000723255368554056
0.000245667953948118
1.16938774205839e-05
0.00675442576352898
0.00653511558686299
0.00626186994009896
0.00592987543564293
0.00553925396378418
0.00509516963677134
0.00460491920591048
0.00407612863707833
0.00351689014141295
0.00293638752299465
0.00234488883420844
0.00175335114720751
0.00117604593531502
0.000640440975425092
0.000206481902279834
7.64433553994766e-06
0.00680144024203975
0.00661237375543114
0.00637170860785864
0.00607413298494636
0.00571901363019584
0.00531060030132638
0.00485523493175957
0.0043595988463348
0.00383086871776905
0.00327739392179729
0.00270906949764308
0.00213714146517616
0.00157378041853833
0.00103439615513512
0.000545976555899931
0.00016241407592871
4.11654420266581e-06
0.0064806954214096
0.00679659776215112
0.00663543887436104
0.00642519169164981
0.00616008573005875
0.00583871483903971
0.00546451354434038
0.00504287390605159
0.00457950539751546
0.00408060745792905
0.0035535502882715
0.00300730173145288
0.00245262163683679
0.00190186872822571
0.00136875370413304
0.000870836011512253
0.000436008677509787
0.000112605199473174
1.53776826073618e-06
5.28290014017951e-05
0.000459991920834468
5.56968908902533e-05
0.00112271931186725
0.000469132713265928
5.92650396472943e-05
0.00186862255135286
0.00113132115560945
0.000480755477929945
6.11755177311502e-05
0.00260927177775437
0.00187160265499044
0.00114137876728281
0.000486734273015957
6.00017814966225e-05
0.00330247930633377
0.00260393000387431
0.00187213998736902
0.00114385255023885
0.000482156902768092
5.6511071930337e-05
0.00393128475655095
0.00328792582595665
0.00259128593617831
0.00186300735014951
0.00113243360681614
0.000468539046825208
5.20876901928887e-05
0.00449176389014826
0.00390819619145256
0.00326118164759899
0.00256595347267611
0.00183874423414175
0.00110760308163827
0.000449886192522953
4.73940186071698e-05
0.00498595235581378
0.00446098469583656
0.00386841396316259
0.00321825117399762
0.00252406116212818
0.00179891304012418
0.00107320413339833
0.000428559737689534
4.2502729943824e-05
0.00541767485594207
0.00494756250153563
0.00440958706929373
0.00380864934070789
0.00315656168132984
0.00246495741444717
0.00174592423606595
0.00103201073995455
0.00040500924884708
3.73919722085289e-05
0.00579067162163855
0.00537099954853244
0.00488514282859193
0.00433422110248634
0.00372699172756085
0.00307555495173565
0.00238974815853622
0.00168176145825512
0.000984917279173621
0.000379050984887626
3.21203106773789e-05
0.00610808820184712
0.00573458782757202
0.00529721849007345
0.00479477927906025
0.00423308828577978
0.00362303863821653
0.00297550830429137
0.00229932920632533
0.00160713590279002
0.000931873007960757
0.000350547995359099
2.68068945375772e-05
0.00637248683921771
0.0060412372430449
0.00564850415007077
0.00519169136034824
0.00467446932495556
0.00410595369425989
0.00349674168422038
0.00285643329062359
0.0021937953954514
0.00152188632895554
0.00087255314615363
0.000319497703575252
2.16044155126417e-05
0.00658592706368443
0.00629334690984499
0.00594158437407968
0.00552710998333344
0.00505210189007512
0.00452414776578198
0.00395282183478467
0.00334762432014296
0.00271776352276081
0.00207253453774394
0.00142531287151743
0.000806497117578347
0.000285969528429807
1.66753543908247e-05
0.00674997394782036
0.00649279611657939
0.00617865222305073
0.00580329305022559
0.00536780423421125
0.0048785622163077
0.00434408594648639
0.00377311104848363
0.00317466872940102
0.00255837029608346
0.00193429926996479
0.00131619060134962
0.000732929018682865
0.000249855255251885
1.21313139783137e-05
0.00686564882960849
0.00664091405116045
0.00636138491980512
0.00602220477908826
0.0056235858410651
0.00517090852079453
0.00467172065213524
0.00413387334739713
0.00356565031102084
0.00297640123113822
0.0023765340101369
0.00177711296885664
0.00119250866070711
0.000650312305941082
0.000210660293564162
7.99576030696085e-06
0.00693336095521609
0.00673841502233336
0.00649085442002745
0.00618529629021279
0.00582119693010584
0.00540305917471349
0.00493751882075485
0.004431519590953
0.00389246271112697
0.00332889516247646
0.00275088783724909
0.00216983695489638
0.00159804037285821
0.00105104156342544
0.000556025839414218
0.000166986939414213
4.38681346885935e-06
0.0069528220898705
0.00678529357820516
0.00656740993516489
0.00629333862654694
0.00596183178883935
0.00557657168238121
0.00514330206953978
0.00466803854768552
0.00415723874564663
0.00361850180166911
0.00306100083785759
0.00249567610800607
0.00193503911231646
0.00139292893511465
0.000887043464622969
0.000445586134592859
0.00011693095614816
1.67185370199595e-06
0.00661966474791552
0.00646574630021136
0.00692272580224824
0.00678051064646884
0.00659028135112034
0.00634603902361448
0.0060457586879045
0.00569220961142645
0.00529031040972042
0.00484511878456829
0.00436209747661997
0.0038478254951109
0.0033104204141876
0.00275978485686811
0.00220776532129169
0.00166806611601765
0.00115663161874503
0.000694974403320468
0.000314830873281623
6.20817267129774e-05
3.05693924760792e-07
0.000460909011267854
5.59070151425203e-05
0.00112497272189843
0.000470338405234852
5.95628836918026e-05
0.00187276598782604
0.00113416837339403
0.000482308700606452
6.15636238092224e-05
0.00261588259683478
0.00187666733109669
0.00114486748602369
0.00048865231608508
6.04678878224771e-05
0.00331219127888751
0.00261184466948346
0.00187819564983042
0.00114801706484439
0.000484422791807644
5.70385013607157e-05
0.00394479695033051
0.00329938307582026
0.00260059793059615
0.00187010958047092
0.00113727874205706
0.000471127111862959
5.26634072788429e-05
0.00450985538900851
0.00392396821377342
0.00327450690988991
0.00257673932426925
0.00184691699574066
0.00111311106062835
0.000452770306264467
4.80072084203112e-05
0.00500950218280276
0.00448194210200373
0.0038866065749122
0.003233545365145
0.00253636377178472
0.00180815115555998
0.00107934997383831
0.000431721406291175
4.31409538758136e-05
0.00544767355034691
0.00497468805045467
0.00443361631837345
0.00382939187983857
0.00317388714076458
0.00247878504813596
0.00175620300028633
0.00103876204942115
0.000408421278384918
3.80382401317959e-05
0.00582823069164088
0.00540540064097794
0.00491610381818011
0.00436148350612803
0.00375036516401539
0.00309493246417193
0.00240507931876235
0.00169303708395389
0.000992224276734225
0.000382667961206531
3.27554909171846e-05
0.00615445564001251
0.00577751046905621
0.00533634469426592
0.00482977212651628
0.00426368107538902
0.00364907167138514
0.00299691775544335
0.00231611184632379
0.00161934110455117
0.000939666101677342
0.000354311961775985
2.74098218772276e-05
0.00642906666887152
0.00609408380232949
0.00569718424201528
0.00523577697798268
0.00471360395322099
0.00413990567247672
0.00352540762990206
0.00287980860221051
0.00221194080953535
0.00153492509043504
0.000880740451634767
0.000323336647764242
2.21551516308131e-05
0.00665430674014391
0.0063577012086856
0.00600138504619096
0.00558182270816115
0.00510126529641579
0.00456744321799513
0.00399008708323624
0.00337883016427774
0.00274298241997739
0.00209191070428235
0.00143905899609535
0.000814968391817876
0.000289795942262375
1.71550821796616e-05
0.00683196901489822