/*--------------------------------*- C++ -*----------------------------------*\
  =========                 |
  \\      /  F ield         | OpenFOAM: The Open Source CFD Toolbox
   \\    /   O peration     | Website:  https://openfoam.org
    \\  /    A nd           | Version:  12
     \\/     M anipulation  |
\*---------------------------------------------------------------------------*/
/*   Windows 32 and 64 bit porting by blueCAPE: http://www.bluecape.com.pt   *\
|  Based on Windows porting (2.0.x v4) by Symscape: http://www.symscape.com   |
\*---------------------------------------------------------------------------*/
FoamFile
{
    format      ascii;
    class       volVectorField;
    location    "300";
    object      U;
}
// * * * * * * * * * * * * * * * * * * * * * * * * * * * * * * * * * * * * * //

dimensions      [0 1 -1 0 0 0 0];

internalField   nonuniform List<vector> 
10123
(
(-1.30668007260974e-06 -0.000592622597762394 1.81099163744721e-05)
(5.20835106425935e-08 -0.000574861790109693 1.92518024118496e-05)
(-5.6010134757932e-07 -0.000593249520791732 2.62763056883512e-05)
(-5.86411022357416e-06 -0.000475861198668381 2.22055224500904e-05)
(1.04951902930857e-06 -0.000550842589487178 1.95909226910039e-05)
(1.22202376925038e-07 -0.000579574321031288 2.99077079525641e-05)
(-2.74182475670707e-06 -0.000455608022926367 2.15870088191299e-05)
(2.23823309408138e-07 -0.000621788387279727 3.66632127460322e-05)
(-4.17449360685659e-06 -0.000522330445373477 3.02295552454797e-05)
(-1.0646347590565e-05 -0.000437578821390548 2.52189725931396e-05)
(6.50552755247566e-07 -0.000525606280128115 2.20338246699312e-05)
(6.95709648258102e-07 -0.000559854425560348 3.29628397022353e-05)
(-3.66227192631413e-07 -0.00043299295580521 2.17905213009447e-05)
(6.62090329339154e-07 -0.000606359951091544 4.35361465276721e-05)
(-1.86810337137253e-06 -0.000506121138450674 3.27191384933802e-05)
(-7.45488371755006e-06 -0.00041553049513695 2.35293019503767e-05)
(6.23631966508838e-07 -0.000634891470699636 4.99907922317643e-05)
(-7.17129334301827e-07 -0.000588816492752982 4.05465920432948e-05)
(-8.00749610557805e-06 -0.000491869897476887 3.42130321273134e-05)
(-1.67382343265682e-05 -0.000421598155416066 2.71447281542858e-05)
(1.92545157965303e-07 -0.000500808914401607 2.41389901316051e-05)
(6.72229613638787e-07 -0.000538246717180969 3.73122749622081e-05)
(-7.74047649443712e-07 -0.000410621027985263 2.43751271445443e-05)
(9.10722427181408e-07 -0.000586907589528232 5.00021535687262e-05)
(1.54361824201206e-07 -0.000486145865983449 3.49220256014842e-05)
(-4.67081149262655e-06 -0.000393079752846221 2.400099844314e-05)
(9.39489419965981e-07 -0.000617559510950021 5.9806187449116e-05)
(6.81013211472976e-07 -0.000572064015905281 4.69226486778956e-05)
(-5.26581690403617e-06 -0.000474199000278047 3.58213699038211e-05)
(-1.36571651143997e-05 -0.000399117638140394 2.49566724888986e-05)
(9.41317247279105e-07 -0.00064704384762667 6.5057285019963e-05)
(8.92523730601008e-07 -0.000614765866846569 5.44903190838834e-05)
(-2.49674566555475e-06 -0.000569062862908902 4.43129392024806e-05)
(-1.31496344579805e-05 -0.00047328944437761 3.70642420562565e-05)
(-2.44695137692931e-05 -0.000407848820912872 2.83942912509619e-05)
(-1.17864113374369e-07 -0.000474094375914163 2.58211408312017e-05)
(6.29360271701854e-07 -0.000515136850231106 4.10610566031625e-05)
(-1.58607752200614e-06 -0.000389140571482317 2.63346455064468e-05)
(9.87402466979836e-07 -0.00056538556874355 5.61679010844824e-05)
(4.24147858433189e-08 -0.000465727013437111 3.94759076865567e-05)
(-4.19096509426175e-06 -0.000371260285565727 2.68148722625304e-05)
(1.12175937982882e-06 -0.000597374361518792 6.86212595229207e-05)
(1.57738522853036e-06 -0.000552406238277717 5.29534233633001e-05)
(-2.9833777124347e-06 -0.000453961948790306 3.74213562291111e-05)
(-1.03466140864751e-05 -0.000376524631398505 2.56104567804187e-05)
(1.1868550118848e-06 -0.000627846331470454 7.71154937725844e-05)
(1.92572613771842e-06 -0.000596723954501492 6.38024529161995e-05)
(-3.40818547724479e-07 -0.000551543006084816 5.05227397532442e-05)
(-9.95912624256529e-06 -0.00045516882130162 3.82231739443562e-05)
(-2.11885807878914e-05 -0.000385387601975486 2.59487277897518e-05)
(1.20630463747588e-06 -0.000660930520510101 8.150499339883e-05)
(2.02930979151837e-06 -0.000631945841461672 6.98241486496858e-05)
(5.70492052203149e-07 -0.000600478867729426 5.91535143198316e-05)
(-5.08014146320735e-06 -0.000553796868851995 4.74296662200421e-05)
(-1.95898478077134e-05 -0.000457072196121306 3.8874585619546e-05)
(-3.32993625150446e-05 -0.000392815157415849 2.88463530241451e-05)
(-3.48942705854587e-07 -0.000445724193527328 2.69794404410578e-05)
(5.85905271370221e-07 -0.000490313106317328 4.4140600577284e-05)
(-2.2140594515531e-06 -0.000365518958585473 2.81374249541307e-05)
(1.02772547198135e-06 -0.000541919849839125 6.1495784560714e-05)
(6.50865881836853e-08 -0.000444074616944797 4.30903778362623e-05)
(-4.68250856887746e-06 -0.000350698732697525 2.87248404216227e-05)
(1.21106932335838e-06 -0.000575297617010932 7.64622071217245e-05)
(1.93946195685729e-06 -0.000531256622938263 5.88734786699231e-05)
(-2.13298245751648e-06 -0.000433991514963258 4.22505790714406e-05)
(-9.16224403486856e-06 -0.000354553070370841 2.88815803264902e-05)
(1.35152052819945e-06 -0.000606402643477953 8.78206614522528e-05)
(2.59168175903514e-06 -0.000576418231199696 7.22260382823327e-05)
(1.18571161935901e-06 -0.000531720695653283 5.65118465607369e-05)
(-7.14429857293581e-06 -0.00043468335157933 3.95184919503129e-05)
(-1.73537984762433e-05 -0.000362589281380346 2.63576298769452e-05)
(1.42124257340709e-06 -0.000639733969328987 9.54243883593541e-05)
(2.87730992985224e-06 -0.000612338465395912 8.13844148422337e-05)
(2.3102330047867e-06 -0.000581986112791464 6.81840365525526e-05)
(-2.22759484754482e-06 -0.000536042431982462 5.34754366118989e-05)
(-1.56671278261168e-05 -0.000438862970694086 3.98531609168139e-05)
(-2.96016740553515e-05 -0.000370533174045687 2.64588424487706e-05)
(1.4858862860783e-06 -0.000677250952015354 9.92093792464428e-05)
(3.03481411273406e-06 -0.000648053070236536 8.62498755906661e-05)
(2.75215361295306e-06 -0.000620314411763756 7.47810245279722e-05)
(-3.05870849773513e-07 -0.000587944997995778 6.25871272379656e-05)
(-8.44850966230489e-06 -0.000539801555264919 4.92775068341874e-05)
(-2.68562916208018e-05 -0.000441590213584487 3.94403409879523e-05)
(-4.26034868897859e-05 -0.000375294550924614 2.87204615405726e-05)
(-5.54835741652621e-07 -0.000416190782235859 2.7775728243433e-05)
(5.00633539331195e-07 -0.000464131651384779 4.65116544989896e-05)
(-2.75232288526941e-06 -0.000340049492786047 2.92022668126186e-05)
(1.03121025623205e-06 -0.000516919780921936 6.59251921168859e-05)
(2.71789992106043e-08 -0.000420729640426903 4.60147376510665e-05)
(-5.35627143268581e-06 -0.000328056095060161 3.0564036311144e-05)
(1.26797539509805e-06 -0.000551403420232012 8.32142920438126e-05)
(2.14302907608566e-06 -0.000508312508793008 6.39775040684749e-05)
(-1.7810138585862e-06 -0.0004129648673424 4.5837569976171e-05)
(-9.26901411744552e-06 -0.000334280609472056 3.06883105507532e-05)
(1.43528276001606e-06 -0.000583305507925802 9.71698192673263e-05)
(2.97467179382466e-06 -0.000554535628666114 7.97316284400086e-05)
(2.00647589444051e-06 -0.000510793767167889 6.23348857052509e-05)
(-5.37568861617658e-06 -0.000414813507833955 4.45928984619475e-05)
(-1.56505686581903e-05 -0.000340415181121743 2.97781835595756e-05)
(1.55980494188156e-06 -0.000616671678901383 0.000107715451916211)
(3.45460138905686e-06 -0.000590886406328918 9.16659742329245e-05)
(3.53362343965987e-06 -0.000561599532363415 7.64001363695782e-05)
(6.48910187225316e-09 -0.000516144116265738 5.93480693938193e-05)
(-1.2225230232825e-05 -0.000418183660251048 4.08272655796461e-05)
(-2.52869085815161e-05 -0.000347627774369272 2.64316115898643e-05)
(1.66316492814008e-06 -0.000653859070442075 0.000114761065408258)
(3.75008261670675e-06 -0.000626644747145323 9.96524655580218e-05)
(4.24330962751004e-06 -0.000600456941215822 8.60808936585027e-05)
(2.14948254413029e-06 -0.00056936563571698 7.15217810438204e-05)
(-4.81590177174886e-06 -0.000522088627564379 5.53056002607783e-05)
(-2.20551050529362e-05 -0.000423459168554315 4.05360702718467e-05)
(-3.84405949920869e-05 -0.000353301001298187 2.65443216545427e-05)
(1.79475427087835e-06 -0.000696071931346313 0.00011820512622961)
(4.03204139967176e-06 -0.000665163651706544 0.000103781950590928)
(4.68248912747019e-06 -0.000637595092757428 9.12833777539327e-05)
(3.13853699583307e-06 -0.000609338707114126 7.83646435989185e-05)
(-1.75365934766982e-06 -0.000575623359495015 6.44843054892206e-05)
(-1.23155782491619e-05 -0.000526430218890949 4.98175433007177e-05)
(-3.4359664986765e-05 -0.000425913990950224 3.90090018802321e-05)
(-5.1920838849713e-05 -0.000354775570860764 2.83850560254517e-05)
(-7.57861273277167e-07 -0.000385934863515617 2.82373100935136e-05)
(3.97464224018175e-07 -0.000436925191083934 4.82461160330921e-05)
(-3.30035249618286e-06 -0.000313361331584211 2.97808797993445e-05)
(9.95808126219701e-07 -0.000490763555713886 6.9452692089689e-05)
(-1.39286464030558e-07 -0.000396043039577977 4.82124781145742e-05)
(-6.10585221918559e-06 -0.000303530176497358 3.14707341898709e-05)
(1.28303160627385e-06 -0.000526159784495368 8.88537012005147e-05)
(2.21129453975036e-06 -0.000483883205728985 6.81819756977003e-05)
(-1.72304952280155e-06 -0.000390254912783977 4.86960383848223e-05)
(-9.86687272511951e-06 -0.000312116569151847 3.24630940538217e-05)
(1.48885368347635e-06 -0.000558631470646247 0.000105173625268149)
(3.21797245663053e-06 -0.000530917842575965 8.61830617740281e-05)
(2.45814037039655e-06 -0.000488192262567906 6.73215635238796e-05)
(-4.56453865733453e-06 -0.000394155171988673 4.82271001472513e-05)
(-1.54117989450927e-05 -0.000320436758839393 3.15965316058945e-05)
(1.63824095199516e-06 -0.000592192976010884 0.000118372357371302)
(3.80591085187919e-06 -0.000567984838336584 0.000100627014593801)
(4.29988727302196e-06 -0.000539889028416559 8.37225368954617e-05)
(1.40701166391181e-06 -0.000495399604423878 6.52120462684269e-05)
(-9.68365015437812e-06 -0.000398337461578988 4.61056599114277e-05)
(-2.3136796787934e-05 -0.000325350006808312 2.99474381854298e-05)
(1.77323630615152e-06 -0.000628880252573964 0.000128414664851571)
(4.23187996363383e-06 -0.000603694404973835 0.000111477009023675)
(5.29862124050829e-06 -0.000579019112243371 9.61254497891829e-05)
(3.99217994169261e-06 -0.000549020421868143 7.96586733710335e-05)
(-1.88270630386178e-06 -0.000502223828501072 6.11243684498929e-05)
(-1.79613159004534e-05 -0.000402676904903326 4.14594584923049e-05)
(-3.36201999157559e-05 -0.000330308407685574 2.59968969261896e-05)
(1.92302645049213e-06 -0.000670243334714021 0.000135236854028377)
(4.61026796362818e-06 -0.000641725519164728 0.000118778352700055)
(5.93746161815468e-06 -0.000616092881669204 0.000104402431946984)
(5.28069802008515e-06 -0.000589510354050403 8.95861617310662e-05)
(1.46139106844618e-06 -0.000557179084735485 7.34453154474263e-05)
(-7.87292267576882e-06 -0.000508891588814361 5.5930659127531e-05)
(-2.86896688766315e-05 -0.000407965937440093 4.05296467774904e-05)
(-4.73072240880936e-05 -0.000333063913648335 2.62977846009307e-05)
(2.13076981933689e-06 -0.000717128096746464 0.000138649332617028)
(5.06707026954125e-06 -0.000683960491853541 0.000122532596001711)
(6.5244593583807e-06 -0.000654965815980375 0.000108740965933696)
(6.09655406384078e-06 -0.00062729643917704 9.48822098647856e-05)
(3.07162623352322e-06 -0.000597957697698068 8.02688850683774e-05)
(-3.59481649359999e-06 -0.000563356874437583 6.48544277425096e-05)
(-1.63503867841466e-05 -0.000512848227926296 4.92664847831288e-05)
(-4.16299663883376e-05 -0.000409227395507737 3.78150825224728e-05)
(-6.09526905526925e-05 -0.000330750062737817 2.76949759185814e-05)
(-9.61949020504184e-07 -0.000355357655261284 2.84261823253763e-05)
(2.8086309369007e-07 -0.000409006978353382 4.94179792789437e-05)
(-3.86149448831837e-06 -0.000285900833251663 3.00656702921535e-05)
(9.31141118475393e-07 -0.000463749833915908 7.21172357625823e-05)
(-3.84098538816411e-07 -0.000370362930510329 4.97691591007604e-05)
(-6.90759839067817e-06 -0.000277728868733275 3.18989465824193e-05)
(1.26508527289737e-06 -0.000499928440096939 9.3375567218955e-05)
(2.15480310063832e-06 -0.000458343230815657 7.14915586669919e-05)
(-1.90519893522078e-06 -0.000366215430767724 5.0784864488027e-05)
(-1.07034879079548e-05 -0.00028801378813506 3.3263512446978e-05)
(1.50933030152687e-06 -0.000532809387172034 0.000111836002396792)
(3.32061432359097e-06 -0.0005059902368097 9.15437562055395e-05)
(2.62990975455763e-06 -0.000464125109056026 7.13925452752e-05)
(-4.31337695809447e-06 -0.000371868916721453 5.10882938495598e-05)
(-1.58670708869429e-05 -0.000298709057562775 3.34057340644478e-05)
(1.68487960182201e-06 -0.000566395635971439 0.000127435307405283)
(4.03281174192508e-06 -0.000543567836168317 0.00010826947049162)
(4.76721576258327e-06 -0.000516512035249415 8.99872543369779e-05)
(2.21650758201824e-06 -0.000473115071593447 7.01876860684845e-05)
(-8.37216318101289e-06 -0.000377959047533004 4.97605689635246e-05)
(-2.26038930202032e-05 -0.000305741246660567 3.19314930634051e-05)
(1.83150147337212e-06 -0.000602725569005494 0.000140179904568381)
(4.5392306693673e-06 -0.000579489166515603 0.000121696012674746)
(6.00073884579625e-06 -0.000556315432703166 0.000104849402224619)
(5.23614846043637e-06 -0.000527517663768988 8.69491398375158e-05)
(1.38614742285906e-07 -0.000481679637071641 6.70621174911499e-05)
(-1.47248352670321e-05 -0.000382814389612612 4.67347671374729e-05)
(-3.11444325103828e-05 -0.000307947560575566 2.96886130672453e-05)
(1.99386830890858e-06 -0.000643082860779402 0.000150084260596161)
(4.99376344113865e-06 -0.000616989849046795 0.000131931332095752)
(6.82890986943314e-06 -0.000593266971798619 0.000115955990169481)
(6.87836982627571e-06 -0.00056821115489449 9.95569069914921e-05)
(3.95754879659755e-06 -0.000537000761646908 8.16099124004929e-05)
(-4.23017196107525e-06 -0.000489141452306564 6.17959373943109e-05)
(-2.39224582531829e-05 -0.000387092184328729 4.15061531686865e-05)
(-4.19034256808336e-05 -0.000309963357715373 2.50125019530494e-05)
(2.19974258039189e-06 -0.000688610727716343 0.0001570615977437)
(5.48509684520736e-06 -0.000658249073245508 0.000138981355800651)
(7.52895504023462e-06 -0.000631584553821188 0.000123424864928288)
(7.92325421276539e-06 -0.000605939384019379 0.000107911411835687)
(5.91536911741091e-06 -0.000578351507858093 9.15297441369191e-05)
(4.00223060435177e-07 -0.000545164940452233 7.39431208425421e-05)
(-1.11155097902022e-05 -0.000495545708481397 5.55202748953497e-05)
(-3.51342652379442e-05 -0.00039150865180292 3.99805527076547e-05)
(-5.59584669953329e-05 -0.00030929780190561 2.56042159750202e-05)
(2.4929607388898e-06 -0.000740015714852108 0.000160788597820111)
(6.14584734855236e-06 -0.000704551737735453 0.000142694440680839)
(8.35455718053744e-06 -0.000673452802398313 0.000127356243763472)
(8.84747605997963e-06 -0.000644714613913518 0.000112278796697792)
(7.13052609366431e-06 -0.00061630256213224 9.67323188765266e-05)
(2.63750343673915e-06 -0.000586215158620814 8.05035072099157e-05)
(-5.61939658059169e-06 -0.000550643339632695 6.3893544752955e-05)
(-2.02788893058202e-05 -0.000498331653912022 4.77598654009911e-05)
(-4.82952497031557e-05 -0.00039074180106516 3.60215293257176e-05)
(-6.92132326408458e-05 -0.000302293984444825 2.66711419789421e-05)
(-1.16122923505314e-06 -0.000324789491328825 2.83728141588578e-05)
(1.51305430946036e-07 -0.000380703212285701 5.00771970763973e-05)
(-4.4150226194085e-06 -0.000258063115523067 3.00909120344074e-05)
(8.40880644427898e-07 -0.000436163114719947 7.39835332723144e-05)
(-6.87214801135789e-07 -0.000343976318708162 5.07687916641916e-05)
(-7.74875424959398e-06 -0.000251110819401065 3.20958231170499e-05)
(1.21909630382285e-06 -0.000473004508401424 9.68164735809568e-05)
(2.0013467508941e-06 -0.000431978268584897 7.39432992232233e-05)
(-2.2437094764946e-06 -0.000341222440335258 5.22121552609203e-05)
(-1.16997179700562e-05 -0.00026257516916047 3.36649819033278e-05)
(1.50204093317822e-06 -0.000506174575549043 0.000117175448129923)
(3.31051003858861e-06 -0.000480115179705436 9.5802267569172e-05)
(2.57540530443443e-06 -0.000438969964394253 7.45507328260671e-05)
(-4.42233725491765e-06 -0.000348275406864318 5.31314769453982e-05)
(-1.6741431963615e-05 -0.000274996663917049 3.44086402882058e-05)
(1.69911444258452e-06 -0.000539664289059715 0.000134931379086496)
(4.1430365672959e-06 -0.000518025212468616 0.000114596961896862)
(4.98319516350834e-06 -0.000491841389350366 9.51579397935608e-05)
(2.56776978470899e-06 -0.000449387228429727 7.42311033229517e-05)
(-7.85095084916721e-06 -0.000356096710990162 5.26640484974583e-05)
(-2.29729728145969e-05 -0.000284500298853486 3.38968535896039e-05)
(1.86288059856046e-06 -0.000575500714574127 0.000150106887639508)
(4.73116437323211e-06 -0.000553990999080836 0.000130349942157542)
(6.44201303098478e-06 -0.000532142289203348 0.000112250013272335)
(6.00850431410056e-06 -0.0005044244638199 9.31615665603814e-05)
(1.36262511777839e-06 -0.000459718913960089 7.20956205898723e-05)
(-1.29089913261705e-05 -0.000362691814593185 5.04995991640768e-05)
(-3.04673310343645e-05 -0.000288791738077295 3.1824617016657e-05)
(2.02398521586092e-06 -0.000614989983996029 0.000162775919906269)
(5.2246264581452e-06 -0.000591210706684226 0.000143220438185428)
(7.42582668803198e-06 -0.000569332566307249 0.000125891334340234)
(7.99254346643931e-06 -0.000545771428185803 0.00010820079422478)
(5.72771087716325e-06 -0.000515771877620807 8.89509774062273e-05)
(-1.602099829461e-06 -0.000468804377576149 6.78303361424326e-05)
(-2.0090024820128e-05 -0.000367171480384107 4.65852823878339e-05)
(-3.92731949971785e-05 -0.000287511590548703 2.89550991310054e-05)
(2.22419554127744e-06 -0.000659017020692633 0.000172965233636818)
(5.74209690546715e-06 -0.000631468763712822 0.00015330711110121)
(8.233143398845e-06 -0.000607090190075459 0.000136277091183942)
(9.28497985967576e-06 -0.000583344673205401 0.0001193743833214)
(8.10318447250872e-06 -0.000557309199569178 0.000101536664357277)
(3.55962614895604e-06 -0.000525233793753065 8.22194182932977e-05)
(-6.7896468160646e-06 -0.000475957950644204 6.14800657943425e-05)
(-2.95583251052765e-05 -0.00037053575427118 4.10119906182604e-05)
(-4.9928929031816e-05 -0.00028606366715902 2.41433974291529e-05)
(2.49233872254242e-06 -0.000708536348344708 0.000180506360679022)
(6.37776839791928e-06 -0.000676305956995349 0.000160510455705701)
(9.08082296125877e-06 -0.000647942404712916 0.000143463463430962)
(1.03271802767705e-05 -0.000621594386950391 0.000126851501341316)
(9.58175667385834e-06 -0.000595255713109773 0.000109794216395628)
(6.20649695517002e-06 -0.0005669307262943 9.1910299703167e-05)
(-8.60336105292141e-07 -0.000532763263229642 7.31994003360526e-05)
(-1.42845665250754e-05 -0.000481310867620893 5.42178900332101e-05)
(-4.11985845771691e-05 -0.000373203134997221 3.83275221373208e-05)
(-6.39210309354889e-05 -0.000281123100483021 2.42590967501533e-05)
(2.88100846545385e-06 -0.000764227225748519 0.000184916142379155)
(7.27657427310101e-06 -0.000726728248206822 0.000164516890360389)
(1.0225416962298e-05 -0.000693384874264037 0.000147360311516713)
(1.15329039878437e-05 -0.000662824167173367 0.000130803167183139)
(1.08300946439003e-05 -0.000633684450328763 0.000114050686480807)
(7.7902516272409e-06 -0.000604740288105984 9.68334868601838e-05)
(1.96462818860063e-06 -0.000573843551987521 7.92597202892244e-05)
(-7.64567516611254e-06 -0.000536990394617576 6.17566564811676e-05)
(-2.38626246551803e-05 -0.000482332899074148 4.53656771000088e-05)
(-5.39200762201675e-05 -0.000369665550881917 3.41146009468007e-05)
(-7.62505208629269e-05 -0.000268040669814954 2.53066390887644e-05)
(-1.35172511430502e-06 -0.000294565018570503 2.81261297096047e-05)
(1.38335895653341e-08 -0.000352318723073315 5.02823415224607e-05)
(-4.97243939845116e-06 -0.000230208886165691 2.9904203658684e-05)
(7.32584121172823e-07 -0.00040828290306022 7.51120126963764e-05)
(-1.03523948124484e-06 -0.000317202342797236 5.12662059675427e-05)
(-8.61885781786562e-06 -0.000224111718824192 3.20320934000478e-05)
(1.14502830003902e-06 -0.000445658225198782 9.92522165143633e-05)
(1.76619592584101e-06 -0.000405058271439189 7.56020390844832e-05)
(-2.7005573462357e-06 -0.000315530675718409 5.30825379654079e-05)
(-1.27922782236408e-05 -0.000236317165256187 3.38231878815337e-05)
(1.47597588488189e-06 -0.000479026456826468 0.000121237381647196)
(3.20502652259811e-06 -0.000453565625856135 9.90004052504532e-05)
(2.34509200065269e-06 -0.000413008154092632 7.68361050401512e-05)
(-4.7893802884452e-06 -0.00032373755188155 5.44848876359648e-05)
(-1.78749910141404e-05 -0.000249926598039224 3.49877123825398e-05)
(1.68847811458333e-06 -0.00051231437299581 0.000140905677237767)
(4.15138143881126e-06 -0.000491692326857648 0.000119623593750478)
(4.98579118749422e-06 -0.000466244591084527 9.92149696175383e-05)
(2.56831055426757e-06 -0.000424588312825682 7.7327516795941e-05)
(-7.82059246204384e-06 -0.000332966601960191 5.47655075292564e-05)
(-2.38911253627124e-05 -0.000261265388179799 3.51721555555939e-05)
(1.86589493748643e-06 -0.00054756666381643 0.000158246553333336)
(4.81533558031776e-06 -0.000527565610358528 0.000137463646721952)
(6.64943340111093e-06 -0.000506851315630167 0.000118335381825113)
(6.391006137863e-06 -0.000480050760536247 9.82509228082649e-05)
(1.94856955916343e-06 -0.000436357765729705 7.61823297016193e-05)
(-1.20858469118681e-05 -0.000341230669338388 5.35324210770033e-05)
(-3.08177466824036e-05 -0.000268133222012353 3.40966184576014e-05)
(2.0338915443349e-06 -0.000586075534499203 0.000173383708501161)
(5.35980045617973e-06 -0.000564368413719399 0.000152705389759122)
(7.79709647440551e-06 -0.000544128527072445 0.000134261307137066)
(8.7063346044269e-06 -0.000521891015180621 0.000115502687498495)
(6.8585597680878e-06 -0.000493012323507829 9.51982363678007e-05)
(3.82255080725375e-08 -0.000447166498158837 7.29920693992256e-05)
(-1.78247651565473e-05 -0.000347323946642524 5.07208310831375e-05)
(-3.86401190874367e-05 -0.000268910015795796 3.14665305676046e-05)
(2.2180229545043e-06 -0.000628746046018287 0.000186425033396453)
(5.88027244155089e-06 -0.000603868114433874 0.000165506101960307)
(8.69482011778028e-06 -0.000581673761480726 0.000147252753935202)
(1.02374109656912e-05 -0.000559737106761245 0.000129195126154246)
(9.67469723817995e-06 -0.000535203845863837 0.000110208421829316)
(5.85868859163669e-06 -0.00050431542737589 8.96904911178228e-05)
(-3.60167413431965e-06 -0.000455829569545906 6.76593497946569e-05)
(-2.53924641481999e-05 -0.000350531058202369 4.57707826529933e-05)
(-4.72452763938024e-05 -0.000263489343933793 2.8084240930845e-05)
(2.46166213363485e-06 -0.000676260754518471 0.000197346913281757)
(6.48902450638409e-06 -0.000647226963527759 0.000175888355789772)
(9.56986787123452e-06 -0.00062152771429883 0.000157464426855814)
(1.14189551581221e-05 -0.000597434198791642 0.000139591805011436)
(1.14598521053037e-05 -0.000573005296982077 0.000121281628587204)
(8.99442900742317e-06 -0.000546227441706853 0.000102046717274474)
(2.93709235623326e-06 -0.000513128999041138 8.16517021618114e-05)
(-9.3287871538878e-06 -0.000461909228784539 6.03141403102377e-05)
(-3.47811476947024e-05 -0.000352197931050763 3.9896620395287e-05)
(-5.73417160258604e-05 -0.000257761333117624 2.23820895473098e-05)
(2.79942274484014e-06 -0.000729493406592711 0.0002058651372792)
(7.29307073169811e-06 -0.000695665239189381 0.000183635291537668)
(1.06341189497033e-05 -0.000665480859170687 0.000164805739886774)
(1.26202899608365e-05 -0.000637695786709446 0.000146773562237832)
(1.28424316215801e-05 -0.000610967905786394 0.000128638690678)
(1.08977464914243e-05 -0.000584088354964969 0.000110040136056338)
(6.25303524833851e-06 -0.000554931651359765 9.09067297632655e-05)
(-2.16548011451584e-06 -0.000519457440243876 7.13488959315159e-05)
(-1.71971357169617e-05 -0.000465627682907725 5.20098839803478e-05)
(-4.64292591406307e-05 -0.000352392344725286 3.62260633117922e-05)
(-7.07261170026564e-05 -0.000247387060868511 2.24117170372015e-05)
(3.29477863303223e-06 -0.0007891556494324 0.00021134147819721)
(8.47076602245523e-06 -0.000750082601236041 0.00018827893312618)
(1.21718265643625e-05 -0.000714683310877457 0.000169002777733188)
(1.42400499595449e-05 -0.000682097308187055 0.000150701068203961)
(1.43812486516699e-05 -0.000651449844471582 0.000132490492162416)
(1.24095522644188e-05 -0.000622039891443292 0.000114031926547318)
(8.14276010379913e-06 -0.000592471746200036 9.53570901733417e-05)
(1.17773221034392e-06 -0.000560529254219408 7.66773073652203e-05)
(-9.51872213406016e-06 -0.000522023029063326 5.8487342135735e-05)
(-2.68772711716862e-05 -0.000464336819650633 4.21306725476826e-05)
(-5.8283500771189e-05 -0.000345046623878472 3.16246721291136e-05)
(-8.17959611767281e-05 -0.000225924128493646 2.36455473627939e-05)
(-1.53382853514414e-06 -0.000264939290845952 2.77227778603977e-05)
(-1.2801495885201e-07 -0.000324123935344215 5.00787071196851e-05)
(-5.51349240505367e-06 -0.000202663949826501 2.95923399228485e-05)
(6.12972904317801e-07 -0.000380388416101323 7.55661369722214e-05)
(-1.4155107126152e-06 -0.000290351010357128 5.13203600736181e-05)
(-9.50121950901989e-06 -0.000197094216117532 3.17590341638077e-05)
(1.05225374269483e-06 -0.000418138859222201 0.000100750066871318)
(1.46938647611223e-06 -0.00037785808370795 7.65352000352105e-05)
(-3.25103620895581e-06 -0.000289449524320834 5.34375606182398e-05)
(-1.39462813598262e-05 -0.000209665684627919 3.37302098020179e-05)
(1.41222241235235e-06 -0.00045161852379636 0.000124102610754149)
(3.0143904601298e-06 -0.000426606015279603 0.000101193307057439)
(1.97150439649199e-06 -0.000386502082002066 7.83210219765507e-05)
(-5.36144780427357e-06 -0.000298490685525043 5.52905787947499e-05)
(-1.9177890030076e-05 -0.000224035983947545 3.51744341705867e-05)
(1.66068068029627e-06 -0.000484629429972078 0.000145421878368107)
(4.07866883818107e-06 -0.000464843427952601 0.000123398850314401)
(4.81353262877341e-06 -0.000439986493644434 0.000102203411556996)
(2.29416200874484e-06 -0.000398992381621084 7.95233992331436e-05)
(-8.1776380524202e-06 -0.000308850282339432 5.62018134347761e-05)
(-2.51681923770664e-05 -0.000236698350597361 3.58233756715773e-05)
(1.84394938295921e-06 -0.000519220772063536 0.000164665252566923)
(4.80996133165633e-06 -0.000500530832956054 0.000143081105703689)
(6.66297786047935e-06 -0.000480777406118182 0.000123117439415247)
(6.44445305083719e-06 -0.000454758323436877 0.000102206181883287)
(2.04687789525372e-06 -0.000411950970732559 7.92944293779697e-05)
(-1.19204891737946e-05 -0.000318546035185872 5.58231882298111e-05)
(-3.18869616428071e-05 -0.000245510975191576 3.55497936660496e-05)
(2.02096579788553e-06 -0.000556681621179138 0.000181983632455812)
(5.40204333783906e-06 -0.000536803439873877 0.000160437113629677)
(7.96692260063199e-06 -0.000517993366958718 0.000141092948165155)
(9.06142478194787e-06 -0.000496898720902362 0.000121468480821004)
(7.44599559528891e-06 -0.000468992669114538 0.000100299331735356)
(8.73949241227223e-07 -0.000424191791239628 7.71972929480742e-05)
(-1.67396857601535e-05 -0.000326246929302554 5.40396252758617e-05)
(-3.91759375584767e-05 -0.000248942578412337 3.40366599492261e-05)
(2.20013975329929e-06 -0.000597909060495781 0.000197543792481372)
(5.94360115308156e-06 -0.000575435286793141 0.000175657941584298)
(8.96982970614291e-06 -0.000555204552936811 0.000156424733084485)
(1.08408069134333e-05 -0.000534881533295266 0.000137431189436653)
(1.06994439446461e-05 -0.00051169137200155 0.000117515423823538)
(7.35607644677347e-06 -0.000481924524891629 9.60592943598748e-05)
(-1.57498346366118e-06 -0.000434519713897323 7.30379465149865e-05)
(-2.28080921447128e-05 -0.000330983790275621 5.04516594684355e-05)
(-4.68518734713719e-05 -0.000245503804086709 3.0935390400335e-05)
(2.41218269807341e-06 -0.000643585881692158 0.000211427015924236)
(6.51290762148836e-06 -0.000617565956527558 0.000188854117455256)
(9.86895463096137e-06 -0.000594394553137979 0.000169330584846861)
(1.2174323128642e-05 -0.000572429535931322 0.000150431060042828)
(1.28145546923205e-05 -0.000549797824767377 0.000131109738482858)
(1.10408885337705e-05 -0.000524508023672497 0.000110841543371245)
(5.74202686793253e-06 -0.000492546476982972 8.93200265646816e-05)
(-5.66681101169639e-06 -0.000441996146914637 6.66701229595836e-05)
(-3.0298435076056e-05 -0.000332165711674959 4.48853902369418e-05)
(-5.47248848520378e-05 -0.000235053145276248 2.66808401787732e-05)
(2.70459022798565e-06 -0.000694289212061755 0.000223523958444387)
(7.23401841718576e-06 -0.000664035092679118 0.000199955806838235)
(1.08719613723837e-05 -0.000636891085618608 0.000179840271532849)
(1.34043507051393e-05 -0.000611721088496896 0.000160642995276146)
(1.43740488779593e-05 -0.000587239052809532 0.000141389675997938)
(1.33139666935341e-05 -0.000562254449001211 0.000121657804397914)
(9.63007192440958e-06 -0.000534617129207592 0.000101253668479518)
(2.22364882951157e-06 -0.000500152457965201 8.00331156272464e-05)
(-1.1676770028381e-05 -0.000446423457066996 5.82378869224786e-05)
(-3.95296194468238e-05 -0.000331256400898217 3.76467607948161e-05)
(-6.36527903495729e-05 -0.000223849946829935 1.99130760174575e-05)
(3.1201009055842e-06 -0.000750862550904573 0.000233424813536349)
(8.23814387242894e-06 -0.000715903473308021 0.000208631740827444)
(1.22120013745271e-05 -0.000684102075305878 0.000187720915490323)
(1.48741647221875e-05 -0.000654698521410038 0.000167979583386644)
(1.589066599515e-05 -0.000626826577139385 0.000148451589352816)
(1.49947301732978e-05 -0.000599798081371928 0.000128750189982537)
(1.19126209746263e-05 -0.000572257493764735 0.000108807275157622)
(6.15373944676088e-06 -0.00054201912905658 8.86446142023045e-05)
(-3.38855065272028e-06 -0.000504872974234633 6.84042870378104e-05)
(-1.9687540224699e-05 -0.000448028704991877 4.88850446467124e-05)