/*--------------------------------*- C++ -*----------------------------------*\
  =========                 |
  \\      /  F ield         | OpenFOAM: The Open Source CFD Toolbox
   \\    /   O peration     | Website:  https://openfoam.org
    \\  /    A nd           | Version:  12
     \\/     M anipulation  |
\*---------------------------------------------------------------------------*/
/*   Windows 32 and 64 bit porting by blueCAPE: http://www.bluecape.com.pt   *\
|  Based on Windows porting (2.0.x v4) by Symscape: http://www.symscape.com   |
\*---------------------------------------------------------------------------*/
FoamFile
{
    format      ascii;
    class       surfaceScalarField;
    location    "0";
    object      phi;
}
// * * * * * * * * * * * * * * * * * * * * * * * * * * * * * * * * * * * * * //

dimensions      [0 3 -1 0 0 0 0];

internalField   nonuniform List<scalar> 
28903
(
6.42745657625048e-07
2.49823758852978e-10
-4.72827690986606e-08
6.9233468601504e-07
1.96704262712023e-10
-4.97852897687577e-08
6.89758566617737e-07
2.3217474466316e-10
-5.04536578493341e-08
6.47625320822217e-07
-4.41081567699668e-10
-9.42157404721711e-08
7.44704914105538e-07
1.3081426468815e-10
-5.25006341724547e-08
7.42966229149306e-07
1.38715808703761e-10
-5.3149227416953e-08
6.9757467786988e-07
-5.54610595492251e-10
-9.91796368234677e-08
7.63324012135262e-07
1.81383497724555e-10
-5.57944410447926e-08
7.14650537558794e-07
-1.7159861294158e-09
-1.01450884102283e-07
6.6026957894327e-07
-1.46129624041422e-09
-1.41015061093014e-07
8.00098351976159e-07
4.639605853643e-11
-5.54394470883375e-08
7.99149027647998e-07
1.85572339942557e-11
-5.60701284185499e-08
7.50326723462818e-07
-6.82866309594694e-10
-1.04569474304416e-07
8.22184510784155e-07
3.47742197841854e-11
-5.87561372266791e-08
7.69763692636457e-07
-2.04959334683539e-09
-1.06767018892446e-07
7.11154128045356e-07
-1.60459667973894e-09
-1.48459239253191e-07
8.38874453258426e-07
6.45309426243085e-11
-6.12398022162738e-08
8.07490084208934e-07
-1.94062742882971e-09
-1.14627435974376e-07
7.39376349764495e-07
-2.41010258724582e-09
-1.5454015395062e-07
6.69568283423189e-07
-2.98265105307375e-09
-1.86907253940413e-07
8.58787473282597e-07
-7.25798110716321e-11
-5.86161665424607e-08
8.586070139059e-07
-1.98313294640214e-10
-5.92128843193657e-08
8.06122166090987e-07
-8.27304020874454e-10
-1.10407276596222e-07
8.8439000492444e-07
-2.40109656053201e-10
-6.19464377310967e-08
8.27973416484732e-07
-2.42313763882973e-09
-1.12539247390162e-07
7.64895586802515e-07
-1.76572062018093e-09
-1.56544919380339e-07
9.03598223631151e-07
-2.21875180373426e-10
-6.44667138615799e-08
8.69755875631613e-07
-2.41596600181242e-09
-1.20655214042552e-07
7.96351313058326e-07
-2.65737110419865e-09
-1.62688837135623e-07
7.21100101439134e-07
-3.20106795365988e-09
-1.96789575515941e-07
8.94621667877259e-07
-2.13592080516106e-10
-6.51838740272414e-08
8.91372736931179e-07
-1.33386098840654e-09
-1.27032760081808e-07
8.47757925629455e-07
-2.47370274696905e-09
-1.76514590292307e-07
7.4702078944544e-07
-3.94601037510114e-09
-2.08100962540532e-07
6.67409492866346e-07
-3.61284859502997e-09
-2.31919570845627e-07
9.21065331157349e-07
-2.39716589165583e-10
-6.20377671548321e-08
9.21602906212108e-07
-4.59971452326623e-10
-6.26081179114475e-08
8.65243369399609e-07
-1.02447883501024e-09
-1.16712601479515e-07
9.50189498033811e-07
-5.77557191038159e-10
-6.54198812405908e-08
8.89558990380331e-07
-2.82974117166343e-09
-1.18795722712691e-07
8.21743681656159e-07
-1.94525764786778e-09
-1.65309866983963e-07
9.71975817620327e-07
-6.32657065300697e-10
-6.79846719512783e-08
9.35524295575799e-07
-2.92685253998929e-09
-1.27210852890761e-07
8.56525096928002e-07
-2.9399540024387e-09
-1.71538490524135e-07
7.7552332502194e-07
-3.44279314082268e-09
-2.07524993236599e-07
9.63640406448099e-07
-5.9504212712496e-10
-6.86451522827119e-08
9.60107107905126e-07
-1.84932415673786e-09
-1.33767457718081e-07
9.13065386844917e-07
-2.79713068354543e-09
-1.85822587664947e-07
8.04507906333972e-07
-4.2782557996443e-09
-2.19098345706472e-07
7.18675389778875e-07
-3.86349028238163e-09
-2.44191489025734e-07
9.2483675736623e-07
-6.05140988040793e-10
-6.72617945304792e-08
9.45856229318953e-07
-9.07309184213577e-10
-1.34777537617739e-07
9.38547835650308e-07
-2.17675618691283e-09
-1.95907319581023e-07
8.56441358075282e-07
-3.66888220230644e-09
-2.39292461605681e-07
7.37870539507298e-07
-4.41638108153582e-09
-2.61051328668365e-07
6.5326536323851e-07
-2.72045638550666e-09
-2.76676655352979e-07
9.87228302746581e-07
-4.31843114282865e-10
-6.57307533743324e-08
9.88430820661556e-07
-7.82125143974176e-10
-6.62851246648889e-08
9.27970140605815e-07
-1.23967858087243e-09
-1.2352457317199e-07
1.01989074708872e-06
-9.72846275683498e-10
-6.9188015394003e-08
9.54797250987742e-07
-3.2969719420845e-09
-1.25573598360525e-07
8.81969494308103e-07
-2.14164557555123e-09
-1.74796533401054e-07
1.04427310681298e-06
-1.04289808393336e-09
-7.18315858811299e-08
1.00509525636627e-06
-3.48404101569982e-09
-1.34336275691393e-07
9.20179939079423e-07
-3.26423914209232e-09
-1.81131299771941e-07
8.33089460760731e-07
-3.71016826558094e-09
-2.19165495106952e-07
1.03648897500325e-06
-1.05442969312171e-09
-7.24263765284506e-08
1.03270365022619e-06
-2.42769759049676e-09
-1.41080134033844e-07
9.82034527873648e-07
-3.1946228705718e-09
-1.95925053821889e-07
8.65219479971426e-07
-4.64775725712597e-09
-2.31044728691303e-07
7.7281331002499e-07
-4.14004087376046e-09
-2.57522412827093e-07
9.96139822809709e-07
-1.0911614964682e-09
-7.08064600181778e-08
1.01877728949983e-06
-1.47019801446778e-09
-1.41945038621458e-07
1.01085996873575e-06
-2.63690986542687e-09
-2.06239431332067e-07
9.22335432147193e-07
-4.05645616245967e-09
-2.51937925359071e-07
7.94543081964541e-07
-4.77393002392866e-09
-2.74859854906026e-07
7.03317814271132e-07
-2.9218642804452e-09
-2.91321520463289e-07
9.36864869911011e-07
-1.0486933235088e-09
-6.80610538051966e-08
9.7209301550211e-07
-9.3823100007147e-10
-1.38311354817626e-07
9.9100659552361e-07
-1.70909983413318e-09
-2.07643720459552e-07
9.45181178925831e-07
-2.66527320838546e-09
-2.65872926322494e-07
8.40422318620095e-07
-3.9235365070938e-09
-3.00999320553306e-07
7.19404207690969e-07
-3.44392560584915e-09
-3.12608253282131e-07
6.3139122733947e-07
-1.16336600149602e-09
-3.21265307916397e-07
1.05760155274255e-06
-6.58323256592701e-10
-6.97145449779615e-08
1.05942487994981e-06
-1.16769759175668e-09
-7.02578212513044e-08
9.94608048257323e-07
-1.48674009764736e-09
-1.30881637877021e-07
1.0938273780754e-06
-1.45036739289722e-09
-7.32680331463506e-08
1.02400729451226e-06
-3.83304750175524e-09
-1.32901522351796e-07
9.45861176335313e-07
-2.36112187265276e-09
-1.85054916616988e-07
1.12084622194956e-06
-1.53952061068769e-09
-7.60060923125741e-08
1.07879092632167e-06
-4.1213774676962e-09
-1.42059033822044e-07
9.87612190545229e-07
-3.63003794641288e-09
-1.91517200921589e-07
8.94068584235055e-07
-4.00587302714224e-09
-2.31769465328092e-07
1.11353576922772e-06
-1.59147987081977e-09
-7.64978150636983e-08
1.10947986606479e-06
-3.08050523867219e-09
-1.4901113223889e-07
1.05499660695029e-06
-3.69392693778956e-09
-2.06868427243366e-07
9.2943602824015e-07
-5.05968511282946e-09
-2.43997982350524e-07
8.30071083507076e-07
-4.44541057882024e-09
-2.71977402667879e-07
1.07140429431355e-06
-1.65538970927314e-09
-7.4663093542999e-08
1.09579100297771e-06
-2.12654055700792e-09
-1.49741031426906e-07
1.08722730897326e-06
-3.16467634534419e-09
-2.17477103920238e-07
9.91921973430085e-07
-4.48432611501139e-09
-2.65674533797095e-07
8.54389227510808e-07
-5.17081667635564e-09
-2.89859542655063e-07
7.56167884426407e-07
-3.14530234187208e-09
-3.07226645333643e-07
1.00905467958109e-06
-1.60909695577697e-09
-7.16713309726712e-08
1.04700304549834e-06
-1.48721883769779e-09
-1.45699193684337e-07
1.0673305362357e-06
-2.2066520627484e-09
-2.18698741616126e-07
1.0178878426862e-06
-3.06915518238029e-09
-2.79932642181795e-07
9.04957783029204e-07
-4.3276830279416e-09
-3.16919022390906e-07
7.74519027017619e-07
-3.74785560632386e-09
-3.2914820608209e-07
6.79618168918316e-07
-1.27758963683348e-09
-3.38270313216377e-07
9.3997170795407e-07
-1.40030728215386e-09
-6.83540337814887e-08
9.8163549469905e-07
-1.15630943223063e-09
-1.39585199276746e-07
1.01230687777212e-06
-1.39198685911862e-09
-2.12575470234772e-07
9.92639667162913e-07
-1.91325893949981e-09
-2.80798200821144e-07
9.22827632181555e-07
-2.95857101686931e-09
-3.3403407866473e-07
8.16292901354958e-07
-3.12416128986613e-09
-3.60630347964312e-07
6.96608937748964e-07
-1.79791911981423e-09
-3.62446640734213e-07
6.06395176785348e-07
-1.03088409153106e-11
-3.65045749497768e-07
1.13253774349949e-06
-9.28344771319631e-10
-7.40074581114997e-08
1.13493399800484e-06
-1.62321476601479e-09
-7.45438375093421e-08
1.06548660646273e-06
-1.76769962504438e-09
-1.38825113964015e-07
1.17237213954237e-06
-2.03594099619768e-09
-7.76761597086466e-08
1.0975326560443e-06
-4.45133311700524e-09
-1.40818309073693e-07
1.01372982584282e-06
-2.61001311097474e-09
-1.96140052562643e-07
1.20206159612082e-06
-2.13999442757158e-09
-8.05253961713223e-08
1.15696896026454e-06
-4.86201009937003e-09
-1.50416859948734e-07
1.05914448687179e-06
-4.04561203955202e-09
-2.02749072717512e-07
9.58751027533754e-07
-4.33486907210121e-09
-2.45402173084558e-07
1.19512768079692e-06
-2.23285403480104e-09
-8.08981737853115e-08
1.19079739583717e-06
-3.83852713423325e-09
-1.57606275040606e-07
1.13228175282628e-06
-4.25827985931387e-09
-2.18715716192384e-07
9.97456943490727e-07
-5.52007714573311e-09
-2.58023576423018e-07
8.90714687441405e-07
-4.78324373256878e-09
-2.87629368747891e-07
1.15098555029536e-06
-2.30869181646561e-09
-7.88635730779288e-08
1.17722171303858e-06
-2.79072248087238e-09
-1.58218056460021e-07
1.16798112126361e-06
-3.77931527680356e-09
-2.29679256165711e-07
1.06552165703932e-06
-4.95863697491764e-09
-2.80568700119738e-07
9.17682341967741e-07
-5.61222697323169e-09
-3.06123732626934e-07
8.1205465408344e-07
-3.39321281426198e-09
-3.24470416994138e-07
1.08524897199653e-06
-2.25276541826136e-09
-7.55964075680354e-08
1.12606147263672e-06
-2.11873754083824e-09
-1.53729076034956e-07
1.14792038212809e-06
-2.77367386400056e-09
-2.3072146777599e-07
1.09466305483648e-06
-3.52320501827026e-09
-2.9521276824231e-07
9.73103737595765e-07
-4.77863041988691e-09
-3.34212088087529e-07
8.32712893797035e-07
-4.0865042934203e-09
-3.47111749297501e-07
7.30533185845831e-07
-1.4070251443673e-09
-3.56734091664148e-07
1.01236040511183e-06
-2.01374237972073e-09
-7.19834581279483e-08
1.05724110084916e-06
-1.75215352957262e-09
-1.47011669378428e-07
1.09024095836828e-06
-1.95531291732473e-09
-2.23884125141737e-07
1.06896578044777e-06
-2.41149133884374e-09
-2.95681525036787e-07
9.93668239408909e-07
-3.39279421921998e-09
-3.51707274529405e-07
8.78817420131706e-07
-3.48641568891296e-09
-3.79704424259096e-07
7.49813012215137e-07
-2.00826034771308e-09
-3.81620959053509e-07
6.52545336386364e-07
-5.40564301214804e-11
-3.84365881376085e-07
9.39832983757371e-07
-1.63354877689596e-09
-6.84363782528238e-08
9.84191945626019e-07
-1.44386469613061e-09
-1.39974780695408e-07
1.01838283005254e-06
-1.42441736413488e-09
-2.13920142068794e-07
1.00941439802466e-06
-1.63911565284485e-09
-2.86484839541029e-07
9.6556514815545e-07
-2.08963796318827e-09
-3.51931753755379e-07
8.94478026775545e-07
-2.53764198484148e-09
-3.99594037419665e-07
7.90992800327773e-07
-1.86909593045694e-09
-4.17863139652721e-07
6.71618535366885e-07
-4.39104490493987e-10
-4.10508066322079e-07
5.80905853738176e-07
7.88600834432835e-10
-4.07610884136498e-07
1.21243045663921e-06
-1.25948095642656e-09
-7.86328315848946e-08
1.2153329862744e-06
-2.1700004205569e-09
-7.91569358015308e-08
1.14095810918933e-06
-2.08017533115788e-09
-1.47398493099527e-07
1.25590423221158e-06
-2.70337519743522e-09
-8.24515695802845e-08
1.17573943140257e-06
-5.14535368550663e-09
-1.49372679539584e-07
1.0859117159467e-06
-2.89456142567743e-09
-2.0811223003314e-07
1.28829069940569e-06
-2.87620862945394e-09
-8.53884883102149e-08
1.24000256386003e-06
-5.70114736857078e-09
-1.5945971120745e-07
1.13512517101948e-06
-4.522445751724e-09
-2.14886317726155e-07
1.02745045699474e-06
-4.70347812531653e-09
-2.60135697696067e-07
1.28164448697546e-06
-2.9977036178376e-09
-8.56587073901499e-08
1.27706720889936e-06
-4.74605910663145e-09
-1.66910975600035e-07
1.21425619723838e-06
-4.90933536932803e-09
-2.31527369193461e-07
1.069604952766e-06
-6.03795819993074e-09
-2.73193663831478e-07
9.55030736216268e-07
-5.15840004297341e-09
-3.04559365213176e-07
1.235249120351e-06
-3.07520793897756e-09
-8.34208089811911e-08
1.26344433059913e-06
-3.54609408611126e-09
-1.67413037043227e-07
1.25350504638921e-06
-4.49073436246741e-09
-2.42897471669071e-07
1.1434744932112e-06
-5.49188791254729e-09
-2.96696283308254e-07
9.84715564163171e-07
-6.10500664959281e-09
-3.2373448434253e-07
8.71234899585551e-07
-3.66911387984561e-09
-3.4313994320936e-07
1.16579500709341e-06
-2.99805772491068e-09
-7.98561633339681e-08
1.20966037439086e-06
-2.8326368751611e-09
-1.62420355123294e-07
1.23313466361375e-06
-3.43782151764007e-09
-2.43773433679307e-07
1.17585197009142e-06
-4.03831313636844e-09
-3.11787812946902e-07
1.04516973301095e-06
-5.28306895264749e-09
-3.52963269748322e-07
8.94248500864832e-07
-4.46494584600689e-09
-3.66587138202973e-07
7.84361170782955e-07
-1.55295733411589e-09
-3.76744887924093e-07
1.08875119225784e-06
-2.71629577744732e-09
-7.59267097741391e-08
1.13703831820792e-06
-2.43354931082417e-09
-1.55078550302002e-07
1.17250771832142e-06
-2.59869249482904e-09
-2.36170380914509e-07
1.14954990529913e-06
-2.96598168185767e-09
-3.11861835174787e-07
1.0684662366509e-06
-3.8826869845929e-09
-3.70905909400436e-07
9.44831395151341e-07
-3.89221615983667e-09
-4.00419847273942e-07
8.05979935624689e-07
-2.24493816315931e-09
-4.02440127161858e-07
7.01255295330192e-07
-1.07769239018023e-10
-4.05335760456337e-07
1.01216885163766e-06
-2.27922171070411e-09
-7.20697746763417e-08
1.05995473554555e-06
-2.08731437735531e-09
-1.47410717962485e-07
1.09674825991236e-06
-2.04624264445846e-09
-2.25285630280377e-07
1.087012188143e-06
-2.20170551256842e-09
-3.01690582769167e-07
1.03964995390213e-06
-2.5854614765372e-09
-3.70572622178534e-07
9.62968474633746e-07
-2.95636009362162e-09
-4.20727212237031e-07
8.51393771411834e-07
-2.16127615056323e-09
-4.39951799068186e-07
7.22727464531506e-07
-5.6233092262269e-10
-4.32221200690888e-07
6.24927785422654e-07
7.51909686659045e-10
-4.29139264091853e-07
9.38991072610678e-07
-1.77605375762842e-09
-6.84389091543972e-08
9.84296839526153e-07
-1.68119852987787e-09
-1.40090157202801e-07
1.0194808074548e-06
-1.59189573705706e-09
-2.14231643316948e-07
1.01288806251845e-06
-1.62725986630443e-09
-2.87800188144883e-07
9.79686998889475e-07
-1.80590167718979e-09
-3.58122271880297e-07
9.35196271516181e-07
-2.01881875718722e-09
-4.20346818646954e-07
8.67685759696526e-07
-1.7889257587893e-09
-4.6251709404087e-07
7.64679029213004e-07
-7.74186637966108e-10
-4.72735934864519e-07
6.45475637778967e-07
5.49130641842133e-10
-4.56690295851823e-07
5.5556654190722e-07
8.73748846554036e-10
-4.48252070439616e-07
1.29771333764038e-06
-1.6664891805608e-09
-8.36159781952929e-08
1.30104531291274e-06
-2.84116978337845e-09
-8.41302296191085e-08
1.22141877638963e-06
-2.45065996699617e-09
-1.56642532646522e-07
1.34483291733535e-06
-3.47843569402915e-09
-8.76198785767138e-08
1.25900058613193e-06
-5.87984797183601e-09
-1.58618127358249e-07
1.16277079246214e-06
-3.22099084524459e-09
-2.21036351835878e-07
1.3799741478533e-06
-3.75142274323827e-09
-9.06350436338395e-08
1.32830666930991e-06
-6.66153969674534e-09
-1.69239242718672e-07
1.21593093273483e-06
-5.07766867014629e-09
-2.2799508079093e-07
1.10050701430748e-06
-5.1193737677737e-09
-2.76049099954317e-07
1.37350657614353e-06
-3.90687469459742e-09
-9.08310183105407e-08
1.36864534306375e-06
-5.66810845337025e-09
-1.76999471983796e-07
1.30131288522675e-06
-5.66740861102375e-09
-2.45371228641629e-07
1.1462288068509e-06
-6.62561767566729e-09
-2.89587707929484e-07
1.0233292450095e-06
-5.576971493408e-09
-3.22856778960991e-07
1.32458599698764e-06
-3.98141225468399e-09
-8.83527014683751e-08
1.35484364355194e-06
-4.43866387626311e-09
-1.77365177963783e-07
1.34420569157717e-06
-5.32172549499982e-09
-2.57198953653648e-07
1.22614677932074e-06
-6.09727800020826e-09
-3.141398948125e-07
1.0558047363744e-06
-6.65802221834253e-09
-3.427826658698e-07
9.33985669150999e-07
-3.97740566989664e-09
-3.63332170323484e-07
1.25106060901524e-06
-3.86980304799094e-09
-8.44705155422004e-08
1.29818065238708e-06
-3.66087878502802e-09
-1.71826086361495e-07
1.32336667384994e-06
-4.21648514012028e-09
-2.5791892571443e-07
1.26182880929687e-06
-4.62655530054056e-09
-3.29739005694085e-07
1.12148747226951e-06
-5.85107866275757e-09
-3.73267371113942e-07
9.59408087898999e-07
-4.88983226312938e-09
-3.876728814135e-07
8.41348050433887e-07
-1.71799449607322e-09
-3.98408263907366e-07
1.16948609037187e-06
-3.52965171269941e-09
-8.02027516968038e-08
1.22139162441873e-06
-3.21896468350147e-09
-1.63822874321717e-07
1.25948363205453e-06
-3.34025381467534e-09
-2.49493439746205e-07
1.23475257073472e-06
-3.60034034178792e-09
-3.29413155872921e-07
1.14755684637775e-06
-4.43596820884513e-09
-3.91724737161976e-07
1.01463107439447e-06
-4.34836705798141e-09
-4.22879030764051e-07
8.65359851676641e-07
-2.51292014879491e-09
-4.2500645549688e-07
7.52740961515823e-07
-1.70402513956923e-10
-4.28059629988294e-07
1.08848710157178e-06
-3.01813575787068e-09
-7.60158444344291e-08
1.13990416338325e-06
-2.8229635851973e-09
-1.55486418201459e-07
1.17945672765282e-06
-2.75584341546253e-09
-2.37629433549277e-07
1.16891878118264e-06
-2.83993729634719e-09
-3.18202030749769e-07
1.11786583347494e-06
-3.14276213806578e-09
-3.90816664326088e-07
1.03527504899108e-06
-3.42534616222543e-09
-4.43678813038821e-07
9.15154350558611e-07
-2.49066006828812e-09
-4.6393411758637e-07
7.76671189308451e-07
-7.0319320725295e-10
-4.55788023280288e-07
6.71381820447994e-07
7.06678993598045e-10
-4.52496024656123e-07
1.01121846082773e-06
-2.43435686670112e-09
-7.20716354591058e-08
1.06002493646927e-06
-2.35761073867782e-09
-1.47527213491205e-07
1.09789080996956e-06
-2.26289263877812e-09
-2.25603561340853e-07
1.09072049002497e-06
-2.25196027478278e-09
-3.03066750455271e-07
1.0548569903516e-06
-2.36013021604562e-09
-3.77084854429623e-07
1.00677469143786e-06
-2.52273190952068e-09
-4.42583942131622e-07
9.33921583168852e-07
-2.16863160723758e-09
-4.86954932737584e-07
8.22860085316627e-07
-9.99207231744081e-10
-4.97695492937163e-07
6.94389611603405e-07
4.25709828005323e-10
-4.80808389981804e-07
5.97464714345165e-07
8.39686046520345e-10
-4.71876692347149e-07
9.38334961498407e-07
-1.87023360839885e-09
-6.84126238345321e-08
9.83682711693114e-07
-1.84338218004185e-09
-1.40096018220051e-07
1.0192316988647e-06
-1.75692712021376e-09
-2.14306529825258e-07
1.01289803129417e-06
-1.70173518796958e-09
-2.88002900692166e-07
9.82055828084979e-07
-1.73177681353796e-09
-3.59365726813385e-07
9.48691007450481e-07
-1.81809345512807e-09
-4.27248473695578e-07
9.08249548414023e-07
-1.70800066873957e-09
-4.86190742630005e-07
8.40597343989474e-07
-1.06403982693551e-09
-5.22896335432673e-07
7.36861748322282e-07
-6.15559878079962e-11
-5.25128299021482e-07
6.18533735113221e-07
9.26827694105551e-10
-5.01019396629108e-07
5.29950610102407e-07
6.55308265238411e-10
-4.86638114037786e-07
1.38885109099709e-06
-2.14807790498343e-09
-8.89892416611613e-08
1.3925429294195e-06
-3.67133029283631e-09
-8.94923519235214e-08
1.30730115414562e-06
-2.89325289987885e-09
-1.66604787168015e-07
1.4396262160525e-06
-4.42932334864339e-09
-9.32047631233115e-08
1.34776022752163e-06
-6.74909575592532e-09
-1.68591139714185e-07
1.24470762476997e-06
-3.59818546433257e-09
-2.34980955619995e-07
1.47759394473473e-06
-4.78993559991784e-09
-9.63079379461649e-08
1.4223172354368e-06
-7.69675083622821e-09
-1.79813295673443e-07
1.30196683905156e-06
-5.72801032272757e-09
-2.42146767164809e-07
1.17829013241077e-06
-5.59029957587847e-09
-2.93228862208931e-07
1.47116562122949e-06
-4.98936020927086e-09
-9.64207133629711e-08
1.46599895440106e-06
-6.74951409898361e-09
-1.87900496400003e-07
1.39388415797581e-06
-6.56612430929201e-09
-2.60321852320817e-07
1.22770796898188e-06
-7.30052957357365e-09
-3.0729276218618e-07
1.09594672408002e-06
-6.04629051200472e-09
-3.42619831395551e-07
1.41942313211507e-06
-5.05633840899949e-09
-9.36872687905418e-08
1.4519086030938e-06
-5.4665578542794e-09
-1.88097351231668e-07
1.44050744022126e-06
-6.30226925639351e-09
-2.72666098453396e-07
1.31393253559482e-06
-6.79263574612865e-09
-3.32989517010302e-07
1.13129152890975e-06
-7.2825386346255e-09
-3.63368381454905e-07
1.00060698214412e-06
-4.3236249646402e-09
-3.85153900639082e-07
1.34143958558098e-06
-4.89777346945538e-09
-8.94621206756726e-08
1.39202505945802e-06
-4.63562641642528e-09
-1.81999961346941e-07
1.41903933559573e-06
-5.1301284124046e-09
-2.73229060254237e-07
1.3529916388654e-06
-5.30134710541307e-09
-3.49157044444922e-07
1.20241410753284e-06
-6.49494857247663e-09
-3.95229021049157e-07
1.02849588560857e-06
-5.36957403297584e-09
-4.10477815732676e-07
9.01756970910179e-07
-1.90693936849507e-09
-4.21833579043233e-07
1.25492969047603e-06
-4.48033874920685e-09
-8.48325390834905e-08
1.31068554362809e-06
-4.13541728354892e-09
-1.73289671320161e-07
1.35156760019057e-06
-4.2045442536959e-09
-2.63921608956658e-07
1.32496509141097e-06
-4.33467525482685e-09
-3.48422378957333e-07
1.23130129197163e-06
-5.06525594521869e-09
-4.14268493293122e-07
1.08853486100937e-06
-4.8641566307173e-09
-4.47196333734043e-07
9.28221847817721e-07
-2.81902408238722e-09
-4.49433205073783e-07
8.0723133006569e-07
-2.44867845518863e-10
-4.52653239862705e-07
1.16912511590914e-06
-3.87345877388948e-09
-8.02936366014073e-08
1.22439739063614e-06
-3.67357237912928e-09
-1.64241071694834e-07
1.2668808509298e-06
-3.57467203574903e-09
-2.51012152900564e-07
1.25550440761756e-06
-3.57317579302377e-09
-3.36105213265214e-07
1.20055572968468e-06
-3.77173635783423e-09
-4.12766316470937e-07
1.11171894208902e-06
-3.95370376022733e-09
-4.68562760968274e-07
9.82556446889685e-07
-2.86391787526747e-09
-4.89929540087652e-07
8.33687105262607e-07
-8.67419254719162e-10
-4.81324951042741e-07
7.2046826232511e-07
6.51540645029008e-10
-4.77797168202166e-07
1.08740415155659e-06
-3.18728995421736e-09
-7.60159644280313e-08
1.13991995060725e-06
-3.13092567464952e-09
-1.55602580892632e-07
1.18062971831545e-06
-3.02846066450728e-09
-2.37952264529877e-07
1.17285961042672e-06
-2.96265419113678e-09
-3.1964483461464e-07
1.13418683505804e-06
-2.98946882004392e-09
-3.97684161615968e-07
1.08233100665328e-06
-3.06879574023168e-09
-4.66728849465521e-07
1.00383500332419e-06
-2.59164408408032e-09
-5.13490554792661e-07
8.84262747813894e-07
-1.25752469567236e-09
-5.2478201355459e-07
7.46002697100089e-07
2.82823897786801e-10
-5.06976687763347e-07
6.41665409896151e-07
8.03448617863532e-10
-4.97499754785866e-07
1.0104677414997e-06
-2.523224585057e-09
-7.20432923635617e-08
1.05931859591028e-06
-2.53378242267528e-09
-1.4753099411748e-07
1.09757951560651e-06
-2.46055024708717e-09
-2.25676876367604e-07
1.09069321131364e-06
-2.37576982719711e-09
-3.03273859977787e-07
1.05737488247144e-06
-2.34720332002764e-09
-3.78397666982093e-07
1.02129809243934e-06
-2.37053108490756e-09
-4.4984338092793e-07
9.77558450251809e-07
-2.18500726038001e-09
-5.11875647277488e-07
9.04531408234057e-07
-1.40170368656276e-09
-5.50486069391505e-07
7.92696148122602e-07
-2.35833075209077e-10
-5.52867840964744e-07
6.65180847919805e-07
8.0732622027295e-10
-5.2742284659801e-07
5.69695365743305e-07
6.10620487033069e-10
-5.12231706048877e-07
9.37872720583633e-07
-1.96106483994152e-09
-6.8356308990379e-08
9.82992147007582e-07
-1.95375432205614e-09
-1.40043822647557e-07
1.01859334974589e-06
-1.87024264617283e-09
-2.14291254669015e-07
1.01231377276268e-06
-1.77205121435291e-09
-2.88016371838285e-07
9.81689311482575e-07
-1.72471939456907e-09
-3.59452502796193e-07
9.50916063037441e-07
-1.7192543371399e-09
-4.28527928430928e-07
9.22029544906908e-07
-1.64343128998656e-09
-4.94093439159979e-07
8.81198177553163e-07
-1.26977261094648e-09
-5.49570803314521e-07
8.11523979173488e-07
-5.17808080312192e-10
-5.80763713049426e-07
7.0736927419247e-07
4.47553757942432e-10
-5.75287007152661e-07
5.90585294172864e-07
7.96652777238479e-10
-5.43211437253857e-07
5.03451845451274e-07
4.04245415505552e-10
-5.22670880230266e-07
1.48635550131362e-06
-2.71804475538324e-09
-9.47859164486708e-08
1.49031866102344e-06
-4.63577276866646e-09
-9.52875956610692e-08
1.39907417621261e-06
-3.42252022419105e-09
-1.77339407013019e-07
1.54077376423368e-06
-5.58260064039491e-09
-9.92358798983861e-08
1.44249546660324e-06
-7.77748547044269e-09
-1.79343043744737e-07
1.33216017686351e-06
-4.03561319397738e-09
-2.50021479042746e-07
1.58163984394388e-06
-6.04068725644236e-09
-1.02434159337492e-07
1.52252584972091e-06
-8.92839477364692e-09
-1.91233815578155e-07
1.39368114845277e-06
-6.48822332886944e-09
-2.57415144757413e-07
1.26120357136834e-06
-6.12503546067897e-09
-3.1176903496415e-07
1.5751141988898e-06
-6.28181481866417e-09
-1.02456281930957e-07
1.56965679977245e-06
-8.00577746755893e-09
-1.99656559662627e-07
1.49243700610827e-06
-7.63623280574969e-09
-2.76457709699546e-07
1.31445383725663e-06
-8.07770951298776e-09
-3.26404898255481e-07
1.17324897701004e-06
-6.57457398418505e-09
-3.63956080346221e-07
1.5202203358737e-06
-6.33667419327024e-09
-9.94494148231534e-08
1.55509695395034e-06
-6.67895606456134e-09
-1.99679380565248e-07
1.54289150606819e-06
-7.44111914394313e-09
-2.89409292747224e-07
1.40726974143313e-06
-7.6180320102776e-09
-3.53341118097953e-07
1.2115470796974e-06
-7.99265857195356e-09
-3.85601395222978e-07
1.07142564830715e-06
-4.71475523582961e-09
-4.08723177631364e-07
1.43735681047752e-06
-6.11634120898437e-09
-9.48567364395765e-08
1.49164738176417e-06
-5.78514982266124e-09
-1.92990791176954e-07
1.52062058545478e-06
-6.20370937775304e-09
-2.89776800617866e-07
1.44974326624779e-06
-6.07086248349002e-09
-3.70138869031705e-07
1.28833556794322e-06
-7.22985663020034e-09
-4.18963080400371e-07
1.1018413233495e-06
-5.91453446970129e-09
-4.35122432808505e-07
9.65873560685405e-07
-2.1242620766993e-09
-4.4714565385899e-07
1.34547207861572e-06
-5.6003337966785e-09
-8.98392907246872e-08
1.4053310096299e-06
-5.21477873632299e-09
-1.8352819123983e-07
1.44918743626114e-06
-5.22012652234219e-09
-2.79529430222693e-07
1.4206140970942e-06
-5.19135318946536e-09
-3.68987159663522e-07
1.32008785905539e-06
-5.78483018682885e-09
-4.38652947812386e-07
1.16688588091599e-06
-5.45110590825723e-09
-4.73498008936195e-07
9.94855624677632e-07
-3.17168814955203e-09
-4.75846197065056e-07
8.64974496611521e-07
-3.35374677701279e-10
-4.79240843227643e-07
1.25444249765287e-06
-4.87293772815338e-09
-8.49242421076998e-08
1.31381541832861e-06
-4.66720232823345e-09
-1.73718517351344e-07
1.35941815226911e-06
-4.52966330463926e-09
-2.65501482522158e-07
1.34716494587288e-06
-4.42500683602689e-09
-3.55490879438359e-07
1.2880951630607e-06
-4.49433438080389e-09
-4.36531787464892e-07
1.19264601026241e-06
-4.55358935441413e-09
-4.955056014093e-07
1.05390396540268e-06
-3.28970443211725e-09
-5.18072580502935e-07
8.94029002227758e-07
-1.06515152997766e-09
-5.08954414591714e-07
7.72401119241033e-07
5.92766741572918e-10
-5.05178422354715e-07
1.16788085447254e-06
-4.05859197493592e-09
-8.02909931964573e-08
1.22433419678223e-06
-4.0254808279304e-09
-1.64355661739906e-07
1.26806535122093e-06
-3.91262904964454e-09
-2.51338313403797e-07
1.25967293343455e-06
-3.78083840755407e-09
-3.3761684945713e-07
1.21803678382683e-06
-3.70882893619375e-09
-4.20017096428367e-07
1.16219621931631e-06
-3.68318516357933e-09
-4.92901388824576e-07
1.077732471694e-06
-3.0667352809928e-09
-5.42256731458266e-07
9.49152264964303e-07
-1.55574932365019e-09
-5.54130304812959e-07
8.00545119722712e-07
1.05237546681251e-10
-5.35320514500547e-07
6.88348065201212e-07
7.67955969264333e-10
-5.25247377918865e-07
1.0865350991606e-06
-3.26949001779709e-09
-7.59845815216972e-08
1.13909727897078e-06
-3.32283868101556e-09
-1.55602417971898e-07
1.18023394645052e-06
-3.26338683112086e-09
-2.38021643722565e-07
1.17277627043605e-06
-3.14246886216616e-09
-3.19854519560212e-07
1.13685129307834e-06
-3.04504619736113e-09
-3.9906469122478e-07
1.09791673852457e-06
-2.98983333798505e-09
-4.74381072201961e-07
1.05070513892005e-06
-2.70623559451177e-09
-5.39760167274467e-07
9.71998781420639e-07
-1.77573888317949e-09
-5.80439290039623e-07
8.51604906310999e-07
-4.47552066317598e-10
-5.82959871780004e-07
7.14389925262091e-07
6.81437944874591e-10
-5.56063468224574e-07
6.11610811107499e-07
5.61912865278124e-10
-5.39976761079655e-07
1.00992679193492e-06
-2.59339418504546e-09
-7.19832789595414e-08
1.05852929237016e-06
-2.63913697398628e-09
-1.47474731168964e-07
1.09684691846852e-06
-2.58658606082096e-09
-2.25658055444149e-07
1.09002315099064e-06
-2.47673467957475e-09
-3.03284270386528e-07
1.05694500723418e-06
-2.38720043116969e-09
-3.78488572087251e-07
1.02366876302109e-06
-2.32718492306306e-09
-4.51193016416558e-07
9.92381861190043e-07
-2.18707427297501e-09
-5.20192790424772e-07
9.48202695108352e-07
-1.71955417281722e-09
-5.78561733780887e-07
8.72980762195341e-07
-8.22036883122152e-10
-6.11355945991829e-07
7.60717030319758e-07
1.94045373745821e-10
-6.05601924046813e-07
6.34876849793085e-07
6.75021234429607e-10
-5.71778283158267e-07
5.4097238574606e-07
3.47331953865139e-10
-5.50099235673424e-07
9.36763289526368e-07
-2.0868074129523e-09
-6.82162317538686e-08
9.82243441774125e-07
-2.03833443692503e-09
-1.39932003783143e-07
1.0178768865153e-06
-1.92801558644706e-09
-2.14215535507055e-07
1.01161400252742e-06
-1.7996132617255e-09
-2.87969005775835e-07
9.8100627089689e-07
-1.71730245091944e-09
-3.59396221528244e-07
9.5053435576072e-07
-1.66859444877566e-09
-4.28521494439043e-07
9.2441196387242e-07
-1.58676868683188e-09
-4.95530555956481e-07
8.95236105790601e-07
-1.34923602965762e-09
-5.58629239671875e-07
8.51651170737103e-07