/*--------------------------------*- C++ -*----------------------------------*\
  =========                 |
  \\      /  F ield         | OpenFOAM: The Open Source CFD Toolbox
   \\    /   O peration     | Website:  https://openfoam.org
    \\  /    A nd           | Version:  12
     \\/     M anipulation  |
\*---------------------------------------------------------------------------*/
/*   Windows 32 and 64 bit porting by blueCAPE: http://www.bluecape.com.pt   *\
|  Based on Windows porting (2.0.x v4) by Symscape: http://www.symscape.com   |
\*---------------------------------------------------------------------------*/
FoamFile
{
    format      ascii;
    class       volVectorField;
    location    "0";
    object      U;
}
// * * * * * * * * * * * * * * * * * * * * * * * * * * * * * * * * * * * * * //

dimensions      [0 1 -1 0 0 0 0];

internalField   nonuniform List<vector> 
10116
(
(3.09994717922098e-07 0.000387731790730835 1.31244706594979e-05)
(3.11476825762554e-07 0.000417982013837606 1.38195299434341e-05)
(6.05619118130795e-07 0.000387704219997311 1.32366972727846e-05)
(6.6306039342671e-07 0.000386502970398635 4.06356945870459e-05)
(3.11180670138657e-07 0.000449903072939112 1.45736143863279e-05)
(5.99743677246299e-07 0.000417949020875525 1.39446366194654e-05)
(6.78555372833428e-07 0.000416647012479199 4.2781015201078e-05)
(6.01022846558011e-07 0.000387650961199381 1.34487031486618e-05)
(1.06148875146242e-06 0.000386445485676796 4.04043854619259e-05)
(4.58378128213785e-07 0.000383841898905829 6.96706728754055e-05)
(3.0794447871439e-07 0.000483641322019569 1.53899328282515e-05)
(5.87232786992632e-07 0.00044986002877135 1.47112260752427e-05)
(6.94320759499185e-07 0.000448456519328701 4.5109836066472e-05)
(5.75434256721737e-07 0.000417883241751539 1.41634338979895e-05)
(1.04701908910802e-06 0.000416581980529259 4.25379116816715e-05)
(4.69107939070418e-07 0.000413753867722963 7.33468179806474e-05)
(3.51222444768769e-07 0.000387560458290105 1.36291305603037e-05)
(9.23120643669417e-07 0.000386372105432723 4.07485083787118e-05)
(7.30571840251411e-07 0.000383774221415456 6.90850164384097e-05)
(-1.80737439694447e-07 0.000379563304748189 9.89290417624113e-05)
(2.98161728384701e-07 0.000519357821576221 1.62724030842205e-05)
(5.51272453024009e-07 0.000483594380681404 1.55365577266256e-05)
(7.10156278320477e-07 0.000482076731365606 4.76315662182221e-05)
(5.18469826963043e-07 0.000449791954399741 1.49330822568709e-05)
(1.02790082223876e-06 0.000448384495282694 4.48528715345717e-05)
(4.79667923325622e-07 0.000445319166503238 7.73392732851304e-05)
(2.73651740499503e-07 0.000417790745311316 1.43477256622947e-05)
(8.43808648657621e-07 0.000416499752044003 4.29016156685707e-05)
(7.31763707788685e-07 0.0004136779101512 7.27208501429212e-05)
(-2.02138321863806e-07 0.000409100729517324 0.000104157280032227)
(3.37151520932043e-08 0.000387452226669786 1.37029773108433e-05)
(5.87583511782541e-07 0.00038625789999024 4.12420728930989e-05)
(6.57771469735229e-07 0.000383645784690395 6.93505989815063e-05)
(-4.90563335582e-07 0.000379464130259691 9.86323167456892e-05)
(-6.21654913026884e-07 0.000373648565414322 0.00012734350095469)
(2.78828410431949e-07 0.00055722970002884 1.72231207565275e-05)
(5.00187832816782e-07 0.000519316081328255 1.64282641812256e-05)
(7.18399405853458e-07 0.000517669706021426 5.03564862237012e-05)
(4.2899535038941e-07 0.00048352978764722 1.57710953448947e-05)
(1.00542123252849e-06 0.000482003471128092 4.73556908018717e-05)
(4.90116733557821e-07 0.000478683627386314 8.16657459100015e-05)
(1.43108125034372e-07 0.000449704321164189 1.51314810878793e-05)
(7.56425293849079e-07 0.000448293620802408 4.5235887187038e-05)
(7.29195542655985e-07 0.000445234162075939 7.66692596927278e-05)
(-2.26253070231572e-07 0.000440270160851541 0.000109836625730035)
(-1.05570994655585e-07 0.000417679388964749 1.44308229241186e-05)
(4.50833351936357e-07 0.000416375182391493 4.34270050872765e-05)
(6.30646386747531e-07 0.000413532795026538 7.30061855866342e-05)
(-5.52300205745401e-07 0.00040899113402026 0.000103842136919308)
(-6.65939827752804e-07 0.000402667932470777 0.000134080411390005)
(-2.27397047492696e-07 0.000387303397500963 1.36932637618277e-05)
(1.90590552608071e-07 0.000386125597628672 4.15369692546217e-05)
(3.1110448138145e-07 0.0003834585417692 6.98898670287278e-05)
(-6.36673709703688e-07 0.000379295499991225 9.88665268230319e-05)
(-1.30208605478295e-06 0.000373536489605676 0.000127845812028944)
(-6.31354836819716e-07 0.000366184006273897 0.000154913043150237)
(2.55314855738746e-07 0.000597441505796335 1.824931414384e-05)
(4.27726164743841e-07 0.000557187799443037 1.73941809661715e-05)
(7.26841281114325e-07 0.000555409518288174 5.32973946676867e-05)
(3.19930603195161e-07 0.000519242969443853 1.66809144293287e-05)
(9.66771265562831e-07 0.000517595032414669 5.00650987956552e-05)
(5.01016088992829e-07 0.000514004417989226 8.63445938566829e-05)
(9.78402192268485e-10 0.000483434027010531 1.59881738242979e-05)
(6.60973980594467e-07 0.000481901599285059 4.77741366471955e-05)
(7.21837786898008e-07 0.000478589776963427 8.09492856733487e-05)
(-2.53432098349979e-07 0.000473214720069338 0.000115994164256274)
(-2.87860125101543e-07 0.00044956668531037 1.52260525406115e-05)
(2.99675677282159e-07 0.000448158741187003 4.58025760094848e-05)
(5.89312195850791e-07 0.000445067908513517 7.69774437552441e-05)
(-6.21883482997574e-07 0.000440148941449489 0.00010950106152886)
(-7.14853101215562e-07 0.00043328860545277 0.000141398865703485)
(-4.15305531695433e-07 0.000417504220924802 1.4414890223422e-05)
(5.09004511174552e-09 0.000416228597472118 4.37458218853209e-05)
(2.2214514285263e-07 0.000413331439984376 7.35858544321532e-05)
(-7.31745730976806e-07 0.00040880377370753 0.000104089267420219)
(-1.40638573035453e-06 0.000402544264137031 0.000134607811548812)
(-6.75747843056743e-07 0.000394550204787108 0.000163112137963172)
(-4.19481430729423e-07 0.000387108569075993 1.36623199974476e-05)
(-1.74466957214003e-07 0.000385976224620365 4.16436569036397e-05)
(-9.91348312048855e-08 0.000383285768168646 7.03723173672332e-05)
(-6.53250154539573e-07 0.000379074568674334 9.9330709740381e-05)
(-1.44951969913367e-06 0.000373354812227757 0.000128269690746314)
(-1.30090389101123e-06 0.000366093714541801 0.000156227234945755)
(-3.88707081603925e-07 0.000357288751444824 0.00018200841193015)
(2.25642013033394e-07 0.000640187811259167 1.93564242769687e-05)
(3.38519829482098e-07 0.000597392736210257 1.84378882899935e-05)
(7.32806890397316e-07 0.000595477482770644 5.64731099753066e-05)
(1.82398595025863e-07 0.000557100683405132 1.76660603394092e-05)
(9.18147511207701e-07 0.000555326286968155 5.29963540517692e-05)
(5.11367648394538e-07 0.000551450247954077 9.14023202335805e-05)
(-1.71026421856176e-07 0.000519128647907631 1.69184312270566e-05)
(5.45046579905703e-07 0.000517478181687105 5.0526486499651e-05)
(7.10542284647334e-07 0.000513900637270767 8.55844693857091e-05)
(-2.8407305670842e-07 0.000508087862427865 0.000122660340366215)
(-4.86346290608923e-07 0.000483258550862007 1.60821346002956e-05)
(1.301141404546e-07 0.000481750839659436 4.83857282454248e-05)
(5.27517340093242e-07 0.000478400730788903 8.12856146016028e-05)
(-7.00548075861977e-07 0.000473080657081223 0.000115636396138957)
(-7.68945427476075e-07 0.000465649944803138 0.00014933449548896)
(-6.36938385204438e-07 0.000449359164166832 1.51999382092515e-05)
(-2.09289621646301e-07 0.000447993826923968 4.61518401114317e-05)
(1.11046164528604e-07 0.000444855825650832 7.76034745996953e-05)
(-8.38018232600818e-07 0.000439940335808693 0.000109760727500766)
(-1.52212890965296e-06 0.000433152162881216 0.000141953360970792)
(-7.24836106363199e-07 0.000424478576274493 0.000172017868604548)
(-6.46547610070339e-07 0.000417278952171726 1.43869969533974e-05)
(-3.89928895176888e-07 0.000416059447099299 4.38583812837239e-05)
(-2.5108299325544e-07 0.000413136578384919 7.41185422683534e-05)
(-7.76192703085377e-07 0.000408559255918102 0.000104579732073615)
(-1.58849886256935e-06 0.000402342627243383 0.000135053920111291)
(-1.40452191532477e-06 0.000394450182376543 0.00016449394441356)
(-4.1942764508783e-07 0.00038487883429861 0.000191642339742136)
(-5.64326826297827e-07 0.000386881256865012 1.36599490710683e-05)
(-4.26158254475042e-07 0.000385773874869953 4.16621184730691e-05)
(-3.65179791350397e-07 0.000383105931885185 7.06757812173436e-05)
(-6.08421025570939e-07 0.000378827141765363 9.98475814238637e-05)
(-1.28733405860923e-06 0.000373122941165856 0.000128742404159375)
(-1.44539259744647e-06 0.000365937976103879 0.000156907828938883)
(-8.17690451202022e-07 0.000357237309996409 0.000183679767408993)
(-1.47558981060559e-07 0.000347066951121456 0.000208648803949993)
(1.87826962657221e-07 0.00068568078498989 2.05495801776625e-05)
(2.29270702571634e-07 0.000640130100605325 1.95640616192665e-05)
(7.36188864129285e-07 0.000638070290821991 5.99010950288102e-05)
(1.04150778044283e-08 0.000597289335617307 1.87305773705146e-05)
(8.54286065558993e-07 0.000595383170504811 5.61635644538445e-05)
(5.20174868074634e-07 0.000591201888183066 9.6866702081429e-05)
(-3.8132194453784e-07 0.000556961370945731 1.79255079309861e-05)
(4.02771955439154e-07 0.000555192043953618 5.35062991740935e-05)
(6.9293262174443e-07 0.000551333451340504 9.05969823346538e-05)
(-3.18999799480282e-07 0.000545054443924866 0.000129870003627773)
(-7.25288469277311e-07 0.000518915672784177 1.70073895128451e-05)
(-7.09015565618017e-08 0.00051730428582189 5.11867163426719e-05)
(4.53056339366084e-07 0.000513686617951652 8.59520418074281e-05)
(-7.89716311205514e-07 0.000507939160449892 0.0001222796221919)
(-8.28894028780511e-07 0.000499901224737781 0.000157927239574486)
(-8.94452763468535e-07 0.000483013334409001 1.60549519373566e-05)
(-4.37242445323655e-07 0.00048156192210729 4.8759668092249e-05)
(-3.10095480446192e-08 0.000478170097155847 8.19643786184335e-05)
(-9.57455490570206e-07 0.000472847821573787 0.000115907814209272)
(-1.65082884669731e-06 0.000465499198615609 0.000149918304472142)
(-7.79144685455057e-07 0.00045610379843159 0.000181673879040125)
(-9.08444122671571e-07 0.000449098201548505 1.51747618855555e-05)
(-6.40315427737207e-07 0.000447786479068601 4.62663453596684e-05)
(-4.26740905351662e-07 0.000444631307042576 7.81929975523822e-05)
(-9.14004720507795e-07 0.000439669828310478 0.000110286349724445)
(-1.74342349327766e-06 0.000432928172095244 0.000142423619534296)
(-1.51958288808555e-06 0.000424367822681338 0.000173473000712335)
(-4.53781271582536e-07 0.00041398423432379 0.000202104089151223)
(-8.17376712652712e-07 0.000417019312909253 1.43851988814961e-05)
(-6.58876720613709e-07 0.000415825266478792 4.3876458591724e-05)
(-5.59291202255361e-07 0.000412935136536823 7.44418612277661e-05)
(-7.68418172860217e-07 0.000408281734993126 0.000105151095857496)
(-1.44820445910101e-06 0.000402083559608908 0.00013555441493415)
(-1.5844063779457e-06 0.000394276806855035 0.000165208711811482)
(-8.93809284574764e-07 0.000384820840002294 0.000193398587533045)
(-1.63773928065257e-07 0.000373769712759556 0.000219691667930632)
(-6.6615570830754e-07 0.000386632513926216 1.36671032247212e-05)
(-5.74960892158388e-07 0.00038554405976909 4.16706249710979e-05)
(-5.13983247030967e-07 0.000382903059288109 7.07977429497512e-05)
(-6.03442294377992e-07 0.000378620968195116 0.000100237271180089)
(-9.93224696297198e-07 0.00037285698294238 0.000129132314653618)
(-1.26952284157662e-06 0.000365727913787575 0.000157359927689793)
(-9.68134445454545e-07 0.000357128744703388 0.000184549815406026)
(-3.29076358764426e-07 0.000347049262057429 0.000210217655726202)
(5.19099015208773e-08 0.000335593942237393 0.000234638248425044)
(1.38014711136648e-07 0.000734154051942101 2.18353478676031e-05)
(9.33119506949387e-08 0.000685611011658733 2.07763806006227e-05)
(7.37848489191705e-07 0.000683399107889581 6.35990743988884e-05)
(-1.91354805211766e-07 0.000640006972851919 1.98839577851604e-05)
(7.76819576701257e-07 0.000637964875285489 5.95843482770874e-05)
(5.26483634345685e-07 0.000633454645970629 0.000102767929985194)
(-6.42369151213498e-07 0.000597109349806526 1.90093345038347e-05)
(2.32993353865497e-07 0.00059522469277435 5.67291978317328e-05)
(6.66030080532739e-07 0.00059106893558341 9.6013474888426e-05)
(-3.59289107847327e-07 0.00058429213389047 0.000137661609578758)
(-1.0124609800092e-06 0.000556701306703622 1.80084941122729e-05)
(-3.1682032968709e-07 0.000554992683928407 5.42195879839828e-05)
(3.60591397182778e-07 0.000551089078765716 9.10003917266613e-05)
(-8.91798728092662e-07 0.000544888439083915 0.000129464905626468)
(-8.95599031670709e-07 0.000536202967090049 0.000167221630536694)
(-1.19864161632397e-06 0.000518623348319985 1.69825867335496e-05)
(-7.01847392851332e-07 0.000517081132588399 5.15851821473428e-05)
(-1.98412112835154e-07 0.000513425866795783 8.66895269462437e-05)
(-1.09336555996224e-06 0.000507678083691314 0.000122563701893896)
(-1.79443483261161e-06 0.000499734179899011 0.000158542936673974)
(-8.3938082403091e-07 0.000489570104718635 0.00019212890836403)
(-1.21145673342746e-06 0.000482709350332836 1.60296835918604e-05)
(-9.08097888780628e-07 0.000481303974263018 4.88778279402334e-05)
(-6.35038189723213e-07 0.00047791045248195 8.26191710115995e-05)
(-1.06981516173654e-06 0.000472545750565046 0.000116479331182729)
(-1.91656437138454e-06 0.000465249645341264 0.000150414767587136)
(-1.64762829296877e-06 0.000455980813859883 0.000183208504964857)
(-4.92174792345293e-07 0.000444734145121087 0.000213444905948858)
(-1.10751384235838e-06 0.000448798847346279 1.51731449592685e-05)
(-9.2581686810432e-07 0.000447519327403192 4.62823341861072e-05)
(-7.81471307692441e-07 0.000444398136658916 7.85341752966506e-05)
(-9.47746210711188e-07 0.000439356334643447 0.000110917705743363)
(-1.62883785121568e-06 0.000432638747054684 0.000142955984473664)
(-1.73946919740026e-06 0.000424174423248205 0.000174224816136763)
(-9.79071391000705e-07 0.000413919024132519 0.00020395247921019)
(-1.8257407221199e-07 0.00040193294220657 0.000231680165006941)
(-9.36238950078983e-07 0.000416736258531772 1.43926735998721e-05)
(-8.29303007578663e-07 0.000415564959317788 4.38839751957753e-05)
(-7.43046508184012e-07 0.000412704439315486 7.45612487791428e-05)
(-8.04529663119657e-07 0.000408057945798923 0.000105563075618415)
(-1.1759563353059e-06 0.000401780244877844 0.000135975208004262)
(-1.43192874562454e-06 0.000394041301961478 0.000165685165383572)
(-1.08032005924784e-06 0.000384699144468935 0.000194309124817549)
(-3.74721434691042e-07 0.000373746339730027 0.000221338210221185)
(3.92776555025922e-08 0.000361301673350225 0.000247042030778396)
(-7.33497412733965e-07 0.000386371397160274 1.36702223245524e-05)
(-6.69681233980899e-07 0.00038529516282858 4.16784089752166e-05)
(-6.1460975705476e-07 0.000382674520199149 7.08437511549339e-05)
(-6.31885543913624e-07 0.000378411396040031 0.000100385067337683)
(-7.85666093038278e-07 0.000372618573098319 0.000129377852853982)
(-9.91928358171453e-07 0.000365466807927537 0.000157600487643713)
(-9.02442332755216e-07 0.000356958491813845 0.000184962253030354)
(-4.57775718061155e-07 0.000346984363474441 0.000211142067874689)
(7.85173514231918e-08 0.000335586484412051 0.000235804088759357)
(1.10128897848534e-07 0.000322925745483696 0.000259703889066079)
(7.30072038149633e-08 0.000785866618653322 2.32208287934458e-05)
(-8.03326354361653e-08 0.000734068362444121 2.20836446895808e-05)
(7.32401408025463e-07 0.000731695770061871 6.7585741752583e-05)
(-4.32999661490847e-07 0.000685461423820114 2.11324680976422e-05)
(6.94392064594963e-07 0.000683278798698261 6.32763064798472e-05)
(5.29370186919933e-07 0.000678419781867514 0.000109138203781678)
(-9.49120814002483e-07 0.000639767212485099 2.01786996113131e-05)
(3.32081029506283e-08 0.000637771894433814 6.02170272060713e-05)
(6.25821753775691e-07 0.000633302399477255 0.000101865165997288)
(-4.06272799604301e-07 0.000625993272672874 0.0001460773389794)
(-1.35903121260874e-06 0.000596795303846457 1.9096266000902e-05)
(-5.78306394369803e-07 0.000594988505160127 5.74998497028481e-05)
(2.44505023748734e-07 0.000590786384496849 9.64589248436191e-05)
(-1.01007459441873e-06 0.000584105488967029 0.000137230226742461)
(-9.70196060403226e-07 0.000574728474938794 0.000177266870381522)
(-1.55925335787454e-06 0.000556353601387094 1.7986506748607e-05)
(-1.02135205858513e-06 0.000554712303424814 5.46432029618447e-05)
(-3.99453446349757e-07 0.000550790660516024 9.18035470701076e-05)
(-1.24975558061633e-06 0.000544593441228151 0.000129762597115359)
(-1.95550223689107e-06 0.000536017067796652 0.000167871816013837)
(-9.06405912924809e-07 0.000525032736710611 0.000203437177034633)
(-1.56598022604298e-06 0.00051826567723927 1.69557998567204e-05)
(-1.21662913762637e-06 0.000516771235114988 5.17062944484507e-05)
(-8.8111277235824e-07 0.000513124949291292 8.74179328865468e-05)
(-1.24821756978668e-06 0.000507336750279621 0.000123187367563021)
(-2.11115874906417e-06 0.000499454867349315 0.000159067998304613)
(-1.79066367819148e-06 0.000489433007113113 0.000193749679170015)
(-5.35059454074878e-07 0.000477266881122254 0.00022572222274115)
(-1.4433131865183e-06 0.000482361110572082 1.6027501434903e-05)
(-1.23068017747471e-06 0.000480997501252748 4.8891190669213e-05)
(-1.04058479226245e-06 0.000477636938236509 8.29685588760636e-05)
(-1.15300867673338e-06 0.000472188854435451 0.000117175178615074)
(-1.83203899534698e-06 0.000464924796894191 0.000150983495871096)
(-1.91297409640069e-06 0.000455764225439327 0.000184000612430247)
(-1.07486299266085e-06 0.000444660354570232 0.000215393384356796)
(-2.03906537200432e-07 0.000431680575257874 0.000244673103694764)
(-1.24541401922535e-06 0.000448472860483443 1.51806684074929e-05)
(-1.12001722482154e-06 0.000447220420259845 4.62879190230165e-05)
(-1.00466841802989e-06 0.00044413312763993 7.8648884843931e-05)
(-1.03079644177719e-06 0.000439104580323521 0.00011134751601568)
(-1.38169508638296e-06 0.000432296373671211 0.000143410128005621)
(-1.61356519318571e-06 0.000423910181474609 0.000174727837159688)
(-1.20614256164205e-06 0.000413781735320858 0.000204906599815452)
(-4.26826507781841e-07 0.000401905095761501 0.000233410365774011)
(2.44604170234533e-08 0.000388410735595602 0.000260503741027125)
(-1.0124877735765e-06 0.000416439324742388 1.43957976363198e-05)
(-9.39764507757039e-07 0.000415282517763011 4.38911424577953e-05)
(-8.67850139154256e-07 0.000412445408314706 7.46054587452266e-05)
(-8.61905180732056e-07 0.000407821496410202 0.000105713684806142)
(-9.93208920460959e-07 0.00040153672247835 0.000136236005521401)
(-1.17984387827915e-06 0.000393746408774162 0.000165943259594623)
(-1.04534879612464e-06 0.000384507351924631 0.000194740198764041)
(-5.38370134408912e-07 0.000373673991908799 0.000222296889824658)
(3.6922415340886e-08 0.000361293802904141 0.000248266729233287)
(1.00093836660224e-07 0.000347540663490047 0.000273404194032013)
(-7.75376523591918e-07 0.000386105574080411 1.36649100746791e-05)
(-7.27990468708478e-07 0.000385034426332113 4.16768194042558e-05)
(-6.79810148619053e-07 0.000382426184052791 7.08604600090531e-05)
(-6.64910333140908e-07 0.000378181598194989 0.000100439683450714)
(-7.15059435896801e-07 0.000372408240948255 0.000129462377015477)
(-7.97835271334456e-07 0.000365238395381906 0.000157636438128812)
(-7.78757894178113e-07 0.000356717898798872 0.000185061105078121)
(-5.02009313731609e-07 0.000346854446295018 0.000211500336916012)
(-6.04760889600375e-08 0.000335558143998374 0.000236629267903071)
(2.36027286454509e-07 0.000322918910739527 0.000260398933850813)
(9.64878270318842e-08 0.000309100765927735 0.000283552595741663)
(-6.72494568329419e-09 0.000841099753097792 2.47149941393353e-05)
(-3.02368134023232e-07 0.000785763377753409 2.34934859562478e-05)
(7.17193846275525e-07 0.000783216980257261 7.18821692161854e-05)
(-7.36474751191435e-07 0.000733883943459695 2.24819900023811e-05)
(5.82184349233853e-07 0.000731554236636139 6.72588060449004e-05)
(5.2739902278998e-07 0.000726327955164152 0.000116010026301974)
(-1.31218659461635e-06 0.000685156205783915 2.14432048703862e-05)
(-1.7880438316659e-07 0.000683044931072498 6.39892760432763e-05)
(5.6843773796889e-07 0.000678244430227862 0.000108185991130827)
(-4.61283837327231e-07 0.000670366623482109 0.000155162975807535)
(-1.77198349750368e-06 0.000639393692398191 2.0271856219944e-05)
(-8.89372014819357e-07 0.000637476937671382 6.1042918035923e-05)
(9.54837886340753e-08 0.000632972367798943 0.000102358070016961)
(-1.14906875538164e-06 0.000625782277617024 0.000145617540410486)
(-1.05405775834035e-06 0.000615665574229351 0.000188117021167929)
(-1.98695739259583e-06 0.000596381869009113 1.90724207995849e-05)
(-1.36754207771207e-06 0.000594640476645113 5.79487719639947e-05)
(-6.43397366129688e-07 0.000590440643700685 9.73405207408384e-05)
(-1.43213068076031e-06 0.000583768623670915 0.000137542270252917)
(-2.13727989730773e-06 0.000574520567855023 0.000177954066201503)
(-9.81327849715949e-07 0.000562659483194686 0.000215658522092515)
(-1.9840479773011e-06 0.000555930499554877 1.7957597547409e-05)
(-1.58174379407249e-06 0.000554349732919262 5.4766298426833e-05)
(-1.17320978323609e-06 0.000550438602242056 9.26120695599014e-05)
(-1.45416885738099e-06 0.00054420355187555 0.000130444559986476)
(-2.33125427174875e-06 0.000535702626830313 0.000168427914669631)
(-1.95118877094573e-06 0.000524879227225312 0.000205151022862594)
(-5.83439166616737e-07 0.000511731419425077 0.000238999573480936)
(-1.8356532432777e-06 0.000517856936386807 1.69526789374042e-05)
(-1.58541679901313e-06 0.000516412554293119 5.17161360055634e-05)
(-1.34471611652918e-06 0.000512803848424521 8.77694901085653e-05)
(-1.39035392927662e-06 0.000506928199515796 0.000123954480890963)
(-2.06223115557234e-06 0.000499087825799825 0.000159676946692658)
(-2.10810415987148e-06 0.000489189167379604 0.000194585787363592)
(-1.18308290033039e-06 0.000477182911815969 0.000227778880198508)
(-2.28226298018353e-07 0.000463144260251778 0.000258735563519994)
(-1.60326920376922e-06 0.0004819818980483 1.60347606951538e-05)
(-1.45550363250404e-06 0.000480650785334145 4.88941531716118e-05)
(-1.30655140917556e-06 0.000477329364630836 8.3080216523481e-05)
(-1.29054561449483e-06 0.00047190065172728 0.000117619783007665)
(-1.61396107826519e-06 0.000464536684855294 0.000151473116247248)
(-1.81762619669408e-06 0.000455466317288071 0.000184532754791818)
(-1.34799564470811e-06 0.00044450422908215 0.000216394898434668)
(-4.86508124258324e-07 0.000431647281970691 0.000246493649062212)
(7.12606712549715e-09 0.000417037458099071 0.000275088737811206)
(-1.33167761355889e-06 0.000448130986252359 1.51835991142948e-05)
(-1.24845454964971e-06 0.000446895658235794 4.62937980542674e-05)
(-1.1567445139998e-06 0.000443835742453398 7.86904142220599e-05)
(-1.12324711131245e-06 0.000438834766788716 0.000111500440337848)
(-1.22770400920033e-06 0.000432028737937282 0.000143684764712797)
(-1.38651483681819e-06 0.000423578870080282 0.00017500259033679)
(-1.20505790833796e-06 0.000413564955024645 0.000205358451017168)
(-6.30030904553879e-07 0.000401821545238827 0.000234404994159097)
(-1.10163571651603e-08 0.000388400858874047 0.000261791074205519)
(8.92947268306625e-08 0.000373491953946555 0.000288267633413923)
(-1.05547852122223e-06 0.000416137234160901 1.43900634349698e-05)
(-1.0064080766172e-06 0.000414986434651921 4.3888834784414e-05)
(-9.48979261387349e-07 0.000412164184675599 7.46209776250883e-05)
(-9.17600563569283e-07 0.000407561687818454 0.000105767884450459)
(-9.46170826069879e-07 0.000401296282254068 0.000136323664263123)
(-1.00989727860882e-06 0.000393510104341341 0.000165977886903709)
(-9.54038713674429e-07 0.00038423944764165 0.000194844338951769)
(-6.21376640653466e-07 0.000373524389365057 0.000222667545591287)
(-1.28105351717735e-07 0.000361264421135729 0.000249126539267103)
(1.99035605665049e-07 0.000347534102255264 0.000274135828139783)
(8.58493844499087e-08 0.00033252904028847 0.000298479677529879)
(-8.01843714260244e-07 0.000385842194434162 1.36511006772946e-05)
(-7.60524134445158e-07 0.000384769372425522 4.16611014508246e-05)
(-7.16615774951364e-07 0.000382166234488415 7.08554964615134e-05)
(-6.89308440988616e-07 0.000377933479859109 0.000100453745541177)
(-6.9346900289762e-07 0.000372177864760782 0.00012948419106983)
(-7.1648572308608e-07 0.000365025550286023 0.000157621389538196)
(-6.923160045719e-07 0.000356514005344794 0.000184957050982809)
(-5.22120161851782e-07 0.000346639633011816 0.000211508262502015)
(-2.04576500511158e-07 0.00033546457498754 0.000236958584371824)
(1.74319365679234e-07 0.000322892637838354 0.000261006677017885)
(2.20060579162941e-07 0.000309091955617789 0.00028391653422811)
(6.43092787692032e-08 0.000294165813002845 0.000306050668909814)
(-1.04105557856375e-07 0.000900159165445664 2.63271614452138e-05)
(-5.66567207084418e-07 0.000840977498856355 2.50174485411218e-05)
(6.89529479941434e-07 0.000838241957019572 7.65133481191697e-05)
(-1.11488425525357e-06 0.000785526943771126 2.39398186011005e-05)
(4.32873009305478e-07 0.000783049722229767 7.15533583988272e-05)
(5.19057553770423e-07 0.000777432150420232 0.000123419964847363)
(-1.75665868324757e-06 0.000733509358609292 2.28090430434372e-05)
(-4.47113622243324e-07 0.00073127413051879 6.80652590541444e-05)
(4.89841549394416e-07 0.000726124880291356 0.000115005934991632)
(-5.25833240358729e-07 0.000717639649345106 0.000164967698072164)
(-2.26437719857125e-06 0.000684708743147959 2.15412484888112e-05)
(-1.24315347689311e-06 0.000682681949051783 6.4867289180733e-05)
(-9.50867299606317e-08 0.000677858246865494 0.000108730663961392)
(-1.31281392328823e-06 0.000670127289569002 0.000154672639341565)
(-1.14873972353199e-06 0.00065921835067698 0.000199831186016959)
(-2.4958831029271e-06 0.000638900903687046 2.02453515210384e-05)
(-1.7797678601779e-06 0.000637066259898185 6.15178963871564e-05)
(-9.37997485144604e-07 0.00063256783962265 0.000103330735269826)
(-1.65128121601512e-06 0.000625394846932503 0.00014594374350034)
(-2.34380103250106e-06 0.000615431940169004 0.000188843585040457)
(-1.0654881025349e-06 0.000602632391306065 0.000228858830905068)
(-2.47913056449774e-06 0.000595879367256714 1.90404757878514e-05)
(-2.00871066195467e-06 0.000594215934440409 5.80734068737334e-05)
(-1.52186052168831e-06 0.000590030183207526 9.82213550894876e-05)
(-1.69247712415759e-06 0.000583312824057407 0.000138289602815422)
(-2.58192137636079e-06 0.000574164216911886 0.000178543346405974)
(-2.1323297813487e-06 0.000562486765989829 0.000217472750561405)
(-6.38251273399741e-07 0.000548288999628014 0.000253347322950057)
(-2.29772980761968e-06 0.000555447527932488 1.79531350167807e-05)
(-2.00301953153997e-06 0.000553926695250952 5.47716105717783e-05)
(-1.70333526736793e-06 0.00055006121949972 9.29628384991252e-05)
(-1.66662118252565e-06 0.000543736350720049 0.000131290185559424)
(-2.32459086607299e-06 0.000535285079828713 0.000169080750349052)
(-2.32881725162335e-06 0.000524603108154457 0.000206035202278654)
(-1.30635589601018e-06 0.000511635326154516 0.00024117292016514)
(-2.56459896183833e-07 0.000496465735036322 0.000273940238608056)
(-2.02140448719283e-06 0.000517412006819465 1.6959533036105e-05)
(-1.84693926190735e-06 0.000516006114880177 5.17157441680133e-05)
(-1.658697802485e-06 0.00051244343975726 8.78778539003912e-05)
(-1.59221485209231e-06 0.000506595288432097 0.000124411848401516)
(-1.87954296217316e-06 0.000498645137263222 0.000160204451084327)
(-2.04840461065398e-06 0.000488851215421189 0.000195149587127127)
(-1.50902117320183e-06 0.000477003821273609 0.000228833067804246)
(-5.56356814764913e-07 0.000463104453982091 0.000260652017856539)
(-1.13916419060585e-08 0.000447305943736325 0.000290871720089981)
(-1.70108043623195e-06 0.000481584182557381 1.60372987054393e-05)
(-1.60534997838517e-06 0.00048027336562028 4.88981231666526e-05)
(-1.49016430078038e-06 0.000476984216205445 8.31185928144118e-05)
(-1.42383037117872e-06 0.000471589148595928 0.000117773956627971)
(-1.49409363054525e-06 0.000464233827482708 0.000151760857153981)
(-1.61897599259066e-06 0.000455091528962287 0.000184823880654014)
(-1.38469746287956e-06 0.000444257745060277 0.0002168699717749)
(-7.35298617010717e-07 0.000431548157602193 0.000247526699234103)
(-6.87736198075e-08 0.000417025729290142 0.000276442813747446)
(7.82610552278431e-08 0.000400885580945038 0.000304365918525865)
(-1.37574101460337e-06 0.000447783297354355 1.51772512656539e-05)
(-1.32463281890478e-06 0.00044655508901785 4.62901721566761e-05)
(-1.25602172177117e-06 0.000443512863309842 7.87038780004382e-05)
(-1.20500138419616e-06 0.000438537374696011 0.00011155332321451)
(-1.20835944509782e-06 0.000431755188097622 0.000143774405623037)
(-1.24381285865218e-06 0.000423318305416617 0.000175037820477346)
(-1.1471552034827e-06 0.000413265233048515 0.000205466097481452)
(-7.5524443034403e-07 0.000401649334184313 0.000234792326619525)
(-2.07762289449285e-07 0.00038836547700429 0.000262686110673105)
(1.59812858516153e-07 0.00037348478134491 0.000289038702250112)
(7.42026596300622e-08 0.000357222535382181 0.00031466751601998)
(-1.07573624792753e-06 0.000415838183221844 1.43753695996452e-05)
(-1.03956496794745e-06 0.000414685502730901 4.38718793088589e-05)
(-9.93690683788856e-07 0.000411869675396553 7.46147289812191e-05)
(-9.57289056747504e-07 0.000407281495740981 0.000105780837597825)
(-9.45582240705355e-07 0.000401036314343033 0.000136345238683806)
(-9.48172449359973e-07 0.000393270711733098 0.000165963078062726)
(-8.97482133720647e-07 0.000384022469431935 0.000194732405483821)
(-6.82427287035793e-07 0.000373286626788974 0.000222673575552332)
(-3.04817920541448e-07 0.000361144832493225 0.00024945063925655)
(9.46184554980431e-08 0.000347506996396321 0.000274776872648172)
(1.83256115039568e-07 0.000332520366270288 0.000298862475135089)
(5.21509451670103e-08 0.00031632016704507 0.000322127375449199)
(-8.24708235528783e-07 0.000385587777362527 1.3632524014551e-05)
(-7.7720634710302e-07 0.000384507270358227 4.16308053942651e-05)