/*--------------------------------*- C++ -*----------------------------------*\
  =========                 |
  \\      /  F ield         | OpenFOAM: The Open Source CFD Toolbox
   \\    /   O peration     | Website:  https://openfoam.org
    \\  /    A nd           | Version:  12
     \\/     M anipulation  |
\*---------------------------------------------------------------------------*/
/*   Windows 32 and 64 bit porting by blueCAPE: http://www.bluecape.com.pt   *\
|  Based on Windows porting (2.0.x v4) by Symscape: http://www.symscape.com   |
\*---------------------------------------------------------------------------*/
FoamFile
{
    format      ascii;
    class       volScalarField;
    location    "200";
    object      nut;
}
// * * * * * * * * * * * * * * * * * * * * * * * * * * * * * * * * * * * * * //

dimensions      [0 2 -1 0 0 0 0];

internalField   nonuniform List<scalar> 
10140
(
7.74986770767959e-05
7.75558989076923e-05
7.90095253985432e-05
0.000639889941291067
7.76079086332281e-05
7.90726785221584e-05
0.000640325424127859
8.08070804870892e-05
0.000649532725191282
0.00152893944331041
7.76590576081047e-05
7.91235243493154e-05
0.000640708528591548
8.08745860879085e-05
0.000649987554061109
0.00153000587224703
8.18404641382572e-05
0.000661679221918334
0.00154154778290079
0.00251743149764539
7.77070931866192e-05
7.91738892465067e-05
0.000641062055318032
8.09252210201334e-05
0.000650377607571547
0.00153092886212905
8.19114459727339e-05
0.000662154935943509
0.00154263901932515
0.00251914838241278
8.15476467579182e-05
0.000668961282777979
0.00155615644684643
0.00252682174726632
0.0034910488677908
7.77513244937753e-05
7.92238664474794e-05
0.000641380271131596
8.09750943562091e-05
0.000650738235981531
0.00153175271904803
8.19619911530904e-05
0.00066255416197015
0.00154357655670701
0.00252060604047514
8.16202082866738e-05
0.000669451274499683
0.00155727516883585
0.00252856207534636
0.00349330094463842
8.02870925555589e-05
0.000667271223272244
0.0015630995880645
0.00253416774345041
0.00349388746232565
0.00439660164121671
7.77923784629451e-05
7.92694219223402e-05
0.00064165079764334
8.10252762369987e-05
0.000651064285037598
0.00153246855524362
8.2011398541928e-05
0.000662921813655614
0.00154441187336841
0.00252186351741592
8.16704319821945e-05
0.000669855933377068
0.00155822989391979
0.00253003232041341
0.00349516161168037
8.03617562584512e-05
0.000667766165684613
0.00156423278590239
0.00253592991779319
0.00349615900182613
0.00439923057580538
7.86237526976585e-05
0.000658024466698843
0.00155606692117239
0.00253119437508904
0.00348936024820614
0.00439234872442737
0.00521471358361764
7.78261842112514e-05
7.93089132337538e-05
0.000641858779351584
8.10712160459548e-05
0.000651341482206837
0.00153304971695262
8.20622062624006e-05
0.000663254981146919
0.00154513770957933
0.00252290475867413
8.17190292700292e-05
0.000670226189632476
0.00155907656885853
0.00253129726476036
0.003496698608452
8.04109675034817e-05
0.000668169938476905
0.00156519508359376
0.0025374120945671
0.00349802702513211
0.00440132454930022
7.86989229262008e-05
0.000658524969069565
0.00155719697149852
0.00253295964723722
0.00349164427173499
0.00439499371657363
0.00521756479697515
7.6795796906168e-05
0.000644593789586879
0.00153573981405921
0.00251205320945856
0.00347108019334043
0.00437534466365612
0.00520516979425989
0.00594336765734129
7.7848083839022e-05
7.93428874280345e-05
0.000641981870693002
8.11122862051452e-05
0.000651553871835606
0.00153345793276033
8.21086138029766e-05
0.00066353787530689
0.00154572714853884
0.00252368562490525
8.17686840575649e-05
0.000670561632318808
0.00155981016215317
0.00253234313072878
0.00349788447358926
8.04581697665775e-05
0.000668535943601258
0.00156604379173747
0.00253868068961021
0.0034995652998797
0.00440295613945356
7.87501687687773e-05
0.000658925489883746
0.0015581520149868
0.00253443957377355
0.00349351427567644
0.00439709101601761
0.00521973124164483
7.68678371317217e-05
0.000645092279290147
0.00153685352288168
0.0025137987209835
0.00347335220155357
0.00437799450769985
0.00520803620058843
0.00594631236009602
7.47780730749387e-05
0.000628885901135091
0.00150592448016747
0.00247641799905302
0.00343472447505705
0.00434076761669322
0.0051780424614662
0.00593071423959162
0.00658832140407503
7.78552023880085e-05
7.93689096746661e-05
0.000641991722512463
8.11490802035654e-05
0.000651681507692052
0.00153364141577688
8.21488971577499e-05
0.000663754212354287
0.00154614150778534
0.00252414125538739
8.18149004507899e-05
0.000670844897379199
0.00156040367543852
0.00253312628157021
0.00349865477275054
8.05061745319109e-05
0.000668865223228605
0.00156677508138613
0.00253972425304188
0.00350074929303218
0.00440408490102726
7.87963790772047e-05
0.000659282677128521
0.00155898840952085
0.00253569857718475
0.00349504481951901
0.00439871996723529
0.00522128953302545
7.69243423093265e-05
0.000645502194306131
0.00153778991273272
0.00251525617495008
0.00347520556023267
0.00438008560821086
0.00521020484665121
0.00594841959120533
7.48389332715307e-05
0.000629365979367082
0.00150700726822502
0.00247812368863162
0.00343695738634515
0.00434339220191248
0.00518090954659696
0.00593367407927408
0.00659125954647417
7.24705439983056e-05
0.000611151938129978
0.00146918606342886
0.0024267168324394
0.00337956512167408
0.00428559181582443
0.00512927870496162
0.00589650124303311
0.00657388865367254
0.00715756108921613
7.78439489583864e-05
7.93790541990813e-05
0.000641854888238438
8.11757432967881e-05
0.000651697686501852
0.0015335340282225
8.21838221505182e-05
0.000663884946967563
0.00154632923259469
0.00252418462763797
8.18535755722807e-05
0.000671057798833004
0.00156081787925005
0.00253358181520649
0.00349891628131375
8.05513448569859e-05
0.000669141172148094
0.00156736124359115
0.00254049972965732
0.00350151552722961
0.00440462536608651
7.8842702388286e-05
0.000659600463381181
0.00155970308909453
0.00253672570330186
0.00349621428672909
0.00439984328018012
0.00522218459509222
7.69714224322545e-05
0.000645853814288171
0.00153860251509658
0.00251648709030555
0.00347671119111306
0.0043816980150444
0.00521175864479933
0.00594976829537672
7.48968755594736e-05
0.000629802801850752
0.00150791948499187
0.00247953995967712
0.00343876993229419
0.00434545409341554
0.00518306739447224
0.00593578346394677
0.00659320577495433
7.25231677590552e-05
0.000611589497375159
0.00147021204692945
0.00242836290835556
0.00338173479747416
0.00428815954409747
0.00513211106535761
0.00589945973108812
0.00657684185985668
0.00716042322647239
6.94991404095744e-05
0.000590980342560498
0.00142621948347099
0.00236465753174687
0.00330648611622638
0.00420897408842761
0.00505641925331461
0.00583647004526692
0.00653471325129736
0.00714186610774567
0.00765889025993412
7.7809797078213e-05
7.93689294628206e-05
0.000641533962737298
8.1184927924118e-05
0.00065156480835593
0.00153305474170121
8.22099230324219e-05
0.000663900806174167
0.00154622407511797
0.00252370480862983
8.18848485642479e-05
0.000671181016857852
0.00156100098815108
0.00253362253670352
0.00349854490330833
8.05880529205356e-05
0.00066934335363665
0.00156776221685338
0.002540942054831
0.00350177108562949
0.00440445505487319
7.88863426870542e-05
0.00065986349042428
0.00156026830850767
0.00253747787042861
0.00349696021549073
0.00440037641857541
0.00522230887537218
7.70166625124707e-05
0.000646157216917672
0.00153928851373029
0.00251748010799378
0.00347784813420507
0.0043827980413407
0.00521264683584412
0.00595029076551973
7.49666238955571e-05
0.000630172966376353
0.00150870342872411
0.00248072549997419
0.0034402290330261
0.00434702886561902
0.00518459933735549
0.00593712737310708
0.00659424233251688
7.26239195961703e-05
0.000612103338413631
0.00147109273893646
0.00242972100245978
0.00338348341638134
0.0042901641824208
0.00513423094756841
0.00590155597168698
0.00657879056514583
0.00716213073257617
6.96019213045165e-05
0.000591452357982712
0.00142713976217613
0.00236621587188296
0.00330856967541061
0.00421145700831573
0.00505918046641058
0.00583938738243813
0.00653766388288744
0.00714474303568767
0.00766164473927765
8.16776884592305e-05
0.000568586801569802
0.0013767591802384
0.00229049247682531
0.00321581167254747
0.00411066384971214
0.00495855709779523
0.00574805189476197
0.00646567451018473
0.00709881141139002
0.00764205419063163
0.00809932278442413
7.77467642676447e-05
7.93348968615062e-05
0.00064098072604629
8.11735407152909e-05
0.000651241875904897
0.00153210755672239
8.22191686503263e-05
0.000663762390883877
0.00154574323849024
0.00252256535876932
8.19080728297483e-05
0.000671187634556448
0.00156088566306745
0.00253313713024594
0.00349738312838636
8.06158976215561e-05
0.000669451771916935
0.00156792615735039
0.00254096362916501
0.00350139190189522
0.00440341257902948
7.8920865644676e-05
0.000660050617099527
0.00156064289950516
0.00253788966633749
0.00349718996661009
0.0044001980253745
0.00522151285495954
7.70580767252272e-05
0.000646403996785245
0.001539821407931
0.002518191798793
0.00347855430104362
0.00438330259782272
0.00521276372517729
0.00594985936841055
7.50168125388826e-05
0.000630452421386751
0.00150935065678076
0.00248166798193239
0.00344131298851344
0.00434808387070038
0.00518545926185951
0.00593764294485463
0.00659429173069103
7.27929077204455e-05
0.000612531267444626
0.00147186113321181
0.00243084666757244
0.00338487490578911
0.00429167651524425
0.00513571655254919
0.00590287516163545
0.00657982246641336
0.00716278014823791
7.02325323647354e-05
0.0005922019625581
0.00142802715776961
0.00236749376363883
0.00331023244394054
0.00421337771960999
0.0050612304050991
0.00584143995200687
0.00653959823256483
0.00714645329231115
0.00766304544396627
8.177965175249e-05
0.00056925898044783
0.00137763564514922
0.00229191584978265
0.0032177824927121
0.0041130360080453
0.0049612152266991
0.00575088726186281
0.0064685795397311
0.00710168574996065
0.00764481931600226
0.00810191152850297
7.07781751741357e-05
0.000560901103237831
0.00132061984629493
0.00220335511440452
0.00310673820478262
0.00398974293391051
0.00483484294176289
0.00563026979332271
0.00636367788664044
0.00702218127505648
0.00759561084102598
0.00808135781436786
7.76483334371724e-05
7.9270137925787e-05
0.000640146539722717
8.1136515956497e-05
0.000650683771087473
0.0015305796788
8.22059877870419e-05
0.000663428339718966
0.00154478876207865
0.00252060317694912
8.19162028749726e-05
0.00067103744423216
0.00156038742041586
0.00253198835755086
0.00349523726738177
8.06352063216677e-05
0.000669440850290497
0.00156778572026901
0.00254045244788573
0.00350022027096855
0.00440129536998441
7.89458143769198e-05
0.000660140872857523
0.00156077458762592
0.00253787346355852
0.00349677948664697
0.00439914752965541
0.00521960064948851
7.70905223746621e-05
0.000646573755477721
0.00154015986294085
0.00251855652385002
0.00347873713055303
0.00438309117780123
0.00521196070759096
0.00594829828914583
7.50550869287964e-05
0.000630674755810257
0.00150984172946276
0.00248232424670236
0.00344195956044734
0.0043485368185075
0.0051855436708799
0.00593720472301011
0.00659320790573699
7.29853853156935e-05
0.000612954830573104
0.00147244554731334
0.00243172311472979
0.00338588650802079
0.0042926632333946
0.0051365234142341
0.00590335992348623
0.00657986525729552
0.00716228859594217
7.04645453278328e-05
0.000593135980871989
0.00142877497433263
0.00236854968294733
0.00331153655563357
0.00421480346642173
0.00506264185385596
0.00584270734497697
0.00654060388394492
0.00714709843843668
0.00766325120239611
8.18035883049112e-05
0.000571329543679674
0.00137856987409323
0.00229310489724661
0.00321933433925041
0.00411484793246852
0.00496316517050801
0.00575286085862081
0.00647046668591364
0.00710338083788224
0.00764622478724496
0.00810297023548486
7.09209791081093e-05
0.000561384031583191
0.00132151538332765
0.00220464599618667
0.00310856042812428
0.00399197741818734
0.00483736877797381
0.0056329876614824
0.00636649314162697
0.00702500819214989
0.0075983683450777
0.00808393961593381
0.00848723276339886
5.80270007227268e-05
0.00052092960634432
0.00125940605960353
0.00210132252486594
0.00297732751341161
0.00384428984574771
0.00468353421084395
0.00548208384920647
0.006227642043635
0.00690817663401802
0.00751227878945695
0.00803179027775821
7.75051499359186e-05
0.000638964668875065
7.91721624464068e-05
8.10689527957549e-05
0.000649836470843612
0.00152833298413641
8.21672039755737e-05
0.000662852132754661
0.00154324626601254
0.00251762669990723
8.1901225779817e-05
0.000670685358511489
0.00155940663938799
0.00253001211431263
0.0034918754689885
8.06405978922488e-05
0.00066927299531949
0.00156725539510438
0.00253927025643582
0.00349806223305679
0.00439785495012252
7.8961407973409e-05
0.000660109018462173
0.00156059656873588
0.00253731692193995
0.00349557081097116
0.00439702200603865
0.00521632534193957
7.71127254708558e-05
0.000646645139057301
0.00154025134205461
0.0025184865686469
0.00347827278391374
0.00438200385254247
0.00521004248029083
0.00594537836286775
7.50850134018929e-05
0.000630824066016943
0.0015101371562518
0.00248262886789763
0.00344207634746188
0.00434826783622216
0.00518470508179054
0.00593563801891647
0.00659078978078676
7.30342159927204e-05
0.000613199130681678
0.0014728747822308
0.00243231034887252
0.00338645600027656
0.00429304222532653
0.00513654939101911
0.00590288752631054
0.00657877530013431
0.00716049204851441
8.65859486480034e-05
0.000595360158108967
0.00142941280984954
0.00236933542594368
0.0033124573701387
0.00421570001193824
0.00506336997011502
0.00584313442104756
0.00654061460856526
0.00714660084224046
0.00766217738316117
8.20675641579711e-05
0.000572899928410409
0.00137972734602539
0.00229406817107217
0.0032205311939528
0.0041161643834208
0.00496447571627378
0.00575404641064754
0.00647141750448727
0.00710399893042161
0.0076464276627363
0.00810270610631287
7.10222128285031e-05
0.000562108923585384
0.00132295496036403
0.002205728771524
0.0031099769355759
0.00399365500592291
0.00483919129362274
0.00563484952414211
0.00636829556254363
0.00702665403926425
0.00759975977489759
0.00808501490211865
0.00848812131233381
5.81667667091365e-05
0.00052140816136144
0.00126021124185719
0.00210250429642829
0.00297898090198621
0.00384635658058099
0.00468589897576371
0.00548465216487279
0.00623032936094304
0.00691090952551738
0.00751498410704185
0.00803434698306563
0.00846813815743785
0.00882369063674535
4.49434104581109e-05
0.00046878859867233
0.00117254855605729
0.00198051506120078
0.00282425684379665
0.00367130141748224
0.00450183051972628
0.00530133203484741
0.00605653734442947
0.00675556667299819
0.00738753094960846
0.00794240290789321
7.73063671086924e-05
0.00063736552238078
7.90246347671241e-05
0.00152522174244922
0.000648637118484613
8.09638565678899e-05
8.20950265672857e-05
0.000661977816980428
0.00154098081874137
0.00251340982054001
8.18590394436392e-05
0.000670084793321277
0.00155782749022664
0.00252701534408456
0.00348702622766991
8.06237225599288e-05
0.000668901278543286
0.00156623363893089
0.00253725176585456
0.00349468560243123
0.00439279165538591
7.89628123382159e-05
0.000659920923487419
0.00156002443870145
0.00253608119903682
0.00349336977978381
0.00439357253695921
0.00521138513428116
7.71245691834903e-05
0.000646593171545923
0.00154002963806853
0.00251787006348862
0.00347700354772234
0.0043798379574084
0.00520676259940065
0.00594081160346041
7.51047370223265e-05
0.000630876234396255
0.00151018420294075
0.00248249447020466
0.00344154002842714
0.00434711780119632
0.00518274913769737
0.00593271443809117
0.00658677734221405
7.30646516178204e-05
0.000613337056259137
0.00147311724597079
0.00243254432393395
0.0033864914890556
0.00429269429895327
0.00513564813518742
0.00590128468911322
0.00657635293634578
0.00715716471902675
8.6849522746218e-05
0.000595965694870713
0.00142981894359007
0.0023698325098932
0.00331293380607198
0.00421598545301172
0.00506331322316151
0.00584260033308265
0.00653948989404681
0.0071447990349207
0.00765963780554089
8.21313124636853e-05
0.000592382559044185
0.00138130610712951
0.00229478120496911
0.00322133899421139
0.00411695034610787
0.00496510130527264
0.00575438875676602
0.00647136848243233
0.00710346895884807
0.00764534897565414
0.00810103585669332
7.11275354620038e-05
0.000563285625390552
0.00132500450165949
0.00220674438827173
0.00311104105639511
0.00399483943215494
0.00484037622282823
0.00563592480731225
0.00636916051369317
0.00702721596505753
0.00759993644679057
0.00808475358858929
0.0084874344336965
5.82794087437547e-05
0.00052187640027091
0.00126112983182383
0.00210360546871277
0.00298023742588732
0.00384787366383094
0.00468756753873924
0.00548637292086978
0.00623201267949222
0.00691246778639443
0.007516326080441
0.00803541931015595
0.00846905721180882
0.00882428107814319
4.50661714801767e-05
0.000469248462238364
0.00117332998995145
0.00198161852660199
0.00282574153220397
0.00367317492920292
0.00450400487375515
0.00530372001638161
0.00605906274037581
0.00675816549195246
0.00739013850600292
0.00794489887416991
0.00841563491050904
0.0088035681577548
0.00911642095343643
3.19233128901048e-05
0.000408038421736036
0.0010633533390931
0.00183095412762293
0.00264218690829699
0.00346644819984162
0.0042858892813389
0.00508464622238747
0.00584804413887025
0.00656339373954865
0.00721995563267374
0.0078080018861119
7.70447017304078e-05
0.00063526712108527
7.88233550979466e-05
0.00152107226448
0.000647011398523666
8.08142967815621e-05
0.00250770105242903
0.00153784076226566
0.000660741240977131
8.19820526073279e-05
8.17848234788866e-05
0.000669178244019598
0.00155551433457714
0.00252277320185744
0.00348037471158183
8.0578965662793e-05
0.00066827654590438
0.00156460381388681
0.00253420316895308
0.00348981826685365
0.00438575781715742
7.89432728617267e-05
0.000659530552307706
0.00155895635719735
0.00253400049111038
0.00348994424698932
0.00438850110627071
0.00520442050716897
7.71228028462231e-05
0.000646384580538687
0.00153941246511731
0.00251656905232738
0.00347473570636573
0.00437634510189569
0.00520181986124754
0.00593424654444348
7.51140064112135e-05
0.000630805919883368
0.00150991736632919
0.00248181025156687
0.00344019396197369
0.00434488513470555
0.00517943044168296
0.00592814663483964
0.00658084273084393
7.30855988843209e-05
0.000613373350909324
0.00147311611369992
0.00243233819721493
0.00338587068462712
0.00429146156282507
0.0051336267220863
0.00589832428164999
0.00657233843398788
0.00715201557542842
8.6912953662827e-05
0.00059615354216125
0.00143001477788206
0.0023699827075922
0.00331287519170503
0.00421554164758778
0.00506232655380981
0.00584093338210876
0.00653703177629294
0.00714146868163077
0.00765538026294307
8.21850533368995e-05
0.000594848674971283
0.00138193610287929
0.00229518977307566
0.00322170334865724
0.00411712472805295
0.004964940992908
0.00575376818863024
0.00647018144480683
0.00710163280607563
0.00764280554968198
0.00809774855384455
7.11974559035639e-05
0.000565578367019138
0.00133097943978624
0.00220760606903869
0.00311172101017989
0.00399549367680226
0.0048408776607027
0.00563615792836467
0.00636902481826533
0.0070266262638077
0.00759882632308461
0.00808308119084944
0.00848518569865622
5.83735264180009e-05
0.000522407240240935
0.001262387886326
0.00210484180405761
0.00298118688455882
0.00384890172472493
0.00468860310958273
0.00548731218238976
0.00623276295280002
0.00691294289270974
0.00751644748848545
0.00803513866256751
0.00846837959270573
0.0088231693471178
4.5168365382148e-05
0.00046965938730092
0.00117403098258521
0.00198253649411049
0.00282685943087697
0.00367450711716463
0.0045054933437069
0.00530527219886493
0.00606059664309372
0.00675960155668644
0.00739139250602884
0.00794592740696912
0.00841656559090763
0.00880417878965875
0.00911667717995989
3.20266567939018e-05
0.000408450168449723
0.001064069841973
0.00183198054034056
0.00264352198064203
0.00346811325894228
0.00428784585653286
0.00508682369901717
0.00585037551460886
0.00656582339496329
0.007222426330892
0.00781039934447167
0.00832070666781742
0.00874844630819865
0.00909535367386015
0.00937009357297744
1.95026181592752e-05
0.000337388466670688
0.000931061232462654
0.00164803408715893
0.00242328080290132
0.00322373050783724
0.00403068707337708
0.00482762470624613
0.00559848416046495
0.00632931515950842
0.0070086706255283
0.00762698951539272
7.67209227041926e-05
0.000632585416349426
7.8554285323899e-05
0.00151568851275214
0.00064487739871209
8.06031864179544e-05
0.00250021049933586
0.00153365169172584
0.000659068627697376
8.18224442722646e-05
0.00347156212513318
0.00251703088842102
0.0015523127921012
0.0006678996479538
8.16703574702243e-05
8.05011589040972e-05
0.000667343289162421
0.00156222981656318
0.00252989967291823
0.0034831453951561
0.00437635349226239
7.88966076084572e-05
0.000658886378622009
0.00155727498210315
0.00253088105108222
0.00348502222942177
0.00438145987159345
0.005195011557466
7.7101096608671e-05
0.000645977370217437
0.00153830004569915
0.00251441864925086
0.00347123803761233
0.00437122872656903
0.00519485547353799
0.00592526796799913
7.51116475093491e-05
0.000630581839870088
0.00150925718941656
0.00248044034843166
0.00343784603006366
0.00434132303791411
0.00517444923236583
0.00592158462876505
0.00657259072567347
7.3096456867225e-05
0.000613289167422854
0.00147280576679266
0.00243158271991415
0.00338443883957041
0.00428914447781
0.00513024172579486
0.00589372060947848
0.00656640593116774
0.007144682057363
8.69394245263692e-05
0.000596190942971646
0.00142996721135399
0.00236969781441311
0.00331216072473128
0.00421421255178897
0.0050602191321053
0.00583790844491215
0.006532981989114
0.00713631976594353
0.00764908432852944
8.22266971788544e-05
0.000595265367683473
0.00138213723711438
0.00229525043526102
0.00322153690306471
0.0041165710314306
0.00496385147452566
0.00575201489681209
0.00646766044516344
0.00709826805234826
0.00763854685834615
0.00809256506146268
7.12620103994486e-05
0.00056624902947337
0.00133241948009458
0.00220799685956522
0.00311195930952198
0.00399553919135078
0.00484059575519823
0.00563543036571652
0.00636775195231086
0.00702472948762267
0.00759625020739632
0.00807979225772706
0.00848116678502069
5.844997125853e-05
0.000522906242624396
0.00126397580930242
0.00210632881091533
0.00298176760880504
0.00384940406031905
0.0046889596627778
0.00548741437973359
0.00623251692969361
0.0069122681011167
0.00751527981000213
0.00803343839457453
0.00846613215851354
0.00882035838015099
4.52500472565641e-05
0.000470018985886006
0.0011747337834907
0.00198341931602781
0.00282772420648272
0.00367536488573223
0.00450635623876218
0.00530605153812979
0.00606120669111649
0.00675996212958421
0.00739142915070359
0.00794559739323322
0.00841587739580528
0.00880307723538925
0.00911513201285796
3.21160535110815e-05
0.000408807144526515
0.00106466520225369
0.00183277479403625
0.00264447847159286
0.00346925206770508
0.00428913017029026
0.00508818122082336
0.0058517323283699
0.00656710727538898
0.00722355871741627
0.00781134249958693
0.00832159757691068
0.0087490605296931
0.00909562675041261
0.00937001296831861
1.95860599179948e-05
0.000337748001434484
0.000931660182314582
0.00164892496656987
0.00242445890362726
0.0032251823131451
0.00403240369990739
0.00482956336635284
0.00560059076646895
0.00633154310704035
0.00701097010315349
0.00762925390650128
0.00817757443639074
0.00864861967240526
0.00903788966255091
0.00934817995517764
0.0095889185544677
9.09449276904253e-06
0.000254466012852755
0.000770357248644651
0.00142553667494074
0.00215978382006094
0.00293544874787221
0.00372984891654807
0.00452483669779998
0.00530314702655084
0.00604951682281757
0.00675137223254201
0.00739854793356037
0.00062924722364109
7.82281687987075e-05
0.00150885447505347
0.000642147848369987
8.03201897050625e-05
0.00249061167033278
0.00152821581065026
0.000656872355097409
8.16050124786521e-05
0.00346018133434988
0.00250949789690849
0.00154804682935663
0.00066617482732127
8.14996589483167e-05
0.00436411823002392
0.00347430763564469
0.0025240849166873
0.00155895569282333
0.000666034026530258
8.03821294530936e-05
7.88158259228685e-05
0.000657933357426712
0.00155484537488655
0.00252649880029204
0.00347828948898646
0.00437204789941984
0.00518267488920486
7.70525740162544e-05
0.000645320666144764
0.00153657547895276
0.00251122632070644
0.00346624001111751
0.00436414215684712
0.00518545039916331
0.00591338911131812
7.50913365609835e-05
0.000630164943828788
0.00150810820752509
0.00247822276906336
0.00343426736211324
0.00433613731379901
0.00516744864559389
0.00591261319311276
0.00656155190965778
7.30966198615506e-05
0.000613059194278469
0.00147211183467486
0.00243014584084741
0.00338200676744589
0.00428549912522417
0.00512519607060402
0.00588712585883704
0.00655816060580553
0.00713472611711743
8.69396990853771e-05
0.00059609955455627
0.00142961947766781
0.00236887013323527
0.00331063827233115
0.00421180163728335
0.00505675061602713
0.00583324261037045
0.0065270170011911
0.00712899096051428
0.00764035411146367
8.22397318832321e-05
0.000595336182533363
0.00138205605164261
0.00229488265038128
0.00322072008917469
0.00411513581730134
0.00496164483061224
0.00574890667408487
0.00646354975521588
0.00709308656290421
0.007632253681072
0.00808513715655676
7.1304943066736e-05
0.000566485479368007
0.00133271211477289
0.00220798096006705
0.00311167319344793
0.00399486215643222
0.00483938963433394
0.00563357481870427
0.00636514848145457
0.00702130560665268
0.00759195983978907
0.00807461018311251
0.00847507995638223
5.85113774172218e-05
0.000523193805954964
0.00126457245703155
0.00210681484909319
0.00298188390494345
0.00384930404909369
0.00468853939326897
0.00548656277596404
0.00623113989548618
0.00691029011046001
0.00751264707552191
0.00803012003699356
0.00846211443874091
0.00881563150724307
4.53161856121167e-05
0.000470296183703131
0.00117531277358718
0.00198412111312094
0.0028282557804952
0.00367570501474427
0.00450654814929168
0.00530600301155018
0.0060608300467418
0.00675918097712216
0.00739018121229902
0.00794384480765392
0.00841360717117994
0.00880027004460459
0.00911177106096323
3.21821895159674e-05
0.000409081472152712
0.00106515342447003
0.00183340246870138
0.002645141678602
0.0034699339108195
0.00428980096789602
0.0050887783965786
0.00585217914958155
0.00656732936336754
0.00722348501088258
0.00781093343565751
0.008320867315292
0.00874795059521614
0.00909409285012177
0.0093680397380765
1.96641031654487e-05
0.000338042023765278
0.000932133050455175
0.00164958216182514
0.00242526168458197
0.0032261208328928
0.00403346682609343
0.00483070263595416
0.00560174498637735
0.00633264802105371
0.00701195247506436
0.00763007803963116
0.00817837726280035
0.0086491928293949
0.00903816442665113
0.00934811556084208
0.00958851251292691
9.16045605827097e-06
0.000254751226545864
0.000770817181237895
0.00142623779785648
0.00216076111985236
0.00293667414656416
0.00373130953231681
0.00452651221108807
0.00530500052565313
0.00605151249294338
0.00675346873296501
0.00740064762777641
0.00798446732219036
0.00849781337982933
0.00893372692765011
0.00928865661969307
0.00956626051427425
0.00977665860477808
2.37251043577584e-06
0.000157291836962418
0.00057428599222872
0.00115509512646371
0.00184286162314763
0.00259294439003313
0.00337572311557445
0.00416979627054685
0.00495644013369888
0.00571916731993363
0.00644421755683607
0.00712043888470612
0.00150032336817083
0.000638754033251025
7.99847481199997e-05
0.00247854300553191
0.0015213144335605
0.000654065836309946
8.13112309941019e-05
0.00344577632536126
0.00249984648514507
0.00154251633839029
0.000663917778575887
8.12766071782976e-05
0.00434853381065818
0.00346289782385619
0.00251646769481135
0.00155460459218424
0.000664270619088675
8.02122950394521e-05
0.00516685989640706
0.00435980678060038
0.00346938742346138
0.00252059772812845
0.00155151183773116
0.000656604529557355
7.86926541925321e-05
7.69686348519237e-05
0.000644354759276464
0.00153410456840663
0.00250677021767935
0.00345942954102294
0.00435468585292028
0.00517312226449377
0.00589805117171968
7.50296425699421e-05
0.000629500983907508
0.0015063553043587
0.00247496786514492
0.00342919058919856
0.00432898425343098
0.00515801204436506
0.00590074742141584
0.00654718019300166
7.30609908589899e-05
0.000612636685370315
0.00147094650047044
0.00242787068939875
0.00337834963052366
0.00428023521370422
0.00511813642741647
0.00587812707419183
0.00654713442105304
0.00712163052696358
8.69236390644641e-05
0.000595858058728626
0.00142891140708254
0.00236737406062479
0.00330812328247288
0.00420806925378207
0.00505162812554814
0.00582659171093399
0.00651874436302976
0.00711904544960781
0.00762871290043384
8.22158378916957e-05
0.000595217256858471
0.00138167844376886
0.00229398491187494
0.00321910398605609
0.00411262639036351
0.00495808498815069
0.00574416475065584
0.00645752938054273
0.00708572947105163
0.00762353141675651
0.00807503804913393
7.13150199191401e-05
0.000566540510149894
0.00133260928387812
0.0022075309311353
0.00311074626969089
0.00399331227724354
0.00483707519232249
0.00563037304639798
0.00636096240282077
0.00701606955129865
0.00758563819404877
0.00806718827392241
0.00846655308020274
5.8549543145203e-05
0.00052333875428728
0.00126471731284195
0.0021067411893306
0.00298147252961741
0.00384849108413408
0.00468720461052519
0.00548459342666291
0.00622844175006355
0.00690679199628775
0.00750830387453569
0.00802491050404302
0.00845603218384157
0.00880867423324112
4.53661338640412e-05
0.00047047834544069
0.00117561265020489
0.00198433720285971
0.00282826148499
0.00367544830363802
0.00450597412066628
0.00530501250279544
0.00605933453768188
0.00675710729772602
0.00738747545649332
0.00794047625809434
0.00840956458018912
0.00879554728795913
0.00910636217435655
3.22331068335884e-05
0.000409268704859567
0.00106548563423569
0.00183377553501024
0.00264543789311883
0.00347010834042781
0.00428981259512783
0.00508856128731202
0.00585165419647081
0.00656642443527158
0.00722213910484534
0.00780910871575508
0.00831855189821039
0.0087451246938869
0.0090907380191935
0.00936414654062903
1.97145497080816e-05
0.000338226183496837
0.000932467723952436
0.00165003000359014
0.00242574225470277
0.00322660434403083
0.00403393224718754
0.00483109880516723
0.00560200810291521