/*--------------------------------*- C++ -*----------------------------------*\
  =========                 |
  \\      /  F ield         | OpenFOAM: The Open Source CFD Toolbox
   \\    /   O peration     | Website:  https://openfoam.org
    \\  /    A nd           | Version:  12
     \\/     M anipulation  |
\*---------------------------------------------------------------------------*/
/*   Windows 32 and 64 bit porting by blueCAPE: http://www.bluecape.com.pt   *\
|  Based on Windows porting (2.0.x v4) by Symscape: http://www.symscape.com   |
\*---------------------------------------------------------------------------*/
FoamFile
{
    format      ascii;
    class       volScalarField;
    location    "200";
    object      omega;
}
// * * * * * * * * * * * * * * * * * * * * * * * * * * * * * * * * * * * * * //

dimensions      [0 0 -1 0 0 0 0];

internalField   nonuniform List<scalar> 
10140
(
3.17198211756052
3.17394250037107
3.12112042522559
1.08265776377626
3.17602092191956
3.12309864007466
1.08299355087773
3.06470019783462
1.06694330066835
0.662516829143139
3.17798803303925
3.1252170586913
1.08331509172052
3.06667347358326
1.06728135992037
0.662586918586291
3.00734615313189
1.04564498015989
0.656612694724893
0.504351346842101
3.17981325544634
3.12718238166248
1.0835898459912
3.06881070523012
1.06760350043963
0.66263678363705
3.00929395558669
1.04597627525108
0.656689488443889
0.504343792423256
2.95749468722994
1.02528391720961
0.647287883850105
0.501872362009659
0.427022887201565
3.1814611676983
3.12900257810054
1.08379739886612
3.07077290224743
1.06787377230847
0.662655410102792
3.01143238612242
1.04629489220121
0.656739639138125
0.504315467327682
2.95941861958184
1.02560505377032
0.64736628984275
0.501871937573516
0.426985677931495
2.91079592249901
1.0084541067439
0.637146714366699
0.497296757545204
0.425940562775142
0.383850038429964
3.18285973536845
3.13065304490465
1.08391879125483
3.07257612096523
1.06807530474155
0.662629473696376
3.01338517028611
1.04655836604967
0.65675654303591
0.504262497405538
2.96155612590551
1.02591822433309
0.647415494413618
0.50184489124516
0.426928481791203
2.91259293794644
1.00876482309156
0.637223693260275
0.497300399457082
0.425910231333749
0.383799810253366
2.85868462666952
0.993319614056545
0.627586378495574
0.491552560764677
0.423450851244169
0.383352566439426
0.357829374512716
3.18391980114778
3.13207032579885
1.08392849180377
3.07420867650128
1.0681915433327
0.662545636363484
3.01515778225313
1.04674984428356
0.656728327630386
0.504175787236439
2.96349375543278
1.02617432733143
0.647429633843858
0.501791625046831
0.426850453194558
2.91471849667788
1.00907132684667
0.637271095172356
0.497274442245891
0.425854705377399
0.383730753029559
2.86036370442713
0.993609007482648
0.627661096867823
0.491557572916279
0.423425156506478
0.383308963250919
0.357773194266777
2.79687067595082
0.976861085342835
0.618311310162761
0.485349053835697
0.419867244588038
0.381818754925812
0.357548152521894
0.341416582642483
3.18453439592463
3.13316298770313
1.08379661711217
3.07560754108202
1.06819823213257
0.662388333201565
3.01675309702944
1.04685502183171
0.65664224172038
0.504045349117515
2.96523902079718
1.0263545187239
0.647397532988906
0.501704197343308
0.426745011155697
2.91664065308266
1.00932041626034
0.637282062038272
0.497220582262567
0.425776937113305
0.383643443183137
2.86234902125765
0.993903866170521
0.627706264578248
0.491532118485929
0.423371518540243
0.38324169513669
0.357699220486317
2.79847965820591
0.977130945301912
0.618382899047196
0.485354447943713
0.419843837218545
0.381779880420779
0.357498391731452
0.341357984760528
2.72510367193885
0.957414210979154
0.608367524779933
0.478825531356835
0.415553463364608
0.379347306397414
0.35643767708651
0.341203433720328
0.330812239225714
3.18455479527302
3.13381194855202
1.08348702195679
3.07668577586292
1.06806393715679
0.662139166792003
3.01811456799246
1.04685024909724
0.656482990672132
0.503859680812484
2.96679094399056
1.02644632552654
0.647306893291753
0.501572952757506
0.426604318336405
2.9183544695025
1.00949100533936
0.637245476150854
0.497131651429643
0.425671353360254
0.383532828262114
2.86424818739837
0.994144162642174
0.627714198937231
0.491477486018224
0.423294066792606
0.383154839225606
0.357608723261512
2.80015018863435
0.977392286966232
0.618424915722659
0.485329109717069
0.419791677238664
0.381714787339225
0.357426217203509
0.341282159142398
2.72659339611762
0.957676404639356
0.608437427445086
0.478831279198761
0.41553142966364
0.379311069384693
0.356392635147598
0.341151116641782
0.330753586862369
2.6471364552369
0.934632372199212
0.597083393397167
0.471783926580203
0.410739765390325
0.376158615490642
0.354546427208169
0.340280204070429
0.330623439571195
0.32392860631308
3.18380436556026
3.13385427087033
1.08295489904214
3.07732177441813
1.06775046606877
0.661776406808845
3.01915369374509
1.04670371295856
0.656232161056553
0.503605350951793
2.96810781590075
1.02642800161086
0.647142754673759
0.501386507278416
0.42641918469977
2.91986672892434
1.00956974594552
0.637149377223519
0.496998318600695
0.425530379663334
0.383392516546842
2.8659223613189
0.994304619431894
0.627673250956313
0.491386737489393
0.423187933605052
0.383044280665545
0.35749773399888
2.80199462596161
0.977615504688799
0.618429487920542
0.485273717895835
0.419714530204673
0.38162862794726
0.357336255033695
0.341190838833499
2.72788407011688
0.957875536429727
0.608474559693242
0.478806016810675
0.415480428504064
0.379247873481865
0.356322741463447
0.34107708634831
0.330677269665512
2.64789808134718
0.934899855431685
0.597158498665767
0.471791018488112
0.410719184416351
0.376124225276945
0.354504196603829
0.340232585929798
0.330570970750691
0.323872554946503
2.59696872946224
0.90875629162522
0.584163279368807
0.464029657926176
0.40550684991296
0.372491502658545
0.352053076156195
0.338711306088827
0.329799062688731
0.323757764572606
0.319533364735089
3.18207774491493
3.13313085462672
1.08214646333812
3.07735137963089
1.06721510494176
0.661274644321717
3.01975139716287
1.04637882591865
0.655867971931169
0.50326675132965
2.969094256433
1.02626791480349
0.646886824927815
0.501131481657416
0.426178888403929
2.92112892462502
1.0095370015434
0.63697903491633
0.496809368557361
0.425344899872109
0.383214871534912
2.86738046877777
0.994370354727261
0.627571485722862
0.491250690577215
0.423045830118103
0.382903877798278
0.357360976878425
2.80361907655937
0.977764724024958
0.618384381455366
0.485181175377562
0.419607701457345
0.38151792949705
0.357225407310737
0.341080954950224
2.729390677662
0.958044771005786
0.608474325704392
0.478750023026498
0.415403633951925
0.379162510033044
0.356233650841048
0.340986330894197
0.330585620052349
2.64710048282822
0.934946713269647
0.59719100998488
0.47176644777741
0.410669447009518
0.376062693596641
0.3544364014438
0.340160884195866
0.330496441778428
0.323796004803102
2.59403305148751
0.908878968536096
0.584260526547795
0.464041376312814
0.405488412912216
0.372459092936218
0.352012965379116
0.338666601978339
0.329751268240096
0.32370781786189
0.319485812928452
2.19511855608449
0.879270694339711
0.569474601123245
0.455478208032813
0.399887717296417
0.368524938839186
0.34919069024768
0.336677719876227
0.328437342622647
0.323004387402849
0.319382318421126
0.31684865327906
3.17913654217862
3.13146685548054
1.08100468793753
3.07661562596324
1.0664080840757
0.660604702734213
3.01975219613681
1.04583394172099
0.655365380661283
0.502826004494952
2.96963631603982
1.02592805248716
0.646517584903695
0.500792309198975
0.425871065205926
2.92205496440449
1.00936147897033
0.636716244704371
0.496551517709414
0.425104219430629
0.382990907728467
2.86857932470749
0.994321634156905
0.627394285241116
0.491058267184391
0.422858751329267
0.382726029248715
0.357191903732208
2.80501140872051
0.977816465755507
0.618277007348288
0.485042297271365
0.41946404468065
0.381376806578839
0.35708861371653
0.340948163958552
2.73083280547409
0.958196570415591
0.608425888057634
0.47865599668597
0.415296221049512
0.379051647615678
0.356122861297929
0.340876623644297
0.33047667889202
2.64953806099139
0.935024380204345
0.597178010511889
0.471710299318749
0.410593283400982
0.375978239885569
0.354348355911866
0.340071089774674
0.330405373598115
0.323703125338516
2.57199498593827
0.908530262119318
0.584271021487034
0.464019982582721
0.405440605937296
0.37239938234537
0.351947108142552
0.338597110641485
0.329679090600751
0.323633051499912
0.319407149339969
2.19512461210797
0.878987613180772
0.569566346965587
0.455502419645747
0.399872972071128
0.368495108309155
0.34915287345038
0.336635303675566
0.328392512806543
0.322959056158787
0.31934081533252
0.316828544701111
2.19484813698115
0.820892336077559
0.552719479761525
0.446163327651368
0.393955558359361
0.36439799936866
0.346166903553264
0.334409031619753
0.326736799810204
0.321798799254866
0.31869110487605
0.316718847593246
3.17470078112417
3.12861951852505
1.07945783683035
3.07495151721686
1.06527092781379
0.659733988284609
3.01897654647826
1.04501944727282
0.654695747671882
0.50226297102184
2.96958635088669
1.02536742582827
0.646010357431039
0.500351192122673
0.425481721599646
2.9225310786645
1.00900485201108
0.636339513722479
0.496209290966903
0.424795991081501
0.382710224209944
2.86943459362606
0.994128337440891
0.627123598483794
0.490796228202391
0.422616049791252
0.382501741937995
0.356982696623513
2.80613537918027
0.977750248741991
0.618092659734345
0.484846026010951
0.419274638677466
0.381197741629563
0.356919371536097
0.34078680111549
2.7321312755055
0.958242870254936
0.608313729406035
0.478514562123131
0.415151030135401
0.378909523100215
0.355985542738437
0.340743827232396
0.330347058377455
2.64836486094704
0.934961677783573
0.597134446940955
0.471615730106788
0.410485676283322
0.375867402052848
0.354237681708312
0.339961548017573
0.33029663003474
0.323593871557672
2.62063121642697
0.907898009141559
0.584244932722129
0.463963868755243
0.405365749732507
0.372316166540985
0.351860276339485
0.338508501211058
0.329589036833041
0.323540767420268
0.319310230048861
2.19513112172946
0.876650775143083
0.569538857256163
0.455484924865508
0.399828707071864
0.368437801098552
0.349089149459421
0.336567910876134
0.328322605942101
0.32288665139523
0.319263917698593
0.31673701877988
2.19485185442383
0.820909333266159
0.552776661892609
0.4461985582962
0.393947588574688
0.36437171994176
0.346131965913852
0.33436910295953
0.326694345456309
0.321756411290982
0.318654214645124
0.316704005107219
0.315405516770282
2.19192791436318
0.79464249246699
0.532688340002449
0.436277524549043
0.387887980261575
0.360279423458372
0.343168181835795
0.332118491682303
0.324928601389217
0.320359719098443
0.317615579772297
0.316085143309205
3.16846467994272
1.07743599980697
3.12432976596817
3.07212603082017
1.06373794862914
0.658628208013036
3.01725631050652
1.04387866264031
0.653826921795317
0.501555451319503
2.96877026122927
1.02453829395662
0.645336883878725
0.49978808835157
0.424995302917217
2.92241277654191
1.00842475275396
0.635824413819052
0.495765007425053
0.424406237755575
0.382361117408588
2.86983484035917
0.993752352014635
0.626737891106706
0.490449161577896
0.422305414853131
0.382220637561233
0.356724318898337
2.80690966095002
0.977536631452783
0.617813382927048
0.484579154056355
0.419028863759457
0.380971757796867
0.356709865779823
0.340589928588575
2.73316663095636
0.958160550551381
0.608122519703973
0.478314564044224
0.414959142039722
0.378728677124081
0.355815269194802
0.340582318622808
0.330191845592307
2.64926090521688
0.934939139801305
0.597023941700215
0.471472631309661
0.410339347515498
0.375724395250869
0.354099653189456
0.339828338641763
0.330167022578923
0.323465941912593
2.19480318386555
0.905390921408784
0.584164638218562
0.463872300404611
0.405258765494254
0.372205793915967
0.35174996050568
0.338399232902646
0.329480524324191
0.323431725888985
0.319198423210134
2.19512681827939
0.875156087235815
0.569316637803707
0.45543198220554
0.399756336468398
0.368356476447108
0.349003891875047
0.33648068977942
0.328233818688741
0.322795424373712
0.319167611977444
0.316629783014316
2.19485570431745
0.820479875106238
0.552520623253925
0.446188164259387
0.393908913485035
0.364317880126155
0.346070928599028
0.334304028435526
0.326626622001803
0.321686300899677
0.318579632910592
0.316614613550732
0.315264801847584
2.19193055418302
0.794687913306692
0.532750267848863
0.436317199052631
0.387888195546264
0.360258175910402
0.343136942907865
0.332081639791043
0.324888735269212
0.320319706585907
0.317581638920023
0.316074198294629
0.315296515834403
0.31472436770075
2.18619294169925
0.771882533122232
0.517198211899
0.426410675911989
0.382050139649823
0.356438808900945
0.340418798769984
0.330013760387471
0.323226894890823
0.318923478679507
0.316392646708122
0.315122766985582
3.160103281544
1.07485650426087
3.11830386593124
0.657247455111956
1.06173669613464
3.06788884816187
3.01440083414745
1.04234856851906
0.652723981181415
0.500679924015632
2.9669979014869
1.02338391342256
0.644465435048704
0.499080957006454
0.424394850815436
2.92152668363641
1.00757434127262
0.635143155387717
0.495198772859264
0.423919422634616
0.381930804240844
2.86963327097694
0.993149392344306
0.626212553027767
0.489999477443236
0.421912887325768
0.381871031859444
0.356406624807491
2.80722318887721
0.977137765825858
0.617417628103445
0.484226258674912
0.418714423460291
0.38068848586105
0.356451055607726
0.340349457737022
2.73385294420192
0.957925348710428
0.607834454378051
0.478042773428231
0.414709926057355
0.378500136543185
0.355604237156657
0.340385160267941
0.330004746124655
2.65016802097403
0.9348265090437
0.596828545135437
0.471269572052503
0.410145305750578
0.375541748212941
0.353927889447459
0.339665909469411
0.330011675820259
0.323315013447632
2.19479800618548
0.904846214806673
0.584041532432387
0.463730644441005
0.405112123640997
0.372062374980943
0.351611403355595
0.338265480576833
0.329350571645979
0.323303819726062
0.319070308653299
2.19512477951573
0.848928149377958
0.568869365540209
0.455340253239034
0.399651757343537
0.368247318921708
0.348894405777468
0.336371966270301
0.328125671623053
0.322686660130737
0.319056031805488
0.316512448191624
2.19485330122245
0.81957502875011
0.551852909330396
0.446107587548791
0.393841326278229
0.364239498449128
0.345987878548602
0.334218572226678
0.32653931689068
0.321596393124432
0.318484412187385
0.316508141094676
0.315140223630313
2.19192988002277
0.794599012228402
0.532671214637935
0.436286799324508
0.387857669645842
0.360209267620808
0.343079459963109
0.332019431278499
0.32482342195485
0.320251805597955
0.317509308132902
0.315987255607855
0.315161943574229
0.314597166081682
2.18619500588245
0.771929611335981
0.517243284033226
0.426443904348996
0.38205734051435
0.356423883288015
0.340392301864579
0.329980773804299
0.32319020897053
0.318886060495189
0.316361044943599
0.315114235103386
0.314715484152549
0.314633942691314
0.314607128362326
2.18721907869173
0.748246601230149
0.504385814834131
0.418553095541036
0.377154163024237
0.35332779393749
0.338247644231483
0.328352032461391
0.321850233671239
0.317705619666307
0.315265205687467
0.314083485963792
3.14918286669858
1.07163512748947
3.11021181771046
0.655551157765722
1.05918797233179
3.06196795404322
0.499610734051333
0.651348481042743
1.04035881359716
3.01014637732854
2.96406701746204
1.02184383518296
0.64336154165849
0.498206135843927
0.423662406558715
2.91968369642
1.00639814124874
0.634264244873341
0.494488639707434
0.423318618054847
0.381405402788328
2.8686613520585
0.992271720620327
0.625519901569307
0.489427399526195
0.421422950213334
0.381440073166392
0.356018518600763
2.80693588901307
0.976509161945009
0.616880411756804
0.483769703314219
0.418317349991829
0.380336231537502
0.356132781228886
0.340056318426474
2.73408388480321
0.957500884904255
0.607427994290298
0.47768371212138
0.414391053385812
0.378213512648681
0.355343391409849
0.340144256360747
0.329778362460142
2.65075298429077
0.934564952792257
0.596532508713303
0.470993320449309
0.409892862924817
0.375310450137566
0.353714579319878
0.33946732966173
0.329824304367735
0.32313522258039
2.19480374182143
0.904621307385921
0.583839292844065
0.463526409395133
0.404916693718515
0.37187836464286
0.351438198974554
0.338101728026343
0.329194368920736
0.323152763572916
0.318921742325123
2.1951198105926
0.845972453443777
0.568642040072507
0.455199784552409
0.399506496416209
0.368104285065702
0.348755826486971
0.33623787667264
0.327995268136129
0.322558447489346
0.31892794470753
0.316382310590348
2.19485167696793
0.816800930378268
0.549707240199802
0.445975338234932
0.393740638197397
0.364132760930981
0.345879947440028
0.334110873301535
0.326431810103345
0.321488048293482
0.318373147124145
0.316391075515145
0.315015838421144
2.19192784839133
0.794352294492554
0.53236463495835
0.436136661247247
0.387791936406292
0.360135386795261
0.342999546486317
0.331936362202564
0.324737972022749
0.320163422419189
0.317415423808212
0.315881998374995
0.31503889647926
0.314471689565735
2.18619346582451
0.771906058927645
0.517219543532771
0.4264283921411
0.382031245957435
0.356381537879181
0.340339511310151
0.32992223877199
0.323127845622089
0.318820586876582
0.316290888640139
0.315029524061087
0.314585555328918
0.314512896787248
0.314490485312375
2.18721905677796
0.748301073695009
0.504428441840539
0.418578417720909
0.377163667312241
0.353319659086972
0.338227008161239
0.328323854859111
0.321817508931134
0.317671383832703
0.315236114617623
0.314076882835296
0.313852614318873
0.314098825233184
0.31453347863563
0.314875486556379
2.2161092742595
0.726090107379204
0.494798419577578
0.41389000179641
0.374485249001514
0.351705347303455
0.337165810926305
0.327501997254222
0.321076630649871
0.316931804274191
0.314451156439245
0.313216623276409
3.13485759491981
1.06767272364826
3.09957545878561
0.653497744695303
1.05600714754905
3.05403559464326
0.498321942453002
0.649659944546996
1.03783158765547
3.00423415921348
0.422779301924844
0.497138325407909
0.64198751639092
1.01984961653066
2.95975233179356
2.91668221516568
1.00483433893967
0.633153572717542
0.493611018014927
0.422585849255366
0.380770333599285
2.86672561567883
0.991065807932417
0.624628732800327
0.488711007137977
0.420818689981914
0.380913880603935
0.355548161358256
2.8058814847001
0.975600596704987
0.616173607913415
0.483189689457495
0.41782211360235
0.379902097871164
0.355743916979276
0.339700592904154
2.73374291941958
0.956842248731752
0.606877553093065
0.477219592569103
0.413988488779046
0.377857065582192
0.355022539002831
0.339850505901616
0.329504339138581
2.65094383138593
0.93411166544989
0.596114824727902
0.470628322199759
0.409569610111271
0.375020051122579
0.353450626962233
0.339224478842481
0.329597482644794
0.322919580702418
2.1948092905844
0.904313183742252
0.583534793539798
0.463246860113049
0.404661719321518
0.371644671699161
0.35122248486097
0.337901028302641
0.329005635806618
0.322972694935399
0.318746955800114
2.19512548417959
0.845426835990922
0.568413666230004
0.454995485272027
0.399311070059748
0.367919712438001
0.34858166246041
0.336072869733006
0.327837826626829
0.32240656352918
0.318779245077905
0.316234401264183
2.19484905933732
0.816058123824979
0.549151353707266
0.445823512037712
0.393598360666827
0.363991342727003
0.345742131816546
0.333976954381037
0.326301156249782
0.321359425320165
0.318244772762856
0.316260969354708
0.314882839587798
2.1919284360264
0.793937360065134
0.531831747650317
0.435870744787051
0.387691831818934
0.360032586192044
0.3428941891674
0.331830395058084
0.32463157018457
0.320055752898955
0.317304605844282
0.31576531165897
0.314914922764941
0.314344815056822
2.18619093755697
0.771823532120766
0.517104345115297
0.426336652138116
0.381962162583058
0.356313102171244
0.340263967765398
0.329842428428009
0.323044853528352
0.318734077088766
0.316198524603643
0.314925663732264
0.314464419125531
0.314389097636002
0.314367777526701
2.18721821276561
0.748309189765268
0.504421497011661
0.418565831570818
0.377142927142615
0.353284181245911
0.33818020771012
0.328270017589514
0.32175887687597
0.317608858488592
0.315168345805642
0.313994303664245
0.313725709019564
0.313982433318145
0.314422868496686
0.314763524523857
2.21610890975852
0.726139020134348
0.49485741491898
0.413919227684939
0.37449703513974
0.351703486096015
0.337152037645632
0.327479700236098
0.321048789273536
0.316901520504006
0.314425128806598
0.313212167755524
0.312971694467871
0.313321629478101
0.314038990981562
0.314816397501904
0.315390164669316
2.28699538146645
0.713894823056014
0.493061725052982
0.415032941816122
0.375883572508486
0.352833358387204
0.337987233442342
0.328019361763145
0.321302537161415
0.316894337926196
0.3141816748844
0.312742836600767
1.06284249008416
3.08545838779353
0.651045520860036
1.0520945433562
3.04356661831286
0.496787764335677
0.647617002015613
1.03468522606037
2.9963656099178
0.421726899223659
0.49585160152865
0.64030345337086
1.01732644020978
2.95379688271549
0.380010980174472
0.421702470370479
0.492540847058283
0.631774181770558
1.00281756397692
2.91229011535654
2.86362569321961
0.989470008216298
0.623504878073619
0.487826753291383
0.420082127680756
0.380277900914041
0.354983340338689
2.80385155848883
0.974357612288604
0.615266174127338
0.482464288525404
0.417211759937361
0.379372174639745
0.355272593606733
0.339271857785543
2.73269560494611
0.955897160359804
0.606153987844279
0.476630365425266
0.413486614592015
0.377417830689666
0.354630503113033
0.339493980148382
0.329173636679285
2.65074640710826
0.933418006482265
0.595548580265868
0.470156413615024
0.409161395976668
0.374658719880403
0.35312577221683
0.338928211030862
0.329322844005158
0.322660237622271
2.19480393953053
0.90382847500941
0.58310455210508
0.462876473259336
0.404334678467579
0.37135074076832
0.350955083826145
0.337655207899213
0.328776913430274
0.322756607273848
0.318539137251024
2.19513090795769
0.845043442196008
0.568096634903557
0.454713786923
0.399054758982083
0.36768441348385
0.348363953624863
0.335869935539306
0.3276470442995
0.322225148061346
0.318604166276089
0.31606261506192
2.19485431366289
0.815683681049054
0.548864182271605
0.445617175992963
0.393404551512839
0.363807406257634
0.345567815601926
0.333811167042931
0.326142528701594
0.321206323234152
0.318095242981709
0.316112913114436
0.314734477915004
2.19192840437474
0.793652990125732
0.531555516471276
0.43568526070404
0.387552401881109
0.359894309456332
0.342758218741877
0.331697408532998
0.324501146475698
0.31992689117967
0.317175824171027
0.315634929543358
0.314781969840167
0.314209977450311
2.18619035161078
0.771687099494916
0.516930109337962
0.426195233294432
0.381856032917761
0.356215265540875
0.340162488806632
0.329739140793092
0.322940231765783
0.318627510152903
0.316088371473228
0.314809456626986
0.314340997603969
0.314262674203135
0.314240643153924
2.18721384409991
0.748292570229654
0.504365722789399
0.418507544334225
0.37708632928944
0.353221549400835
0.338110351696733
0.328194577700361
0.32167917376741
0.317524789640643
0.315077819637398
0.31389196312557
0.31360634808881
0.313860690419411
0.314301830069756
0.314642644876182
2.21610749982241
0.726180067633408
0.494874355383505
0.413913698791095
0.374480411976303
0.35167507736361
0.337112349967127
0.327431760093518
0.320994868551193
0.316842694697136
0.314360245585673
0.313131943543968
0.31284721464147
0.31320813453976
0.313932842744732
0.314710402075741
0.315279311047535
2.28699558541227
0.713996563485075
0.493146806930612
0.415079231474622
0.375903604429531
0.352838832671208
0.337981238153421
0.328004119032417
0.321280643960069
0.316868912166258
0.314159452393522
0.312741078789736
0.312327719028098
0.312575731259797
0.313336234000067
0.314357098503804
0.315343550776677
0.316046781145637
2.38167955402928
0.742761661078168
0.513138206346993
0.428588719990724
0.384889569733723
0.358834362498602
0.342043979954281
0.330769251859001
0.323117433293514
0.318009736984166
0.314759567843487
0.31289787299517
0.648156767730081
1.04731567777389
3.02956348425344
0.494983976938397
0.645178037485716
1.0308165937941
2.98596669098259
0.420487163618286
0.494320202044119
0.638268378181944
1.0141925709103
2.94592301944332
0.379113065492155
0.420649806840059
0.491252319526259
0.630086721732201
1.00027674556247
2.90626339004133
0.35431198794363
0.379517420373573
0.419194610848822
0.486749706473197
0.622111937311354
0.987419616696407
2.85914939339787
2.80064841660968
0.97272420061852
0.614124252182553
0.481569838901675
0.416468246874332
0.378731871161638
0.354706559691054
0.338759516402605
2.73074862053787
0.954612637664369
0.605226139710975
0.475894000723119
0.41286836171544
0.376881812112596
0.354155354700734
0.339064207776695
0.328776802627722
2.65052248290828
0.932435973806959
0.594802141764095
0.469556995112719
0.408652387350811
0.374213368717055
0.352728748152492
0.338568545245292
0.328991317321702
0.322348740328928
2.19479860741361
0.903113638382653
0.582516713066045
0.462396269039149
0.40392119351281
0.370984600874065
0.350625623810368
0.337355040738263
0.328499790297602
0.322496630441518
0.318290727957083
2.19512558481951
0.844559010148713
0.567652638265105
0.454338492517945
0.398724930577951
0.367387684997596
0.348093398413501
0.335620804792037
0.327415400752002
0.32200716182102
0.318395879213255
0.315860098401274
2.19485531460617
0.815270851878847
0.54853139310489
0.445333986817745
0.39314842505603
0.363571676763572
0.34534890975512
0.333606389052854
0.3259495516904
0.321022855055907
0.317918795155345
0.315940809285984
0.314564111797933
2.19193125464139
0.79334568312346
0.531296199396932
0.435473514859455
0.387361476922062
0.359712536999486
0.342584864336751
0.33153161721109
0.324341764629843
0.319772581282477
0.317025045820634
0.315486017641963
0.314633442323564
0.314060793947132
2.18619245123398
0.771501343108169
0.516741414397962
0.426040750254529
0.38171828759851
0.356081578579942
0.34002972747406
0.329608094140928
0.322810753735181
0.318498838728704
0.315959304999905
0.31467864693972
0.314207784832205
0.314127874253209
0.314104689873548
2.18721386158079
0.748234645898029
0.504265518970383
0.418410653324092
0.376995761544848
0.35312931951556
0.338014176700097
0.328095161248921
0.321577223697281
0.31741994906249
0.314968703688392
0.313776389042292
0.313483502390966
0.31373485861502
0.314175133775182
0.314515351779749
2.21610229245698
0.726235981077341
0.494857420132407
0.413873187689398
0.374433841432616
0.351620762756329
0.337049460672362
0.327361990401742
0.320919502061764
0.316761849317059
0.314272080330709
0.313031392010829
0.312729498216482
0.313088202415241
0.313813804869231
0.31459115916174
0.315158591751459
2.28700593835545
0.714109787956001
0.493203798142074
0.415092676780231
0.375895384127263
0.352818443454472
0.337949780317781
0.327963389571077
0.321232596709339
0.316814724933296
0.314098166270528
0.312663695370322
0.312205789831898
0.312464406664249
0.313232735031766
0.314255420383342
0.315238620418627
0.315935005323405
2.38168145625283
0.743034775146813
0.513375188602005
0.428664146628485
0.384926443363348
0.358850659746883
0.342047410538826
0.330762418043277
0.323102720041135
0.317990222958075
0.314742030277752
0.312899532151163
0.31214399895181
0.312120476802871
0.312706249981491
0.31371837185202
0.314914432407254
0.316010756142176
0.316767917704949
3.68516517047986
1.02607243691066
0.604688345429786
0.472033900556679
0.409346591971457
0.373746994402881
0.351633594427786
0.337155091891343
0.327428634155014
0.320893137043325
0.316616327583876
0.313992611680452
0.492891442328409
0.64230286337684
1.02608288185148
2.97202776502207
0.419043827578664
0.492519827826027
0.63584055550134
1.01034221943632
2.93553115180907
0.378063208466367
0.419409751410748
0.489719631409676
0.628050288428995
0.997129335539503
2.89834303760063
0.353522765880623
0.37861808408083
0.418137397572927
0.485454103981621
0.620411021742209
0.984844352191131
2.85304847114089
0.338153354837743
0.354033683956009
0.377966372701939
0.415572837803798
0.48048139851114
0.61271170110533
0.970636994446799
2.79608929423192
2.72745597459549
0.952941766722684
0.604062777286423
0.474986751830125
0.412115525361188
0.376234305132482
0.353584764895974
0.338550548590719
0.328304421050392
2.65073839507025
0.931372665240151
0.593846370431516
0.468807872772459
0.408025316481241
0.373669844874301
0.35224751205028
0.338134935539203
0.32859342104187
0.321976369066903
2.19480421378859
0.902643867482432
0.581735293764202
0.461784335051124
0.403405063372777
0.370532968977768
0.350222692958134
0.336990443557664
0.328165134608792
0.322184289304042
0.31799369290176
2.19512025608535
0.844140695978487
0.567040223743872
0.453848325598359
0.398306781350487
0.367017356412911
0.347759465143811
0.335316123782496
0.327134396602442
0.321744685787577
0.318146806446447
0.315619435406987
2.19485207565669
0.814732498535423
0.548081572430653
0.444954638554055
0.392817097420672
0.363273286351351
0.345075950492363
0.333354209644076
0.325714597452082
0.320801915497732
0.317708568355477
0.315737788302689
0.314364776296794
2.19193118340958
0.792940694167989
0.530960360156929
0.435190098802962
0.387107248741431
0.35947790801604
0.342365891606817
0.331325748129987
0.324146922698147
0.319586855005872
0.316846479964624
0.315312491678424
0.314462724617699
0.313890696016921
2.18619365611158
0.771234594674893
0.516494038312704
0.42583552570996
0.381531294468413
0.355903663725594
0.339858748504035
0.329443340370516
0.322651331043209
0.3183436842363
0.315807225241036
0.314528415909152
0.314058357667396
0.313978496067118
0.313954419973028
2.18721698531951
0.748111538053992
0.504112636523869
0.418271295078707
0.376866556469426
0.353001532911139
0.337886174810747
0.32796731183229
0.321449626834943
0.31729211483189
0.314839709873787
0.31364520565915
0.313349829474245
0.313599769089955
0.314039191557648
0.314378226529879
2.21610342175294
0.726266505725471
0.494801224367438
0.413794688558095
0.374354177522954
0.351537001928206
0.336960054155965
0.327267844345844
0.32082133437667
0.316659558514792
0.314164557448903
0.312916747326413
0.312607260091783