/*--------------------------------*- C++ -*----------------------------------*\
  =========                 |
  \\      /  F ield         | OpenFOAM: The Open Source CFD Toolbox
   \\    /   O peration     | Website:  https://openfoam.org
    \\  /    A nd           | Version:  12
     \\/     M anipulation  |
\*---------------------------------------------------------------------------*/
/*   Windows 32 and 64 bit porting by blueCAPE: http://www.bluecape.com.pt   *\
|  Based on Windows porting (2.0.x v4) by Symscape: http://www.symscape.com   |
\*---------------------------------------------------------------------------*/
FoamFile
{
    format      ascii;
    class       volScalarField;
    location    "200";
    object      p;
}
// * * * * * * * * * * * * * * * * * * * * * * * * * * * * * * * * * * * * * //

dimensions      [0 2 -2 0 0 0 0];

internalField   nonuniform List<scalar> 
10140
(
83333.3282480731
83333.3282337346
83333.328248245
83333.3282475205
83333.3282187184
83333.3282339139
83333.3282331002
83333.3282486027
83333.3282477148
83333.3282473531
83333.328202949
83333.3282189016
83333.3282179968
83333.3282342917
83333.3282333007
83333.3282328518
83333.3282491855
83333.3282480764
83333.3282475629
83333.3282487574
83333.3281863646
83333.3282031393
83333.3282021225
83333.3282192976
83333.3282182049
83333.3282176646
83333.3282349115
83333.3282336801
83333.3282330667
83333.3282342802
83333.3282500226
83333.3282486769
83333.328247955
83333.3282489823
83333.3282520845
83333.3281689113
83333.3281865654
83333.3281854381
83333.3282035576
83333.3282023471
83333.3282016943
83333.3282199531
83333.3282186016
83333.3282178831
83333.3282191004
83333.3282358032
83333.3282343173
83333.328233479
83333.328234523
83333.3282377329
83333.3282511256
83333.3282495428
83333.3282486119
83333.3282494207
83333.3282522997
83333.3282573372
83333.3281505348
83333.3281691241
83333.3281678811
83333.32818701
83333.3281856756
83333.3281849012
83333.3282042543
83333.3282027673
83333.3282019217
83333.3282031228
83333.3282209008
83333.3282192743
83333.3282183106
83333.3282193436
83333.3282226619
83333.3282369773
83333.3282352392
83333.3282341752
83333.3282349915
83333.3282379732
83333.3282432101
83333.3282524888
83333.3282506841
83333.3282495444
83333.328250137
83333.3282528014
83333.3282575467
83333.3282643964
83333.3281311702
83333.3281507589
83333.3281493783
83333.3281695992
83333.3281681366
83333.3281672222
83333.3281877532
83333.3281861239
83333.3281851402
83333.3281863115
83333.3282052635
83333.3282034803
83333.3282023693
83333.3282033696
83333.3282067809
83333.3282221496
83333.3282202528
83333.3282190425
83333.3282198285
83333.3282229036
83333.3282283574
83333.3282384285
83333.3282364567
83333.3282351669
83333.3282357564
83333.3282385145
83333.3282434476
83333.3282505888
83333.3282541024
83333.3282520941
83333.3282507567
83333.3282511383
83333.3282535822
83333.3282580825
83333.3282646167
83333.3282730975
83333.3281107373
83333.3281314091
83333.3281298693
83333.3281512685
83333.3281496582
83333.3281485857
83333.3281703954
83333.3281686175
83333.3281674782
83333.3281686038
83333.3281888306
83333.3281868834
83333.3281856125
83333.3281865676
83333.3281900573
83333.3282065931
83333.3282045212
83333.3282031414
83333.3282038719
83333.328207024
83333.3282126898
83333.3282236915
83333.3282215477
83333.3282200927
83333.3282206343
83333.3282234683
83333.3282285977
83333.3282360593
83333.32824015
83333.3282379607
83333.3282364619
83333.3282368256
83333.3282393523
83333.3282440279
83333.3282508379
83333.3282596983
83333.3282559684
83333.3282537608
83333.3282522482
83333.3282524334
83333.3282546546
83333.3282589056
83333.3282651575
83333.3282733378
83333.3282832838
83333.3280891466
83333.328110997
83333.3281092838
83333.3281319589
83333.3281301639
83333.3281289247
83333.3281521238
83333.3281501752
83333.328148863
83333.3281499302
83333.3281715504
83333.3281694306
83333.3281679815
83333.3281688776
83333.3281724314
83333.3281902492
83333.3281879933
83333.3281864314
83333.3281870934
83333.3281903079
83333.3281961769
83333.32820823
83333.3282058984
83333.3282042564
83333.3282047205
83333.3282076121
83333.3282129318
83333.3282207206
83333.3282255157
83333.3282231471
83333.3282214704
83333.3282217701
83333.3282243541
83333.3282292062
83333.328236312
83333.3282455867
83333.3282421551
83333.3282397391
83333.3282380559
83333.3282382086
83333.3282405004
83333.3282449133
83333.3282514255
83333.3282599681
83333.3282703774
83333.3282580888
83333.3282556812
83333.32825401
83333.3282540244
83333.328256038
83333.3282600361
83333.3282659951
83333.3282738632
83333.3282835139
83333.3282947496
83333.3280663052
83333.3280894299
83333.3280875328
83333.3281115927
83333.328109585
83333.3281081654
83333.3281328809
83333.3281307169
83333.3281292178
83333.3281302191
83333.3281533659
83333.328151052
83333.3281494032
83333.3281502297
83333.3281538369
83333.328173072
83333.3281706201
83333.3281688559
83333.3281694353
83333.3281726996
83333.3281787642
83333.3281919916
83333.3281894627
83333.3281876203
83333.3281879922
83333.3281909264
83333.328196427
83333.3282045425
83333.328210151
83333.328207595
83333.3282057216
83333.3282059267
83333.3282085462
83333.3282135687
83333.328220976
83333.3282306798
83333.3282276314
83333.3282250333
83333.3282231677
83333.3282232437
83333.3282255769
83333.3282301447
83333.3282369303
83333.3282458631
83333.3282567715
83333.3282444908
83333.3282417974
83333.3282399351
83333.3282399061
83333.3282419784
83333.3282461255
83333.3282523279
83333.3282605388
83333.3282706314
83333.3282824066
83333.3282603058
83333.3282578502
83333.3282560367
83333.3282559075
83333.3282577385
83333.3282615009
83333.3282671663
83333.3282747004
83333.3282840204
83333.3282949757
83333.3283073308
83333.3280421149
83333.3280666139
83333.3280645257
83333.3280900787
83333.3280878518
83333.3280862314
83333.3281125932
83333.3281101787
83333.3281084691
83333.3281093959
83333.3281342202
83333.3281316693
83333.3281297957
83333.3281305492
83333.3281342045
83333.3281550035
83333.3281523361
83333.3281503452
83333.3281508274
83333.328154133
83333.3281603889
83333.3281749383
83333.3281721923
83333.3281701311
83333.3281703955
83333.328173358
83333.3281790324
83333.3281874735
83333.3281940253
83333.3281912688
83333.3281891842
83333.3281892778
83333.3281919159
83333.3281970994
83333.3282048074
83333.3282149481
83333.3282123322
83333.3282095844
83333.3282075237
83333.3282074963
83333.328209847
83333.3282145605
83333.3282216241
83333.3282309624
83333.3282423908
83333.3282301132
83333.3282272097
83333.3282251661
83333.3282250524
83333.3282271542
83333.3282314383
83333.328237889
83333.328246464
83333.3282570333
83333.3282693857
83333.3282470429
83333.3282441567
83333.3282420961
83333.3282419106
83333.3282437915
83333.3282476915
83333.3282535849
83333.3282614425
83333.3282711834
83333.3282826549
83333.3282956173
83333.3282625774
83333.3282601491
83333.3282583185
83333.3282580779
83333.3282597541
83333.3282633055
83333.3282686969
83333.3282758969
83333.3282848543
83333.3282954652
83333.3283075504
83333.3283208635
83333.3280164681
83333.3280424516
83333.3280401669
83333.3280673247
83333.3280648787
83333.3280630323
83333.3280911714
83333.3280884953
83333.3280865574
83333.3280873902
83333.3281140458
83333.3281112137
83333.3281090896
83333.3281097612
83333.3281134577
83333.3281359875
83333.328133067
83333.3281308204
83333.3281311943
83333.3281345382
83333.3281409817
83333.3281570127
83333.3281540323
83333.3281517228
83333.3281518613
83333.3281548401
83333.3281606852
83333.3281694522
83333.3281771122
83333.3281741256
83333.3281718082
83333.3281717738
83333.3281744155
83333.3281797503
83333.3281877575
83333.3281983423
83333.3281963093
83333.3281933774
83333.3281911043
83333.3281909543
83333.3281933038
83333.3281981518
83333.3282054921
83333.3282152437
83333.3282272094
83333.3282147731
83333.3282118454
83333.3282096402
83333.3282094222
83333.32821153
83333.3282159389
83333.3282226398
83333.328231593
83333.3282426614
83333.3282556175
83333.3282329427
83333.3282297164
83333.3282274583
83333.3282271847
83333.3282290877
83333.3282331115
83333.3282392324
83333.3282474264
83333.3282576148
83333.3282696408
83333.3282832552
83333.3282492366
83333.3282467125
83333.3282445435
83333.3282442164
83333.3282459355
83333.3282496158
83333.328255222
83333.3282627278
83333.328272085
83333.3282831896
83333.3282958637
83333.3283098424
83333.3282651674
83333.3282625958
83333.3282607962
83333.3282605258
83333.3282620787
83333.3282654451
83333.3282705868
83333.3282774726
83333.3282860624
83333.3282962901
83333.3283080245
83333.3283210665
83333.3279892531
83333.3280168371
83333.3280143484
83333.3280432334
83333.3280405665
83333.3280384743
83333.3280685238
83333.3280655811
83333.3280633968
83333.3280641198
83333.3280927576
83333.3280896215
83333.3280872314
83333.328087792
83333.3280915159
83333.3281159627
83333.3281127364
83333.3281102038
83333.3281104603
83333.3281138369
83333.3281204631
83333.3281381581
83333.3281349092
83333.3281323201
83333.3281323148
83333.3281353018
83333.328141315
83333.3281504089
83333.3281593527
83333.3281561146
83333.3281535334
83333.3281533491
83333.3281559792
83333.3281614571
83333.328169765
83333.3281808017
83333.3281795524
83333.3281763805
83333.3281738659
83333.3281735732
83333.328175904
83333.3281808748
83333.3281884892
83333.3281986604
83333.3282111802
83333.3281987869
83333.3281957505
83333.3281933525
83333.3281930104
83333.3281951038
83333.3281996242
83333.3282065727
83333.328215911
83333.3282274941
83333.3282410795
83333.328217534
83333.3282143836
83333.3282120526
83333.328211689
83333.3282135931
83333.3282177268
83333.3282240736
83333.328232615
83333.3282432721
83333.3282558805
83333.3282701772
83333.3282351988
83333.3282325246
83333.3282300609
83333.328229632
83333.3282313702
83333.3282351657
83333.3282409833
83333.3282488016
83333.3282585761
83333.3282702038
83333.3282835053
83333.3282982112
83333.3282518234
83333.3282491818
83333.3282472215
83333.3282468198
83333.3282484031
83333.3282518922
83333.3282572382
83333.3282644141
83333.3282733838
83333.3282840834
83333.3282963876
83333.3283100852
83333.3283249465
83333.3282677635
83333.3282652871
83333.3282634918
83333.3282632187
83333.3282646993
83333.3282679091
83333.328272825
83333.32827942
83333.3282876595
83333.328297494
83333.3283088307
83333.3283215132
83333.327960348
83333.3279869468
83333.3279896607
83333.3280177013
83333.3280147995
83333.3280124614
83333.3280445559
83333.3280413441
83333.3280388847
83333.3280394839
83333.3280702651
83333.3280668109
83333.3280641366
83333.3280645557
83333.3280682893
83333.3280948493
83333.3280912811
83333.3280884389
83333.3280885538
83333.3280919476
83333.3280987449
83333.3281183173
83333.3281147447
83333.3281118426
83333.3281116793
83333.3281146656
83333.3281208414
83333.3281302614
83333.3281406875
83333.3281371654
83333.3281342883
83333.3281339311
83333.3281365338
83333.3281421492
83333.3281507595
83333.3281622565
83333.3281619793
83333.3281585404
83333.3281557519
83333.3281552918
83333.328157585
83333.3281626677
83333.3281705533
83333.3281811513
83333.3281942428
83333.3281822254
83333.3281789141
83333.3281762717
83333.3281757789
83333.3281778375
83333.3281824557
83333.3281896464
83333.3281993739
83333.3282114858
83333.3282257269
83333.3282014721
83333.328198357
83333.3281959007
83333.3281954264
83333.3281973105
83333.3282015388
83333.3282081065
83333.3282170007
83333.3282281412
83333.3282413557
83333.3282563667
83333.3282202668
83333.3282172456
83333.3282147694
83333.3282142824
83333.3282160255
83333.3282199218
83333.3282259467
83333.3282340843
83333.3282442939
83333.3282564714
83333.3282704331
83333.3282858998
83333.3282378469
83333.3282350977
83333.3282329524
83333.3282323959
83333.3282339921
83333.3282375917
83333.3282431373
83333.3282506063
83333.3282599667
83333.3282711572
83333.3282840558
83333.3282984603
83333.3283141065
83333.3282544673
83333.3282519143
83333.3282500255
83333.3282496884
83333.3282511833
83333.3282545093
83333.3282596211
83333.3282664927
83333.3282750939
83333.3282853792
83333.3282972661
83333.3283105926
83333.3283251704
83333.3283408411
83333.3282702923
83333.3282680268
83333.3282663696
83333.328266136
83333.328267588
83333.3282706798
83333.3282753957
83333.3282817218
83333.3282896322
83333.328299087
83333.3283100118
83333.3283222855
83333.3279296336
83333.3279578549
83333.3279607949
83333.327984879
83333.3279874421
83333.3279906182
83333.3280191647
83333.3280156692
83333.3280129227
83333.3280133786
83333.3280464775
83333.3280426931
83333.3280397039
83333.328039961
83333.3280436783
83333.3280725606
83333.3280686289
83333.3280654561
83333.3280653936
83333.3280687813
83333.3280757286
83333.3280974152
83333.3280934734
83333.328090225
83333.3280898825
83333.3280928493
83333.3280991765
83333.3281089162
83333.3281210597
83333.328117201
83333.3281139944
83333.3281134429
83333.3281160038
83333.3281217484
83333.3281306588
83333.3281426269
83333.3281435249
83333.3281397905
83333.3281366947
83333.3281360412
83333.3281382769
83333.3281434602
83333.3281516135
83333.3281626449
83333.3281763256
83333.3281648624
83333.3281612654
83333.3281583426
83333.3281576711
83333.3281596727
83333.3281643743
83333.3281718012
83333.3281819211
83333.3281945762
83333.3282094999
83333.3281851339
83333.328181699
83333.328178991
83333.3281783673
83333.3281802074
83333.328184514
83333.3281912948
83333.3282005436
83333.3282121794
83333.3282260227
83333.328241782
83333.3282045998
83333.3282012402
83333.3281987415
83333.3281981819
83333.3281999092
83333.3282038896
83333.3282101142
83333.3282185741
83333.3282292318
83333.3282419821
83333.3282566342
83333.3282728953
83333.3282231663
83333.3282201542
83333.3282178078
83333.3282172032
83333.3282188139
83333.3282225114
83333.3282282508
83333.3282360165
83333.3282457808
83333.3282574849
83333.3282710089
83333.3282861517
83333.3283026337
83333.3282405771
83333.3282379221
83333.3282359032
83333.3282354546
83333.3282369439
83333.3282403764
83333.3282456796
83333.3282528287
83333.3282617981
83333.3282725456
83333.3282849937
83333.3282989973
83333.3283143465
83333.3283308286
83333.3282570565
83333.3282547173
83333.3282530029
83333.3282527582
83333.3282542465
83333.328257449
83333.3282623537
83333.3282689447
83333.3282772005
83333.3282870861
83333.3282985404
83333.3283114419
83333.3283256443
83333.3283410416
83333.3283574386
83333.3282726632
83333.328270737
83333.3282693103
83333.328269228
83333.3282707093
83333.3282737263
83333.3282782746
83333.3282843557
83333.3282919574
83333.3283010516
83333.3283115753
83333.3283234252
83333.3278970061
83333.3279269676
83333.3279301338
83333.3279556072
83333.3279583995
83333.3279618648
83333.3279856959
83333.3279853916
83333.3279884242
83333.3279922433
83333.3280212954
83333.3280171673
83333.3280138362
83333.3280139109
83333.3280175757
83333.3280490109
83333.3280446899
83333.3280411591
83333.3280408864
83333.3280442385
83333.328051305
83333.3280753729
83333.3280710312
83333.3280674053
83333.3280668489
83333.3280697656
83333.3280762238
83333.3280862665
83333.3281004
83333.328096156
83333.3280925778
83333.3280918102
83333.3280943101
83333.3281001671
83333.3281093688
83333.3281218146
83333.3281241327
83333.3281200564
83333.3281166187
83333.3281157462
83333.3281179044
83333.3281231748
83333.3281315887
83333.3281430547
83333.3281573426
83333.3281466332
83333.3281427359
83333.3281394999
83333.3281386217
83333.3281405431
83333.328145312
83333.3281529674
83333.3281634812
83333.3281766931
83333.3281923263
83333.3281680092
83333.3281642597
83333.3281612664
83333.3281604595
83333.3281622298
83333.3281665971
83333.3281735817
83333.328183185
83333.3281953265
83333.3282098215
83333.3282263645
83333.3281883758
83333.3281847745
83333.3281820105
83333.3281813126
83333.3281829949
83333.3281870405
83333.3281934547
83333.3282022362
83333.3282133516
83333.3282266948
83333.3282420682
83333.3282591634
83333.3282077746
83333.3282044595
83333.3282019011
83333.328201271
83333.3282028824
83333.3282066606
83333.3282125844
83333.3282206469
83333.3282308254
83333.3282430642
83333.3282572434
83333.328273157
83333.3282905099
83333.3282260651
83333.3282232088
83333.3282209948
83333.3282204448
83333.3282219483
83333.3282254794
83333.3282309678
83333.3282383959
83333.3282477428
83333.3282589701
83333.3282720052
83333.3282867115
83333.3283028784
83333.3283202482
83333.3282432526
83333.3282408249
83333.3282390148
83333.3282387035
83333.3282401981
83333.328243501
83333.3282485907
83333.328255447
83333.328264052
83333.3282743748
83333.3282863603
83333.3282999081
83333.3283148588
83333.3283310506
83333.3283482801
83333.3282594782
83333.3282575022
83333.328256046
83333.3282559961
83333.3282575422
83333.3282606782
83333.3282654104
83333.3282717466
83333.3282796789
83333.328289185
83333.3283002169
83333.3283126743
83333.3283264478
83333.3283414758
83333.3283576218
83333.3283746332
83333.3282747416
83333.3282733159
83333.328272249
83333.3282724173
83333.3282740099
83333.3282770053
83333.328281425
83333.3282872908
83333.3282946071
83333.3283033601
83333.3283135
83333.328324936
83333.3278622077
83333.3278942021
83333.3278976006
83333.3279245356
83333.3279275584
83333.327931338
83333.3279563099
83333.327956172
83333.3279594838
83333.3279636806
83333.3279898638
83333.3279862894
83333.3279864142
83333.32799011
83333.3279946158
83333.3280241063
83333.3280193696
83333.3280154492
83333.3280149345
83333.3280182144
83333.3280253579
83333.3280521148
83333.3280473345
83333.3280433008
83333.328042488
83333.3280453179
83333.3280518758
83333.3280621929
83333.3280786369
83333.3280739687
83333.32806998
83333.3280689602
83333.3280713665
83333.3280773085
83333.3280867842
83333.3280997017
83333.3281037372
83333.3280992697
83333.3280954517
83333.3280943309
83333.3280963884
83333.3281017258
83333.328110386
83333.3281222819
83333.3281371907
83333.3281274866
83333.328123254
83333.3281196719
83333.3281185587
83333.3281203754
83333.3281251928
83333.3281330649
83333.3281439698
83333.3281577498
83333.3281741183
83333.3281500125
83333.328145965
83333.3281426603
83333.3281416409
83333.3281433154
83333.3281477237
83333.3281549001
83333.3281648548
83333.3281775105
83333.3281926794
83333.3282100424
83333.3281714094
83333.3281675592
83333.3281645032
83333.3281636261
83333.3281652334
83333.3281693237
83333.328175915
83333.3281850148
83333.3281965949
83333.3282105497
83333.3282266756
83333.3282446478
83333.3281917137
83333.3281881521
83333.3281853586
83333.3281846026
83333.3281861781
83333.3281900153
83333.3281961112
83333.3282044675
83333.3282150672
83333.3282278584
83333.3282427213
83333.3282594424
83333.3282777088
83333.3282108808
83333.3282077803
83333.328205337
83333.328204695
83333.3282062165
83333.3282098316
83333.3282154949
83333.3282231998
83333.3282329317
83333.3282446564
83333.3282583063
83333.3282737474
83333.3282907635
83333.3283090683
83333.3282288789
83333.3282262902
83333.3282243165
83333.3282239088
83333.3282254057
83333.3282288057
83333.3282340754
83333.328241197
83333.3282501577
83333.3282609309
83333.3282734677
83333.328287679
83333.3283034153
83333.3283204789
83333.328338628
83333.328245749
83333.3282437155
83333.3282421904
83333.3282421142
83333.3282436904
83333.3282469314
83333.3282518437
83333.3282584351
83333.3282667005
83333.3282766219
83333.3282881585
83333.3283012328
83333.3283157269
83333.3283315269
83333.3283484837
83333.3283663588
83333.3282615754
83333.3282601482
83333.3282590914
83333.3282593305
83333.3282610181
83333.3282641464
83333.3282687517
83333.3282748652
83333.3282824993
83333.3282916467
83333.3283022739
83333.328314295
83333.32832762
83333.3283422238
83333.3283580205
83333.3283748008
83333.3283923204
83333.3282763845
83333.3282755954
83333.3282750661
83333.3282756175
83333.3282774126
83333.3282804544
83333.3282847944
83333.3282904827
83333.3282975436
83333.3283059792
83333.3283157548
83333.3283267936
83333.3278593021
83333.3278629359
83333.3278916072
83333.3278948776
83333.3278989922
83333.3279250986
83333.3279251571
83333.327928774
83333.3279333881
83333.3279604084
83333.3279569673
83333.3279573092
83333.3279613832
83333.3279663308
83333.3279977579
83333.3279905899
83333.327987424
83333.3279882151
83333.3279925593
83333.3279977465
83333.3280275536
83333.3280222941
83333.3280178161
83333.3280167026
83333.3280194004
83333.3280260149
83333.3280365647
83333.3280557177
83333.3280505715
83333.3280461295
83333.3280448103
83333.3280470779
83333.3280530663
83333.328062787
83333.3280761506
83333.3280822698
83333.3280773741
83333.3280731306
83333.3280717242
83333.3280736455
83333.3280790183
83333.3280879009
83333.3281002142
83333.3281157494
83333.3281073502
83333.3281027488
83333.3280987895
83333.3280974085
83333.3280990914
83333.3281039329
83333.3281120027
83333.3281232894
83333.3281376438
83333.3281547703
83333.3281311044
83333.3281267454
83333.3281231036
83333.3281218433
83333.3281233943
83333.3281278205
83333.3281351722
83333.3281454707
83333.3281586457
83333.3281745089
83333.328192728
83333.3281536406
83333.3281495043
83333.3281461479
83333.3281450626
83333.3281465666
83333.3281506788
83333.3281574318
83333.3281668427
83333.3281788912
83333.3281934746
83333.3282103843
83333.3282292787
83333.3281749376
83333.3281711265
83333.3281680786
83333.3281671523
83333.3281686569
83333.3281725299
83333.3281787828
83333.3281874267
83333.3281984511
83333.3282118098
83333.3282273836
83333.3282449507
83333.32826418
83333.3281950159
83333.3281916711
83333.3281890007
83333.3281882401
83333.3281897389
83333.3281934144
83333.3281992384
83333.3282072149
83333.328217336
83333.3282295734
83333.3282438642
83333.3282600745
83333.3282779786
83333.3282972673
83333.3282138615
83333.3282110832
83333.3282089065
83333.3282083931
83333.3282098917
83333.3282133801
83333.3282188199
83333.3282262033
83333.3282355246
83333.3282467625
83333.3282598744
83333.3282747789
83333.3282913295
83333.3283093091
83333.3283284409
83333.3282314998
83333.3282293368
83333.3282276813
83333.3282275333
83333.3282291194
83333.3282324558
83333.3282375441
83333.3282443904
83333.3282529936
83333.3282633402
83333.3282753964
83333.3282890976
83333.3283043403
83333.3283209832
83333.3283388415
83333.3283576643
83333.3282478934
83333.3282464637
83333.3282453719
83333.3282456174
83333.3282473653
83333.3282506104
83333.3282553962
83333.3282617573
83333.3282697107
83333.3282792542
83333.3282903622
83333.3283029726
83333.3283169897
83333.328332339
83333.3283489216
83333.3283665437
83333.3283849593
83333.3282631966
83333.3282624602
83333.3282620013
83333.3282626744
83333.3282645947
83333.3282677877
83333.3282723197
83333.3282782528
83333.3282856212
83333.3282944357
83333.3283046787
83333.3283162798
83333.3283291634
83333.3283433225
83333.3283587107
83333.3283751648
83333.328392471
83333.3284104065
83333.3282776494
83333.3282773674
83333.3282775167
83333.3282786555
83333.328280798
83333.3282839797
83333.328288307
83333.3282938686
83333.3283007145
83333.3283088653
83333.3283183021
83333.3283289637
83333.32785652
83333.3278601361
83333.3278645757
83333.3278919811
83333.3278923147
83333.3278962723
83333.3279013346
83333.3279290738
83333.3279258239
83333.3279264261
83333.3279309051
83333.3279363744
83333.3279683538
83333.3279612268
83333.3279582242
83333.3279593254
83333.3279641481
83333.3279698349
83333.3280092359
83333.3279985087
83333.3279918933
83333.3279893838
83333.3279908476
83333.3279958088
83333.3280015885
83333.3280315632
83333.328025878
83333.3280209369
83333.328019267
83333.3280213402
83333.328027323
83333.3280372451
83333.3280510201
83333.3280597381
83333.3280543253
83333.3280495934
83333.3280478504
83333.3280495857
83333.3280549477
83333.3280640161
83333.3280767265
83333.3280928793
83333.3280861431
83333.3280811692
83333.3280767907
83333.3280751005
83333.328076611
83333.3280814405
83333.3280896781
83333.3281013281
83333.3281162551
83333.3281341572
83333.32811117
83333.3281065257
83333.3281025305
83333.3281009969
83333.3281023916
83333.3281068066
83333.3281143096
83333.3281249371
83333.3281386306
83333.3281552047
83333.3281743148
83333.3281350162
83333.328130543
83333.3281268754
83333.3281255572
83333.3281269286
83333.3281310366
83333.3281379307
83333.3281476404
83333.3281601564
83333.3281753825
83333.3281931065
83333.3282129703
83333.3281573963
83333.3281533076
83333.3281499826
83333.3281488607
83333.3281502645
83333.3281541484
83333.32816054
83333.3281694608
83333.3281809094
83333.3281948475
83333.328211158
83333.3282296114
83333.3282498576
83333.3281784438
83333.328174855
83333.3281719472
83333.3281710382
83333.3281724768
83333.3281761871
83333.3281821545
83333.3281903939
83333.3282009049
83333.3282136665
83333.3282286215
83333.3282456356
83333.3282644723
83333.3282848014
83333.3281981748
83333.3281951934
83333.3281928035
83333.3281921749
83333.328193657
83333.3281972111
83333.3282028061
83333.3282104445
83333.3282201283
83333.3282318433
83333.3282455535
83333.328261183
83333.3282785839
83333.3282975235
83333.3283176984
83333.328216629
83333.3282143172
83333.3282125027
83333.3282122615
83333.3282138485
83333.3282172706
83333.3282225265
83333.3282296239
83333.3282385679
83333.3282493511
83333.3282619469
83333.3282763002
83333.3282923161
83333.3283098427
83333.3283286648
83333.3283485085
83333.3282337553
83333.3282322297
83333.3282310409
83333.3282312436
83333.3282330217
83333.3282363687
83333.3282413288
83333.3282479372
83333.3282562137
83333.3282661609
83333.3282777607
83333.3282909651
83333.3283056948
83333.3283218522
83333.3283393074
83333.3283578584
83333.32837725
83333.3282495262
83333.328248855
83333.3282484114
83333.3282491306
83333.3282511396
83333.3282544674
83333.328259185
83333.3282653622
83333.3282730392
83333.3282822332
83333.3282929353
83333.3283050999
83333.3283186474
83333.3283335239
83333.3283496709
83333.3283669417
83333.3283851242
83333.3284039825
83333.328264434
83333.3282642337
83333.3282645123
83333.3282658353
83333.3282681451
83333.328271502
83333.3282760331
83333.3282818413
83333.3282889885
83333.3282975055
83333.3283073917
83333.3283185935
83333.3283310515
83333.3283447714
83333.3283597273
83333.3283757951
83333.3283927983
83333.3284105385
83333.3284288075
83333.3282783009
83333.3282785458
83333.3282793627
83333.32828122
83333.3282839359
83333.3282874282
83333.3282918497
83333.3282973597
83333.3283040481
83333.3283119596
83333.3283210936
83333.3283314056
83333.3278566028
83333.3278573899
83333.3278617967
83333.3278672785
83333.3278957634
83333.3278927966
83333.3278937662
83333.3278987054
83333.3279047288
83333.3279369815
83333.3279299862
83333.3279272243
83333.3279286885
83333.3279340206
83333.3279403117
83333.3279800428
83333.3279692032
83333.3279626593
83333.3279604046
83333.3279622768
83333.3279677724
83333.3279741257
83333.3280241419
83333.3280100081
83333.3279999464
83333.3279940376
83333.3279922282
83333.3279943111
83333.3279997928
83333.3280060646
83333.3280360631
83333.3280300413
83333.3280247616
83333.328022623
83333.3280241096
83333.328029399
83333.3280386001
83333.3280516691
83333.3280684186
83333.3280640452
83333.3280585153
83333.3280536208
83333.3280515643
83333.3280528496
83333.3280576156
83333.3280659761
83333.3280779588
83333.3280934448
83333.3281121317
83333.3280900933
83333.3280852494
83333.3280808865
83333.3280790343
83333.3280802301
83333.3280845942
83333.3280922132
83333.3281031444
83333.3281173471
83333.3281346427
83333.3281546758
83333.3281154573
83333.3281105771
83333.3281066206
83333.3281050445
83333.3281062488
83333.3281103199
83333.3281173271
83333.3281273154
83333.3281402914
83333.3281561696
83333.3281747367
83333.3281956179
83333.3281390401
83333.328134627
83333.3281309986
83333.3281296648
83333.3281309394
83333.3281348061
83333.328141313
83333.3281504943
83333.3281623613
83333.3281768863
83333.3281939576
83333.3282133387
83333.32823466
83333.328161125
83333.3281572797
83333.3281541142
83333.3281530302
83333.3281543791
83333.3281580983
83333.328164189
83333.328172678
83333.3281835746
83333.3281968676
83333.3282125073
83333.32823036
83333.3282501783
83333.3282716108
83333.3281817908
83333.3281785989
83333.3281759926
83333.3281752327
83333.3281766695
83333.3281802635
83333.3281859953
83333.3281938781
83333.3282039225
83333.3282161228
83333.328230451
83333.3282468361
83333.3282651278
83333.3282850787
83333.3283063618
83333.328201101
83333.3281986284
83333.3281966439
83333.3281962997
83333.3281978755
83333.328201368
83333.3282067775
83333.3282141183
83333.3282234033
83333.3282346328
83333.3282477881
83333.3282628219
83333.3282796438
83333.3282980945
83333.3283179367
83333.3283388717
83333.3282190137
83333.3282173767
83333.328216072
83333.3282162124
83333.3282180038
83333.3282214409
83333.3282265669
83333.3282334188
83333.3282420205
83333.3282523805
83333.3282644887
83333.3282783077
83333.3282937692
83333.3283107712
83333.3283291592
83333.3283487123
83333.3283691573
83333.3282354796
83333.3282347504
83333.3282342475
83333.3282349589
83333.3282370226
83333.3282404663
83333.3282453617
83333.3282517819
83333.3282597707
83333.3282693502
83333.3282805198
83333.3282932489
83333.3283074753
83333.3283231248
83333.3283401108
83333.328358282
83333.3283774228
83333.3283972823
83333.3282507614
83333.3282506755
83333.3282510305
83333.3282524487
83333.3282548814
83333.3282583949
83333.3282631227
83333.3282691762
83333.3282766254
83333.3282855085
83333.3282958347
83333.3283075761
83333.3283206708
83333.32833508
83333.3283507667
83333.3283676239
83333.3283854801
83333.3284041262
83333.328423338
83333.3282651222
83333.32826542
83333.3282663832
83333.328268479
83333.3282714205
83333.3282751254
83333.3282797703
83333.3282855352
83333.3282925239
83333.3283007929
83333.3283103612
83333.3283211933
83333.3283332469
83333.3283465426
83333.3283610688
83333.3283767235
83333.3283933652
83333.3284108268
83333.3284289198
83333.3284474464
83333.3282791898
83333.3282804985
83333.3282830387
83333.3282864694
83333.328290537
83333.3282952474
83333.3283008284
83333.3283074459
83333.3283151838
83333.3283240661
83333.328334068
83333.327860036
83333.3278575882
83333.3278591192
83333.3278646098
83333.3278711606
83333.3279035013