/*--------------------------------*- C++ -*----------------------------------*\
  =========                 |
  \\      /  F ield         | OpenFOAM: The Open Source CFD Toolbox
   \\    /   O peration     | Website:  https://openfoam.org
    \\  /    A nd           | Version:  12
     \\/     M anipulation  |
\*---------------------------------------------------------------------------*/
/*   Windows 32 and 64 bit porting by blueCAPE: http://www.bluecape.com.pt   *\
|  Based on Windows porting (2.0.x v4) by Symscape: http://www.symscape.com   |
\*---------------------------------------------------------------------------*/
FoamFile
{
    format      ascii;
    class       volVectorField;
    location    "200";
    object      U;
}
// * * * * * * * * * * * * * * * * * * * * * * * * * * * * * * * * * * * * * //

dimensions      [0 1 -1 0 0 0 0];

internalField   nonuniform List<vector> 
10140
(
(7.60562968656999e-06 2.21772568932065e-05 2.39936183490556e-05)
(8.27867629724127e-06 3.93423291090174e-05 2.74705995162757e-05)
(2.73807250440614e-05 -0.000115300451782937 2.04882938274051e-05)
(4.95233253727704e-06 9.34313144510745e-05 5.23553535855431e-05)
(8.8794414281521e-06 5.99958258996152e-05 3.25144016861833e-05)
(2.96300882066725e-05 -0.000108557799575621 2.45206908428377e-05)
(5.30635203044712e-06 0.000115453161998076 5.88496373244956e-05)
(4.84267435343869e-05 -0.000157460628973149 2.00561548746754e-05)
(1.81361922572717e-05 2.01590575391687e-06 4.83391030078946e-05)
(3.13519794492584e-06 0.000160030626837913 8.43222757023686e-05)
(9.15154483118715e-06 8.59645600097372e-05 3.77504548976017e-05)
(3.12872951139725e-05 -9.59452915853913e-05 2.94711609819538e-05)
(5.40337908085113e-06 0.000141004661646127 6.59714690747451e-05)
(5.1739286840692e-05 -0.00015467323342383 2.41789545593861e-05)
(1.92555926528103e-05 1.69916506975376e-05 5.55252550430443e-05)
(3.24036081863702e-06 0.000185290285706774 9.40340991961439e-05)
(7.09690823418595e-05 -0.000167725573963292 1.96499729870464e-05)
(3.26287980953512e-05 -2.92166864485935e-05 4.71885782684256e-05)
(1.08936036075882e-05 0.000122135877026809 8.11200605295998e-05)
(2.13675223284596e-06 0.000193153676452355 0.000117254715494364)
(9.1108759612781e-06 0.000117493976494644 4.14708510116876e-05)
(3.22062812715968e-05 -7.76581511303701e-05 3.38287642677688e-05)
(5.39180692276322e-06 0.000171302130653863 7.37062792301958e-05)
(5.41998401312146e-05 -0.000144471895824562 2.92522926215574e-05)
(1.98566384959104e-05 3.70405359592249e-05 6.20705958579348e-05)
(3.18049852310755e-06 0.000214319943997697 0.000104841777309987)
(7.54899348233061e-05 -0.000166441942143948 2.40130176638369e-05)
(3.44171792469671e-05 -1.74860274328683e-05 5.47856847148776e-05)
(1.1317666114996e-05 0.000143820809042635 9.07445791807397e-05)
(2.13209341193576e-06 0.000220070771423567 0.0001303693348554)
(9.49446493033933e-05 -0.000177181472935272 1.92004664807822e-05)
(4.81799393864398e-05 -4.0758490901281e-05 4.6341821210366e-05)
(1.98528635063364e-05 0.000106205379679133 8.04182852049739e-05)
(7.10630015846241e-06 0.000172625820275766 0.000113855169450674)
(1.32068365156837e-06 0.000218790254478943 0.000149781251669524)
(9.22391953048166e-06 0.000155286688919823 4.52027536517496e-05)
(3.30173857514557e-05 -5.39524532683115e-05 3.82538646825683e-05)
(5.34405728265204e-06 0.000206625039970954 8.22646387311558e-05)
(5.60549421128008e-05 -0.000128351895402465 3.33875358977743e-05)
(2.00313307505121e-05 6.26052777548648e-05 6.9612585213106e-05)
(3.03597828969089e-06 0.000247915279763933 0.000116801610896336)
(7.89456077411044e-05 -0.000157036555759759 2.9089499903609e-05)
(3.54939871820774e-05 2.79214140624939e-07 6.11265057667464e-05)
(1.12672365997778e-05 0.000170184767259376 0.000101368942476942)
(2.0155592700241e-06 0.000250710142724556 0.000144934774446909)
(0.000100664064548553 -0.000177020225573374 2.36666816467256e-05)
(5.06989219118716e-05 -3.04534453418815e-05 5.4357450447075e-05)
(2.05496735279475e-05 0.000125892861451662 9.00645102944316e-05)
(7.14504985041357e-06 0.000197482396586048 0.000126753366309228)
(1.24075093489393e-06 0.00024681632676865 0.00016615742243837)
(0.00011988360425064 -0.00018791959753417 1.86168139151242e-05)
(6.46753245216579e-05 -5.03143605326769e-05 4.51410501793887e-05)
(2.95862345451911e-05 9.86802281266594e-05 8.00233849873777e-05)
(1.29877564028941e-05 0.000162524122293873 0.000113023199885296)
(4.40083803631517e-06 0.000204032592483795 0.000145846374429483)
(6.38212644680467e-07 0.000239628201005166 0.000181163001232254)
(9.44317190158697e-06 0.000199943887296068 5.1834833774891e-05)
(3.38460029358501e-05 -2.51365258175621e-05 4.18683502812223e-05)
(5.22608494685242e-06 0.000247626518266238 9.17011087910626e-05)
(5.77399674734425e-05 -0.000106977267732822 3.74009734083895e-05)
(2.00665798581326e-05 9.31137599356821e-05 7.80804364569614e-05)
(2.83285547554855e-06 0.000286387218819941 0.000129951899629748)
(8.17019551173764e-05 -0.000141676685937518 3.33153444130444e-05)
(3.59820268006551e-05 2.4101330838892e-05 6.85376797016513e-05)
(1.09349655306445e-05 0.000201622707515819 0.000113320947334862)
(1.82491481238577e-06 0.000285697549548756 0.000160997049565017)
(0.000105179464445976 -0.000168244434964133 2.90314269934915e-05)
(5.230041962602e-05 -1.37788297994583e-05 6.07981282722424e-05)
(2.06019462402098e-05 0.000150829270488515 0.000100661456589154)
(6.8457117901323e-06 0.000226566045967312 0.000141196750778998)
(1.07818211831135e-06 0.000278462240797853 0.000184278774337795)
(0.00012684798250194 -0.000188647291485836 2.27393324598723e-05)
(6.79165675102494e-05 -4.09788632428347e-05 5.34563349773079e-05)
(3.0538147208073e-05 0.000117268954430047 8.97429163389779e-05)
(1.30517280365919e-05 0.000186074850622869 0.000125844270901374)
(4.19695985564982e-06 0.000230591319788109 0.000161924258380051)
(5.05772489966964e-07 0.000268364162970759 0.000200584162085051)
(0.000144730492024056 -0.000199643569652817 1.70087987118525e-05)
(8.15715410119666e-05 -5.9525793854012e-05 4.3531216407861e-05)
(3.99262290827985e-05 9.17385870162801e-05 7.86462004283211e-05)
(1.94153254861257e-05 0.000156655938145308 0.000112360690555034)
(8.10290347064131e-06 0.000195802166673765 0.000144588142285958)
(2.25193549216194e-06 0.000227355721241587 0.000176465927690322)
(7.66097109635526e-08 0.000255782939649957 0.000210941424908523)
(9.30795441222687e-06 0.000252076997699089 5.98711487080302e-05)
(3.43839177616841e-05 1.00931193474316e-05 4.61024593169324e-05)
(4.96677926102869e-06 0.000294958583174885 0.000102291259638919)
(5.92010896949958e-05 -8.07283893573632e-05 4.04950985884917e-05)
(1.99132227570926e-05 0.000128923148814259 8.735891002401e-05)
(2.55000557210867e-06 0.000330336147965527 0.000144347152635193)
(8.42054987286453e-05 -0.00012100899802905 3.7886153135335e-05)
(3.61568837125447e-05 5.28445546718929e-05 7.70999205371648e-05)
(1.04147861284313e-05 0.000237902684323817 0.000126544943984583)
(1.57226000200904e-06 0.000325395531017364 0.000178616798918825)
(0.000109076350095737 -0.000153661708031846 3.35499906753786e-05)
(5.32001627590846e-05 9.19486352122086e-06 6.83169290037964e-05)
(2.01832224809809e-05 0.000181207161566347 0.00011267149999706)
(6.31109577248546e-06 0.000260289486760205 0.000157269326209628)
(8.43636944661063e-07 0.000314276500905894 0.000204202918437886)
(0.000132619746337306 -0.000180418781489939 2.81810375888978e-05)
(7.01161469330183e-05 -2.51793782436822e-05 6.00612668285787e-05)
(3.07240053552699e-05 0.000141312811992973 0.000100377566157105)
(1.26070044217735e-05 0.000214184615195565 0.000140277273944636)
(3.71190573541452e-06 0.000261083656256275 0.000179876060242013)
(2.9832827341002e-07 0.000300586242893522 0.000222004364462029)
(0.000152765538956901 -0.000200807086438267 2.08020167458339e-05)
(8.55269779737201e-05 -5.09400005362519e-05 5.17697778365734e-05)
(4.11453529836075e-05 0.000109503465456443 8.83533474198643e-05)
(1.94795599609074e-05 0.000179377808941499 0.000125153858508412)
(7.75748804642689e-06 0.000221352041519702 0.000160513691404581)
(1.88036903742564e-06 0.000254890662633315 0.000195497873103633)
(-9.15588385494541e-08 0.000284830230733434 0.000233152712004266)
(0.000168315944043845 -0.000212665620556184 1.44035616388126e-05)
(9.81615934878466e-05 -6.83462099204813e-05 4.08396530766213e-05)
(5.04089197429964e-05 8.44676943421929e-05 7.60766820144919e-05)
(2.62526552064045e-05 0.000150587211272106 0.000110402617055819)
(1.22022422098642e-05 0.000190188642521097 0.000143476281787073)
(4.25019592068581e-06 0.000219844075722084 0.000174614003849189)
(5.14986590498013e-07 0.000245002265818823 0.000205530536354285)
(-3.74250405115333e-07 0.000267496374565429 0.000238981229221509)
(8.95865452521563e-06 0.000312834657135689 6.74517601255109e-05)
(3.44725601438063e-05 5.26446720869364e-05 5.3917282106032e-05)
(4.47178463084017e-06 0.000349296822296372 0.000113994284819147)
(6.02495421768169e-05 -4.82569852087576e-05 4.5250960032094e-05)
(1.94720966767063e-05 0.000170765357913554 9.77077647278735e-05)
(2.16858735808319e-06 0.000380413844766206 0.0001600530166735)
(8.63080089667257e-05 -9.57761526653991e-05 4.12479066763303e-05)
(3.59911241232201e-05 8.66310852039799e-05 8.65427394936492e-05)
(9.66075829505734e-06 0.000279467295976105 0.000141033102181591)
(1.23675434903375e-06 0.000370363629738928 0.000197854587934112)
(0.000112615427248016 -0.000133829560807437 3.82742112877271e-05)
(5.36306982198422e-05 3.7059302504013e-05 7.71122899639637e-05)
(1.9400022456116e-05 0.00021640801722543 0.000126013960970662)
(5.56975937024139e-06 0.000298697556723711 0.000174938534047175)
(5.44003505475016e-07 0.000354612054324121 0.000225988228732716)
(0.000137923042996079 -0.000166687785213886 3.3033264106077e-05)
(7.15148636822038e-05 -2.99442906130477e-06 6.77025741399823e-05)
(3.02670482367299e-05 0.000170988554721052 0.00011245974529836)
(1.17514313679282e-05 0.000247147271861128 0.0001564163973636)
(3.0172536879354e-06 0.000295916187591372 0.000199737061504496)
(2.62208289720868e-08 0.000336777611560648 0.000245494260198466)
(0.000160083494206835 -0.000192852978755686 2.62275805348418e-05)
(8.8378452492644e-05 -3.59073952280279e-05 5.83100453323385e-05)
(4.14931630926884e-05 0.00013274082292645 9.89629179892458e-05)
(1.89026240292936e-05 0.00020677329963157 0.000139579602960987)
(6.97511671595385e-06 0.000251041885149495 0.000178411976900529)
(1.27015978913864e-06 0.000286135952663508 0.000216676886529906)
(-3.28513210082166e-07 0.000317223320953997 0.000257606289755057)
(0.000176862222809653 -0.000213474042637007 1.77669646039219e-05)
(0.000102832643466248 -6.03320062134462e-05 4.88941924658744e-05)
(5.19305933666336e-05 0.000101508299954787 8.56553678417119e-05)
(2.63288554533016e-05 0.000172615441905454 0.000123097526803925)
(1.16922255572718e-05 0.000215035756748172 0.000159303825004095)
(3.61870988261194e-06 0.000246511394954031 0.000193415599527908)
(2.81839754302321e-08 0.000273015741982209 0.000227270808759719)
(-5.67563076287185e-07 0.000296500347314764 0.000263732005782776)
(0.000190551647984898 -0.000228077364828577 1.15033898396156e-05)
(0.000113979591979142 -7.71750055414739e-05 3.71010396038683e-05)
(6.06444656611057e-05 7.68323002112293e-05 7.23045520779157e-05)
(3.31838151792687e-05 0.000143857710472368 0.000107010392791465)
(1.65660565317156e-05 0.000184126356266495 0.000140938194260985)
(6.49558264363345e-06 0.000214170831341259 0.000172969480879781)
(1.12977727523025e-06 0.000237970966218157 0.000203121029099774)
(-8.87142002237797e-07 0.000257877280514973 0.000233028541053154)
(-7.25179282873398e-07 0.000275142672891063 0.000265297221981464)
(8.66683985980974e-06 0.000383176749981241 7.54656083570774e-05)
(3.4274501713722e-05 0.000102627154214023 6.43510263473252e-05)
(3.77797136915836e-06 0.000411408677763474 0.000126662052064107)
(6.07779787956888e-05 -9.08379585865253e-06 5.45567689107943e-05)
(1.85968443603921e-05 0.000219146563643061 0.000109453205608178)
(1.67843584082229e-06 0.000437295822286585 0.000177098969572771)
(8.79267426626304e-05 -6.45624142332276e-05 4.54823894500586e-05)
(3.53477292644404e-05 0.000126182186246463 9.70704913555202e-05)
(8.61531025779203e-06 0.000326933184156286 0.000156846412137051)
(8.03034127482866e-07 0.000421190581325001 0.000218745369790854)
(0.000115543411830912 -0.000109532260863278 4.25397922313635e-05)
(5.35190935033325e-05 6.98345932407106e-05 8.68412459265166e-05)
(1.81984036283293e-05 0.000256738471311281 0.000140639306635464)
(4.58233065420414e-06 0.000342238463213407 0.000194242387403455)
(1.62542589051953e-07 0.000399980184859097 0.000249698200462344)
(0.000142781463535877 -0.000147903400235909 3.79342409039009e-05)
(7.22732977406675e-05 2.39969779982425e-05 7.65128963154709e-05)
(2.92513085213961e-05 0.000205442905859453 0.000125886596075265)
(1.05190093249441e-05 0.0002847575352789 0.000174179111841116)
(2.11745981923199e-06 0.000335241787670233 0.000221479436133072)
(-3.10773514578308e-07 0.000377297324530976 0.000271117870999046)
(0.000167345538536195 -0.000179958579007308 3.13041932018228e-05)
(9.03793863422645e-05 -1.4558679967837e-05 6.59075247355831e-05)
(4.10547774201801e-05 0.000161647409840982 0.000111025739819305)
(1.77409369725822e-05 0.000239120302265307 0.000155742222875447)
(5.81144169540377e-06 0.000285198309426349 0.000198282021691501)
(4.57538347677892e-07 0.00032147477722637 0.000240000731521083)
(-6.26327761803852e-07 0.000353395368839989 0.00028435810194274)
(0.000185980073344822 -0.000204847823026624 2.31205272402371e-05)
(0.000106431629192674 -4.59006596777372e-05 5.53157495073635e-05)
(5.24843798696591e-05 0.000123968437835727 9.61547793660349e-05)
(2.56439353390715e-05 0.00019930288994661 0.000137434006637073)
(1.06081185788329e-05 0.000244085430382413 0.00017713858573044)
(2.5927067555052e-06 0.000277036590317026 0.000214468507617845)
(-6.75429292666139e-07 0.000304545433162597 0.000251395010807439)
(-8.25147316110813e-07 0.000328693301069894 0.000290932135844299)
(0.000198035028867013 -0.000227044062944179 1.36035352727277e-05)
(0.000119236464854955 -6.94861903164129e-05 4.49204228424431e-05)
(6.2518375320336e-05 9.32105224438609e-05 8.16543995173897e-05)
(3.33100326722618e-05 0.000165225623839585 0.000119502658249829)
(1.58953210123156e-05 0.00020834143159898 0.000156603121982401)
(5.57576119106432e-06 0.000240197490170414 0.000191609013441987)
(2.92661584683096e-07 0.000265212926193694 0.000224566843897733)
(-1.45417517196732e-06 0.000285968947270661 0.000257241854170904)
(-9.34538452911613e-07 0.000303776898152986 0.000292348944253159)
(0.000216385578577308 -0.00024209145631503 5.84244534254938e-06)
(0.0001290798875566 -8.67420416728019e-05 3.21495873638701e-05)
(7.04016324235285e-05 6.87378177146408e-05 6.72882353797027e-05)
(3.99530281187195e-05 0.000136522283950262 0.000102241414283619)
(2.1008283838753e-05 0.000177357161611305 0.000136836699847813)
(8.90266637456025e-06 0.00020799887914131 0.000169876360239105)
(1.86147098725598e-06 0.000232300067591635 0.000200979325513315)
(-1.38546021006005e-06 0.00025131162340052 0.000230168412414075)
(-1.99413186648502e-06 0.000266521791785583 0.000258991463986643)
(-9.97955652370003e-07 0.000279052716758513 0.000289992717973308)
(8.29447810444926e-06 0.000464104984505372 8.40018362855405e-05)
(3.3783516620817e-05 0.000161379600134012 7.40198747301835e-05)
(3.05242301803097e-06 0.000482169330766677 0.000140121355977032)
(6.05799349669564e-05 3.73452621218095e-05 6.54392072545232e-05)
(1.71182646465937e-05 0.000274515131484024 0.00012316180181244)
(1.05125098677854e-06 0.000501710183781605 0.000195457640017534)
(8.88040820129782e-05 -2.66653355278342e-05 5.41388428598831e-05)
(3.40860464886072e-05 0.000171979332879142 0.000109462698304523)
(7.23664461533914e-06 0.000380913730694076 0.000174051193225824)
(2.57419506768531e-07 0.000478495710356515 0.00024127012604722)
(0.000117814152192685 -7.98310457994928e-05 4.6393650643004e-05)
(5.26777323021696e-05 0.000108161677939546 9.74659575412165e-05)
(1.64802212795563e-05 0.000302784950795383 0.000156591231594402)
(3.29761958471275e-06 0.00039146401950666 0.000215211231137627)
(-3.15923595263665e-07 0.000450919511465785 0.000275355172962713)
(0.000146822915863533 -0.000124836982559021 4.30485658174659e-05)
(7.22824366021717e-05 5.56962777443585e-05 8.62344031812887e-05)
(2.75968136234377e-05 0.000244875219972682 0.000140586291080341)
(8.84719379814983e-06 0.000327375030682232 0.000193588572633283)
(9.70708450008352e-07 0.000379487932598625 0.000245141656175074)
(-7.26232812937303e-07 0.000422609204843092 0.000298938320354759)
(0.000173955047488492 -0.000162420472688056 3.63079111907825e-05)
(9.16081140545169e-05 1.1427871117387e-05 7.47032587510316e-05)
(3.98723634874767e-05 0.000195228258672522 0.000124429461285804)
(1.60112406137635e-05 0.000276051609844983 0.000173524158304435)
(4.27313718768583e-06 0.000323802856041094 0.000220038565149301)
(-5.57658099699508e-07 0.000361104098337671 0.000265455599533445)
(-9.87702793300387e-07 0.000393687475667246 0.000313481072037854)
(0.000196353122965665 -0.000192625329192314 2.84417758144988e-05)
(0.000109241068708769 -2.53654434432592e-05 6.29368064239402e-05)
(5.214482387752e-05 0.000152020045306793 0.000108119542225791)
(2.42186914607905e-05 0.000230933208860618 0.000153513741868954)
(8.97497731091448e-06 0.000277642524082202 0.000196956860643237)
(1.2043260031143e-06 0.00031173943128199 0.000237724577862513)
(-1.57139987111267e-06 0.000339945796832808 0.000277884215994669)
(-1.14124740772551e-06 0.000364466988888207 0.00032063285803)
(0.000208562570196741 -0.000215484725245636 1.85512979851805e-05)
(0.000123647810283347 -5.53310689856031e-05 5.11469894460501e-05)
(6.33457009137155e-05 0.000114932930377856 9.1968810588783e-05)
(3.25619303199054e-05 0.000191180832771163 0.000133654234385656)
(1.4520529213138e-05 0.000236727110020893 0.000174283948461907)
(4.12127658665855e-06 0.000270115277270016 0.000212534428496959)
(-9.10804574569387e-07 0.000296080598696923 0.000248497194396275)
(-2.22407895897798e-06 0.000317386090325154 0.000284045979327693)
(-1.20535860758863e-06 0.000335426118510179 0.000322031763412045)
(0.000221128254594505 -0.000238345749572157 7.78191112633776e-06)
(0.000134637242380926 -7.90440485537522e-05 3.96192060642284e-05)
(7.26470396145156e-05 8.45190363617994e-05 7.63120783002998e-05)
(4.01859756681117e-05 0.000157236775870639 0.000114428982203465)
(2.02120660912141e-05 0.000200943013158097 0.0001522430436172)
(7.69209649112494e-06 0.000233425654551925 0.000188297204667066)
(6.403852515703e-07 0.000258943617580181 0.000222205491383797)
(-2.36738044778245e-06 0.000278705844706272 0.000254033680300688)
(-2.61482713367242e-06 0.000294338642257285 0.000285453304005215)
(-1.2159814485654e-06 0.00030701501554081 0.000319120289368037)
(0.000242795326446592 -0.000231849435095287 1.05829652893256e-06)
(0.000144551711654977 -9.70259528727655e-05 2.55061565765473e-05)
(7.96336704096688e-05 5.99802446948299e-05 6.08691457819917e-05)
(4.640542004484e-05 0.000128617750875177 9.60754398021973e-05)
(2.53727453678979e-05 0.000169980133940247 0.000131235760033538)
(1.13853538585823e-05 0.000201172621358859 0.000165169562378473)
(2.67697232285094e-06 0.000226127966610512 0.00019740663787044)
(-1.88559495624562e-06 0.000245769553841797 0.000227625387934368)
(-3.37629224193522e-06 0.000260424109820591 0.00025580799392226)
(-2.854802440855e-06 0.000271304679586629 0.000283477786116467)
(-1.19155819495986e-06 0.000279462276546066 0.000313175141241216)
(7.70765990668284e-06 0.000556740495593194 9.31791412287635e-05)
(3.28813162122761e-05 0.000229624493456734 8.33442642409648e-05)
(2.13649982793922e-06 0.00056243491604736 0.000154563831185419)
(5.95495579687914e-05 9.22407969483808e-05 7.51898094865758e-05)
(1.51941065203919e-05 0.000337814813946444 0.000137634170954802)
(2.40200068943572e-07 0.000574445439128584 0.000215007569183485)
(8.85320046957899e-05 1.80837330999644e-05 6.55598702810173e-05)
(3.20258948198305e-05 0.000224426857841851 0.000123615544344358)
(5.43326714759704e-06 0.000442022930999697 0.000192628075605573)
(-4.21891058819636e-07 0.000542931677920813 0.000265365139612765)
(0.000119007715248578 -4.36129193464433e-05 5.32006571762978e-05)
(5.09173212535131e-05 0.000152562460956969 0.000109534915737832)
(1.4144251422511e-05 0.000355115287562941 0.000173969227536514)
(1.66951606864768e-06 0.000446953037804411 0.000237828155285068)
(-9.04629502651079e-07 0.000507996443617795 0.000302930147484287)
(0.00014985457536325 -9.70400513593606e-05 4.67024724510826e-05)
(7.13220733559621e-05 9.26571209363022e-05 9.68137481992371e-05)
(2.51696252782222e-05 0.000289814995052324 0.000156587199742501)
(6.65409272358809e-06 0.000375518655485251 0.000214684277593796)
(-4.67212020077926e-07 0.000429156307607385 0.000270745821433271)
(-1.23344526907343e-06 0.000473209484149405 0.000328974496324136)
(0.000179397175915841 -0.000140953600380512 4.19544696304181e-05)
(9.18921812458012e-05 4.18641423005415e-05 8.44292080380547e-05)
(3.78264154622697e-05 0.000233601736137713 0.000139093241503561)
(1.36285528046963e-05 0.000317847474571217 0.000192911176348258)
(2.30085780275621e-06 0.000367214715611851 0.000243692752638058)
(-1.81276818730298e-06 0.000405426937041926 0.000293089280971497)
(-1.42467640931777e-06 0.000438523568037413 0.000345034272649614)
(0.000205384150550996 -0.000176800002101043 3.34967199437858e-05)
(0.000111149701993947 -4.94283961451384e-07 7.17060752896897e-05)
(5.09046286875263e-05 0.000184573928410602 0.000121410247289853)
(2.203919432644e-05 0.00026703634830068 0.000171194779215682)
(6.78098230056861e-06 0.000315574078942993 0.000218647649794207)
(-5.51290464892556e-07 0.000350683827481008 0.000263105535041536)
(-2.6645783475389e-06 0.000379425823901808 0.000306726863411135)
(-1.5192919275627e-06 0.000404138350612064 0.000352907927335826)
(0.000224164954797983 -0.000203156361536463 2.46094354981949e-05)
(0.000127566083972476 -3.54915171885108e-05 5.87532299454994e-05)
(6.32144661542805e-05 0.000142086114838054 0.000103788086213039)
(3.0941496470774e-05 0.00022198632001564 0.000149549174397618)
(1.24354835174978e-05 0.00026958830659351 0.000193955311575519)
(2.1397145659877e-06 0.000304226717984647 0.000235678531826867)
(-2.45974743250578e-06 0.000330875550113022 0.000274838131680838)
(-3.17872061872087e-06 0.00035245454260254 0.000313408375275946)
(-1.53236140522448e-06 0.000370447141145453 0.000354391445619712)
(0.000230733049372203 -0.000222098018772815 1.4559674692986e-05)
(0.000139765787145544 -6.45147140856416e-05 4.57101842337477e-05)
(7.3809582727012e-05 0.000105580943055134 8.63698974759591e-05)
(3.94388469391787e-05 0.000182442323380468 0.000128303998792374)
(1.85888481008291e-05 0.000228619772071794 0.000169668940981069)
(5.81168038528532e-06 0.000262702011869555 0.000209005479856351)
(-1.08690707539567e-06 0.000289228961026403 0.000245948433319276)
(-3.69417931185109e-06 0.000309509214898056 0.000280587651932226)
(-3.42790752521801e-06 0.000325283207575685 0.000314688271001527)
(-1.49234860892036e-06 0.000337799100377256 0.000351042023662063)
(0.00025964716155567 -0.000234190044636237 2.98460019971506e-06)
(0.000150580897383966 -8.915715882524e-05 3.2371443923771e-05)
(8.22423750463443e-05 7.52475819629091e-05 6.94205284820774e-05)
(4.6801233402461e-05 0.000148684718826991 0.000107852691934623)
(2.45074432910342e-05 0.000192924956708802 0.000146283138115376)
(9.91583426948892e-06 0.000225991004636828 0.000183281789377241)
(1.06456538113672e-06 0.00025219799253565 0.000218365311660733)
(-3.32431055170979e-06 0.000272603255840881 0.000251224871687605)
(-4.45627926287078e-06 0.000287606108418871 0.000281878558263588)
(-3.50497695429585e-06 0.000298527060045569 0.000311965293326208)
(-1.40991856076322e-06 0.000306470043341861 0.000344143792519293)
(0.000266189553122033 -0.000266073432187926 3.86716465656283e-07)
(0.000159053664136094 -0.000105009703607535 1.88930227180466e-05)
(8.84315164418887e-05 5.04464436182204e-05 5.28650676228336e-05)
(5.24565275854927e-05 0.000120114748922161 8.83919588518567e-05)
(2.95574784370205e-05 0.000162071642972086 0.000124126020665708)
(1.38667211027198e-05 0.000193802375710529 0.000158891343351966)
(3.57269222658975e-06 0.000219366185791318 0.000192201562625616)
(-2.35559707681804e-06 0.000239728876761748 0.000223666164686985)
(-4.8509832127904e-06 0.000255102498239068 0.000252957185930434)
(-4.89953984846437e-06 0.000265664559276121 0.000280078043551711)
(-3.48386170313462e-06 0.000272528348496025 0.000306622763039269)
(-1.32215633584113e-06 0.000276550958282993 0.000334924251028478)
(6.82865182544384e-06 0.000662179348540659 0.00010311112592021)
(3.13918328066135e-05 0.000308278046080617 9.34068957954267e-05)
(9.60386009046666e-07 0.00065308521134741 0.000169827677868688)
(5.76706868973675e-05 0.000156206232405561 8.49490916791173e-05)
(1.28165701993704e-05 0.000409983157338183 0.000152419366775693)
(-7.90817028718669e-07 0.000656303861597362 0.00023565944743197)
(8.6933073316138e-05 7.10344989989315e-05 7.62982090052507e-05)
(2.91382715426139e-05 0.0002843602611836 0.00013829002749907)
(3.09608241108846e-06 0.000510996025826034 0.000212463093222274)
(-1.25748444882201e-06 0.000615201243767892 0.000290904928185439)
(0.000118865836941138 -7.19130982046109e-07 6.44373069867012e-05)
(4.80629078364232e-05 0.000203359737812662 0.000123834049054382)
(1.10811007073819e-05 0.00041427395101895 0.000192763573876405)
(-3.6302708380828e-07 0.000509314821822869 0.000262040709242771)
(-1.61745751287065e-06 0.000571814573499266 0.000332339045915596)
(0.000151527048814437 -6.29725184057859e-05 5.21623852175606e-05)
(6.91643713556368e-05 0.000135454010885619 0.000108620417805409)
(2.18108849309048e-05 0.000340823069227089 0.000173990635920301)
(3.86150510837324e-06 0.000429729840334652 0.000237387499657619)
(-2.23884529055374e-06 0.000484782794350903 0.000298263027412716)
(-1.84477712930309e-06 0.000529620493624956 0.000361184974146171)
(0.000183415217787294 -0.000115285755965386 4.5686165241693e-05)
(9.09688872104473e-05 7.72140027010517e-05 9.49337978287588e-05)
(3.47477165962064e-05 0.000277245113474226 0.000155026888917426)
(1.04805117423603e-05 0.000364985914600847 0.00021390902125607)
(-1.79146288905963e-07 0.000415911486008216 0.000269286453570725)
(-3.34647333284479e-06 0.000454904818646531 0.000322916228249095)
(-1.94949335105925e-06 0.000488358465602778 0.000379028602223725)
(0.000212402048900754 -0.000157434550131715 3.92250674562971e-05)
(0.000111877880204983 2.85237867807571e-05 8.138599391514e-05)
(4.85941052190603e-05 0.000221688764084928 0.000135941991378758)
(1.89854279124999e-05 0.000307830675863632 0.000190460518034281)
(3.9388377508721e-06 0.000358189380768924 0.000242238196286445)
(-2.72965623354811e-06 0.000394217470365599 0.000290634545716181)
(-3.98935757526147e-06 0.000423358006517236 0.000337964183930323)
(-1.97034545918688e-06 0.000448094317439047 0.000387813225307078)
(0.000236910538659257 -0.000190652682455966 2.96779835022636e-05)
(0.000130429542330067 -1.18623284931369e-05 6.74955142786366e-05)
(6.20593170804072e-05 0.000173492859700681 0.000116906718953562)
(2.84010680510302e-05 0.000257101787392245 0.000167017763969253)
(9.60509030965201e-06 0.000306709172964788 0.000215467915681247)
(-3.89645392584568e-07 0.000342501892309865 0.000260918144263383)
(-4.36460241424311e-06 0.000369696603324231 0.000303507854596409)
(-4.32461089606559e-06 0.000391379649493448 0.000345314394437388)
(-1.91882893618843e-06 0.000409130456325817 0.000389499882796037)
(0.000252533883574982 -0.000214493934429675 2.22432176168211e-05)
(0.000145095892220822 -4.49936823457949e-05 5.34211991826599e-05)
(7.40141839764892e-05 0.000131851739040303 9.80025910045483e-05)
(3.77123536893832e-05 0.000212352990432122 0.000143936153519151)
(1.61119115673925e-05 0.000260676590609394 0.000189074558873889)
(3.24364436649664e-06 0.000296125412662245 0.000231922847742128)
(-3.32141179420834e-06 0.000323442688732527 0.000272112066977359)
(-5.35171932423666e-06 0.000344003900017042 0.000309737986835024)
(-4.41800306644878e-06 0.000359657776788706 0.000346651780255094)
(-1.8220541451883e-06 0.00037173557880533 0.000385793714322118)
(0.000276388843294194 -0.000228839105337808 7.52047248138114e-06)
(0.000156006500787594 -7.34730676559196e-05 3.85593680135533e-05)
(8.37479928940675e-05 9.58212967247059e-05 7.91635748727363e-05)
(4.61257555189292e-05 0.000173143185773207 0.000121358263235035)
(2.2700184869065e-05 0.000219857442607286 0.000163357234545824)
(7.64869398290541e-06 0.000254577659854518 0.000203673307905837)
(-1.18978557752289e-06 0.000281863524101063 0.000241836165738736)
(-5.2440499658742e-06 0.000302851089772019 0.000277541825729333)
(-5.86141052454633e-06 0.000317980725653284 0.000310819092625981)
(-4.3378739772639e-06 0.000328664676182925 0.000343393281903247)
(-1.68491887103248e-06 0.000336083955584453 0.000378067451366956)
(0.000293646288424337 -0.0002673111615711 3.16262567014904e-06)
(0.000168627452876101 -9.80010886223105e-05 2.3941991322493e-05)
(9.15821271614217e-05 6.52196461632968e-05 6.06808706389953e-05)
(5.30706522653133e-05 0.000139548661155527 9.96173767418764e-05)
(2.86880836824249e-05 0.000184366177958292 0.000138705737825598)
(1.21937005677051e-05 0.000217996098223553 0.000176596874758732)
(1.59864922695045e-06 0.000244850307187507 0.000212808061978102)
(-4.25998387028936e-06 0.000266016774412169 0.000246957352470014)
(-6.43550757025937e-06 0.000281759803821163 0.000278723219995206)
(-6.03337735404111e-06 0.00029230237143878 0.000308130825880058)
(-4.13679735051339e-06 0.000298826501043976 0.000336836430376758)
(-1.53299717133697e-06 0.000302319219827868 0.000367474591102453)
(0.000270085547248897 -0.000280755679531019 -5.18525307299274e-06)
(0.000168587613283355 -0.000115270200554857 1.20485621376429e-05)
(9.60078297024539e-05 4.05643657813025e-05 4.37026360933691e-05)
(5.80174495786883e-05 0.000110951006829407 7.9060466606391e-05)