/*--------------------------------*- C++ -*----------------------------------*\
  =========                 |
  \\      /  F ield         | OpenFOAM: The Open Source CFD Toolbox
   \\    /   O peration     | Website:  https://openfoam.org
    \\  /    A nd           | Version:  12
     \\/     M anipulation  |
\*---------------------------------------------------------------------------*/
/*   Windows 32 and 64 bit porting by blueCAPE: http://www.bluecape.com.pt   *\
|  Based on Windows porting (2.0.x v4) by Symscape: http://www.symscape.com   |
\*---------------------------------------------------------------------------*/
FoamFile
{
    format      ascii;
    class       volScalarField;
    location    "200";
    object      k;
}
// * * * * * * * * * * * * * * * * * * * * * * * * * * * * * * * * * * * * * //

dimensions      [0 2 -2 0 0 0 0];

internalField   nonuniform List<scalar> 
10176
(
1.24753261369307e-06
1.11223171137602e-06
1.76297396167482e-05
3.95399323126761e-06
3.87512858464043e-06
1.12136489303795e-06
1.7699849332852e-05
5.02358031822702e-05
4.13823121280733e-05
9.51238540990387e-06
4.13162360387851e-05
3.88048093056036e-06
9.57500243728201e-06
9.19640696204604e-07
1.72879537887829e-05
5.00505961866742e-05
8.47100554272128e-05
9.29355063144075e-05
7.4233455191002e-05
1.75348598772493e-05
7.41026013299021e-05
4.06323434646332e-05
9.26044114676471e-05
3.55294546391902e-06
9.63546203677597e-06
1.80490247165628e-05
7.8784541691258e-07
1.56531983947233e-05
4.85951396978648e-05
8.48153216366713e-05
0.000122984292196926
0.000141675677700387
0.000144130059935556
0.000112772113548385
2.89561625527736e-05
0.000143530434059203
7.3087334082054e-05
0.00011258223258748
9.08615952105766e-05
3.81976631762596e-05
0.000141032415181262
3.09011792638374e-06
9.20798603078101e-06
1.82893019320326e-05
2.93064880767219e-05
5.04840256597344e-07
1.32889245368411e-05
4.51476886853718e-05
8.271114569101e-05
0.000121679059737211
0.000160688606642815
0.000190378878175101
0.00020684459611444
0.000200171218301288
0.000154207897088456
4.21706682645764e-05
0.000205719632718163
0.000199347321554104
0.000140999251770572
0.000111208297243715
6.97706475048242e-05
0.000153774723241043
0.000138090520707627
8.64356571253531e-05
3.36782813449477e-05
0.000188810544097238
2.29226263133441e-06
8.17742936609307e-06
1.75923233060589e-05
2.95252020832896e-05
4.28359573127694e-05
3.01878166724751e-07
1.00562484055983e-05
3.95043949985397e-05
7.74365741783026e-05
0.000117624762879904
0.000158963312704422
0.000199007679587428
0.000237358657213168
0.000266979512738539
0.000276201094037646
0.000258727513524705
0.00019626404419143
5.80898872880113e-05
0.000201749071896519
0.000274925755632701
0.000265232776637042
0.000257753693658679
0.00019608678185192
0.000135180535313491
0.000152035745863673
0.00010702986343339
6.32151349320897e-05
0.000195816231436841
0.000184265353308818
0.00013144286977721
7.84270943311643e-05
2.66320308474181e-05
0.000235305223462126
1.72419384043293e-06
6.57711508310749e-06
1.5874012460503e-05
2.8570396490657e-05
4.3285145939533e-05
5.86977443847361e-05
5.22515256198814e-08
4.50268215220373e-06
3.13860772256665e-05
6.87830820459705e-05
0.000109660516850023
0.000153344065103852
0.000196363259809369
0.00023536152786958
0.000283115508200853
0.000324602038238268
0.000347582830762366
0.000347900875804256
0.000317869855517523
0.000238369668062728
7.52469122171525e-05
0.000270211425012892
0.000259816859882384
0.000193500199683467
0.000345844090700314
0.000346604011226603
0.00032229360965611
0.000316812826947972
0.000254009147988037
0.000188958090234279
0.000124774828383624
0.000193928913716611
0.000147209088688886
9.88692618002231e-05
5.25675948068123e-05
0.000237896096818069
0.000229378437395352
0.000175200747612882
0.000120120308224682
6.60730478853123e-05
1.47191733474949e-05
0.000280402739148332
4.20909976430261e-07
5.30289761111949e-06
1.3440899834386e-05
2.61603909914502e-05
4.2182857892354e-05
5.93606072119727e-05
7.62346524934351e-05
6.61181360181465e-09
9.13937790488214e-07
2.06746099184479e-05
5.63746542673507e-05
9.75451083525843e-05
0.000142852235088179
0.000189123496017026
0.000232292171636941
0.000269628174408703
0.000326327246357016
0.000379483046114526
0.000415402798839468
0.000430235970120139
0.000419981521339284
0.000376253052451575
0.000279653426720037
9.39216889587757e-05
0.00033983017314511
0.000260635093424647
0.000341482606434937
0.000315542622492316
0.000249224347523478
0.000179655614284249
0.00041314345429584
0.000428580353315487
0.000418659699072676
0.000376659856292029
0.00037518421512047
0.000312822535035215
0.000246052229166714
0.000176515468645827
0.000108558535037273
0.000236025508524246
0.000188815183742607
0.000138071674123596
8.58303144121503e-05
3.57365052602135e-05
0.000279340394367235
0.000273169603281171
0.000218002123904067
0.000160571943647812
0.000103413171639079
4.71901891445842e-05
3.23380079051738e-06
0.000323189195637041
3.81932286526165e-08
1.2508680717025e-06
1.12065931349541e-05
2.28424587303065e-05
3.91899047516331e-05
5.82200066443412e-05
7.73283099522175e-05
9.52538694548091e-05
2.69122992616685e-07
5.86601453958259e-06
3.91237573919343e-05
8.11328436604549e-05
0.000127457183342059
0.000176264433471787
0.000223920436731965
0.00026603682047952
0.000301011244908301
0.00036673328353854
0.000431106532848984
0.000479540477914325
0.0005077848250018
0.000512954554875807
0.000490887126747697
0.000432960843166199
0.000319695143241156
0.000113135742264226
0.000405874327335351
0.000422281259415908
0.000328081572968491
0.000244860320562245
0.000331155421927951
0.000413313016955827
0.000368720966705901
0.00030276406298914
0.000232161474129524
0.000159142772554668
0.000505639241153258
0.000476801803322248
0.000511298488338202
0.000489539657669353
0.000427902261229396
0.000431949406336591
0.000371114356371864
0.00030454854515104
0.000232511581384694
0.000157218886186343
8.33272810866167e-05
0.000277639446790471
0.000230895445967771
0.00017936661531426
0.000124104621709527
6.7125805939732e-05
0.000319548140812951
0.000314877373042445
0.000259659640686486
0.000200050965474959
0.000139321969359898
7.86152728229108e-05
1.7552351225342e-05
7.25840005946287e-07
0.0003632100525572
8.40482876046147e-08
4.2580407971993e-06
1.9397175796356e-05
3.50397975356293e-05
5.47201206620126e-05
7.629676521146e-05
9.6852565222802e-05
0.000114906306371297
4.88151147881891e-07
1.41061032566966e-05
5.88104694825642e-05
0.000106229883202929
0.000157309178582232
0.000208950294511247
0.000256622553178238
0.000297092285375802
0.000329626304853403
0.000404003326794419
0.000479301561153093
0.000539754495067677
0.000580819296126715
0.000599787145257658
0.000594124515795561
0.000559539716896667
0.000487372691988996
0.000358126830792791
0.000132350793992383
0.000498146593548859
0.000468397547897303
0.000392109828230317
0.000504796010519321
0.000409957261611854
0.000309430843727444
0.00031449449205049
0.000221829338692272
0.000402704320825974
0.000484044412058452
0.000418976111250353
0.00035398248354193
0.000282638681198146
0.000207558697852192
0.000129668740529802
0.000578196902914873
0.000597627996137827
0.000536651680181822
0.000592403798041008
0.000558201532079419
0.000475801266442417
0.000427894073018049
0.000486454821937697
0.000362806680475851
0.000290947033914685
0.000212173918940409
0.000126794839122927
4.38899085306203e-05
0.000318077072989527
0.000272629687663598
0.000221468158018342
0.000165712448778451
0.000105794725690906
0.000358183224353574
0.000353910241419799
0.000299447676921692
0.000238668573053018
0.000174532161424876
0.000108715608999906
3.76121208363515e-05
2.11126735063886e-06
8.94049570277093e-07
0.000400159749016873
1.17686884005019e-07
2.13032756804014e-06
1.33625667494575e-05
3.0499571971754e-05
4.9632185878478e-05
7.23992533830488e-05
9.60490275393046e-05
0.000117075587483388
0.00013453544556295
9.80302146519498e-07
2.75375193447223e-05
7.749071149592e-05
0.000131811400738396
0.000186826834403905
0.000239606922653417
0.000286711681586371
0.000325350534131626
0.000355449357882111
0.000438160818568318
0.000524001301478022
0.000595980932917051
0.000649312824253073
0.000681242490686926
0.00068981781424333
0.000672605095592878
0.000625250682869969
0.000539091859135526
0.000394538511016371
0.000150991800780451
0.000589922433098448
0.000569590530015493
0.000483952941867535
0.000527299755631828
0.000452815437390113
0.000370758873715555
0.000492238421419195
0.000585675658737643
0.000390766762754169
0.000283147866855375
0.0003860917061781
0.000290968723674042
0.000190294781609961
0.000473344295251701
0.000552595890825275
0.000466024294036744
0.000402517105541431
0.000331072714967014
0.00025406257293078
0.000172614085774822
7.90049199483537e-05
0.000646328561012578
0.000678583855059823
0.000687546354882705
0.000592608089938207
0.000670831175790791
0.00062395312832167
0.000520239971862457
0.000419616442548274
0.000482444456312737
0.000538272444262654
0.000349491555109929
0.000271894587738859
0.000182688657454778
8.96349691890435e-05
4.69193761562738e-06
0.000356939779482709
0.000313210918741884
0.000263246293746068
0.000208216319860886
0.000149234003881727
9.37463563896917e-05
0.000394745044056951
0.000390051503411302
0.000336796892355641
0.000275726677616295
0.000209117824526213
0.000137947532044141
5.96962067832091e-05
3.736586968558e-06
7.18959417553636e-07
0.000434018254423503
1.30085189280763e-07
1.54926159583899e-06
1.01508631706826e-05
2.47175877033667e-05
4.38795306469701e-05
6.64657813784563e-05
9.18917244727185e-05
0.000116562195385987
0.000137238676809257
0.000153516983245666
2.004215429392e-06
3.86949052875815e-05
9.71007741002556e-05
0.000157317896071668
0.000214487930502807
0.000267959023001507
0.000314131195863639
0.000350849217118232
0.00037855297852374
0.00046920674477143
0.000565202807232326
0.000648248992599862
0.00071330927516391
0.000757543761511886
0.000779225441456525
0.000776748104940746
0.000747678722457251
0.00068758713892119
0.000587773849844054
0.000428526384747779
0.000168493144653371
0.000575530255737888
0.000669742631211425
0.00067953768835714
0.000636790047909625
0.000553683859480425
0.000462384904541912
0.000582468767784406
0.00051013094414076
0.000428969220426437
0.000341084859541275
0.000572938750070849
0.000473192728237819
0.000663866945503679
0.000364690169802388
0.000247302617406345
0.000363728545570242
0.000457020356062667
0.00026126281998017
0.000141087134584184
0.00054178701736524
0.000618249172359759
0.000509733486831647
0.000448054520139533
0.00037710426941336
0.000298790509899513
0.000213688772009228
0.000113570132784718
7.89023532488547e-06
0.00075450854534429
0.000710067862384504
0.000776417296164965
0.00077436201391286
0.000644658157986146
0.000745882245418206
0.000686334374939172
0.000561207360861331
0.000406440581434331
0.000474151498944245
0.000534290313255086
0.000587025872570758
0.000331597451664136
0.000248699533420212
0.000152621477341016
4.87223564895489e-05
4.3786636352318e-06
0.000393681750357008
0.000352179114096461
0.000303782980112646
0.000250030257600935
0.000192477816465379
0.000133261566796994
7.67916678301929e-05
0.000428812339447972
0.000423205578516334
0.000371479951843067
0.000310425565906564
0.000242235833792527
0.000166882482377279
7.96783944432067e-05
6.61083773830849e-06
1.08376620559508e-06
0.000464825258762277
1.28597019727728e-07
1.43623586293757e-06
7.97939379133237e-06
1.4760350809117e-05
2.02528975363157e-05
3.75134091847726e-05
5.9695192114966e-05
8.53050341023234e-05
0.000112208997214966
0.000136994338074347
0.000156584166161671
0.000171040981268817
3.27695778174819e-06
5.00072405580816e-05
0.000116788767708585
0.000180638839759034
0.000239904526528804
0.000293813834193651
0.00033887702145615
0.000373687153608061
0.000399166047036188
0.000497312755446602
0.000602940963819316
0.00069660910751466
0.000772901509603866
0.000828859841997331
0.000862842350931498
0.000873673549515117
0.000859868224351333
0.000818907016713576
0.00074625856314306
0.000633138437240407
0.000459673332170366
0.00018400064846921
0.000653664215429744
0.000664887075496839
0.000554228513200005
0.000744720849275103
0.000767212400932101
0.000766005237178728
0.000619384263962955
0.000699768163702529
0.000529877326453291
0.000433519396873581
0.000633844006372189
0.000563912525901476
0.00048402971212604
0.000396079461965593
0.00030078281310268
0.000650859540845133
0.000554070119167919
0.00044828677000633
0.000738683552219719
0.000332102910475634
0.000191307390997092
0.000435724699756654
0.000337205351459587
0.000525498655023467
0.000226897862444886
8.51640123959063e-05
0.00060724597508507
0.000680518169540684
0.000550051322064513
0.000490431253829471
0.00042034425266906
0.000341356954218371
0.000253356624578678
0.000146291206498716
1.3636638259279e-05
7.98411812349188e-06
0.000859635450334232
0.000825563428767468
0.000769462596956655
0.000870708808804054
0.00085739887667694
0.000692826058354733
0.000817098462513899
0.000745035841313358
0.000598736139955314
0.00038887015038993
0.000460884726901135
0.000525907700090575
0.000583035449963223
0.000632425144437908
0.000310470639723007
0.000224450419121095
0.000122131610765034
3.85795898680913e-05
3.9959656039986e-06
0.000427819436262585
0.000388972352955465
0.00034262542598989
0.000290344386910073
0.000234252039725135
0.0001757294106441
0.000116115220042561
5.64547758630404e-05
0.000459895853981243
0.000453336955784693
0.00040326172480161
0.000342769257029072
0.000273247872840313
0.000194364610452708
9.94256148153363e-05
1.01894941661077e-05
1.02714555632672e-06
0.000492673794093536
1.11813641318368e-07
1.22041651522599e-06
6.37041255482494e-06
1.34974804849448e-05
1.66857422382153e-05
3.18404173864678e-05
5.26540739515471e-05
7.76630809730866e-05
0.000105016791173786
0.000132466149852476
0.000156502146460668
0.00017366980047324
0.00018527510969926
4.8809073641553e-06
6.09768466411633e-05
0.000133964878830468
0.000201668106765727
0.000262936052913574
0.000316908756034442
0.00036093529411323
0.000394017130350459
0.000417460090488386
0.000522605685409468
0.000637320934419198
0.000741110486946951
0.000828171003769188
0.00089534604232372
0.00094097950320053
0.000964140894737715
0.000963914872991683
0.000938764483455087
0.000886025352223294
0.000801060763129745
0.000674970791424193
0.000487534372371004
0.000195979771946029
0.000727171849943217
0.000750822094454657
0.000630245968454731
0.000750941634350077
0.000643687166341015
0.000526788437050801
0.000815011997318076
0.000849446086726629
0.000861073522528787
0.000848686089177527
0.00059353404180015
0.000681056189775958
0.000758517962493603
0.000498280102667557
0.00039759486951293
0.000681409459890499
0.000614054183421734
0.000535765038666059
0.000448160524313575
0.000351626867003177
0.00023872188144283
0.000631835991437983
0.000725294765952414
0.00052994693604199
0.000419014170438035
0.00080965841654568
0.00029387617491529
0.000124843487395867
0.000504417834155121
0.000410851840838924
0.00030863938075768
0.000590695479135234
0.000189772489385313
7.25909642944444e-05
0.000669237500990309
0.0007390833628831
0.000586983197364112
0.000529534143011089
0.000460665248282792
0.000381428764582187
0.000291185583585252
0.000178085467529333
2.04320781196065e-05
1.41210631792431e-05
8.20794680054229e-06
0.000960754575149613
0.000937500143198254
0.000891853733165363
0.000824562012463928
0.000960823651949122
0.000936226736928647
0.000737150185010634
0.000884198227850053
0.000799848867927891
0.000632913161153439
0.000368060338625659
0.000443122046102121
0.000512383658579161
0.000574499527405025
0.000628375454121699
0.000674255416459861
0.000287647288793977
0.000199840642005301
0.000106125830224137
3.69557958053714e-05
3.62125476453282e-06
0.000458717817134314
0.000423064032156714
0.000379236571096827
0.000328821165850886
0.000274190808388821
0.000216974565583209
0.000158530509661338
9.95322873014382e-05
4.66987701130398e-05
0.000487410305867555
0.00048053825452407
0.000432108993620178
0.000372418482032648
0.000302312201337
0.000220430375176767
0.000118694441568883
1.44793539036913e-05
9.00610638642708e-07
0.000517700389369472
8.38462605619166e-08
9.17819536373286e-07
4.9829523686824e-06
1.22002890357498e-05
1.37219386783436e-05
2.71047896442928e-05
4.60396076697204e-05
6.97347509337486e-05
9.65212959547717e-05
0.000124707237153042
0.00015185126913159
0.000173409688456368
0.000182915465940364
0.000192322265951668
6.20761633643312e-06
7.06264074396266e-05
0.000149608090329656
0.000220757771611465
0.000283201770886044
0.000337269056329935
0.000380412049178456
0.000411960089298672
0.000433514840356384
0.000545198105557238
0.000668449973605841
0.000781819195064699
0.000879164554890805
0.000957096913839115
0.0010138632574616
0.00104862793582935
0.00106083447493763
0.00104958107763745
0.00101318613668238
0.000948856733904982
0.000851874231203681
0.000713170832879217
0.000511753958052366
0.000196560154122641
0.000796188659535696
0.0007018200459333
0.000831556566317406
0.000844165190162906
0.000727480598123568
0.000600332640945737
0.000729416880901696
0.000833074218930595
0.00061695237470519
0.000494649463313554
0.000880660611195569
0.000926523708065502
0.000950082118845235
0.000950743107883027
0.000927156386118542
0.000559368850248402
0.000653344326336854
0.000738643550261288
0.000813044332866324
0.000459126068376023
0.000355755513591981
0.000725183683572282
0.000660499912109676
0.000584046659868009
0.000497153256008947
0.000399872057899066
0.000284107872654778
0.000164234109577574
0.00060767931977844
0.000705789308264158
0.000795807243569756
0.000501922691290247
0.000387020541444615
0.00087650448392403
0.000252660036245848
0.000108617207556894
0.000479667107974401
0.000569241357136146
0.000383750568138834
0.000279308343227238
0.000652230958120215
0.000167234223924569
6.8496544218788e-05
0.000727466999126497
0.000793736436259536
0.00056535814049157
0.000620610066224596
0.000497904286761984
0.000418899000122619
0.000326985809378723
0.000208735008058194
2.87108194958123e-05
2.12059457503334e-05
1.46755784940057e-05
8.02398704615447e-06
0.00104495783759401
0.00105729837652697
0.00101018233532061
0.000953438411533042
0.000875398459034179
0.00104638013795075
0.00101057835788522
0.000777692315315633
0.000946999224811694
0.000850660400501329
0.000663850264291564
0.000345083855564595
0.000421910393394185
0.000494160480398054
0.000560618831920398
0.00061962701169878
0.000670101742350974
0.000712445744393526
0.000264008629970589
0.000178878060701665
9.8376680292223e-05
3.5167571803282e-05
3.22895887956257e-06
0.000485734481275075
0.000453768179911215
0.000413101191689558
0.000365003787895832
0.000312079202727034
0.000256312249431967
0.000199047530980663
0.000141905243662477
8.67508544142808e-05
4.06054454122925e-05
0.00051135326758986
0.000504975195326942
0.000458137956965418
0.000399262061713179
0.00032889824315932
0.000244684336503494
0.000136841958069856
1.8652268822367e-05
7.33090829697805e-07
0.000540046751897186
5.54059329704047e-08
3.70501666363895e-06
6.25671834861144e-07
1.04187466395312e-05
1.10270497766466e-05
2.30197387218061e-05
4.00562124711064e-05
6.19698531647067e-05
8.76024265731731e-05
0.000115391343935499
0.000143648589927485
0.000168971850134147
0.000181392916155642
0.000187352067686722
0.000199012693604715
7.65134547634883e-06
7.96241703382775e-05
0.000164122313534783
0.000237397448729266
0.000300926765908329
0.000355165418380344
0.000397443702513217
0.000427602838493207
0.000447400037638924
0.000565224303105888
0.000696438062233968
0.000818820508026054
0.000925937017175227
0.00101417645600007
0.00108163269578145
0.00112745157041383
0.00115126399213627
0.00115259949086695
0.00113043844477788
0.00108296139651571
0.00100729994628392
0.000898680889295911
0.000747794986929748
0.000531756627901049
0.00020087905788704
0.000860704739294304
0.000907344412467382
0.000769075159197981
0.000806279648634543
0.00066956412027512
0.000931605360176317
0.000933162633081249
0.000820378028252583
0.000698281676121198
0.000565386342205219
0.000702437520942122
0.000810867406457098
0.000910917325094267
0.00058599896384755
0.000459402740439272
0.000941677833448081
0.000998550491588567
0.00103346616289503
0.00104612188059306
0.00103585261232645
0.00100114604301693
0.000517168047780006
0.000616782819530783
0.000709223482020483
0.000792112908775174
0.00086335700838726
0.000413900972149927
0.000310895629556199
0.000765222041356825
0.000703252089259103
0.00062879021241526
0.000542916277491704
0.00044532943071084
0.000327368054005501
0.000204019392868691
0.000144451812277246
0.000579473478052144
0.000681002797637787
0.000775625795477629
0.000862143238619744
0.000471163136418213
0.000353618371593905
0.000939041328978924
0.00022441247703661
0.000101590640610156
0.000452175820772358
0.000543846562246902
0.00063010578350562
0.000355243165894001
0.000252823726550989
0.000709898246003763
0.000152462231313206
6.43988048602224e-05
0.000781746514295101
0.000844379233888005
0.000597984998485477
0.000532029574364828
0.00065105341322493
0.000453525772639676
0.000360473678980666
0.000237897418196717
3.7246751602494e-05
3.0157190764743e-05
2.24207676093749e-05
1.42332001868547e-05
7.36959463779146e-06
0.00112357369719939
0.00114743299066607
0.00114892997720269
0.00107778128878939
0.00101036465603902
0.000922023162124645
0.00112712801285225
0.00108027595782701
0.000814538633973427
0.0010054036362792
0.000897467078955305
0.000691667569633412
0.00032066094517453
0.000398136971388781
0.000472233113137987
0.00054181081204358
0.000605333085711093
0.000661093877582563
0.000708236477134908
0.000747123988742276
0.000240810638848549
0.000161508277561586
9.01103630304436e-05
3.19373410660739e-05
2.7664355701667e-06
0.000480380998819014
0.000508570801405736
0.000443574795823212
0.000398474599274197
0.000347595427440212
0.000293375024816268
0.000237355562443857
0.000181087401811372
0.000126500923707017
7.60727693852583e-05
3.49258567517199e-05
0.000532089838748386
0.000526799442839547
0.000481539382514352
0.000423451367345534
0.00035305657102755
0.000267029703438032
0.000153960240678463
2.31957232085883e-05
5.5606955303363e-07
0.000559866830381531
3.5588393244461e-08
8.68409283028489e-06
2.68465339098114e-06
4.22857429704003e-07
8.54317517399302e-06
1.9184966458768e-05
3.44572681057609e-05
5.44751591161345e-05
7.85929735609554e-05
0.000105472482585148
0.000133625878781946
0.000161007763420643
0.000174823863654785
0.000188690209010396
0.000190072751425156
0.000197097236274226
9.02272942193625e-06
8.81841805451192e-05
0.000177094888041984
0.00025207614137087
0.00031655032308507
0.000370876366861109
0.000412269406907924
0.000441065705240843
0.000459217038015207
0.000582868051012138
0.000721427342606048
0.000852223533795374
0.000968561404532818
0.00106663123149795
0.00114435737013392
0.00120079264474499
0.00123561742253018
0.00124861271795411
0.00123922952486217
0.00120631889662181
0.00114798111272897
0.00106132775336371
0.00094154755305122
0.000778947488311478
0.000550214568500333
0.00020619453163613
0.000831967648905755
0.000920693162516461
0.00097823418151977
0.00101365627845637
0.000880315916731622
0.000734619108584726
0.000905806979328936
0.000774765494657843
0.000631932947511194
0.00102688536745181
0.00101751592209299
0.000908541559000572
0.000790798256130662
0.000664527718490242
0.000527048385527413
0.000671067367429663
0.000783032477526615
0.000887834429320403
0.000984241133529371
0.000551865265142511
0.000422286924894087
0.000998085592565061
0.00106557158637686
0.00111140440483021
0.0011353996312486
0.00113724563129987
0.00111615280922407
0.00107047946768256
0.00046873448788801
0.000571712589907125
0.000670428119171282
0.000761114444303095
0.000841454303533081
0.00090950057105606
0.000365783419544066
0.000277765065222796
0.000801612227195352
0.000742358945328166
0.00066998494034797
0.000585338472216873
0.000487808366928202
0.000368205077920715
0.000242559402628254
0.000180460565781776
0.000134443037451618
0.000651872356501568
0.000548026963083288
0.000749920460074217
0.000841188893151701
0.000924147319851959
0.000438350583361844
0.000321809430395565
0.000997180511064535
0.000203958702624807
9.41903656154045e-05
0.000422539877586701
0.000515264816219566
0.000603750167588794
0.000686963884567717
0.000326311539355125
0.00022938623364475
0.000763561476903579
0.000138785312017248
5.83008001640223e-05
0.000832000235014346
0.000891036723381965
0.000627534260124691
0.000563111559342296
0.000485296700868027
0.000678437060971642
0.000391473339827054
0.000265308668770955
4.64953729004752e-05
3.97230490683078e-05
3.20318068410662e-05
2.18318958303631e-05
1.2961816595778e-05
6.39400788351594e-06
0.00119673937927411
0.00123157297319339
0.00124463642188073
0.00123542677312754
0.00114034836669681
0.00106267450868226
0.000964509706492191
0.00120289330722283
0.00114521196948732
0.000847802085978541
0.00105939025107159
0.00094033898616084
0.000716514229019707
0.000295378079466519
0.000372384330047194
0.000447403801493391
0.000519041542988918
0.00058590486880328
0.000646344333345162
0.00069895980649715
0.000742628283551513
0.000778401837208706
0.000218398869060695
0.000145184228486191
8.01610036338226e-05
2.72441301143829e-05
2.25176250686074e-06
0.000469365186469823
0.000503607975681808
0.000529374737801137
0.000428822673593701
0.00038045206401737
0.000327981861965194
0.000273216683170877
0.00021767082076272
0.000163121045871027
0.000111567893472792
6.55275971416064e-05
2.88206087269503e-05
0.000550123964358302
0.000546155614939512
0.0005023405392177
0.000445117676785315
0.00037488214559422
0.000287377066089808
0.00016998403983516
2.77082734126606e-05
4.09955696690379e-07
0.000577336338135048
2.35847392817889e-08
1.54588945286944e-05
6.54522463584448e-06
1.84582371245435e-06
2.72599756155505e-07
6.52468290911995e-06
2.89462050774055e-05
4.71006424326073e-05
6.95310027033784e-05
9.52235941098359e-05
0.000122788732962315
0.000150651436028348
0.000174789671566532
0.000178287585647137
0.000188179759332658
0.000195196816154686
0.000201605321027119
1.0393011337573e-05
9.61061297499067e-05
0.000188717391895049
0.000265229696179517
0.000330261598942514
0.000384453656022637
0.00042508333980105
0.000452529291010424
0.000469256171327731
0.000598252738275255
0.000743584872618246
0.000882160275285153
0.00100713399826537
0.00111451986532989
0.00120207853059289
0.00126873525230944
0.001314127369235
0.00133813548061673
0.00134050160909118
0.00132056698276742
0.00127710420371959
0.00120819560331928
0.00111097102183516
0.000980581160563036
0.000807184006758725
0.000567314909877428
0.000206704882394677
0.000890454420462099
0.000949603324782696
0.00079544456669627
0.000976154478407936
0.00104422508224029
0.00109042752327205
0.000986058983073776
0.00111476915160461
0.000846642863512906
0.000694422170608778
0.000873831105369491
0.00100014217209711
0.000738348055017506
0.000590622061294363
0.00111715900779951
0.00109702585516928
0.000991858501391191
0.000877928591355326
0.000756478065046266
0.000627201315268897
0.000486443080586121
0.000636013610049077
0.000750490723163614
0.000858854763430925
0.000960196016277873
0.00105289793898541
0.000515080519554836
0.000385739344745543
0.00112761069054889
0.00104991761596767
0.00118397459899554
0.00121883597308106
0.00123205511556573
0.00122323488504418
0.00119147350197419
0.00113505659719738
0.000417502732435455
0.000520230663680301
0.000622655150355372
0.000720232614581177
0.000808998223296892
0.000886707562727213
0.000951548425380546
0.00032814902611041
0.000252264326338568
0.000777907499689871
0.00083446932307424
0.000707666328399978
0.000624401343981896
0.000527190546485611
0.000406389037567767
0.000279570029343985
0.000215444539949255
0.000166936629614878
0.000123417452843209
0.000719559181778298
0.000619047990747032
0.000513811234706185
0.000814438063278196
0.000902379823960336
0.00098175232400048
0.00040419325555719
0.000292364751424105
0.00105091275958744
0.000184633354289579
8.45452119059107e-05
0.000483986199685002
0.00039125126751163
0.000573830059768259
0.00065951742167273
0.00073976258584144
0.00029750504216715
0.000206737439067
0.000813172934270906
0.000123600505918581
5.00761991771303e-05
0.000878278735638719
0.00093373145825706
0.000654099340553563
0.000591241263243161
0.000514251185348087
0.000419929563336568
0.000702909534717027
0.000290806414413915
5.56958389599906e-05
5.03382333853533e-05
4.27024121555228e-05
3.09569894083457e-05
1.97063785079872e-05
1.1086824124341e-05
5.19323910079496e-06
0.00126451950381674
0.00130990355241945
0.00133393962326047
0.00133637940177804
0.00131662594317883
0.00119791989212321
0.00111042698509135
0.00100295616787462
0.00127355939492986
0.0012053406817314
0.000877616652710873
0.00110899038873636
0.000979377613044688
0.000738551338328083
0.000269480223490504
0.000345023652995874
0.000420152900650749
0.000493063591638254
0.000562277743974357
0.00062632801250473
0.000683598512211615
0.000733223833197245
0.000773908016828804
0.000806633667395301
0.000196053275719793
0.000128041530959531
6.85020549176553e-05
2.17143344641785e-05
1.68910726232724e-06
0.000492360282039819
0.000455462749630055
0.000523626111921338
0.000548154531754084
0.000410392887971151
0.000359972283012612
0.000306591797412879
0.00025179892119129
0.000197230070930507
0.000144739301567984
9.63438111476081e-05
5.43351632081607e-05
2.22882100797303e-05
0.000567217459811298
0.000563184094305539
0.000520853477813953
0.000464503400814931
0.000394546398649862
0.000305846618500582
0.000184775167139306
3.21776631672589e-05
2.85643825554806e-07
0.000592587379805876
1.41854592924643e-08
2.34614304642851e-05
1.18277858394932e-05
4.589586719238e-06
1.16213177199805e-06
1.57966776591981e-07
4.54092042019976e-06
3.97024278041687e-05
6.03556023804787e-05
8.46510006303157e-05
0.000111382723017704
0.000139118962110555
0.000165672621140095
0.000180682352893883
0.000183393413080257
0.000193358299918444
0.00020102714964027
0.000206216192975409
1.17185845107974e-05
0.000103340606253107
0.000199222848205816
0.000276834161884103
0.000342215331050422
0.000396340761497139
0.00043602841353813
0.000462261524536749
0.00047786808505944
0.000611566670718327