/*--------------------------------*- C++ -*----------------------------------*\
  =========                 |
  \\      /  F ield         | OpenFOAM: The Open Source CFD Toolbox
   \\    /   O peration     | Website:  https://openfoam.org
    \\  /    A nd           | Version:  12
     \\/     M anipulation  |
\*---------------------------------------------------------------------------*/
/*   Windows 32 and 64 bit porting by blueCAPE: http://www.bluecape.com.pt   *\
|  Based on Windows porting (2.0.x v4) by Symscape: http://www.symscape.com   |
\*---------------------------------------------------------------------------*/
FoamFile
{
    format      ascii;
    class       volScalarField;
    location    "200";
    object      nut;
}
// * * * * * * * * * * * * * * * * * * * * * * * * * * * * * * * * * * * * * //

dimensions      [0 2 -1 0 0 0 0];

internalField   nonuniform List<scalar> 
10176
(
5.08106446037858e-07
4.50765848881218e-07
5.7190386088072e-05
1.59777309288184e-06
1.58655422081693e-06
4.61322573337784e-07
5.63951885603411e-05
0.000144737182637499
8.53095234758053e-05
3.87920054852265e-06
8.51290141501699e-05
1.6138561535005e-06
3.94781516327405e-06
3.70389185338614e-07
5.56947615199992e-05
0.000139777830380383
0.000214088155656324
0.000261029480187811
0.000128851562321346
6.99647518448542e-06
0.000129755107374388
8.51292222500341e-05
0.000258995516440085
1.49368355587714e-06
4.07385991696009e-06
7.46204886269359e-06
3.25349000067977e-07
5.06423333222892e-05
0.000139865748228774
0.000213813400268719
0.000297232847912002
0.000401409734200218
0.000390604680540184
0.000177514941999417
1.17064583223526e-05
0.00039105744062827
0.00013092095921244
0.000180586366522199
0.000257027097529641
8.17656698720078e-05
0.000399551598520013
1.31064071012157e-06
3.98499169805871e-06
7.84480714622159e-06
1.21857345990227e-05
2.04297413445707e-07
4.41061947114551e-05
0.00013358043974009
0.000209756728622428
0.000285647140406316
0.000335574416327946
0.000518926190092277
0.000623379863754774
0.00051679697711135
0.000227884028977572
1.69019226891222e-05
0.000621701520809121
0.000519391161371199
0.00038919274017063
0.000183470288458779
0.000128370087386882
0.00023178878561984
0.000393523309372383
0.000248627211398733
7.41517755151214e-05
0.000511450609101344
9.644832072216e-07
3.56541940666467e-06
7.76581137880202e-06
1.27499632593491e-05
1.78030698023881e-05
1.24976015995341e-07
3.05371823223415e-05
0.000120380112704527
0.000196813845871736
0.000272103643130675
0.000329937561618013
0.000393190126960352
0.000604143845423408
0.000807607936999312
0.000842412493479873
0.000634020426471998
0.000274683594353186
2.34504192301238e-05
0.000613820603870697
0.00084166027280831
0.000802312146400854
0.000637998762110405
0.000518813818524394
0.000379496871301602
0.000235933863674462
0.000181686808592739
0.000119344468552074
0.000280032923208776
0.000499183532477155
0.000378501371301201
0.000230895016603123
5.84604556493707e-05
0.000597146260632341
7.51819121733586e-07
2.83607842362914e-06
7.07385600845584e-06
1.27191295481659e-05
1.8724636567371e-05
2.44581884500787e-05
2.12297391710635e-08
1.58261260208578e-05
9.86856018772955e-05
0.000174875681768201
0.000257178326578258
0.000317388749355192
0.000385822937848029
0.000443043675855952
0.000685215467916383
0.000953015017581145
0.00110855593723433
0.00104369364484187
0.000739923187768954
0.000319688666060441
3.03727486241862e-05
0.000833149646798106
0.000788220130528384
0.000594315097301929
0.00110400004479562
0.00104386689051534
0.000945719466964892
0.000745137473683334
0.000638925509915351
0.00050869916026466
0.000356653162789491
0.000285550925267793
0.000234942836491338
0.000171792532568359
0.000100365312852724
0.000325638187362703
0.000582191527891353
0.00047930558978708
0.000350966347207734
0.00019833534629941
3.33147687052337e-05
0.000676632756317645
1.79201592711737e-07
2.41344534431047e-06
5.93016326655861e-06
1.17797727820458e-05
1.8812200933205e-05
2.57129686240797e-05
3.18261908249026e-05
2.72435819017969e-09
2.91689974378801e-06
6.54653205984701e-05
0.000161448278943406
0.000242915365688398
0.000300249429496583
0.000371546425255012
0.000434678432468251
0.000488904598517796
0.000755758431322371
0.00107536626058785
0.00132228775279867
0.00139298763753129
0.00122311913535196
0.000835749163812031
0.000361380465386305
3.80121574937293e-05
0.00108763021446511
0.000809955794605749
0.00103584921572951
0.000926761995242037
0.000759883829899497
0.000556104321471877
0.00131471893326208
0.00138871304056234
0.00122420589799456
0.0010663154417088
0.000841974395484846
0.000747765379413573
0.000629511219616725
0.000482096455494732
0.000311556477189821
0.000332313343632686
0.000285554383088179
0.000225087966133253
0.00015092027560619
6.75640572972329e-05
0.000368415671755149
0.000658960092027619
0.000557226029854846
0.000447797862422726
0.000309539780219869
0.000136021940543624
5.74685021346268e-06
0.000746023508618452
1.54371291014776e-08
5.16604205564364e-07
5.21711180569229e-06
1.02544143530572e-05
1.76927361521605e-05
2.59934818640232e-05
3.35765891120221e-05
3.98623020738109e-05
1.12169810985906e-07
2.03463794728835e-05
0.000102429035827076
0.000197817858437473
0.000269371057539681
0.000351704157612951
0.000421973012116639
0.000480324659823322
0.00052658980310159
0.000817023144447721
0.001178779729433
0.00149756600341711
0.00167916373026514
0.00164946690534965
0.00138211349248286
0.000922245649734217
0.000399905883485153
4.58286397271161e-05
0.00129173615533144
0.00137123180715069
0.00105176816465895
0.000762694012501939
0.00101170520309101
0.00121751124575718
0.00104341557597391
0.000890445528307603
0.00070881154714264
0.000486509964950139
0.00167107031623528
0.00148775270635122
0.00164548362430944
0.00138418833198609
0.00116854103027691
0.000929589655111376
0.000846325214599224
0.000740117181697638
0.000602396157212179
0.000428713017008852
0.000220942085636792
0.000376441004156762
0.00033343570662729
0.000276460441036701
0.000204973961021489
0.000116104760518222
0.000407791851474761
0.00072688234434887
0.000629558853411426
0.000514647996637261
0.00038617043040406
0.000217124483484942
3.77435352769698e-05
2.99556545666112e-07
0.00080611339070772
2.5142974754975e-08
1.77364155375915e-06
8.97124738357925e-06
1.58139816093831e-05
2.47290662027166e-05
3.41477864749387e-05
4.21624122757812e-05
4.81638796075459e-05
2.07742930554322e-07
4.33578272224394e-05
0.000138134105085262
0.000229398502457375
0.000314733196291839
0.000392683017935727
0.000460182617212273
0.0005162960535378
0.000560101101438232
0.000868128452521555
0.00126647407034357
0.00164347979439745
0.0019140179498618
0.00200657957087891
0.00187695383126633
0.00152315878620911
0.00100021430689099
0.000435735758650977
5.3643848985545e-05
0.00164538579663272
0.001459561307271
0.00124491811387845
0.00162827203143631
0.00133181484560341
0.000985383656943387
0.000961816850649707
0.000676066880518273
0.00119504407935888
0.00137932558516652
0.00114286171078248
0.00100054809014351
0.000826979398772585
0.000616721760582886
0.000352382163358262
0.00190311355059742
0.00199806122714929
0.001632115892911
0.00187355611804308
0.00152635728255687
0.00125530565024356
0.000935764101895142
0.0010086451249369
0.000840948146514418
0.000715613295459374
0.00054933783659005
0.000322283041458302
7.33019832851499e-05
0.00041716130190943
0.00037882078144596
0.000325336966616813
0.000258501252652966
0.000174720007133067
0.000444649520165577
0.000783585841341784
0.000691911877917661
0.000580128410005234
0.000446515703612326
0.000280172405315718
7.77579425567498e-05
9.01489923667092e-07
2.68579262848108e-07
0.000856211366120488
2.58608453241704e-08
9.08060013083608e-07
6.22160792117659e-06
1.36492244985235e-05
2.24162206576985e-05
3.27972089507086e-05
4.31122495567757e-05
5.10685705768454e-05
5.6445892519286e-05
4.08850330184083e-07
7.66834521294571e-05
0.000171821892158268
0.000271036709103029
0.00035841110553275
0.00042567090484605
0.000493905872147345
0.000546449025655908
0.000583272022743281
0.000911590549057158
0.00134059654910679
0.00176614768822657
0.00210886415886561
0.00230262823286132
0.00229996417918383
0.00207801124199013
0.0016485467712344
0.00107076243724443
0.00046893119037842
6.12072215755914e-05
0.00197144867001761
0.0018710056933151
0.00159257470405488
0.00160007375076504
0.00140390348135664
0.00116212864197032
0.0015894435613019
0.00185769143723291
0.00125952936451915
0.000869980223923901
0.00114865564124146
0.000874082665842182
0.000520592413491385
0.00135996009633654
0.00152356738972524
0.00122710154733898
0.00109448005289372
0.000927341427936606
0.000718700153906453
0.000450823047202501
0.000130544973482001
0.00209604949783907
0.00229076921221542
0.00229151521307949
0.00175366130775959
0.00207552064844875
0.00165289510048599
0.00132859427305781
0.000932751531421033
0.00101658657107887
0.00108023044093119
0.000820029070020281
0.00067066052061309
0.000452664976291753
0.000161536711458328
1.5543068098044e-06
0.00045532292286828
0.000420786099562447
0.000371690730216407
0.000309103307796671
0.000233782585182459
0.000147239227494626
0.000478653977643581
0.00083199748696627
0.000743686045772685
0.000638080490753027
0.000503923178465695
0.000330931796762634
0.000114570543993756
1.53866991003654e-06
1.43359168992515e-07
0.000898413931749394
4.19348610759425e-08
6.81260176808364e-07
4.71123335324232e-06
1.0929569848625e-05
1.97262765319437e-05
3.00981024796234e-05
4.17579577729107e-05
5.24416488752746e-05
5.99385516680444e-05
6.44389376929837e-05
8.4658703962376e-07
9.02204203598482e-05
0.000209536836403858
0.000302175434608238
0.000375112547051184
0.000460485770241713
0.000524996079294308
0.000571649998503832
0.00060425672513438
0.000946644456399125
0.00140338705367938
0.00186991373788338
0.00227234923043871
0.00254923193443659
0.00265517919424603
0.00256054114740746
0.00225579234035887
0.00176020870909878
0.00113445073079954
0.000499219239369475
6.83046027391269e-05
0.00191784643528842
0.002256783545726
0.00226554917712739
0.00205920291217929
0.00180740418667402
0.00150080417986685
0.00171869154897875
0.00153749098870118
0.00130790057738308
0.00102333744949829
0.0018219821475233
0.00152018275118012
0.00206160806333711
0.00114031745434383
0.000670894163199563
0.00107184089958067
0.0013196224675996
0.000731520365333034
0.000259547418176358
0.00150759560528324
0.00165213163834294
0.00129858411505087
0.00117389571330996
0.00101310370675101
0.000805230511646302
0.000528931099780193
0.000179991638660216
2.3883709993996e-06
0.00253514133139605
0.00225820729232542
0.0026430120685527
0.00255269191704365
0.00185655591062175
0.0022543464542116
0.0017655834867441
0.00139063896053669
0.000915028962105449
0.00101571691573855
0.00108973921281329
0.00114473490997776
0.000782863248308377
0.000603422584836799
0.000319227189436073
2.90029384090854e-05
9.39898851965236e-07
0.000490515477806632
0.000460094342275909
0.00041439834786066
0.000356425641570644
0.000287638699194077
0.000206370719118733
0.000106077519580743
0.000509562153180152
0.000873459236650442
0.00078999713058063
0.000679545698301395
0.000549829432118646
0.000375906611933423
0.000140197691635367
2.74180750892374e-06
3.40469840008763e-07
0.000933548466637574
4.35944970069022e-08
6.07888904664266e-07
3.63313006787356e-06
9.27179436238325e-06
8.94065372079387e-06
1.68077895262137e-05
2.6946953051465e-05
3.87581007673991e-05
5.11247542739479e-05
6.17261936728752e-05
6.84330747704903e-05
7.18085031138914e-05
1.36803906715203e-06
9.87595579895004e-05
0.000194608706079676
0.000300775738810129
0.000401966849345996
0.000486001225784469
0.00054846292630434
0.000592461772318008
0.000623004105115316
0.000976361243022307
0.00145629959934337
0.00195815860728827
0.00241080797209925
0.00275657980879981
0.00295328630117766
0.00297088276942569
0.00279131005271732
0.00241308749581506
0.0018595629589477
0.00119132532672996
0.000526076476844448
7.45907206914975e-05
0.00219118739731699
0.00221464827992826
0.00182803077045017
0.0024957620334995
0.00260910135944827
0.00252837842859068
0.00198726141650638
0.00221785864542433
0.00169979201166059
0.00135473204739328
0.00181935929521717
0.00165057008653041
0.00143079274706046
0.00115035323471877
0.00079121092479934
0.00202983450402762
0.00176002074906155
0.00141276745198096
0.00224250389035221
0.000953951838327528
0.000349319253094232
0.00125583066795458
0.000959928706115945
0.00147299612555181
0.000520523014296797
5.4370307539847e-05
0.00163921104768152
0.00176657512667604
0.00135926695202203
0.00124190694229729
0.00108419223357095
0.000877887227899724
0.000595169509345177
0.0002202983870687
4.20712873875226e-06
1.5806678261269e-06
0.00293867983089542
0.00274097180461186
0.00239567556528785
0.00295911298301012
0.00278433719754447
0.00194409042399359
0.00241260810209425
0.00186575376797337
0.00144308511262609
0.000882934968384559
0.00100041126257736
0.00109067073875507
0.00115554251715088
0.00120211891975815
0.000731622518547832
0.000515026719329302
0.000165819113184276
2.71594231496041e-05
1.2705201937154e-06
0.000522362507562606
0.000496365548159504
0.000454393516539206
0.000399492803648468
0.000336171247557962
0.000263296393666427
0.000174459623890867
6.80904554787121e-05
0.000536739310313815
0.000907079569545501
0.000827640478890277
0.00071904253152173
0.000578022351663316
0.000395976362519661
0.000161582229424243
4.21130890184488e-06
3.45446949027073e-07
0.000962614981735467
3.8437973979188e-08
5.18332330830118e-07
2.78842042644773e-06
1.01476379788285e-05
7.43134346257229e-06
1.42750436347437e-05
2.37382140092663e-05
3.51811142426436e-05
4.78502254736117e-05
6.04581405669801e-05
7.05737787286457e-05
7.59235301548748e-05
7.77898339246879e-05
2.05174126362557e-06
0.000104522215784838
0.000202219942037663
0.000324447363616286
0.000419612489236205
0.00050082650419706
0.000564510211195903
0.000608692211962799
0.000637380923272183
0.00100143619615586
0.00150112551801889
0.00203343963451281
0.00252891446191804
0.00293254467557209
0.00320505011247572
0.00331818361879327
0.00325190955842135
0.00299546624334124
0.00255217033461779
0.00194736599235596
0.00124084778430185
0.00054869230505641
7.94461638063438e-05
0.00242091577836606
0.00254574318612761
0.00208438650605386
0.0024815814941986
0.00213255101641371
0.00169376357623773
0.00269764739335801
0.00289900931362368
0.0029266144703229
0.00276200902899425
0.00186708836697264
0.00213946385717782
0.00235266313073521
0.00153216348455092
0.00113357236987589
0.00190513647676519
0.0017469208346422
0.00153499205092634
0.00125788471492704
0.00089291276974693
0.000426205427324362
0.00197546561136929
0.0022144253738757
0.00166866392985365
0.00126146214582965
0.00240260289987195
0.000690642522263788
8.67550064937766e-05
0.00141909708586038
0.00116953179149327
0.000812811045880762
0.00160908919954506
0.000290150924855265
5.63710164262497e-05
0.00175613845658684
0.001868138360617
0.0014102944246091
0.00129924131750357
0.0011455951287148
0.000937361768725672
0.000648043778250023
0.000256669296723607
6.27512053685778e-06
2.84046367178702e-06
2.51637216057114e-06
0.00330390080669034
0.00318881471810528
0.00291581679184559
0.00251299753452381
0.00324092031378433
0.00298935794949361
0.002018795081451
0.00255247574647982
0.00195410484997768
0.0014873077398731
0.00083984943314593
0.000971354578270042
0.00107720646817742
0.00115796107435827
0.00121379868079224
0.0012517659201182
0.000669297828509433
0.000411347484117373
0.000151249499283039
3.14438689224619e-05
1.20956814772105e-06
0.000549674708210372
0.000529081938459242
0.00049132954706869
0.000439781909752171
0.000379721692640447
0.000312785730192836
0.000237461042540558
0.000146231147522141
5.82032010191981e-05
0.000558235528876104
0.000933645517671144
0.000855918804524791
0.000749727893412359
0.000610292619086666
0.000418997556235362
0.00017927166280655
6.00926742110392e-06
3.09279467147337e-07
0.000986377653799396
2.8944854929428e-08
3.90645627381365e-07
2.18831352819506e-06
1.05270268866439e-05
6.14801224650037e-06
1.21995050627439e-05
2.07734809273136e-05
3.15489383466865e-05
4.38518655262852e-05
5.6930540900662e-05
6.93719753523101e-05
7.82290645445325e-05
7.99756535237253e-05
8.07503947984405e-05
2.60561445841126e-06
0.000107857482580093
0.000207237385871781
0.000331821119713634
0.000419891827977344
0.000509342245727713
0.0005755558013768
0.0006198210530285
0.000645197074287175
0.00102174686888154
0.00153900719373823
0.00209779502087287
0.00263014338538012
0.00308295783761008
0.00341932537621351
0.00361314726520079
0.00364505366032139
0.00350132911527332
0.00317582173182104
0.00267465723667519
0.00202384504748355
0.0012824241447285
0.000564354115139999
6.76768372524036e-05
0.00261569818246062
0.00230061923489828
0.00282603190847872
0.00286738677328315
0.00244668406637176
0.00192810210849282
0.00240817991927297
0.00271928103013403
0.00201616586233429
0.0015098790704277
0.00286949493864877
0.00314495771131139
0.0032655263368956
0.00321036336849563
0.00296886486459673
0.00168236939466255
0.00200933220940979
0.00226922868111461
0.00246788740499042
0.00128432841476384
0.000833152058917161
0.00197832500098125
0.00182911548382422
0.00162419798084166
0.00134960661291421
0.000980046714541454
0.00049626872495965
0.00011911728398518
0.00189767354894555
0.00216624984641443
0.00237755224126425
0.00154864603235873
0.00106958932848093
0.0025439296770653
0.000415738964204568
9.03073030288146e-05
0.00134870394786278
0.00156175753135235
0.00106529961987189
0.00065398389702567
0.00172931105116798
0.000267326408795955
6.33608919115522e-05
0.00185961834721085
0.00195744871082647
0.00134672912954364
0.00145297087125903
0.00119694310616392
0.000989872108252522
0.000694936597479025
0.000289140013205102
8.89945687279411e-06
4.23931454951968e-06
4.49262241666523e-06
2.66441586556463e-06
0.00359722426432047
0.00363155970148997
0.00340189182904228
0.00306534479242027
0.00261358575134133
0.00349115730026192
0.00317042119545874
0.00208261515570969
0.00267552786446181
0.0020308397861285
0.00152450030852251
0.000789188758386779
0.000932386938152633
0.00105009520857948
0.00114595211830513
0.00121735375780657
0.00126357245308476
0.00129246366217182
0.000602365633563787
0.000369074228425706
0.000158490422051557
3.44557381622599e-05
1.09517256961207e-06
0.000567861612777667
0.000556709252829834
0.000524420142451707
0.000476982600474807
0.000420182897459381
0.000357225812779103
0.000288299330768952
0.000213700725476752
0.000129444069284785
5.40289882926019e-05
0.000571815074000149
0.000954627098343124
0.000877298448658071
0.000769026527514616
0.000632923820656572
0.000439076311224829
0.000194742637231617
7.75449426284568e-06
2.51840391613929e-07
0.00100507571585559
1.89890663571491e-08
1.6307389172802e-06
2.66389032632707e-07
9.81211555439387e-06
4.95092987549339e-06
1.04003917673615e-05
1.8106211636202e-05
2.80443734818209e-05
3.97431616242291e-05
5.25307410950451e-05
6.5648158687054e-05
7.7229495055492e-05
8.18443916028297e-05
6.9206877803939e-05
8.35599678978825e-05
3.21990091735977e-06
0.000111132250610381
0.000209285735261271
0.000336733775765649
0.00041685597155819
0.000520395203772102
0.000584559339758757
0.000625649111324902
0.000651424006144972
0.00103690618469655
0.00157080688584721
0.00215281074777473
0.00271715229296294
0.00321219018808113
0.00360288978197364
0.00386511635520957
0.00398092828015434
0.00393645698263187
0.00372210706694697
0.00333467610639158
0.00278175330152201
0.00208929098784759
0.00131492434562072
0.000558213511739692
6.87696249276097e-05
0.00278199642286505
0.00306458134577136
0.00248475691268861
0.00271333229370505
0.00212675831732394
0.00319668294740248
0.00315546176342951
0.00277761395357696
0.00230917959527822
0.00171841052738069
0.00230766043768075
0.00265325996212826
0.00292952913598145
0.00186695056883026
0.00128412827464032
0.00301665634047575
0.00335485069722863
0.0035546133540374
0.00359515865958668
0.00346245239045312
0.00315138463939572
0.0014137448202596
0.0018110658850478
0.00213117831674161
0.00238041574891635
0.00256676133539731
0.000957056554784414
0.000526784864788875
0.0020407985243171
0.00189917111359
0.00170045248347133
0.00142885022754678
0.00105623024866984
0.00055924349897939
0.000154652760530919
0.000124304342552035
0.00179914363363496
0.00209804152844041
0.00233397180191453
0.0025211650675727
0.00140728070280927
0.000873508368955481
0.00266802872699337
0.000378510865604511
9.80903807581513e-05
0.00126656983589659
0.00150041018182396
0.00168624000758003
0.000957945752553465
0.000591307396497316
0.0018351846914377
0.000270980755949713
6.73025275506244e-05
0.00195032976880147
0.00203464349307289
0.0013860425840308
0.00123858960794056
0.00148857565610714
0.00103372152116223
0.000736117686390417
0.000318964647162819
1.15723356540772e-05
6.08356984897012e-06
6.85050292765615e-06
4.69515330513661e-06
2.47390318000451e-06
0.00384799092498814
0.00396584731605333
0.00392381449649965
0.00358449716139456
0.00319385157850231
0.00270005520612411
0.00371260129968942
0.00332978501120822
0.0021371428110461
0.00278297594578752
0.00209612721128108
0.00155553193900067
0.000735295688628731
0.000886830313287479
0.00101334364895179
0.00112020640831623
0.00120641837125957
0.00126757046471324
0.00130259639675378
0.0013240143006856
0.000552918976494936
0.000349103829359618
0.000161227102103725
3.44170954453112e-05
9.37093929278337e-07
0.000574085430013778
0.000568352669965078
0.00055141411858511
0.000510444602362291
0.000457424324886119
0.000397992886044697
0.000333360935135348
0.000264646034179405
0.000192865943603904
0.000116906787924263
4.9199719541067e-05
0.00058023058860133
0.000971232736651719
0.000895538894378337
0.000782775252354812
0.000650351453947621
0.000455236987152222
0.000208745562689496
9.67455202736923e-06
1.90188901242211e-07
0.00101902441057018
1.21334145703426e-08
3.90515004045404e-06
1.18326708046816e-06
1.80220077173991e-07
8.58678178397574e-06
8.68463744490312e-06
1.56000065574535e-05
2.46716344284958e-05
3.56540326430028e-05
4.79466691383629e-05
6.0902558101229e-05
7.36204727827685e-05
6.76125762144095e-05
8.51425394020283e-05
7.05683579589124e-05
7.05130126728907e-05
3.79908182055589e-06
0.000114500886964869
0.000210898897417099
0.000341370529165138
0.00041197235049096
0.000521621329819623
0.000590698543296033
0.000629720561727971
0.000652168953229876
0.00104868113376926
0.00159709359921888
0.00219981101008705
0.00279202799680874
0.0033235580304643
0.00376085930146283
0.00408148237460325
0.00426899028160654
0.00431032550232511
0.00419522835876772
0.00391691995915614
0.00347400921716114
0.002874670420914
0.00214433085832585
0.00133597425108746
0.000564532670963739
6.9821824934078e-05
0.00264259343014155
0.00292473067937415
0.00326867003205425
0.00347835257742345
0.00294103254884204
0.00229693047479129
0.00309356783089197
0.00255858583342705
0.00189671231476075
0.00353082333646136
0.00341120513641082
0.00307382858211938
0.00265729750518682
0.00213578683477477
0.00146687944883394
0.00218330289946563
0.00256445609978889
0.00286905376272385
0.0031145808655101
0.00169494909371818
0.00106042546789334
0.00314324139448563
0.00353491735793085
0.00380214649296794
0.00392527031021584
0.00388933919623371
0.00368535657989834
0.00331178276967154
0.00106585937939901
0.00152619182206123
0.00192211962589802
0.00223597439095384
0.00247597497184909
0.00265180733916565
0.000628907635578298
0.000476902018223613
0.00209411673975284
0.0019589237318442
0.00176545874402288
0.0014970707061963
0.00112295711805138
0.000616219392854703
0.000188967716472606
0.00015953699817709
0.000132389656970802
0.0020127404393031
0.00168629609970531
0.00227214245713193
0.00248082066861977
0.00264688895295813
0.00126618386499305
0.000787880237094877
0.00277613413182018
0.00037419926427934
0.000100732985949766
0.00118093301596967
0.00142903245965015
0.00163005774267858
0.00179491659801348
0.000881859042071682
0.000561130611242634
0.00192763345993142
0.000271616184578556
6.64053248465318e-05
0.00202834468418974
0.00209968504389902
0.00141907483934762
0.00127301169839336
0.0010704894009613
0.00151819496952128
0.000771810795355416
0.00034591673136908
1.45261535145932e-05
8.03816220252225e-06
9.82457748210186e-06
7.19023585210877e-06
4.32168398303105e-06
2.14108275975947e-06
0.00406337833460555
0.00425275450277126
0.00429616665489581
0.00418327693083227
0.00374166675698922
0.00330461635719492
0.00277447791071283
0.00390787628925668
0.00346944404685571
0.00218368103680419
0.00287605113305366
0.00215101583525678
0.00158117726200943
0.000684737750224095
0.000837445598261741
0.00097015475147714
0.00108475675681482
0.00118189223257434
0.00125714643564549
0.00130612967706063
0.00133103086443812
0.00134862509391709
0.000513309864613571
0.000330769504198714
0.000155329905422017
3.15187085905343e-05
7.60224107088409e-07
0.000556036316422339
0.000586579080144822
0.000577468028774217
0.000539487002373281
0.000491030319012748
0.000435230914438853
0.000374154086020027
0.000308954115936436
0.000241361446241122
0.000172363817710112
0.000102717979442354
4.18852765170528e-05
0.000576119080124175
0.00098421851298616
0.000908299769531947
0.000793269734247719
0.000665053999087757
0.000468983929016248
0.000221424134238994
1.15785286642781e-05
1.39820733531335e-07
0.00102964015698753
8.06646516359908e-09
7.00426842136011e-06
2.94794222248581e-06
8.14918346261367e-07
1.16205852203177e-07
6.81104229595886e-06
1.31152630454841e-05
2.13432257328851e-05
3.15524988401302e-05
4.32810509991169e-05
5.58855189714947e-05
6.87021566321814e-05
7.99408193134722e-05
6.9227697699437e-05
7.14440562200445e-05
7.14298623563898e-05
7.11938428887496e-05
4.37830064218539e-06
0.000117630477507076
0.000213148274710327
0.000348525486621279
0.000412316720911298
0.000529237144666064
0.000592815763701266
0.000630751164039451
0.00064735804912826
0.0010563292938016
0.00161875889577963
0.00223984347974682
0.00285647314560625
0.0034196633585817
0.00389716458050108
0.0042679528929305
0.00451698829224337
0.00463226434913406
0.00460387796184957
0.00442415169041126
0.00408823145517262
0.00359573007904424
0.0029549154161939
0.00219016904362747
0.00135675780115339
0.00057363803065343
7.0957717488192e-05
0.00277852753080743
0.0031364358808156
0.00244359775345778
0.00304771871837625
0.0034440700890783
0.00372001476618015
0.00336448743771992
0.00385362917517769
0.00277238521768959
0.00205072257367146
0.00295668905258595
0.00343627966274424
0.0023655358305408
0.00162493518816165
0.00382885835461007
0.00363681202143128
0.00333574601728242
0.00296650543821951
0.00251058741422849
0.0019389543753521
0.00122213354266111
0.00204312278735973
0.00245607998711588
0.00278817140553817
0.00305795425276344
0.00327671820688884
0.00152616292007707
0.000954744198454663
0.00369000332706641
0.00325242565214947
0.00401492286838073
0.00420898201915614
0.00425760720841823
0.00415031300531289
0.00388163380124909
0.00345210153958228
0.00072027698846238
0.00116207558729829
0.00162426993221958
0.00201824084695633
0.00232631545498467
0.00255828016960415
0.0027250385878665
0.000566103612002048
0.000464388580358886
0.00201001406070451
0.00213960255727646
0.0018210823525497
0.00155585463213944
0.00118132194575063
0.000667060939454097
0.000222512918584392
0.000193525824631741
0.000166323425883103
0.000132702856483945
0.00219466842747516
0.00191500312122149
0.00157076449997896
0.00242310087401746
0.00260876466555188
0.00275604830692475
0.00116440061751356
0.000742160907261499
0.00286950812749014
0.000367216306489051
9.73231879359804e-05
0.00135214389479498
0.00110283924626552
0.00156399534714306
0.00174174038465361
0.00188938675621876
0.000823294652782043
0.000533977365550491
0.00200690224706389
0.000261563752517575
6.06847796265174e-05
0.0020936412747881
0.00215422373020126
0.00144642306941775
0.00130198752970829
0.0011019328716109
0.000802883140844922
0.00154282202120846
0.000370147665911895
1.74458144156287e-05
1.02502442803246e-05
1.31549194203229e-05
1.02234970895347e-05
6.5598181238771e-06
3.68625825405408e-06
1.7340898279012e-06
0.00424901363268902
0.00449979657835036
0.00461701383177044
0.00459046853141005
0.00441266746039619
0.00387729755253183
0.00340022068866096
0.0028385379958036
0.00407946415236173
0.00359134709638117
0.00222332275213665
0.00295640679818597
0.00219753014234407
0.00160231740556138
0.000636229695961245
0.000786524190167377
0.000922376565724238
0.00104270188147552
0.00114748393122717
0.00123481937998505
0.00129377127821741
0.00133686381382734
0.00135610902217879
0.00136795472834329
0.000474366105351295
0.000305233288236766
0.000140974846830822
2.66587690394964e-05
5.6962523735339e-07
0.000568856270243775
0.000561409397301731
0.000582264030132157
0.000584927325360597
0.000520712284609402
0.00046878787265579
0.000411156687641813
0.000348870124419131
0.000283507795987482
0.000216916625616121
0.000150504915863681
8.60126220588586e-05
3.27359732656658e-05
0.000583907651426291
0.000993811140322582
0.000920415200002784
0.000803290370775473
0.000678771469118167
0.000481359736306821
0.000232777822861129
1.34618459023507e-05
9.72954705779801e-08
0.00103710605522137
4.79702346745377e-09
1.06347495677572e-05
5.36699490158895e-06
2.07162723421063e-06
5.12394067584463e-07
6.67767716409613e-08
4.83175978020714e-06
1.79929225655356e-05
2.73919768270774e-05
3.84814928229612e-05
5.0686318480178e-05
6.33567213101432e-05
7.55716736582183e-05
8.26434151774266e-05
7.06846850297098e-05
7.21944534674165e-05
7.24800290128435e-05
7.20115819261665e-05
4.93675506443233e-06
0.000120467540118522
0.000214925712594523
0.000350543994721472
0.000408512527644425
0.000534865530513216
0.000595687052352495
0.000630852504044656
0.000643875878316982
0.0010605087061592
0.00163617546075584
0.00227384127270599
0.00291188279010769
0.00350261239918186
0.00401491343492856
0.00442898930144352
0.00473105611984386
0.00491017816877489
0.0049571216191774
0.00486429651738816
0.00462593031878436
0.0042384110974696
0.00370183157737332
0.00302431488401838
0.00223038704557956
0.00137733266492769
0.000583556674288897
0.00289598947868354
0.00330479858410003
0.00257052838687815
0.00359742622621333
0.00295654508162875
0.00218442621888434
0.00315395322765052