/*--------------------------------*- C++ -*----------------------------------*\
  =========                 |
  \\      /  F ield         | OpenFOAM: The Open Source CFD Toolbox
   \\    /   O peration     | Website:  https://openfoam.org
    \\  /    A nd           | Version:  12
     \\/     M anipulation  |
\*---------------------------------------------------------------------------*/
/*   Windows 32 and 64 bit porting by blueCAPE: http://www.bluecape.com.pt   *\
|  Based on Windows porting (2.0.x v4) by Symscape: http://www.symscape.com   |
\*---------------------------------------------------------------------------*/
FoamFile
{
    format      ascii;
    class       volScalarField;
    location    "200";
    object      omega;
}
// * * * * * * * * * * * * * * * * * * * * * * * * * * * * * * * * * * * * * //

dimensions      [0 0 -1 0 0 0 0];

internalField   nonuniform List<scalar> 
10176
(
2.45525838812153
2.46742674525263
0.308264042659177
2.4746900851459
2.44248102825323
2.43076094222877
0.313853890459356
0.347082914471867
0.485084319335224
2.4521509756763
0.485336714529575
2.40447757511937
2.42539279101941
2.48290374721351
0.310405383144967
0.358072492973096
0.395678383829875
0.356034522413102
0.576116066065769
2.5062419882704
0.571095834525347
0.477301946272825
0.357552179823429
2.37864670193321
2.36519228279355
2.41877600223159
2.421539383087
0.309093151279304
0.347441316500015
0.39667916758293
0.413764134956365
0.352945296612366
0.36899214760108
0.635282372729814
2.47352032146939
0.367031589601283
0.558255412439031
0.623425980352958
0.353509789760974
0.467160157020085
0.352976726169194
2.35771550701879
2.31066630208205
2.33138961750533
2.40498328915455
2.47110449458288
0.301293834659233
0.337981285083478
0.394319391965223
0.425976817286286
0.478846416246999
0.366870822498373
0.331811481475457
0.387330474377289
0.676694623051592
2.49502195934884
0.330897747283015
0.383809614757064
0.362286438613309
0.606137910273687
0.543511723993372
0.663426070548778
0.35090810993601
0.347651637321118
0.454180376814845
0.369166720573453
2.37667448657584
2.29353925398156
2.26535547258846
2.31570879717163
2.40609949790926
2.4154887985548
0.329311601163705
0.328163798081027
0.393450846079032
0.432279265086562
0.481798167886269
0.506136003784996
0.39288434205072
0.330580595493536
0.32786918068689
0.408074413255725
0.714509523779843
2.47713640928817
0.328677582056235
0.326646943564742
0.330585518151342
0.404003438511492
0.377952118564668
0.356209880861065
0.64439984788894
0.589089897403085
0.529686341554297
0.699261462520435
0.369133477609763
0.347271845608748
0.339665599911885
0.455556333791675
0.394049563691402
2.29336257962845
2.31908787440765
2.244039522649
2.24625406813133
2.31166814820644
2.39992199359096
2.46124199637371
0.278958103619198
0.318041098484575
0.393325597650238
0.426398749494368
0.483142724546432
0.508946567315586
0.531237755318064
0.413177345604523
0.340605375833576
0.313545594847951
0.333336202173548
0.429598451260835
0.74563065059573
2.47744822663933
0.324325199021984
0.32962474544797
0.325585199773519
0.313264562198763
0.33203851408247
0.340791979983716
0.425173660079013
0.39755674808115
0.371453513184433
0.349849213189989
0.679139503872179
0.626574067493704
0.575515479759759
0.523762576060018
0.730553436452756
0.393991369517417
0.365530365900199
0.342255914791692
0.333138036755019
0.441821267850572
0.414409052074766
2.34880711750891
2.19723128332725
2.26653116115402
2.22078909971189
2.24231380698779
2.30858630443716
2.395343285436
2.42692522064383
0.313325061114831
0.315810107236091
0.349180893325672
0.4015600580727
0.475778539621855
0.509017132615987
0.534400039859139
0.551494453572601
0.43178776819735
0.352887253415486
0.314154614198197
0.308858426685409
0.343369267310523
0.450198538919745
0.773847657817074
2.47083289008969
0.312450103560462
0.321789281786067
0.329664396371093
0.340478595488702
0.327976906096871
0.323060992960355
0.31424469812019
0.30861692862187
0.341984710054497
0.353234926138199
0.445600504163102
0.418343164376696
0.390862341288408
0.366141394805912
0.34843934562507
0.710249868224163
0.661223202742087
0.613412065049526
0.568712945079128
0.52892775670648
0.758220715846435
0.414546505298414
0.391227459278698
0.358581308939413
0.334086854896723
0.346930715412412
0.562708382922843
0.433215832883804
2.47411473995905
2.42132769774104
2.14804542289601
2.22757321323731
2.21502793093128
2.23979253525561
2.3030424470522
2.38957271655893
2.3992461986987
0.28830753635557
0.381959637479985
0.410139126473759
0.473165842337327
0.501172447514155
0.530651085027377
0.553868753224905
0.571623763193588
0.448865232314122
0.365722723325373
0.320213250581357
0.302403402270737
0.310982022865788
0.355171358515469
0.469463687132571
0.799425956065049
2.46866900125961
0.314208381998266
0.307957602218531
0.311933355650555
0.321046601321814
0.327324027707071
0.339473675003948
0.35337882162794
0.340014131537702
0.327536247209026
0.327111023452475
0.302584060192273
0.320484581400377
0.31072839667595
0.3536654993811
0.366185054818312
0.464666752648875
0.438500885912521
0.411486927586905
0.385977862907909
0.366722912411818
0.377145353934963
0.737537738250356
0.692473665472976
0.648796676449087
0.605465304427211
0.578148610273367
0.783605998151555
0.433188913571022
0.41244696866616
0.388714163432294
0.36077845011106
0.362074656718125
0.465042585347113
2.42304839085477
0.450569431973241
3.3428139837743
2.40073355756387
2.16214924937418
2.21574796285578
2.21278556227899
2.23431071491134
2.29713054815974
2.385736101568
2.34978464287258
0.32534156253559
0.425749089598575
0.463080107607363
0.499817561145872
0.532109322194949
0.55765373045341
0.575430091591918
0.588512152550649
0.46537275171774
0.378453513085402
0.32842174081341
0.303455511568558
0.298910222132354
0.316536563605682
0.367354816820687
0.487268267041607
0.821889926825239
2.46721285842196
0.302753673070666
0.320916665551435
0.31496836929196
0.310019456683805
0.307818510181957
0.314020677679274
0.326979603068972
0.32811744678606
0.336978633492764
0.350928321249123
0.366602632057289
0.353788575510805
0.341772336309276
0.336551604172392
0.367977593684188
0.303816292376967
0.29910394537333
0.328807336851959
0.316192182521745
0.365708303330102
0.379032203312476
0.457267031457462
0.482285404361748
0.431425744832925
0.406570190577464
0.386235763874292
0.393426965778874
0.598754720726798
0.76247981664077
0.71967986186758
0.680734686627819
0.641050854020104
0.605510081111273
0.805540561969335
0.451654717004299
0.432782969159154
0.411406455772205
0.390875751990144
0.388031108479072
0.483707767973686
2.34197553983812
3.32881087242657
0.467360940126275
4.55077483082212
2.34602067852975
2.1477674129826
2.23452782794022
2.21411925927989
2.20748215166293
2.22788252820848
2.29251741650411
2.38344084145685
2.39770418206125
0.359106411879233
0.450994401950491
0.486323056292315
0.521264077814224
0.562892412719807
0.580498628898338
0.595390455205048
0.609405807277262
0.480655288738458
0.390871736785501
0.337446826723472
0.30789694135745
0.295854311592624
0.29992545992091
0.323677313193319
0.379273851236744
0.503465419017555
0.841356939166245
2.4668951946132
0.299232966127989
0.304430142596882
0.303880841906715
0.32954715704805
0.322540290983924
0.31903427927476
0.309692293204804
0.315270688661852
0.31024823538223
0.325464716402728
0.33612485092644
0.33288467446462
0.365535064819207
0.348057488250424
0.362698686354091
0.379776470046293
0.367770161253473
0.357012751715052
0.353502878147218
0.382886560139165
0.605193121121942
0.308355581143915
0.296225325293053
0.300040056883906
0.33792619322559
0.323211034441972
0.377491062886091
0.391571740457007
0.449869475860302
0.474572918861924
0.498294089730194
0.426194104437401
0.405413140302793
0.403584697343652
0.554889154173273
3.01866889215897
0.783926662936687
0.744347113812873
0.708240137150582
0.673614013855365
0.638345254695748
0.636694160821465
0.824698137891355
0.468813319176666
0.452875100010397
0.432118959303862
0.414979571217419
0.41684580748548
0.521043234170753
2.42845261624
5.01509197218613
0.483093860285961
3.10207750647328
2.27411149011693
2.15460844530162
2.26153344053849
2.22442033477093
2.20830470703108
2.20057994628106
2.22270271598849
2.28965620606452
2.38236365684814
2.36740622710538
0.428892983797295
0.463406701020841
0.520617753973373
0.571796204069763
0.581905110468131
0.598349603459686
0.613748304096043
0.62647706310518
0.495652556352797
0.402741927646038
0.346673207146784
0.313908296140816
0.297165491801087
0.293473767474965
0.303353103982414
0.331448382495308
0.390628188218221
0.51811315721909
0.85839316867879
2.46679049282945
0.300091939139712
0.296768661079533
0.299943914357561
0.309241038920103
0.306342025520763
0.308091429078331
0.338902444787437
0.331794428643579
0.327983049969091
0.333306339671726
0.314459036192902
0.311273580673429
0.322014139015872
0.319814599358422
0.36861643903255
0.33934938078267
0.346326595131401
0.357150439497644
0.543589050415125
0.35937158178665
0.374213021536137
0.392530203414414
0.38168170737772
0.372226719634381
0.371062081699603
0.404001148917185
0.630974492093562
3.30360539751528
0.297619914124787
0.314438742978862
0.293762296965268
0.303351144234307
0.347233365985867
0.330864071059149
0.388729493729484
0.403560792403476
0.444183297214031
0.466814613006105
0.490291903762694
0.512805076052202
0.423570083767066
0.412148202055571
0.478096736091397
1.67991104219586
4.65865409461501
0.802587824786647
0.765449782221547
0.733069959571343
0.701493462981896
0.669165230564157
0.645738733508621
0.723920281447958
0.841530982573521
0.484516690371551
0.470229495099606
0.456813377941335
0.440565418368247
0.443946653449222
0.568328861294223
2.41112394535074
3.18314892610515
0.497912294191291
2.94984524554481
2.36266174940435
2.19628629921379
1.59196270238708
2.26525913750716
2.23190617221058
2.21528541653508
2.20096011964747
2.19480756061346
2.21938742570722
2.2881357689512
2.38190428503346
2.39536856836269
0.506353426201017
0.600120981539074
0.60057649753814
0.596826646075744
0.604553689590797
0.617866778598099
0.630736312565802
0.640711744527435
0.509353232730931
0.414022611893304
0.355747029337602
0.320598537315625
0.300684144660484
0.29216346230551
0.294078769619041
0.308051849530029
0.339360681340308
0.401308576056686
0.531457212429363
0.873776632111767
2.4668034678231
0.298315067086515
0.300222424266113
0.303183361111323
0.298394173514561
0.29405235567174
0.302963048773399
0.311677295608063
0.315515222372815
0.311730684000352
0.320003795368789
0.348388582749142
0.341647125743598
0.338294776179478
0.344311164615819
0.380155030315036
0.320646604220044
0.314808856352035
0.317311082852134
0.32940123555536
0.348133833525472
0.547657735159205
0.346961346680867
0.351281662180918
0.35675494721794
0.435903612737305
1.56636988550214
0.370450147919604
0.3852189240438
0.404667619738906
0.394901773334376
0.387702696674548
0.388839184999924
0.425688178914656
0.664059362600304
3.24131708489703
5.05110434432978
0.292524364613173
0.30119369611114
0.321188147554613
0.294246557601304
0.307936437236513
0.356375428737268
0.338678487320266
0.399321632951938
0.414900087816545
0.440428983236916
0.460695260181054
0.482187411290471
0.504555601641351
0.526091998090456
0.424359053818147
0.435803446107393
0.736535182342392
1.42048635037573
3.14514135530042
0.819008696199947
0.783640916251649
0.754027981295652
0.726782520882555
0.696823542842538
0.667420499753345
0.665570734665789
0.82911438124673
0.856832814634643
0.499776393389436
0.487242631416861
0.476702339573238
0.47272890408825
0.490849022441478
0.615325182537798
2.41955515579585
2.97338146774666
0.511807735638303
2.90893691168294
2.35450586937432
2.28459542700326
1.33011056495169
2.24531974901342
2.23049527561319
2.21811438430007
2.20752192319565
2.19469793787492
2.19103909928755
2.21756790241337
2.28743052541122
2.38173936556587
2.37890978296669
0.583386471319035
0.662471156309188
0.621574188546138
0.626616365476109
0.632771535409292
0.639377795042177
0.647317515497535
0.654961695974882
0.521856197544644
0.424562054784266
0.364461513569599
0.327480828727227
0.305313692160224
0.293592758358987
0.290562851699071
0.296415031130084
0.313395113545982
0.347165445897241
0.411356040042892
0.543959380000793
0.88853874544656
2.46682486046457
0.300370569038962
0.294932379097025
0.302365212317511
0.302606074435039
0.301839046938017
0.311016510474815
0.302119542874562
0.293012541468811
0.294221712924758
0.307271294289203
0.317892849797209
0.318330308544845
0.322408232859315
0.325213404242959
0.350745025265976
0.357669630601736
0.35150658876165
0.349034405971506
0.356281079653288
0.393797556622284
0.560109905079064
0.319841554214668
0.327531816835623
0.317587578038238
0.332165473076842
0.336992191505651
0.425511267322526
1.43903496110997
0.355449841438649
0.351296000525429
0.379718487244768
0.367099275355427
0.65404750813728
1.28773559351046
0.381084702336633
0.395625601649226
0.41621322974939
0.407571815856782
0.402118721296935
0.406917347504724
0.449330112190212
0.693832374197461
3.25604552129252
4.97139369163596
3.26181752013953
0.290794013308179
0.293996430045109
0.305867548214803
0.328118910240067
0.296466299360257
0.313186561377584
0.365143640275175
0.346408082062865
0.409317272784533
0.425542841058193
0.438245623679198
0.456189795173776
0.475659656450158
0.496130258716518
0.517693307848681
0.538643372233837
0.429774722913094
0.485819531470085
0.701660704512743
1.17529416931808
2.99384104265282
0.834525966508092
0.799619116442973
0.771857856624707
0.747691431955866
0.722083604131746
0.693684348865407
0.667606391201038
0.680650388019198
0.802340237225722
0.873126629630434
0.514690260306405
0.50484811332085
0.496738197024522
0.495356148644606
0.526089882617229
0.662092601310697
2.40950400257465
2.9119638847983
0.524850078846939
2.8967587077685
2.34949394551208
2.27707424209564
1.15894916647633
2.23193092794415
2.22179420434589
2.21626831972999
2.21036759359203
2.20107616395284
2.1905155858372
2.1889425572849
2.21669132139056
2.28713937156013
2.38168824352773
2.38240017297806
0.654812311117874
0.72191650990145
0.665291503452166
0.6744636404339
0.662165879934166
0.660947293500411
0.664643589122698
0.671910734925974
0.533594104530061
0.43433843345604
0.372686171568561
0.33426487687999
0.310447616948618
0.296509733912581
0.290225628478797
0.291033980236136
0.299766472411582
0.31903117436677
0.354758254962226
0.420918702379366
0.556111514127957
0.906795829645746
2.90439332130078
0.304388581555198
0.305057019122216
0.29424882423392
0.294402275280199
0.297333279814245
0.311359361260702
0.302891355859287
0.30635826518068
0.306002787881197
0.32760866284042
0.306904396078241
0.294606094299169
0.290943027502402
0.296148129901116
0.31229322599851
0.332488722169485
0.325154956097958
0.325504236927975
0.329449524813099
0.357483384388443
0.426999501212723
0.366564484203855
0.361103450247295
0.359590805281852
0.368369013052955
0.408013263006711
0.572487965422118
1.37875969030663
0.320223317712417
0.32581159067703
0.334717037866891
0.324104205094416
0.361840316782402
0.344547450279826
0.607737205314064
1.20275109447392
0.355650406995919
0.364487665792289
0.360227827909093
0.427087493281619
0.377162314252082
0.625580632597417
1.08105397749774
0.391191558320334
0.405495394014389
0.419800929592391
0.427131801814323
0.41597991098985
0.423184971705209
0.470526103481825
0.721916713444042
3.2261316512002
5.0022109712845
3.26659512706145
3.01153703138383
0.290490044771063
0.291141675598277
0.296947224099422
0.311037901475431
0.334941548630999
0.299722999554402
0.318752082320404
0.373421039016025
0.353948556242073
0.418871250362387
0.435454332531388
0.43726402827886
0.452505688496804
0.470586358608882
0.489216628657711
0.508995029362067
0.53032316486091
0.55123077363456
0.438286341816398
0.484666896046015
0.620710570511455
1.02065936412884
2.94835624006392
0.855374743327214
0.815090062909221
0.78772945249257
0.765235015978554
0.74272228739915
0.717507638761991
0.6904196775267
0.664037257458513
0.670180216780912
0.751549245978617
0.894263356879826
0.528976389004031
0.522214484325366
0.519178529515148
0.519649020032352
0.55727063894869
0.702681035931041
2.40534949026091
2.91093428262149
0.537319470939026
2.91778078649691
2.27198641326246
2.3487146924844
1.06182469843271
2.2272684230955
2.2133530386852
2.21229118911971
2.2097071701344
2.20421383183987
2.1966441274209
2.18815870544459
2.18791861856322
2.21631455257064
2.7071307597127
2.38167508450848
2.37626736745139
0.716481218556727
0.784202102116011
0.705000406298666
0.721896257797332
0.682491721303186
0.679903091920897
0.683454720470547
0.686803116585417
0.545106501868635
0.443363260314681
0.380349507671509
0.340774795573026
0.315727399879117
0.300212540831303
0.291699257357207
0.289194858866342
0.292801241307186
0.303709276612807
0.324757596229509
0.362109733358737
0.430136775835969
0.568698107552908
0.952604365028375
2.92104338359407
0.309383841122234
0.296074507442713
0.309517263145798
0.297154775515375
0.314828495001548
0.291428763973389
0.295729342657933
0.295353509149864
0.30239383612649
0.329017038243484
0.304393796189568
0.305611744808705
0.310943254977763
0.313880278155788
0.357754555765039
0.312159466364529
0.297643794525178
0.290739402562926
0.290980727040659
0.2991673229017
0.31768449668172
0.36581428300833
0.340563435390703
0.332784674303943
0.332762421495393
0.336360454118194
0.432472846124712
0.590175706131572
0.374962071090721
0.370294221635326
0.369778172884689
0.379967240110147
0.42162154631688
0.585376592848986
1.31920951277105
1.16208178500906
0.322082943917816
0.324589760691731
0.332320122651607
0.3419622339325
0.334803948833845
0.404825396254362
0.351960726463818
0.592882523142911
1.03568402757692
0.357008202751227
0.362465257057759
0.373675028864902
0.37083849993288
0.42756733308026
0.386826595337182
0.562631212607211
0.95685566655401
0.400827863472292
0.415001073535862
0.431433352319128
0.429544678038636
0.437366693828339
0.438731092808988
0.489695718015232
0.745842588866219
3.21860277094289
4.95715369650079
3.27286446647006
3.03146654898004
2.97893413831095
0.291989695168746
0.289328584593103
0.292809453206218
0.300678516472886
0.316346777927862
0.341483077839803
0.303595221212291
0.324428140012267
0.381134395775228
0.361269251285135
0.428154872531235
0.444650188332209
0.436097953698787
0.44894380066113
0.466014775566481
0.483670516452385
0.501760500446533
0.521544084519295
0.543711374374989
0.564286947924504
0.43552608806284
0.462636797361549
0.558903322423244
0.927949922933572
2.95214330573793
0.836776155088077
0.894815540212005
0.804431335493175
0.780642203737864
0.759897120746147
0.737136353696835
0.712007729242444
0.684262669466688
0.65590078446829
0.650713023049964
0.709879183814601
0.917031692574172
0.542402889605703
0.537709066057511
0.540961618384934
0.542870426266449
0.586572952053965
0.737549764866023
2.39760178486484
2.92377499108353
0.549414542550814
2.93308969524941
2.22375395063571
2.26884820451437
2.34633918892266
0.994921658535204
2.20906935729682
2.20879830908133
2.20800771323101
2.20432214072086
2.19978748222903
2.19409303891374
2.18699713999023
2.585670794445
2.216168443361
2.69345577710372
2.79518955158757
2.37497633589161
0.770161549684553
0.839714622555565
0.738423852777659
0.76837759307834
0.711006904164287
0.697935370904262
0.700414965060925
0.704138146627385
0.555810562660878
0.451712625333223
0.387407613602975
0.346902468614166
0.320930527380905
0.304280824780872
0.294205030068694
0.289440205065348
0.289679449331744
0.295390243125209
0.307976397067275
0.330448493647655
0.369199803094737
0.439086883162386
0.583055764493535
0.974637247408617
2.95315299808918
0.314829984596303
0.314795878133119
0.29927590485632
0.291418496513433
0.299322058532887
0.319826445182882
0.292803335450952
0.302810046290336
0.333172797262566
0.290834536196582
0.298286347904482
0.295573267906221
0.297594926645244
0.311139533061275
0.359299045293992
0.307363383978425
0.305340566208591
0.309452001511991
0.316010781556051
0.325594005854119
0.398224050326714
0.317533866255408
0.301441725076308
0.292309727383136
0.28925387082098
0.292400732854861
0.302861550850218
0.323233600188315
0.439771415392816
0.37460074260848
0.348796250835873
0.340394973834389
0.339847661264795
0.342973849428375
0.581617075149228
0.582436338301583
0.382792521533428
0.378962658556024
0.379496231569424
0.390989196297935
0.434396255285934
0.59752270407292
1.28360233777507
1.13115181960149
1.01551012766254
0.323873035873058
0.324988572990863
0.33004993050516
0.339076864278024
0.349144726611649
0.346198206659544
0.408449679588566
0.359197525665207
0.545053724297415
0.935049871969205
0.357801731235157
0.360569007890633
0.370385754922208
0.382727467854503
0.370026867999842
0.408792942407419
0.396113417190187
0.510961127859848
0.877953692701003
0.410186809717059
0.424366847766535
0.442213647035827
0.442345942345216
0.453340967628664
0.446870839774662
0.507214128362614
0.766972640267811
3.20080418080156
4.94180735191476
3.2603750033445
3.03632541121167
2.99925136744661
2.98634317350453
0.29451832458773
0.289594184755045
0.289708598818523
0.295325122757711
0.304770157461699
0.321572731542216
0.347636469826637
0.30781253504103
0.330085153131435
0.388244469631561
0.368348892999957
0.437160420089881
0.45315237338357
0.431374025121078
0.444666890386838
0.461167458915376
0.478486572891218
0.495734596315175
0.514136074381258
0.535138140395155
0.557934683103692
0.577181783669642
0.425471794166881
0.438928700026015
0.516069351977215
0.864379644112859
2.96197198413609
0.844126853961307
0.858550863350719
0.916716963404594
0.794871186344153
0.77480361046197
0.753581262461708
0.73022504197977
0.704540931921113
0.675837207687541
0.647281401369463
0.637936975565031
0.6880844803595
0.954878918850822
0.554912966717577
0.553055891973372
0.561117684903777
0.563686777477376
0.612765274692072
0.767685240903722
2.3930737847673
2.93200934036369
0.5607166097952
2.92380104586802
2.20706769054583
2.22026896793293
2.26504130250902
2.34583500733583
0.957956598359576
2.20706248719674
2.20681929817365
2.20366073240909
2.20012203751195
2.19714758352598
2.19281960586634
2.18648836811552
2.57537938674779
2.63394562527459
2.73270603799819
2.83178028951402
2.37375461096372
0.817017254258154
0.885380808976848
0.761005167084743
0.800990069509124
0.726429843213705
0.71705809094385
0.717445035079032
0.724878870293861
0.566350608456778
0.45935492589841
0.393849071714988
0.352579543698674
0.325915082410958
0.308449516504211
0.297270209896409
0.29092999233397
0.288872866434506
0.291167928472336
0.298490439563718
0.312385494246843
0.336008425760486
0.375973882618324
0.447719395640323
0.594935961357681
0.988977159047843
2.9130711881914
0.320477091045175
0.302765100536907
0.325521893106461
0.320290213306826
0.303195073047933
0.293124514769532
0.29307851532417
0.289277743376336
0.305384279973354
0.338623166060701
0.295543795721511
0.291053776251258
0.312127191431596
0.363474226909048
0.291773396750082
0.301644915575687
0.297342332495459
0.295947069587123
0.30131516662555
0.323473993633811
0.39802776342013
0.31129485412425
0.305564447045921
0.30803513791332
0.313999470531698
0.321326971837811
0.337500349916001
0.404023764030089
0.305585277465143
0.322810642965441
0.294893485580972
0.289579752903156
0.289377355696336
0.294733164336834
0.306951547461993
0.328801625381718
0.579641914323438
0.447673687810435
0.383344626409791
0.356861578570935
0.347759467256871
0.34660299261297
0.349187137979406
0.579662484310775
0.543218194865203
0.387015949240282
0.390011369278065
0.388596554905479
0.401323704081075
0.446271694504605
0.60922325612461
1.25642156474593
1.11325989882344
1.00368681518265
0.930028607621878
0.327866921841178
0.323262131474841
0.327109019024219
0.336113973632419
0.345903114940205
0.356217386151674
0.347125593612531
0.393937148350891
0.36623446001759
0.502791817865758
0.868705739083731
0.357939862427427
0.354767268970976
0.366900106714812
0.378654262991033
0.391535816267672
0.361359133284582
0.387165172916775
0.405188112904146
0.472544474258819
0.82518548283973
0.419498194946319
0.433442193197745
0.452218548212778
0.454106702063136
0.466681046184157
0.523027003524636
0.455599884532666
0.785649731702307
3.19250438145758
4.91093012114628
3.2461173490392
3.02802349697294
3.00410440287329
3.00760916903961
2.99479243649127
0.297603070531097
0.291102837564197
0.288918264459467
0.291120479888693
0.298374159166894
0.308957431276065
0.326574974616911
0.353335473880339
0.312187911785559
0.335623555558293
0.394732007247921
0.375114273657071
0.44567198154561
0.460926989724191
0.423558072188631
0.438668838554668
0.455511248077786
0.472871105728247
0.490009253003684
0.507222370054083
0.528376633274385
0.548465614532629
0.57068274318049
0.589664007647536
0.413295287138201
0.419487440898682
0.485916860047109
0.814528774078335
2.96529569191004
0.865526685376651
0.811284513260945
0.899293249838032
0.937132713736969
0.78813751874319
0.767878829657617
0.745681163965335
0.721755471640156
0.695677768731325
0.667257759320534
0.640137304451047
0.631711508236303
0.680847638127401
0.971416384809782
0.566691267037653
0.565889696098432
0.57825092608357
0.581265442936842
0.635380559344567
0.793783380513613
2.39028610197061
2.93583888189193
0.571385517250104
2.95713777276846
2.20611029106095
2.20380046122113
2.21545007878158
2.26804298784447
2.36559469273718
0.939806742628476
2.20655803189063
2.20340440419824
2.19978473859533
2.19749088822188
2.19580431615995
2.19225819834781
2.1862885567589
2.59452826313329
2.6782985483187
2.77355227885805
2.86365314383515
2.37374233840886
0.857829471336717
0.926938176921009
0.789727298292655
0.837710738086081
0.741010102327665
0.731975643613809
0.732756898915355
0.742174231326281
0.57667293739927
0.466374217379699
0.399669455782905
0.357767913435117
0.330589752576211
0.312546045661421
0.300592524031298
0.293148219352502
0.289492306958966
0.289456365866726
0.293319024019102
0.301883452378005
0.31679994469571
0.341347030498941
0.38233536544474
0.455510982525637
0.604567221707705
0.998710983182532
0.326149477392283
0.306861447547532
0.331449461741597
0.294987922190625
0.309115618933916
0.344632590265666
0.325659738879969
0.307430758156136
0.295809897447083
0.289723741696859
0.296167709009591
0.289752543255745
0.288907121985802
0.315090429635527
0.368891059410967
0.291875712915431
0.299785518851538
0.291178407209465
0.324866948508564
0.401056110937765
0.293760992989307
0.30549942702906
0.300160767445421
0.296517856395048
0.296845743678659
0.305954081838349
0.335734768686411
0.405443780662542
0.314356943746002
0.305892297905224
0.306693586285229
0.311844927259058
0.318954750103154
0.326730642117932
0.33973400799628
0.392526719707451
0.298022331524419
0.309812960324536
0.327852602292019
0.291136654918287
0.288641103093385
0.290601255647783
0.297653186363524
0.311238730104519
0.334280097531496
0.581383932711235
0.58072608975425
0.455765163242323
0.391782022558422
0.364568402518138
0.354732834538382
0.352929363203551
0.35493629645389
0.546762200993342
0.507073566013818
0.396983945868613
0.394418400548192
0.396589475571234
0.410850225992287
0.457195186940216
0.620303543736826
1.24083951631175
1.10267973804817
0.998656137802908
0.930430601350807
0.873663502351956
0.325510061268459
0.333055024663843
0.321902645983168
0.325469362819593
0.342458321614412
0.352707668855429
0.363143855800098
0.340201173907594
0.375096993324943
0.372965082782369
0.468721523082223
0.823409933248714
0.362768392034129
0.353568424844081
0.348251599585814
0.374283887850135
0.3869001763514
0.400129622171649
0.349574118623837
0.367414982823519
0.414285924951474
0.443115224860798
0.782241670275796
0.428454311565718
0.44188412719057
0.461226249463956
0.464685873555447
0.478581661461125
0.537099463634901
0.802254842581115
0.463541893460522
3.18687347633969
4.89532849536336
3.23124746460883
3.01425696775527
2.99546181768828
3.01213348129328
3.01563612005647
2.99476254857659
0.293338109647326
0.300941495743548
0.289553932869617
0.289422610253613
0.293218516004958
0.301732895748887
0.313068494592949
0.331263461273172
0.358541681097935
0.31658023595512
0.340946679727148
0.400588294292203
0.381448697309044
0.453431693495552
0.467998338684141
0.43100291449188
0.414191132064725
0.448688277544352
0.466424051291824
0.483819670275344
0.500797703197586
0.519005259697473
0.541495121213409
0.562108855194298
0.581906225272874
0.599351159345172
0.401281905878474
0.403564355143798
0.463418568961732
0.786030952750302
2.9678058328767
0.887052993935306
0.830949042883022
0.800657990646739
0.919172706444961
0.952468901322655
0.780662370604202
0.759310842549657
0.736379499784599
0.712149665835663
0.686257147853949
0.659462772269263
0.636298828474768
0.633797439613487
0.688908093897381
0.984598607909849
0.5772050732391
0.577346504616157
0.594325938869752
0.597791691674717
0.65526076589974
0.816380855457521
2.38919054722817
2.95106597010917
0.581180093538445
2.91143613403353
2.20623418261256
2.20312079506815
2.19825996487358
2.21803830807898
2.29446167325043
2.39560717890876
0.93226282129232
2.2037030988029
2.19980732289069
2.19720864573825
2.19611706650936
2.19520612320231
2.19203738408044
2.61704513364209
2.63322531882629
2.71974553618671
2.81065751256069
2.37381029465978
0.893506149515562
0.957934082763302
0.806447459377735
0.864974809184227
0.756995105816438
0.74787100073108
0.744710301274774
0.755497052459427
0.585595286366499
0.47271580669232
0.404881266769523
0.362448924729643
0.334897695212752
0.316456731102314
0.303972000662878
0.29576096245119
0.290986310373949
0.289326030645316
0.290826254556305
0.295889461211795
0.305406233398876
0.321109509746385
0.346377301133669
0.388154906731806
0.462330305267263
0.612942758254695
0.331654852411264
0.311230479726756
0.3373313070689
0.297824518064938
0.313422985292666
0.350787468759026
0.298329826663447
0.290384188795809
0.319097807672858
0.374869047537316
0.33077357140296
0.311729386651009
0.299017353416489
0.291372548992788
0.288283141330235
0.290897413083487
0.300783068013621
0.288552983247538
0.289780205538094
0.32810898290909
0.405659068971048
0.290776082933093
0.293268146009555
0.304932891861115