/*--------------------------------*- C++ -*----------------------------------*\
  =========                 |
  \\      /  F ield         | OpenFOAM: The Open Source CFD Toolbox
   \\    /   O peration     | Website:  https://openfoam.org
    \\  /    A nd           | Version:  12
     \\/     M anipulation  |
\*---------------------------------------------------------------------------*/
/*   Windows 32 and 64 bit porting by blueCAPE: http://www.bluecape.com.pt   *\
|  Based on Windows porting (2.0.x v4) by Symscape: http://www.symscape.com   |
\*---------------------------------------------------------------------------*/
FoamFile
{
    format      ascii;
    class       volScalarField;
    location    "200";
    object      p;
}
// * * * * * * * * * * * * * * * * * * * * * * * * * * * * * * * * * * * * * //

dimensions      [0 2 -2 0 0 0 0];

internalField   nonuniform List<scalar> 
10176
(
83333.3333292216
83333.3333293407
83333.3333276622
83333.3333203043
83333.3333202889
83333.3333292238
83333.3333277384
83333.3333271865
83333.3333195384
83333.3333037717
83333.3333195146
83333.3333199534
83333.3333032141
83333.3333291009
83333.3333275853
83333.333327232
83333.3333267985
83333.3333195469
83333.333303989
83333.3332843027
83333.3333034497
83333.3333191621
83333.3333194099
83333.3333195125
83333.3333023382
83333.3332833913
83333.3333287491
83333.3333273274
83333.3333271409
83333.3333268513
83333.3333266263
83333.3333195376
83333.3333045831
83333.3332842261
83333.3332613911
83333.3333039963
83333.3333025226
83333.3332833357
83333.3333190583
83333.3333186154
83333.3333193948
83333.3333185865
83333.3333009321
83333.3332820126
83333.3332603218
83333.3333284438
83333.3333268154
83333.3333269406
83333.3333267627
83333.3333267126
83333.3333265616
83333.3333198255
83333.3333056933
83333.3332847448
83333.3332611294
83333.3332359826
83333.3333051648
83333.333283796
83333.3333030478
83333.333281909
83333.3333011379
83333.3332600506
83333.3333189313
83333.3333184187
83333.3333177525
83333.3333196744
83333.3333174903
83333.333298667
83333.3332797664
83333.3332585413
83333.3332348106
83333.3333280513
83333.3333262197
83333.3333265557
83333.3333265473
83333.333326641
83333.3333266503
83333.333326535
83333.3333199123
83333.3333069262
83333.3332862946
83333.3332614329
83333.3332357908
83333.3332084595
83333.3333041899
83333.3332854136
83333.3333064671
83333.3332602116
83333.3332823564
83333.333301619
83333.3332582957
83333.3332797347
83333.3332990315
83333.3332345958
83333.3333192323
83333.3333181652
83333.3333174249
83333.3333170789
83333.3333197965
83333.3333157097
83333.3332952869
83333.3332762203
83333.3332556825
83333.3332328228
83333.3332073736
83333.3333276994
83333.3333274821
83333.3333261848
83333.3333262722
83333.3333264843
83333.3333265949
83333.3333266449
83333.3333265344
83333.3333200913
83333.3333077337
83333.3332882556
83333.3332628521
83333.3332357178
83333.3332084021
83333.3331791959
83333.3332840431
83333.3333055807
83333.3333027245
83333.3332874321
83333.3332616633
83333.3333073597
83333.3332343567
83333.3332583778
83333.3332801341
83333.3332994505
83333.3332325985
83333.333255472
83333.33327635
83333.3332962206
83333.3332072455
83333.333319442
83333.3333186313
83333.3333171565
83333.3333164867
83333.333317746
83333.3333199572
83333.3333157817
83333.3332897719
83333.333270735
83333.3332512133
83333.3332296535
83333.3332053694
83333.3331781885
83333.3333252142
83333.333327824
83333.3333260272
83333.3333261011
83333.3333263097
83333.3333264648
83333.333326604
83333.333326671
83333.3333265812
83333.3333202083
83333.3333083375
83333.3332898731
83333.3332649618
83333.3332366117
83333.3332079876
83333.3331792557
83333.3331482685
83333.3332861668
83333.3332819173
83333.3332599385
83333.3333066042
83333.333304262
83333.3333006068
83333.3332891082
83333.3332638248
83333.3332352689
83333.3333080038
83333.3332066454
83333.3332323005
83333.3332555544
83333.3332768234
83333.3332965821
83333.3332052109
83333.3332294131
83333.3332510481
83333.3332713979
83333.3332925918
83333.3331781382
83333.3333196097
83333.3333188948
83333.3333178115
83333.3333162349
83333.333315338
83333.3333197683
83333.3333200656
83333.3333115966
83333.3332815319
83333.3332617946
83333.3332444126
83333.3332248068
83333.3332021887
83333.3331762767
83333.3331473593
83333.3333159127
83333.3333274508
83333.3333260766
83333.3333262108
83333.3333263118
83333.3333264908
83333.3333266432
83333.3333267312
83333.3333266496
83333.3333203406
83333.3333087344
83333.3332910411
83333.3332670045
83333.3332383298
83333.3332082292
83333.3331785726
83333.3331484281
83333.3331158475
83333.3332879515
83333.3332622256
83333.3332841989
83333.3332788397
83333.3332573181
83333.3332333344
83333.3333073178
83333.3333053867
83333.3333023406
83333.3332978808
83333.3332659049
83333.3332903151
83333.3332370625
83333.3332068999
83333.3333084095
83333.3331773237
83333.3332045554
83333.3332291713
83333.3332513581
83333.3332722699
83333.3332930523
83333.333176173
83333.3332019921
83333.3332245828
83333.3332444057
83333.3332647043
83333.3331473831
83333.3333197149
83333.3333190647
83333.3333180931
83333.333316844
83333.3333152762
83333.3333179696
83333.3333089322
83333.3333201816
83333.3332788668
83333.3332464855
83333.3332342805
83333.3332177359
83333.3331974803
83333.3331732488
83333.3331455772
83333.3331150059
83333.3333260054
83333.3333276454
83333.3333261835
83333.3333263158
83333.3333263662
83333.3333265428
83333.3333267138
83333.3333268085
83333.3333267531
83333.3333204515
83333.3333090021
83333.3332918117
83333.333268587
83333.3332402756
83333.3332092975
83333.3331781671
83333.3331476291
83333.3331160802
83333.3330820347
83333.3332644035
83333.3332892332
83333.3332861205
83333.3332352754
83333.3332598107
83333.3332813494
83333.3332535308
83333.3332747514
83333.3332304486
83333.3332049162
83333.333307757
83333.3333061565
83333.333303569
83333.3332996605
83333.3332947949
83333.3332675221
83333.3332390597
83333.3332911068
83333.3332080712
83333.333176935
83333.3333086761
83333.3331753101
83333.3331464802
83333.3332013872
83333.3332245902
83333.3332455093
83333.3332667302
83333.3332917623
83333.3331455201
83333.3331730716
83333.3331972299
83333.3332176133
83333.3332350238
83333.3331150885
83333.3333198243
83333.3333191635
83333.3333183026
83333.3333173363
83333.3333156177
83333.3333182279
83333.3333144978
83333.3332840586
83333.3333202826
83333.3332168352
83333.3332171455
83333.3332197797
83333.3332080616
83333.3331909404
83333.3331688516
83333.3331427455
83333.3331133477
83333.3330812365
83333.3333277914
83333.333327194
83333.3333265294
83333.3333263878
83333.3333264218
83333.3333266255
83333.333326801
83333.3333269152
83333.3333269029
83333.333320579
83333.3333091719
83333.3332923017
83333.3332696728
83333.3332419149
83333.3332107909
83333.3331785218
83333.3331467098
83333.333115215
83333.3330823337
83333.3330470013
83333.3332373746
83333.3332660884
83333.33326214
83333.3332900661
83333.3332874955
83333.3332834348
83333.3332326219
83333.3332062394
83333.3332563418
83333.3332774859
83333.3332262992
83333.3332484813
83333.3332696884
83333.3332019602
83333.3331750024
83333.3333080313
83333.3333066199
83333.3333044327
83333.3333011248
83333.3332965973
83333.3332944247
83333.3332686375
83333.3332407449
83333.33320964
83333.3332916034
83333.3331774043
83333.33314558
83333.3333088437
83333.3331722265
83333.3331445715
83333.3331141438
83333.3331967955
83333.3332182843
83333.3332382155
83333.333259338
83333.3332865796
83333.3331133353
83333.3331425814
83333.3331685641
83333.3331906159
83333.3332082109
83333.3332190004
83333.3330814082
83333.3333199287
83333.3333192712
83333.333318364
83333.3333175447
83333.3333164798
83333.3333177883
83333.3333166746
83333.3332234164
83333.3333204079
83333.3331892896
83333.3331876353
83333.3331998659
83333.3331960017
83333.3331825472
83333.3331629015
83333.3331386632
83333.3331107127
83333.3330796777
83333.3330461948
83333.3333283454
83333.3333276768
83333.3333266701
83333.3333264056
83333.3333264988
83333.3333267227
83333.3333269068
83333.3333270643
83333.3333270744
83333.3333207717
83333.3333092963
83333.3332925862
83333.3332703546
83333.3332430681
83333.3332121619
83333.3331793844
83333.3331464128
83333.333114015
83333.3330815276
83333.3330473745
83333.3330110745
83333.3332348798
83333.3332391236
83333.3332079159
83333.3332672419
83333.3332639217
83333.3332588737
83333.3332905772
83333.3332883749
83333.3332849098
83333.3332797554
83333.3332035009
83333.3332288278
83333.3331756147
83333.3332517178
83333.333272772
83333.3332207148
83333.3331977192
83333.3332423552
83333.3332632725
83333.3331720892
83333.3331437418
83333.3333082079
83333.3333069101
83333.3333048925
83333.3333020107
83333.3332983287
83333.3332957702
83333.3332892912
83333.3332419587
83333.3332693372
83333.3332110626
83333.3331783612
83333.3332918885
83333.333145398
83333.3331129744
83333.3333089678
83333.3331677901
83333.333141639
83333.3331123773
83333.3330805256
83333.3331905412
83333.3332102582
83333.3332284454
83333.3332345189
83333.3332317053
83333.333079759
83333.3331105747
83333.3331383729
83333.3331624693
83333.3331820576
83333.3331958589
83333.3331998006
83333.3330464746
83333.3333200485
83333.3333193803
83333.3333184212
83333.333317434
83333.3333167166
83333.3333182653
83333.3333172805
83333.3331933545
83333.3333205978
83333.3331659518
83333.333163791
83333.333178177
83333.333191293
83333.3331806618
83333.3331724409
83333.3331553686
83333.3331331776
83333.3331069383
83333.3330772357
83333.3330446406
83333.3330101483
83333.333328801
83333.3333279169
83333.3333266764
83333.3333264777
83333.333326607
83333.333326829
83333.3333270517
83333.3333272226
83333.3333272081
83333.3333209669
83333.3333094113
83333.3332927317
83333.333270715
83333.3332437809
83333.333213151
83333.3331802556
83333.3331465974
83333.3331132098
83333.3330802444
83333.3330467675
83333.3330115294
83333.3329749086
83333.3332367226
83333.3332053278
83333.3332313086
83333.3332403657
83333.3332094048
83333.3331766774
83333.3332651215
83333.3332679541
83333.3332607607
83333.3332544692
83333.3332908643
83333.333288901
83333.3332858068
83333.3332812575
83333.3332751907
83333.3331728857
83333.3331995748
83333.3332237334
83333.3331436857
83333.3332461926
83333.3332660983
83333.3331919823
83333.3332137385
83333.3331679145
83333.3332345396
83333.3332391266
83333.3331409377
83333.3331112488
83333.3333083276
83333.3333070947
83333.3333051486
83333.3333023437
83333.3332991616
83333.3332968206
83333.3332910304
83333.3332341821
83333.3332120905
83333.3332427017
83333.3332697099
83333.3331792946
83333.3331456837
83333.3332920291
83333.3331122722
83333.3330792886
83333.3333090814
83333.3331618514
83333.3331374627
83333.3331096483
83333.3330788679
83333.3330458303
83333.3331825755
83333.333200077
83333.3332121964
83333.3332002263
83333.3332000735
83333.3330448686
83333.3330771933
83333.3331066772
83333.3331327723
83333.3331547158
83333.3331715447
83333.3331805615
83333.3331805175
83333.3330106003
83333.333320223
83333.3333194889
83333.3333185382
83333.3333174318
83333.3333164561
83333.3333184512
83333.3333178257
83333.3331687087
83333.333320781
83333.3331438626
83333.333141706
83333.3331562348
83333.3331665393
83333.3331632749
83333.333159633
83333.3331461487
83333.3331262138
83333.3331018737
83333.3330738062
83333.3330423587
83333.3330084794
83333.3329739725
83333.3333290106
83333.3333280561
83333.333326789
83333.333326602
83333.3333267136
83333.3333269722
83333.3333272025
83333.3333273427
83333.3333273127
83333.3333210531
83333.3333094822
83333.3332927799
83333.333270834
83333.3332441072
83333.3332137039
83333.3331808437
83333.3331468506
83333.3331127667
83333.3330790938
83333.333045535
83333.3330112391
83333.3329754697
83333.3329392992
83333.3332380038
83333.3332069022
83333.3332332617
83333.3331740759
83333.3332016073
83333.3332264745
83333.333241116
83333.3332104648
83333.3331776743
83333.3331440682
83333.3332619829
83333.3332658412
83333.3332683205
83333.3332564037
83333.3332490982
83333.3332909943
83333.3332891837
83333.3332863065
83333.3332820638
83333.3332765903
83333.3332679848
83333.3331689529
83333.3331410204
83333.3331942553
83333.3332173571
83333.3331106502
83333.3332386645
83333.3332423087
83333.3331622898
83333.3331846772
83333.3332048057
83333.3331369265
83333.3332186624
83333.3332051281
83333.3331085913
83333.3330776742
83333.333308427
83333.3333072038
83333.3333053304
83333.3333025314
83333.3332992863
83333.3332972175
83333.3332919094
83333.3332371362
83333.3332041931
83333.3331799196
83333.3332126617
83333.3332430345
83333.3332698259
83333.3331460044
83333.3331119272
83333.3332920664
83333.3330782174
83333.3330446525
83333.3333091451
83333.3331543225
83333.3331319187
83333.3331057724
83333.3330763415
83333.3330442734
83333.333010362
83333.3331727497
83333.3331856303
83333.3331876787
83333.3331713103
83333.3331731496
83333.3330089794
83333.3330425014
83333.3330736264
83333.3331015404
83333.3331256965
83333.3331452835
83333.3331585192
83333.3331635526
83333.3331582481
83333.3329745824
83333.3333203952
83333.3333196504
83333.3333186354
83333.3333175521
83333.3333164722
83333.3333184564
83333.3333180974
83333.3331455956
83333.3333208675
83333.3331232571
83333.333121012
83333.3331351864
83333.3331434685
83333.3331439833
83333.3331441997
83333.3331346281
83333.3331176121
83333.3330954163
83333.3330692044
83333.3330393876
83333.333006295
83333.3329728268
83333.3329384942
83333.3333291797
83333.3333281854
83333.333326881
83333.3333266933
83333.3333268509
83333.3333271176
83333.3333273148
83333.3333274399
83333.3333273769
83333.3333210927
83333.3333094713
83333.3332927282
83333.3332707597
83333.3332441044
83333.3332138329
83333.3331810358
83333.3331468869
83333.3331123727
83333.3330781252
83333.3330442443
83333.3330102231
83333.3329755045
83333.3329398791
83333.3329047928
83333.3332387521
83333.3332345649
83333.3332079935
83333.3331751417
83333.3332032809
83333.3332285056
83333.3331703024
83333.3331414999
83333.3331965254
83333.3332203163
83333.3332414381
83333.3332110418
83333.3331783287
83333.3331444446
83333.3331103851
83333.3332575563
83333.3332626711
83333.3332661881
83333.3332684172
83333.333250932
83333.3332412819
83333.333291011
83333.3332892905
83333.333286552
83333.3332824512
83333.3332771611
83333.3332688228
83333.3332438966
83333.333163615
83333.333137165
83333.3331080879
83333.3331874192
83333.3332088852
83333.3330766898
83333.3332228525
83333.3332081254
83333.3331551024
83333.3331315486
83333.3331754636
83333.3331907197
83333.3331047983
83333.3331932967
83333.3331752242
83333.3330751746
83333.333043183
83333.333307285
83333.3333084783
83333.333305414
83333.3333026724
83333.3332993555
83333.3332971284
83333.3332924567
83333.3332389316
83333.3332071292
83333.333176931
83333.3331801269
83333.3331460792
83333.3332127913
83333.3332430213
83333.3332697373
83333.3331116012
83333.333077336
83333.333291999
83333.3330434284
83333.3330094064
83333.3333091279
83333.3331451053
83333.3331249231
83333.3331006609
83333.3330727932
83333.3330419591
83333.3330089033
83333.3329747115
83333.3331600337
83333.3331674984
83333.3331626754
83333.3331458254
83333.3331480192
83333.3329732954
83333.3330067515
83333.3330393729
83333.3330689604
83333.3330950839
83333.3331170772
83333.3331337193
83333.3331432606
83333.3331445368
83333.3331365009
83333.3329390974
83333.3333204812
83333.3333198095
83333.333318772
83333.3333175811
83333.3333164473
83333.3333184262
83333.3333183159
83333.3331241462
83333.3333209114
83333.3331047215
83333.3331151606
83333.3331024789
83333.3331218931
83333.3331242185
83333.3331268313
83333.3331208665
83333.3331070898
83333.3330874462
83333.333063303
83333.3330353642
83333.3330038692
83333.3329707814
83333.3329376459
83333.3329039879
83333.3333292413
83333.3333282359
83333.3333269027
83333.3333268192
83333.3333269822
83333.3333272219
83333.3333274047
83333.3333275052
83333.3333274259
83333.3333210752
83333.3333094101
83333.3332925673
83333.3332705109
83333.3332438196
83333.3332135725
83333.3331808008
83333.3331465672
83333.333111781
83333.3330771184
83333.3330428792
83333.3330089098
83333.3329747118
83333.3329400362
83333.3329051137
83333.3328701713
83333.3332390422
83333.3332085594
83333.3332352739
83333.3332043852
83333.333229761
83333.3331758148
83333.3331419228
83333.3331714395
83333.3331982748
83333.3332223115
83333.3331651343
83333.3331377443
83333.3331078851
83333.3331898872
83333.3332118295
83333.3332413993
83333.3332111561
83333.333178538
83333.333144542
83333.3331101038
83333.3330758697
83333.3332518478
83333.3332581171
83333.3332629552
83333.3332662448
83333.3332682989
83333.3332426774
83333.3332251438
83333.3332909181
83333.3332892706
83333.3332866009
83333.3332825764
83333.3332772981
83333.3332689037
83333.3332438623
83333.3332092678
83333.3331567124
83333.3331319441
83333.3331043716
83333.3330742577
83333.3331785454
83333.3331949249
83333.3330420033
83333.3331974167
83333.3331775144
83333.3331461319
83333.3331247015
83333.3330997368
83333.3331629475
83333.3331722249
83333.3330716379
83333.3331674859
83333.3331479676
83333.3330408846
83333.3330080533
83333.3333073136
83333.3333054513
83333.333308451
83333.3333026633
83333.3332992527
83333.3332967861
83333.3332924549
83333.3332395455
83333.3332081733
83333.3331790052
83333.3331499971
83333.3331798901
83333.333145774
83333.3331110473
83333.3332125182
83333.3332427148
83333.3332694676
83333.3330763941
83333.3330421299
83333.3332918212
83333.3330081563
83333.3329739814
83333.3333090587
83333.3331336997
83333.3331163885
83333.3330942317
83333.3330681283
83333.3330387736
83333.3330067762
83333.3329734423
83333.3329393345
83333.3331448129
83333.3331474086
83333.3331391072
83333.3331228723
83333.3331250727
83333.3329712245
83333.3329380711
83333.3330040981
83333.3330352586
83333.3330631131
83333.3330871953
83333.3331066176
83333.3331200546
83333.3331263259
83333.3331247074
83333.3331158361
83333.3329043642
83333.333320518
83333.3333198806
83333.333318897
83333.3333176725
83333.3333162744
83333.3333182827
83333.3333183185
83333.3331050359
83333.3333209044
83333.3330889681
83333.3331052861
83333.3330970787
83333.3330868847
83333.3331026762
83333.3331088118
83333.3331054555
83333.3330947787
83333.3330778683
83333.3330560293
83333.3330301238
83333.3330005543
83333.3329681196
83333.3329360549
83333.3329027699
83333.3328697019
83333.3333292482
83333.3333282319
83333.3333269424
83333.3333269382
83333.3333270706
83333.3333272997
83333.3333274701
83333.3333275457
83333.3333274891
83333.3333210168
83333.333309296
83333.3332923149
83333.3332700986
83333.3332432829
83333.3332129602
83333.3331801449
83333.3331458296
83333.3331108548
83333.3330758784
83333.3330413301
83333.3330072525
83333.3329733801
83333.332939334
83333.3329051046
83333.3328704797
83333.3328351507
83333.3332354849
83333.333238949
83333.3332086312
83333.3331760023
83333.3332049018
83333.3332303475
83333.3331721079
83333.3331993357
83333.3332233808
83333.3331420223
83333.3331076252
83333.3331382002
83333.3331663158
83333.3331916245
83333.3332135735
83333.3331583557
83333.3331326078
83333.3331042098
83333.3330734694
83333.333181045
83333.3331976873
83333.3332410551
83333.3332108512
83333.3331782813
83333.3331442329
83333.3331095646
83333.3330749606
83333.3330407442
83333.333243116
83333.333252115
83333.3332582449
83333.3332629252
83333.3332660707
83333.3332679922
83333.3332259319
83333.3331994665
83333.333290712
83333.3332891314
83333.3332865055
83333.3332824838
83333.3332771295
83333.333268503
83333.3332429741
83333.3332088766
83333.3331780721
83333.3331252202
83333.3331479075
83333.333099354
83333.333070732
83333.3330397258
83333.3331660768
83333.3331761856
83333.333006842
83333.3331706933
83333.3331491848
83333.3331347843
83333.3331162383
83333.3330933201
83333.3330669355
83333.3331475891
83333.3331513573
83333.3330376356
83333.3331423463
83333.3331237165
83333.333005951
83333.332972754
83333.3333072567
83333.3333054247
83333.3333026168
83333.3333083634
83333.3332989859
83333.3332962665
83333.3332920826
83333.3332391189
83333.3332076594
83333.3331792085
83333.3331508702
83333.3331254817
83333.3331792198
83333.3331450333
83333.3331101347
83333.3330751888
83333.3332118838
83333.3332421501
83333.3332690304
83333.3330406443
83333.333006546
83333.3332915491
83333.332972668
83333.3329386639
83333.3333089357
83333.3331202623
83333.333106056
83333.3330863896
83333.3330622679
83333.3330345834
83333.3330039539
83333.3329714889
83333.3329382317
83333.3329044451
83333.3331277205
83333.3331268091
83333.333117316
83333.3331027607
83333.3331048196
83333.332968599
83333.3329363625
83333.3329032309
83333.3330006543
83333.3330300595
83333.3330559436
83333.3330776982
83333.3330943766
83333.3331049
83333.3331086552
83333.3331055916
83333.3330972626
83333.3328699893
83333.3333205087
83333.3333198893
83333.3333189294
83333.3333177689
83333.3333161201
83333.3333180228
83333.3333182197
83333.3330889164
83333.333320844
83333.3330765077
83333.3330913554
83333.3330881346
83333.3330817933
83333.3330744399
83333.3330865913
83333.333089408
83333.3330811509
83333.3330668466
83333.3330473816
83333.3330236297
83333.3329961367
83333.3329651606
83333.3329335779
83333.3329014909
83333.3328687125
83333.3328353746
83333.3333291961
83333.3333282282
83333.3333269768
83333.3333270169
83333.3333271361
83333.3333273647
83333.3333275021
83333.3333275935
83333.3333275597
83333.3333209702
83333.333309126
83333.3332919737
83333.3332695399
83333.3332425161
83333.3332120274
83333.3331790884
83333.3331446554
83333.3331095134
83333.333074303
83333.3330394668
83333.3330052246
83333.332971477
83333.3329379313
83333.332904312
83333.3328705047
83333.3328358735
83333.3328018935
83333.3332352854
83333.333204882
83333.3332303938
83333.3332385347
83333.3332082609
83333.3331756935
83333.3331722327
83333.333141679
83333.3331997312
83333.3332237032
83333.3331669269
83333.3331382707
83333.3331925343
83333.3332142756
83333.3331070706
83333.3330725578
83333.3331039427
83333.3331330596
83333.3331595059
83333.3331826078
83333.3331990571
83333.333149542
83333.3331259129
83333.3330991973
83333.3330699335
83333.3330384703
83333.3331684031
83333.3331785591
83333.3332101729
83333.3332404457
83333.3331775746
83333.3331434672
83333.333108641
83333.3330737634
83333.33303928
83333.333005248
83333.3332256966
83333.3332428744
83333.3332519238
83333.3332580393
83333.3332626463
83333.3332656971
83333.333267513
83333.3331998979
83333.3331720149
83333.3332888714
83333.3332904063
83333.3332862765
83333.3332822412
83333.3332767382
83333.3332678078
83333.3332414124
83333.3332074943
83333.3331772291
83333.3331491524
83333.3330929336
83333.3331167806
83333.3331365141
83333.3330659878
83333.3330364302
83333.3330047295
83333.333150442
83333.3331545271
83333.3329714509
83333.3331444409
83333.3331239527
83333.3331058913
83333.3331212842
83333.3330854508
83333.3330609945
83333.3330333264
83333.333130023
83333.3331295976
83333.3330030092
83333.3331191108
83333.3331027731
83333.3329708273
83333.3329375548
83333.3333071243
83333.3333052998
83333.3333025079
83333.3332986462
83333.3333082186
83333.3332956074
83333.3332914962
83333.3332379118
83333.3332061235
83333.3331779478
83333.3331504125
83333.3331253159
83333.3331043224
83333.3331781406
83333.3331438437
83333.3331087887
83333.3330736294
83333.3330388131
83333.3332109227
83333.3332413512
83333.3332684429
83333.3330045694
83333.3329708086
83333.3332911863
83333.3329372632
83333.3329036785
83333.3333087496
83333.3331052655
83333.3330940341
83333.333077002
83333.3330551196
83333.3330293112
83333.3330002836
83333.3329688692
83333.3329365123
83333.3329033955
83333.3328699709
83333.3331097573
83333.3331069659
83333.3330978848
83333.3330859561
83333.3330880912
83333.3329339196
83333.3329655866
83333.3329017918
83333.3328690614
83333.3329962229
83333.3330236462
83333.3330473589
83333.3330667295
83333.3330808834
83333.3330891407
83333.3330913664
83333.333088168
83333.3330814789
83333.3328358155
83333.3333204332
83333.3333198781
83333.3333189124
83333.3333177819
83333.3333159744
83333.3333177379
83333.3333179986
83333.3330761709
83333.3333207885
83333.3330674028
83333.3330736741
83333.3330753838
83333.3330734847
83333.3330695936
83333.3330652972
83333.3330738477
83333.3330669712
83333.3330547738
83333.3330375395
83333.3330159173
83333.3329905191
83333.3329615462
83333.3329307692
83333.3328995561
83333.3328674281
83333.3328349438
83333.3328021672
83333.3333291339
83333.3333282052
83333.3333269864
83333.3333270672
83333.3333271845
83333.3333273966
83333.3333275335
83333.3333276519
83333.3333276204
83333.3333209376
83333.3333089197
83333.3332915464
83333.333268842
83333.333241539
83333.3332107993
83333.3331776562
83333.3331430484
83333.3331077248
83333.3330722926
83333.3330372149
83333.3330027724
83333.3329690143
83333.3329357657
83333.3329027462
83333.3328696762
83333.3328362616
83333.3328025956
83333.3332347464
83333.3332043917
83333.3332300053
83333.3331718206
83333.3331995425
83333.3332234507
83333.3332378426
83333.333207501
83333.3331749124
83333.3331408528
83333.3331669224
83333.3331378492
83333.3331060988
83333.3331926967
83333.3332141753
83333.3331330468
83333.3331599694
83333.3331033336
83333.3331832198
83333.3331992871
83333.3330713307
83333.3330369804
83333.3330689778
83333.3330988758
83333.3331262874
83333.3331505298
83333.3331696372
83333.333179426
83333.3331379565
83333.3331173923
83333.3330927207
83333.3330651283
83333.3330351218
83333.3330031163
83333.333152375
83333.3331561915
83333.3331764469
83333.3332091596
83333.3332395951
83333.3331422379
83333.3331072664
83333.3330721827
83333.3330374463
83333.3330032775
83333.3329695952
83333.3331991794
83333.3332247147
83333.3332421874
83333.3332513967
83333.3332575745
83333.3332621545
83333.3332651435
83333.3332668787
83333.3331718393
83333.3331450207
83333.333285916
83333.3332885035
83333.3332900066
83333.3332818563
83333.333276187
83333.3332669031
83333.333239576
83333.33320541
83333.3331753962
83333.33314799
83333.3331233411
83333.3330849884
83333.3330599535
83333.333106317
83333.3331227534
83333.3330320139
83333.3330016758
83333.3329695092
83333.3331322365
83333.3331316951
83333.3329361383
83333.3331200785
83333.3331022375
83333.3330760174
83333.3330938148
83333.3331060266
83333.3330537545
83333.3330279003
83333.3329991273
83333.3331112908
83333.3331085717
83333.3329681333
83333.3330985808
83333.3330852593
83333.3329358096
83333.3329026485
83333.3333069478
83333.3333051054
83333.3333022965
83333.3332982404
83333.3332948535
83333.3333080029
83333.3332907726
83333.3332363055
83333.3332038836
83333.3331757227
83333.3331488357
83333.3331243427
83333.3331034863
83333.3330870408
83333.3331422132
83333.3331766802
83333.3331069835
83333.3330716113
83333.3330365724
83333.3330021495
83333.3332096626
83333.3332403387
83333.3332677131
83333.3329683903
83333.3329351312
83333.3332907326
83333.3329021099
83333.332869099
83333.333308523
83333.333080722
83333.3330894588
83333.3330662047
83333.333046625
83333.3330228785
83333.3329956515
83333.3329656155
83333.3329341155
83333.3329018624
83333.3328690611
83333.3328358979
83333.3330920581
83333.3330888126
83333.333081307
83333.3330727231
83333.3330750351
83333.3328997268
83333.3329311066
83333.3329618665
83333.3328677025
83333.3328352639
83333.332990638
83333.3330159861
83333.3330375609
83333.3330547182
83333.3330668485
83333.3330736365
83333.3330753791
83333.3330731544
83333.3330688483
83333.3328025878
83333.3333203487
83333.3333198024
83333.3333188574
83333.3333177309
83333.3333157738
83333.3333174226
83333.3333177295
83333.3330669462
83333.3333207534
83333.3330614525
83333.3330529396
83333.3330591
83333.3330616202
83333.3330617244
83333.3330606174
83333.3330592781
83333.3330645282
83333.3330422456
83333.3330268478
83333.3330071804
83333.3329837351
83333.3329569588
83333.3329269825
83333.3328966727
83333.332865499
83333.3328339031
83333.3328018853
83333.333329038
83333.3333281614
83333.3333269761
83333.3333271029
83333.3333272066
83333.3333274173
83333.3333275749
83333.3333277013
83333.3333276606
83333.333320893
83333.3333086838
83333.3332910409
83333.3332680097
83333.3332403635
83333.3332092972
83333.3331758714
83333.3331410234
83333.3331054802
83333.3330698229
83333.3330345109
83333.3329998596
83333.3329660042
83333.3329328839
83333.332900285
83333.332867927
83333.3328355034
83333.3328029074
83333.3332339167
83333.333203493
83333.3332292625
83333.3331709087
83333.3331988544
83333.3332227502
83333.3331663341
83333.3331369086
83333.3331922305
83333.3332134844
83333.3332369032
83333.3332063952
83333.3331736952
83333.3331395416
83333.3331046582
83333.3331324823
83333.3331597413
83333.3331022685
83333.3330696862
83333.3331830173
83333.3331986584
83333.333098155
83333.3331261097
83333.3331507247
83333.3330676721
83333.3331698263
83333.333179087
83333.3330351008
83333.333033557
83333.3330011042
83333.3330640725
83333.3330922735
83333.3331175796
83333.3331386322
83333.3331531215
83333.3331564055
83333.3331067047
83333.3331238161
83333.3330846283
83333.3330589704
83333.333030594
83333.3329999851
83333.3329676124
83333.3331335323
83333.3331325499
83333.3331405556
83333.33317493
83333.3332078416
83333.3332385269
83333.3331054178
83333.3330701341
83333.3330351841
83333.3330008496
83333.3329671744
83333.3329339986
83333.3331705375
83333.3331976505
83333.3332232931
83333.3332411829
83333.3332506115
83333.3332568881
83333.3332614742
83333.333264429
83333.3332660988
83333.333144333
83333.3331199923
83333.3332854445
83333.3332813307
83333.3332880422
83333.3332895108
83333.3332754883
83333.3332658502
83333.3332375466
83333.3332029373
83333.3331729534
83333.3331459278
83333.3331218346
83333.333101077
83333.3330753911
83333.3330525677
83333.3330264261
83333.3330939842
83333.3331069852
83333.332997619
83333.3329667164
83333.3329343531
83333.3331126129
83333.3331095601
83333.3329010596
83333.3330985832
83333.3330840872
83333.333065156
83333.3330451845
83333.3330803258
83333.3330897243
83333.3330213193
83333.3329942508
83333.3329646369
83333.3330927005
83333.3330893526
83333.3329333528