/*--------------------------------*- C++ -*----------------------------------*\
  =========                 |
  \\      /  F ield         | OpenFOAM: The Open Source CFD Toolbox
   \\    /   O peration     | Website:  https://openfoam.org
    \\  /    A nd           | Version:  12
     \\/     M anipulation  |
\*---------------------------------------------------------------------------*/
/*   Windows 32 and 64 bit porting by blueCAPE: http://www.bluecape.com.pt   *\
|  Based on Windows porting (2.0.x v4) by Symscape: http://www.symscape.com   |
\*---------------------------------------------------------------------------*/
FoamFile
{
    format      ascii;
    class       surfaceScalarField;
    location    "200";
    object      phi;
}
// * * * * * * * * * * * * * * * * * * * * * * * * * * * * * * * * * * * * * //

dimensions      [0 3 -1 0 0 0 0];

internalField   nonuniform List<scalar> 
28876
(
-1.55148714303949e-07
-3.46173179618428e-07
1.79775284802919e-05
2.05582346274401e-05
3.99412358709719e-07
-8.75482485327987e-08
1.35476836163507e-07
-2.05894750460976e-07
8.41943198112946e-06
2.92757611886202e-07
-6.01436388157843e-07
1.82861910140695e-05
-5.4488956527343e-07
9.2062153152231e-07
2.04751733591937e-05
2.30206438942161e-05
-9.13354771850839e-08
-9.45305849943153e-08
9.62291525592525e-06
3.41884702209707e-07
-2.90462942118194e-07
2.87451978432655e-07
-4.88475745726708e-07
6.63535050285309e-06
2.47220393176006e-07
-4.75050366423988e-07
8.04578908440652e-06
9.38938380678811e-07
-7.54606150751257e-07
1.81018117615557e-05
9.29154337143534e-06
5.99972847042518e-07
-5.66326006335859e-07
-6.38400511712286e-07
1.27294965908588e-06
2.33066324758902e-05
-8.6126925150279e-07
1.82923105881139e-06
2.04460236429206e-05
2.76111858418502e-05
1.01874768412014e-06
1.1723820072887e-07
1.0794038714153e-05
4.29281168668629e-07
-4.37419428280057e-07
7.35779290699008e-06
5.17734364945051e-07
-4.87487031001655e-07
3.64457896681286e-07
-3.75376043038725e-07
6.25448843185767e-06
3.66391333125107e-07
-4.59044731946557e-07
6.25294597278069e-06
3.97448908268806e-07
-4.90521544623746e-07
7.38421162764211e-06
1.17767978080231e-06
-5.91425957588108e-07
1.75155157403285e-05
-6.20060196177144e-07
8.23709640455129e-07
8.62400550174113e-06
1.05884114100282e-05
-7.14873128621662e-07
8.81995886135318e-07
7.04719309906044e-06
6.82824430474941e-07
-5.72179370652214e-07
-7.74087276478026e-07
2.25442518608873e-06
2.74036717693536e-05
-1.04808225459292e-06
2.77666323119646e-06
2.34071309351819e-05
-7.13652689056708e-07
2.28118061945512e-06
2.0056050753456e-05
3.11839087701978e-05
3.87868527258715e-07
2.20208028819046e-07
1.27103815492925e-05
7.20249092461924e-07
-5.64269021092979e-07
8.2866945053471e-06
6.53224013565855e-07
-5.94461379842712e-07
6.88614562467199e-06
6.21447408427883e-07
-5.44288227160739e-07
3.65236980760161e-07
-4.72840353658185e-07
5.88255953238802e-06
4.12260473155949e-07
-4.34585907854481e-07
5.81776504176694e-06
3.63631025032635e-07
-4.61547096212874e-07
5.86033500994754e-06
3.91291433322329e-07
-4.30381809945046e-07
6.83184564508003e-06
1.26592047964891e-06
-3.95643033574471e-07
1.66451934412425e-05
-6.22413102467974e-07
6.70159440747842e-06
7.11567115279668e-07
-7.89053477849299e-07
9.90655126603242e-06
1.24646007855225e-06
-5.43952841879037e-07
8.26652340251925e-07
8.01888963609752e-06
8.06100372716789e-06
-7.43183813773062e-07
9.36805133379919e-07
1.24759773623322e-05
-9.23855603536298e-07
1.26606204241745e-06
6.56153370218264e-06
7.65446856798701e-07
-6.00761634407906e-07
-9.63748160533236e-07
2.41766215299882e-06
3.19842625438981e-05
-1.3432792604281e-06
3.97592421201857e-06
2.75475066168105e-05
-8.91427655312168e-07
3.64032015081507e-06
2.29392901794311e-05
-4.6376717587707e-07
2.53401582849478e-06
1.9251627293979e-05
3.6515820714079e-05
1.06052611852567e-06
7.9801716515495e-07
1.4878838549348e-05
9.38050075035496e-07
-7.70957538777442e-07
9.47535454192586e-06
7.87396218270288e-07
-7.3153760438963e-07
7.72765861237996e-06
7.78849459170021e-07
-7.13549503967913e-07
6.49914560948498e-06
6.29182664534162e-07
-5.61323675084232e-07
3.52892071660361e-07
-3.63414357387854e-07
5.55812474924897e-06
4.06747897764318e-07
-4.375837065122e-07
5.47880899721327e-06
3.61519768319146e-07
-4.37985660544736e-07
5.43267978761e-06
3.19849376925335e-07
-4.21886538165051e-07
5.53198505107424e-06
3.77615205620286e-07
-3.3550924665042e-07
6.39407049323451e-06
1.26235087458532e-06
-2.26190622774395e-07
1.56090042099979e-05
7.04463514463988e-07
6.19331569235052e-06
-5.97147624443953e-07
-5.56327251467403e-07
6.38194095531985e-06
6.51862229970016e-07
-8.15040883115325e-07
7.74360089345713e-06
1.05492813636933e-06
-6.89186827192865e-07
9.2120680147607e-06
1.31882019072514e-06
-9.98252118110312e-07
1.16107467483501e-05
1.76654685585239e-06
-4.04814521089343e-07
8.28815898929754e-07
7.50870355090709e-06
7.5155363935314e-06
-7.92126169082139e-07
1.02649752182554e-06
9.25141380697483e-06
-9.38807788971927e-07
1.17566361540112e-06
1.46880473125087e-05
-1.07733715050179e-06
1.57032086717754e-06
6.13236184665921e-06
7.48962755503997e-07
-5.76197316589109e-07
-1.25159830892673e-06
2.61409087930291e-06
3.75708595086228e-05
-1.68539030993529e-06
5.36066810223525e-06
3.22846740505031e-05
-1.07793329101064e-06
5.44829549824759e-06
2.68172828743986e-05
-5.47738868528597e-07
4.12541769390619e-06
2.18955106569487e-05
-2.49817587224874e-07
2.54234710893526e-06
1.82213895269512e-05
4.05428662268013e-05
-5.86402816197724e-07
-8.76600440316767e-07
1.72660780556407e-05
-4.13724216952767e-07
-9.88031704105544e-07
1.06099583509598e-05
8.77866238475329e-07
-8.28847704176194e-07
8.71550287162507e-06
9.03694066983691e-07
-8.7293610019689e-07
7.29000170065179e-06
7.90817772509012e-07
-6.96981960893553e-07
6.0926363740658e-06
5.97128668990099e-07
-4.84664965950746e-07
3.25302208607794e-07
-3.4339877355798e-07
5.19895441909332e-06
3.77745390888704e-07
-3.87635053287709e-07
5.13042956192893e-06
3.40471277226804e-07
-4.02825786585972e-07
5.10317542497269e-06
2.93891550955464e-07
-3.92720928328556e-07
5.10961921505995e-06
2.98262471956185e-07
-3.37158735393158e-07
5.23536688205098e-06
3.77158516578794e-07
-2.24678530271266e-07
6.01538217927125e-06
1.15767351163307e-06
-1.09903317296325e-07
1.45612138105827e-05
7.1659275436114e-06
-7.85553981455375e-07
1.02457037198758e-06
5.92341416222025e-07
-5.16945100187784e-07
5.85547623316681e-06
6.53178214618738e-07
5.75891685006155e-06
-5.36416334158102e-07
-4.23744686752412e-07
6.06850336568204e-06
6.30619757570914e-07
-7.17219910670905e-07
7.39800520810285e-06
1.02547087623619e-06
-1.02302845878683e-06
8.91203556850111e-06
1.41905473391572e-06
-5.00883248968101e-07
8.60906083684498e-06
1.3849183467878e-06
-8.58708855360625e-07
1.07009742088955e-05
2.00927412252974e-06
-1.16128474551641e-06
1.35591389913564e-05
2.37121437619219e-06
-2.61408387995035e-07
8.32072264825442e-07
7.06535149792702e-06
6.99642811884496e-06
-7.36975635341801e-07
9.87377461832294e-07
8.54420603193328e-06
-9.75923102596988e-07
1.23489523357714e-06
1.03899273216924e-05
-1.07433209053096e-06
1.39265388796435e-06
1.78049782794882e-05
-1.00926168523769e-06
7.88958694053059e-07
5.7137911253005e-06
6.89702406525117e-07
-5.09312467198792e-07
-4.17863564982136e-06
1.22751730572842e-07
4.72127404790059e-05
-2.26455565058e-06
6.94690017109066e-06
3.82489679107198e-05
-1.37247083805108e-06
8.00760877355403e-06
3.10976215878187e-05
-6.74812266311149e-07
6.30519711828094e-06
2.53121690187033e-05
-3.03385036406391e-07
4.15827508294624e-06
2.05828868993685e-05
-1.08203822174862e-07
2.35069531640281e-06
1.71365289573864e-05
4.76166340775956e-05
3.27830765156777e-06
-7.86367640484637e-07
2.52924742142105e-05
-5.39863394821965e-08
1.21820159705664e-07
1.16412601632876e-05
8.08786016383115e-07
-8.40343835618992e-07
9.62403186343758e-06
9.84998983302982e-07
-9.71942841865033e-07
8.19594334013403e-06
9.24938665294272e-07
-8.35536887104561e-07
6.81820806673609e-06
7.4680541420013e-07
-6.06319224730485e-07
5.71399046663986e-06
5.50671422916792e-07
-4.15262119778525e-07
3.01127474347209e-07
-2.81806554818432e-07
4.89740752766774e-06
3.47558688403613e-07
-3.39524687052886e-07
4.80328379611657e-06
3.08427415564138e-07
-3.56690842074244e-07
4.77586544785336e-06
2.63908915436194e-07
-3.48147593680462e-07
4.79469114860309e-06
2.62267791472868e-07
-3.12562849782688e-07
4.82275284308796e-06
2.92840172938329e-07
-2.32815990587125e-07
4.95066164415925e-06
3.62912965246459e-07
-1.204217340862e-07
5.66297934639244e-06
1.00914713765879e-06
-1.18288100489619e-08
1.35638856013687e-05
-6.62524107621659e-07
9.17197526085704e-07
6.78636498030742e-06
6.62169833079362e-06
-6.9351873843399e-07
9.35864102287292e-07
8.17593016235207e-06
-9.79055184648914e-07
1.3488535521613e-06
5.23600454913302e-07
-4.46617073460969e-07
5.42889285220502e-06
5.42614890708188e-07
-3.92452417629915e-07
5.54383065880685e-06
5.86080930101029e-07
5.35767397758264e-06
-4.57956407732168e-07
-2.8437518592748e-07
5.75588514652177e-06
6.28418228989177e-07
-5.29421655508009e-07
7.02739471497329e-06
1.02975298176486e-06
-8.91243253832144e-07
8.46839478928444e-06
1.50161703340604e-06
-1.1827199162027e-06
1.00062430717371e-05
1.82413331180488e-06
-3.2094852593691e-07
8.06616400228415e-06
1.39249135646146e-06
-6.21782491395492e-07
9.88204343750965e-06
2.15074667588722e-06
-1.02972524440634e-06
1.22525745579114e-05
2.97296222661639e-06
-1.16693766400873e-06
1.64038125300251e-05
2.67459511012859e-06
-1.39550155831566e-07
8.04381337448872e-07
6.65521405843909e-06
6.49720232122044e-06
-6.35964665883114e-07
9.09692116664638e-07
7.9116445614253e-06
-8.89464405627313e-07
1.18520738668639e-06
9.46985429467117e-06
-1.11131984927702e-06
1.42604918095124e-06
1.17100194558189e-05
-1.08137854956197e-06
1.39597844050146e-06
2.33844110334292e-05
-7.84117533061509e-08
-1.40333420273562e-06
5.34604631745354e-06
6.31709154587244e-07
-4.25521105635163e-07
-7.15112657217976e-06
3.15707921830976e-06
5.17333622979691e-05
-5.56580293972461e-06
7.06034619747622e-06
5.26648863794685e-05
-2.10715490578601e-06
1.22965639259831e-05
3.60669156429525e-05
-8.7730854629705e-07
9.49800946873693e-06
2.87818953749441e-05
-3.86519316964378e-07
6.33670476953634e-06
2.35201427385236e-05
-1.33486187449859e-07
3.81191740576767e-06
1.9255079282761e-05
-2.69957554846171e-09
2.05333586423988e-06
1.60950051828208e-05
5.00885598129717e-05
7.94102479835341e-06
3.00225967503261e-05
1.35529741743759e-05
4.20005368721888e-07
1.29303319175555e-05
3.21602182670192e-07
-7.11246390492669e-07
1.04787927899338e-05
9.34401388386599e-07
-9.50429044193926e-07
9.03350967102466e-06
1.03511043982907e-06
-9.18514394956105e-07
7.62772434681419e-06
8.77246386033949e-07
-7.1170020258548e-07
6.38893430267445e-06
6.87786000632888e-07
-4.99151886646965e-07
5.38052943813574e-06
5.08184856285736e-07
-3.41697125372993e-07
2.8043302715619e-07
-2.40825992766435e-07
4.6465195796558e-06
3.20363229660437e-07
-2.8186349716896e-07
4.51938280773715e-06
2.7767689398333e-07
-3.01664584527843e-07
4.47057934235228e-06
2.31857524505519e-07
-2.96292238290382e-07
4.4921514960459e-06
2.29199451334276e-07
-2.70222947191315e-07
4.52315067123588e-06
2.51221871444302e-07
-2.15862476959981e-07
4.55457610713262e-06
2.84285839458298e-07
-1.3068928486074e-07
4.67664069969896e-06
3.46193940899138e-07
-3.19175663004841e-08
5.33686466566466e-06
8.60009762438297e-07
5.09943239729707e-08
1.26528708799242e-05
-5.61504989468659e-07
6.24223008663297e-06
8.02041410921734e-07
-8.12245627519369e-07
1.31486779982848e-06
7.69924482884826e-06
-4.838835899785e-07
8.69312431556837e-07
6.41411959877457e-06
6.13274084746121e-06
-5.77369698242513e-07
8.34385343737819e-07
7.48999364686242e-06
-8.45678133624737e-07
1.22412595639613e-06
9.04909653166651e-06
-1.13005384534278e-06
1.71692310258851e-06
4.56538794817141e-07
5.05422621877476e-06
-3.67854034203686e-07
4.64824724921743e-07
-3.32629779698788e-07
5.13344095455716e-06
5.2739180722713e-07
-2.64184042193053e-07
5.2474657850442e-06
5.26012256867784e-07
5.01443405154904e-06
-3.7468356817472e-07
-1.61114268639126e-07
5.44725650712582e-06
6.14475012239001e-07
-3.47205529858797e-07
6.65060081896746e-06
1.03145924461292e-06
-6.46789675021629e-07
7.97333222377014e-06
1.54980087025597e-06
-1.0468945011177e-06
9.39537438729864e-06
2.12961655067376e-06
-1.25678575001171e-06
1.14013064312171e-05
2.22264884743646e-06
-1.72472280907133e-07
7.57395144090516e-06
1.33555018284462e-06
-3.96492675543323e-07
9.15131826194743e-06
2.13313801963641e-06
-7.7073707969854e-07
1.10158921494011e-05
3.28075221067874e-06
-1.23505393549453e-06
1.43071174813415e-05
4.19738919782266e-06
-5.01940151940095e-07
2.02678759093524e-05
-3.65248680613935e-08
7.5644842824511e-07
6.2787706262257e-06
6.07449173049601e-06
-5.20596481673655e-07
8.30778592463117e-07
7.30965379750694e-06
-7.51505459691353e-07
1.08979672446351e-06
8.71223677994201e-06
-9.95040411073647e-07
1.39019387012669e-06
1.04586988810377e-05
-1.14955397134151e-06
1.51429931225349e-06
1.47383779397781e-05
-9.71783381427256e-07
4.81252099459334e-07
2.68064138362698e-06
1.19517276043182e-05
5.03840226762323e-06
5.82071625196417e-07
-3.45104341540488e-07
9.05556434185615e-07
5.23400668028097e-05
-1.69442207901943e-06
6.26528463344819e-05
-4.57655179317352e-06
2.4576530567446e-05
4.4961203455463e-05
-1.36835070862181e-06
1.49398053592501e-05
3.19932298659955e-05
-5.16277072334571e-07
9.37515585716854e-06
2.62595585200451e-05
-1.72090595275319e-07
5.69524162465571e-06
2.18088162592655e-05
-7.42396270161753e-09
3.30330428246535e-06
1.80124926110733e-05
6.966294333168e-08
1.75542958650839e-06
1.51298937007029e-05
3.48065661376304e-05
-8.98725721892816e-06
2.4872280459987e-05
2.35854239550735e-06
-6.52916670143595e-07
1.12765580482019e-05
5.91755736810594e-07
-7.52474608012556e-07
9.6886483861784e-06
1.02793604638788e-06
-9.10344428365492e-07
8.33608826063529e-06
9.90296841717814e-07
-7.74741484782057e-07
7.12658780300309e-06
8.10332901835777e-07
-5.74778775050968e-07
6.01827955671347e-06
6.3289850038557e-07
-4.04290319802332e-07
5.11242145065364e-06
4.73329687156722e-07
-2.79218601899051e-07
2.64754042232553e-07
-1.95615395383435e-07
4.45497806535644e-06
2.98610578090855e-07
-2.27309823338617e-07
4.29335496103475e-06
2.51567530103747e-07
-2.44322930032676e-07
4.21047266692456e-06
2.03857322676231e-07
-2.40997317414282e-07
4.21142625015379e-06
1.98414633518022e-07
-2.20298030996841e-07
4.24381150835476e-06
2.161067134961e-07
-1.81163707934923e-07
4.27234460263752e-06
2.41587717628951e-07
-1.20444402874588e-07
4.30274257659671e-06
2.70880744998642e-07
-4.34234169994786e-08
4.41726458253718e-06
3.23072368111915e-07
3.36365807521739e-08
5.03114410084754e-06
7.29484457861765e-07
8.73009212320549e-08
1.18360799286112e-05
5.78210850705807e-06
-4.52204260647275e-07
6.97864401522833e-07
-4.01985465885725e-07
5.88987195335757e-06
7.35278774203002e-07
-6.73892807528229e-07
7.01444431576416e-06
1.139224857588e-06
-9.37081947764363e-07
8.41925655959735e-06
1.83487065875018e-06
-5.7779280303697e-07
1.28316859421665e-06
7.21637743917719e-06
-3.15721439450794e-07
8.50697449751973e-07
6.05932399933533e-06
5.73833848730077e-06
-4.61821121475661e-07
7.46612314332352e-07
6.8965638976174e-06
-6.87733307858518e-07
1.089519960378e-06
8.19903492556861e-06
-9.60436183322309e-07
1.56769612683833e-06
1.00221830358123e-05
-1.2273210450399e-06
2.1239475846584e-06
3.98944317838115e-07
-2.64605288749694e-07
4.78567056630821e-06
4.01393956927457e-07
4.73998540653203e-06
-2.90944730002104e-07
4.45409751135975e-07
-2.18571060534926e-07
4.85852376860169e-06
5.13220250701289e-07
-1.49252206689714e-07
4.96396884574585e-06
4.77563143645206e-07
4.73371930582521e-06
-2.95999347383948e-07
-5.83608792210924e-08
5.8702108583519e-07
5.15294835444232e-06
-1.95915229761566e-07
6.28192043873182e-06
1.00658997058069e-06
-4.15514762128287e-07
7.48153553704943e-06
1.54226364333615e-06
-7.66822448267939e-07
8.67495210306308e-06
2.26627491201445e-06
-1.21578332278865e-06
1.04686783753991e-05
3.04291727899029e-06
-1.30634218177062e-06
1.61233656636172e-05
1.6419994644779e-06
-4.80071580929868e-08
7.12939022999284e-06
1.24157134479819e-06
-2.0921063731784e-07
8.52220219078368e-06
2.00174697446845e-06
-4.88235040391669e-07
9.9782018575306e-06
3.14271183588676e-06
-1.07351999329698e-06
1.20285819824744e-05
5.26431511651663e-06
-1.6605520755034e-06
1.74353030709387e-05
4.11988916157711e-08
6.98009147890998e-07
5.93228649696556e-06
5.73100152938612e-06
-4.1497790862088e-07
7.6372672890889e-07
6.81746835312545e-06
-6.03889232060309e-07
9.92276491538815e-07
7.991814356034e-06
-8.29851104964034e-07
1.2688743329776e-06
9.43761530497235e-06
-1.04462551763913e-06
1.53628685954819e-06
1.166831346441e-05
-1.08048448469804e-06
1.23122524340628e-06
2.50289177593311e-05
-8.47275628788486e-07
3.85248007199387e-06
-2.53765570966555e-06
5.02014846110838e-05
4.79410415783115e-06
5.42804231296797e-07
-2.70983970838217e-07
-2.63070259622219e-06
5.32762174582796e-05
4.06914499246461e-05
4.72516011358692e-05
-2.00891198364234e-06
2.75944133327504e-05
3.43151570929428e-05
-8.02449421311957e-07
1.38000810897505e-05
2.83705553751451e-05
-2.21033996721825e-07
8.10148171599342e-06
2.40742412561755e-05
-1.52949740874038e-08
4.84217065876714e-06
2.02851724946341e-05
7.72595255228494e-08
2.80089650712977e-06
1.68897168227363e-05
1.03728683294479e-07
1.49372906131554e-06
1.42618926425925e-05
5.35207079952767e-05
-2.48684081344288e-06
1.84762112655996e-05
2.69241228821103e-07
-1.95130966380359e-07
1.02752245499475e-05
9.19206997410986e-07
-7.85274795592934e-07
8.9655863445595e-06
1.00110733347872e-06
-7.65119543688548e-07
7.77082339857493e-06
9.22103197970253e-07
-6.18095504000962e-07
6.7025038023812e-06
7.47287197073581e-07
-4.58881565856157e-07
5.72004357447747e-06
5.88759028324587e-07
-3.24293975183787e-07
4.90210226033496e-06
4.46820626698902e-07
-2.21662447535997e-07
2.53255355637368e-07
-1.51334111971525e-07
4.31060957264558e-06
2.81847233540835e-07
-1.74328119886706e-07
4.12014935988764e-06
2.31521285464412e-07
-1.8723045667555e-07
4.00474011727704e-06
1.81789303711567e-07
-1.85161179661871e-07
3.97284611115565e-06
1.72389096448837e-07
-1.68045316464249e-07
3.98678408476236e-06
1.85911863235317e-07
-1.37868139522539e-07
4.01460359038471e-06
2.06765904233184e-07
-9.39891657184542e-08
4.03912283134917e-06
2.29866699215066e-07
-3.76362053427688e-08
4.06708855622707e-06
2.54701662373998e-07
2.33198907231588e-08
4.17287860826623e-06
2.98948698288883e-07
7.43769586722103e-08
4.74511359916215e-06
6.29189592867394e-07
1.02390939880468e-07
1.11044966405328e-05
5.46303917525237e-06
-3.13654001924394e-07
6.29678012373933e-07
5.42294521929096e-06
-3.5092334793193e-07
6.15501659657039e-07
6.4606506422174e-06
-5.30590046824347e-07
9.90465369210488e-07
-2.55068395264615e-07
7.09725688761789e-07
5.56489998310636e-06
-4.68443619126815e-07
6.56603223763008e-06
1.07433182076794e-06
-7.61162699412275e-07
7.58030265895998e-06
1.58201920231373e-06
-6.59744233431502e-07
7.75505966461627e-06
1.84026742627185e-06
-1.05531274678931e-06
9.12892586505339e-06
2.56762479940782e-06
-3.65819522764519e-07
1.25123442429786e-06
6.76613577896929e-06
-1.7536731917358e-07
8.28993231167343e-07
5.72300035679346e-06
5.42749725366459e-06
-3.58619482368269e-07
6.77860456454866e-07
6.44040546649824e-06
-5.38779639042095e-07
9.74712970819728e-07
7.49538685002175e-06
-7.67425660779865e-07
1.39292550620031e-06
8.85706541043872e-06
-1.04379415860426e-06
1.9646993398082e-06
1.14623025337892e-05
-1.33433519503326e-06
2.35792033019224e-06
3.47291147365757e-07
-1.97678865325703e-07
4.49815517067963e-06
3.80401427528226e-07
-1.63398082036764e-07
4.53600719180155e-06
3.59241306076421e-07
4.48468363811899e-06
-2.19362324701698e-07
4.32634586800143e-07
-1.1526754040382e-07
4.59866913094832e-06
4.91908087863383e-07
-5.22284790538771e-08
4.69579402400274e-06
4.40576492826544e-07
4.51255938788198e-06
-2.23512316045206e-07
-7.30683285487945e-08
9.58727316809809e-07
5.93527094992781e-06
2.06065374547878e-08
5.51589186255174e-07
4.87664994391584e-06
-2.2858036581166e-07
7.02374130398221e-06
1.48374455283526e-06
-4.83225482003677e-07
8.00037761160519e-06
2.21180817153055e-06
-9.59874727841593e-07
9.21492110223053e-06
3.40634147629483e-06
-1.45020582819958e-06
1.31047536962205e-05
5.85112187316223e-06
-1.86356025596479e-06
2.64942108116966e-05
1.6682969875092e-06
4.1512220668781e-08
6.72901707382872e-06
1.13411198142398e-06
-5.84283065406498e-08
7.9818995918133e-06
1.82497594585012e-06
-2.42506657360363e-07
9.17216688196081e-06
2.82921022414982e-06
-6.68434523448321e-07
1.04574099150596e-05
4.57977668286918e-06
-2.26533349545903e-06
1.26694483924112e-05
1.02863706722201e-05
8.57215419438156e-08
6.37847214906392e-07
5.61138612022094e-06
5.4603890582989e-06
-3.23098898625147e-07
7.10577508194642e-07
6.42655916568892e-06
-4.75350143127565e-07
9.11126459580641e-07
7.43395474203051e-06
-6.56267674644238e-07
1.15555395068797e-06
8.62942323571361e-06
-8.56530823740102e-07
1.41693219281471e-06
1.03019812672299e-05
-1.03034457758657e-06
1.45938327875496e-06
1.8401104103281e-05
-7.79064383834036e-07
1.23809061539046e-06
5.64242679619365e-05
-1.58871290851091e-06
-7.52483011944398e-07
4.88861472662556e-05
4.60516809330298e-06
5.12615646444483e-07
-2.04820044078088e-07
2.65733138972888e-05
-6.3566178838448e-06
3.30595172810951e-05
3.75414186073534e-05
3.01388855197068e-05
-1.31796846065398e-07
3.93095709259675e-05
3.56677896558846e-05
-1.30714533389311e-06
1.96510323956656e-05
2.97710650892854e-05
-2.97941337153296e-07
1.10543710558407e-05
2.57154983352764e-05
-1.73529609008679e-08
6.68519645868575e-06
2.22484866049638e-05
8.71299533611778e-08
4.04581667098337e-06
1.89530729219084e-05
1.18262166445997e-07
2.36535133141793e-06
1.58998051655665e-05
1.23987487994266e-07
1.28405794381565e-06
1.34830080882819e-05
4.80620581052881e-05
-4.31009316659777e-07
1.38263219713126e-05
-7.69480433492113e-08
-5.96632073973473e-07
9.64147923586393e-06
8.69575304754012e-07
-6.60774515968074e-07
8.32972038233251e-06
9.3561963035284e-07
-6.03778774190447e-07
7.29734944785802e-06
8.55815600257461e-07
-4.88215028116267e-07
6.36924544466322e-06
6.97501926660936e-07
-3.64783151372605e-07
5.49017007371555e-06
5.55479971848622e-07
-2.54592415157611e-07
4.74324864679798e-06
4.27918326262182e-07
-1.68576848191838e-07
2.4539539877766e-07
-1.05360782122203e-07
4.20384124268006e-06
2.6936396447875e-07
-1.23508099016588e-07
3.99042507025295e-06
2.16694004777239e-07
-1.32254793111488e-07
3.84847869480072e-06
1.65357928676848e-07
-1.30254341651711e-07
3.78447485494908e-06
1.52032001327596e-07
-1.16023279082694e-07
3.76879185883215e-06
1.61010403926531e-07
-9.15633220561717e-08
3.77946896822723e-06
1.77912991245455e-07
-5.8653926703708e-08
3.80135543362273e-06
1.96874666973145e-07
-1.76456128569615e-08
3.82225720449903e-06
2.16514421380975e-07
2.76731504022385e-08
3.84622055615149e-06
2.37163414094021e-07
6.93756668874354e-08
3.94071517316104e-06
2.72696685717533e-07
9.81418867803894e-08
4.47665902710843e-06
5.65474735010317e-07
1.02446231692092e-07
1.04365635179384e-05
6.04703044116132e-07
-1.86599057709017e-07
5.17026644986464e-06
5.13617826617814e-06
-2.30576480012057e-07
5.50977826232857e-07
6.05963460372377e-06
-3.57066890356424e-07
9.19308843532533e-07
5.14344039747097e-06
-2.61033746184001e-07
5.53404032872937e-07
6.05162983234314e-06
-4.03285667634606e-07
8.76965549517043e-07
6.93523922559205e-06
-5.85777543867053e-07
1.37521346560497e-06
-2.86481031465314e-07
6.16312733182699e-06
1.03328623569746e-06
-1.30345311040808e-07
6.91517394206995e-07
5.26099307121808e-06
-5.17586197061778e-07
6.98698173060985e-06
1.52547951125337e-06
-8.3656617793647e-07
8.03281086151193e-06
2.1875026949093e-06
-4.04505428331487e-07
1.76672441006898e-06
7.16083629357913e-06
-7.54485852553605e-07
8.11555159901878e-06
2.64822466196592e-06
-1.22477932656741e-06
9.87738316262113e-06
3.92707748317155e-06
-1.95593716762425e-07
1.20556839067774e-06
6.3565682355047e-06
-6.0271358673291e-08
7.94414525289598e-07
5.40769555571895e-06
5.18472646797836e-06
-2.68108454616969e-07
6.25723045534181e-07
6.09126451138835e-06
-4.11973984575231e-07
8.86343332499832e-07
6.98065839700343e-06
-5.88998343921944e-07
1.24957130503923e-06
8.03903732563982e-06
-8.1589809695506e-07
1.75539965409458e-06
9.85900421837234e-06
-1.12865071142164e-06
2.20197537614939e-06
2.04820964328712e-05
-1.82067145980165e-06
2.34010377969987e-07
3.08296049076819e-07
4.2653037043259e-06
-1.34564091349014e-07
3.3064731573562e-07
-1.07077937634759e-07
4.27219790132312e-06
3.70102747258675e-07
-7.12118805982509e-08
4.29976153536817e-06
3.28040807314503e-07
4.28345391904492e-06
-1.52941106271028e-07
4.15976247107007e-07
-2.67325148680331e-08
4.35407058283433e-06
4.64251505750918e-07
2.45465595208252e-08
4.44411611395773e-06
4.13086353706778e-07
4.34238334068165e-06
-1.57122974841092e-07
-8.07853903724668e-08
1.39450432674862e-06
6.61031624596313e-06
2.06694613089995e-08
8.95470652258399e-07
5.6122285539303e-06
7.51659742739947e-08
5.09983464911018e-07
4.6143827740446e-06
-2.50188292116865e-07
7.43156024687431e-06
2.06023293582277e-06
-5.92250053725067e-07
8.21572651461074e-06
3.13479200137029e-06
-1.3213228793327e-06
9.5344144451829e-06
6.03259928413989e-06
-2.19401187047025e-06
1.5622847014684e-05
1.7147440621097e-05
-1.34690947827941e-06
5.86869667156532e-05
9.70715411578592e-08
6.36266693575591e-06
1.02537126455293e-06
4.82390424288161e-08
7.51239854774945e-06
1.64247537784261e-06
-5.92348368170075e-08
8.5342653205331e-06
2.50472574044981e-06
-2.93587076972085e-07
9.46502247614794e-06
3.81718617421138e-06
-1.02091301761467e-06
1.05480473873623e-05
6.41481751688364e-06
-5.29083964882883e-06
1.13165679940658e-05
1.1354395953426e-05
1.13807654083874e-07
5.78774314028831e-07
5.31547521253286e-06
5.25146336916196e-06
-2.4181608102336e-07
6.70036173545944e-07
6.12342080363429e-06
-3.67335654972529e-07
8.48381319621002e-07
6.99658445492446e-06
-5.10077891318641e-07
1.06569712786337e-06
8.00091458479562e-06
-6.60448253027889e-07
1.28827114019458e-06
9.43937303346207e-06
-8.24281670747053e-07
1.4129696424356e-06
1.46427953456736e-05
-8.85243914242179e-07
7.49088934179217e-07
4.87338057281529e-05
-1.02236398748197e-06
-1.28806247037778e-06
3.73700389691648e-05
4.46191477435386e-06
4.90404603626997e-07
-1.44528919705387e-07
1.42367261781182e-05
-2.6965152819863e-06
2.15191312276393e-05
3.31615238246861e-05
2.01282164936338e-05
-1.5119924840487e-06
-1.00407774811711e-06
3.87426015667613e-05
3.17094097705535e-05
-1.28769487110504e-06
2.56686812127263e-05
3.09375023130223e-05
-3.81578118523548e-07
1.44010330411145e-05
2.68058264718176e-05
-6.22028837193312e-09
8.79104439568218e-06
2.3615782876569e-05
1.08040188865855e-07
5.48602057899489e-06
2.07001700728922e-05
1.38755670406438e-07
3.37487841587253e-06
1.78047346483838e-05
1.37310899799364e-07
2.0024075164878e-06
1.50441085723318e-05
1.21623112686221e-07
1.14625365613659e-06
1.27805747173131e-05
4.09901485546281e-05
-6.96965873080763e-07
1.23129804959525e-05
1.2179810719385e-07
-4.69870691303985e-07
8.95256541348126e-06
8.00909077772694e-07
-5.18637199085978e-07
7.75598554021432e-06
8.59063729368308e-07
-4.77612911609098e-07
6.91571030819006e-06
8.01590507510379e-07
-3.86750068822682e-07
6.11399648620551e-06
6.59454132546573e-07
-2.84469021549345e-07
5.31410282810239e-06
5.32148879701607e-07
-1.91679348546507e-07
4.62536777641881e-06
4.14839905897702e-07
-1.17481953670725e-07
2.39908461653741e-07
-5.93864317140342e-08
4.12247205601995e-06
2.60430162820637e-07
-7.36726868458575e-08
3.89357520470805e-06
2.06045050677242e-07
-7.97119563801553e-08
3.73183634212246e-06
1.5345229484782e-07
-7.73295880404889e-08
3.64210107687617e-06
1.36960927390386e-07
-6.53359890618961e-08
3.59682636863234e-06
1.42088661621021e-07
-4.54246797670716e-08
3.58056464956368e-06
1.54469255658064e-07
-1.98209163765275e-08
3.58616694714625e-06
1.69928638615237e-07
1.06043578813855e-08
3.60317656790586e-06
1.85987887364755e-07
4.38007157526258e-08
3.62014156852211e-06
2.01832920385145e-07
7.5320995797582e-08
3.6384416900639e-06
2.18499046125862e-07
9.90485729432432e-08
3.72130823659659e-06
2.4983643394559e-07
1.06553610726398e-07
4.22270733754587e-06
5.56549737919905e-07
9.04010645198826e-08
9.78960302183874e-06
-2.03087630394595e-07
5.70201160677824e-06
8.78928788408468e-07
5.28294877910988e-07
-1.19345709354581e-07
4.87127600731192e-06
5.90199272711969e-07
-7.65845969026734e-08
4.89640782441096e-06
4.88332831929997e-06
4.92565841395801e-07
-1.54736282334364e-07
5.69336122213114e-06
-2.56424340368237e-07
8.08597936404633e-07
6.41520722507547e-06
-3.82073230233748e-07
1.30381608905142e-06
4.92497302550543e-06
-1.804608514244e-07
5.07218577718984e-07
5.74335045806151e-06
-2.94620626227567e-07
7.92645817154226e-07
6.48215026560658e-06
-4.33934053639259e-07
1.22361846258044e-06
7.29177705698328e-06
-6.23100992853547e-07
1.90898962985814e-06
-1.37934394106422e-07
5.80038163599438e-06
9.96600562899229e-07
-3.02025596780708e-07
6.47419247261614e-06
1.44358635119631e-06
-2.62003706071582e-08
6.66004952476515e-07
4.9768919320645e-06
-5.60466639485936e-07
7.21678336504854e-06
2.14746752130546e-06
-9.31948394641647e-07
8.47831622737232e-06
3.27532807387625e-06
-4.46650447148238e-07
7.28750145202276e-06
2.44915936328441e-06
-2.00482721246136e-07
1.65331318442867e-06
6.66337921259182e-06
-8.88112740500773e-07
8.29295812088656e-06
3.79940119383647e-06
-1.6822574273835e-06
1.0829763045021e-05
1.3067583283571e-05
-5.94655366939346e-08
1.14345451783658e-06
5.98620451148598e-06
3.03776335418928e-08
7.48195702510824e-07
5.11404111321968e-06
4.99685560676109e-06
-1.87545855424283e-07
5.87127113700839e-07
5.82151625423715e-06
-3.0445795445587e-07
8.2010515142425e-07
6.59423360777957e-06
-4.42050577486022e-07
1.14173863008569e-06
7.46086320428868e-06
-6.08789865822551e-07
1.58250347862029e-06
8.88837032824985e-06
-8.49896110690378e-07
2.02763492262797e-06
1.63315581187495e-05
-1.41901798716992e-06
1.11544392863534e-07
-1.0796320218085e-06