/*--------------------------------*- C++ -*----------------------------------*\
  =========                 |
  \\      /  F ield         | OpenFOAM: The Open Source CFD Toolbox
   \\    /   O peration     | Website:  https://openfoam.org
    \\  /    A nd           | Version:  12
     \\/     M anipulation  |
\*---------------------------------------------------------------------------*/
/*   Windows 32 and 64 bit porting by blueCAPE: http://www.bluecape.com.pt   *\
|  Based on Windows porting (2.0.x v4) by Symscape: http://www.symscape.com   |
\*---------------------------------------------------------------------------*/
FoamFile
{
    format      ascii;
    class       volScalarField;
    location    "400";
    object      k;
}
// * * * * * * * * * * * * * * * * * * * * * * * * * * * * * * * * * * * * * //

dimensions      [0 2 -2 0 0 0 0];

internalField   nonuniform List<scalar> 
10103
(
1.02344723000329e-08
1.02038043799696e-08
1.7076041148784e-07
1.8431468702097e-07
1.01823170783063e-08
1.71075853525803e-07
1.84110387717634e-07
8.22980897666264e-07
4.29538365335392e-06
1.02940730867466e-06
1.01227974628171e-08
1.70702653368422e-07
1.82706574309623e-07
8.24697280495529e-07
4.30659059361421e-06
1.03168195128012e-06
1.84463811925616e-06
1.60402616439063e-05
1.73724401973803e-05
2.68179798407785e-06
9.98548800048352e-09
1.69096011909001e-07
1.80747229423399e-07
8.21452079589638e-07
4.28186981761786e-06
1.02394724763747e-06
1.84773790453831e-06
1.60658082388768e-05
1.73987430616639e-05
2.68720127956277e-06
3.07458624847583e-06
2.91748784390855e-05
4.30241632397236e-05
3.33219495520457e-05
4.93890312869897e-06
9.77452797603806e-09
1.66156465256934e-07
1.77472375483772e-07
8.11527201482824e-07
4.22759367487577e-06
1.01021424155598e-06
1.83771679961509e-06
1.59898470500895e-05
1.73136902857512e-05
2.66903590901886e-06
3.07908286272797e-06
2.91948918532604e-05
4.30383377506605e-05
3.33355580405207e-05
4.94596310825703e-06
4.46694820218564e-06
4.19445911732178e-05
6.65255592256648e-05
6.89281960392362e-05
4.96694992357267e-05
7.66475944798172e-06
9.49845481936666e-09
1.62012588067999e-07
1.72936396730189e-07
7.95806621305002e-07
4.14458902031924e-06
9.89655566465596e-07
1.81461416482657e-06
1.58172980156553e-05
1.71145003575052e-05
2.63339965990832e-06
3.06082213764647e-06
2.90618936662121e-05
4.28606735214564e-05
3.31833495206811e-05
4.91396249031889e-06
4.47201846362565e-06
4.19575092405348e-05
6.65239310747201e-05
6.89151096366861e-05
4.96622948459775e-05
7.67015203490141e-06
6.01511534420481e-06
5.41827618832503e-05
8.83959099384928e-05
9.96160363905704e-05
9.41465345332442e-05
6.5901443041847e-05
1.08580644610263e-05
9.1623814912626e-09
1.56844308357642e-07
1.67269376460693e-07
7.74757080920168e-07
4.03605082049002e-06
9.62691082379462e-07
1.77951668238764e-06
1.55609757559789e-05
1.68300451273049e-05
2.58215287452142e-06
3.02169019454667e-06
2.87870108763135e-05
4.25013925315858e-05
3.28639622318977e-05
4.84990459564397e-06
4.44472507161624e-06
4.17721849019003e-05
6.62650874326947e-05
6.86419540596968e-05
4.94404173130436e-05
7.62049059506202e-06
6.02077394944183e-06
5.41907864336236e-05
8.83841530402745e-05
9.9585162794756e-05
9.4106331459968e-05
6.58702861160017e-05
1.08586838043139e-05
7.69350255547849e-06
6.595969497164e-05
0.000108829733801829
0.000127783284647999
0.000130963159854795
0.000118667469356189
8.20117832261824e-05
1.45687443622957e-05
8.77005883331755e-09
1.50778878568313e-07
1.60579996724804e-07
7.49042594575832e-07
3.90395202462132e-06
9.29805978080875e-07
1.73331840440961e-06
1.522634757293e-05
1.64644955423555e-05
2.51546682332442e-06
2.96386490763094e-06
2.83800992317243e-05
4.19684696041057e-05
3.23979286534989e-05
4.7584823802183e-06
4.38838739463262e-06
4.14031600454888e-05
6.57599253553383e-05
6.81147569666313e-05
4.90034235624379e-05
7.52259707470404e-06
5.98406307253429e-06
5.39591052845583e-05
8.80503660659793e-05
9.92097316192404e-05
9.37353874777083e-05
6.55755632678558e-05
1.07873659856367e-05
7.70025110878918e-06
6.59668016418224e-05
0.000108813315334584
0.000127740761662521
0.000130899835430203
0.000118597215259812
8.19552167524066e-05
1.45612034502463e-05
9.45323519102115e-06
7.72904314264483e-05
0.000127991918156572
0.000154019453220587
0.000164151983581201
0.000161107046639208
0.000142423992030936
9.80846443390476e-05
1.87503717109534e-05
8.3247799929519e-09
1.43865628284851e-07
1.529766103383e-07
7.19247200202689e-07
3.7503461273081e-06
8.91476540042669e-07
1.67706606846398e-06
1.48173465182211e-05
1.60210358118617e-05
2.43407012894736e-06
2.88848306651742e-06
2.78469328467618e-05
4.12714806208233e-05
3.17962092872073e-05
4.63935148259339e-06
4.30603071764421e-06
4.08596789888426e-05
6.5016413621709e-05
6.73406491976322e-05
4.83645080644258e-05
7.38226546349193e-06
5.90961130486455e-06
5.35030379057266e-05
8.74085889839947e-05
9.84990230737086e-05
9.30390822324489e-05
6.50166164663869e-05
1.06483178288876e-05
7.65375152254033e-06
6.56938980792565e-05
0.000108413575942216
0.000127274186748273
0.000130407683572671
0.000118126150761686
8.15831997656412e-05
1.44627666136504e-05
9.461286597139e-06
7.72998912906289e-05
0.000127975230455912
0.000153971179720888
0.00016407393310189
0.000161007527526287
0.000142319079936448
9.79997614898811e-05
1.87319097161095e-05
1.12458990239382e-05
8.8120992912361e-05
0.000146017774036924
0.000178547088521998
0.000194877132129508
0.000198638138450407
0.000190036340663831
0.000165477552084555
0.000114014085619662
2.30777864867289e-05
7.83090227875135e-09
1.44558337834599e-07
1.36159471457079e-07
6.85516820277697e-07
3.57742235148906e-06
8.4820255585297e-07
1.6117341731798e-06
1.43374830883534e-05
1.55027525336432e-05
2.33893736943323e-06
2.79698686068635e-06
2.71916613017759e-05
4.0415967035857e-05
3.10616662700469e-05
4.49368805410148e-06
4.19905096763728e-06
4.01472585344431e-05
6.40405167548371e-05
6.63271630260863e-05
4.75335928980187e-05
7.19931570996285e-06
5.80084455100794e-06
5.28334983129628e-05
8.64665832149192e-05
9.74596713226319e-05
9.20230844792392e-05
6.42011510915601e-05
1.04488660789755e-05
7.56056162702473e-06
6.51584260841752e-05
0.000107646446680316
0.000126395035526096
0.000129494120325817
0.00011725835033877
8.0894955341659e-05
1.4273743645312e-05
9.40531419198843e-06
7.69904301945308e-05
0.000127517634100637
0.000153423598831391
0.00016347550480209
0.000160396335159843
0.000141744769459848
9.75461510677062e-05
1.86011063727137e-05
1.12557835531456e-05
8.81352262092744e-05
0.000146004736147225
0.000178498216491475
0.000194791438063704
0.000198520341316159
0.000189896769128046
0.00016533432194314
0.000113897608296564
2.30483032729374e-05
1.3039101218806e-05
9.84019792981917e-05
0.000162987637173198
0.000201547210607041
0.000223568575039774
0.000233062392106824
0.000231442505296842
0.000217806866998877
0.000187855963076624
0.000129455707139029
2.63752298256946e-05
7.29495428842498e-09
1.35426323245484e-07
1.27742309410372e-07
8.00557512050805e-07
3.38700492965672e-06
6.4824992706733e-07
1.53784404463615e-06
1.37906507014196e-05
1.4913348075454e-05
2.23118436218499e-06
2.69042203469372e-06
2.64184126588236e-05
3.94053496825507e-05
3.01974940867674e-05
4.32299149105013e-06
4.0692099630362e-06
3.92700503422926e-05
6.28365512483879e-05
6.50794761204404e-05
4.65147880013268e-05
6.97507426202832e-06
5.65983091493047e-06
5.19558639085667e-05
8.52300211621708e-05
9.60968338740972e-05
9.06937464758771e-05
6.31376337055749e-05
1.01884739781943e-05
7.42421526055518e-06
6.4371978733065e-05
0.000106521339301426
0.000125110044330033
0.000128164119519907
0.000115998517282598
7.98952357986051e-05
1.40027452538334e-05
9.29302979353041e-06
7.63822697794969e-05
0.000126637363887965
0.000152390898203255
0.000162366910103821
0.000159279947677006
0.00014070348729665
9.67228319280641e-05
1.83531512147856e-05
1.11909032818092e-05
8.77940266672084e-05
0.000145496553962577
0.000177879652943408
0.000194099730236977
0.000197789429190896
0.000189164791695511
0.000164653537246088
0.000113358300078348
2.28805561697374e-05
1.30513637860058e-05
9.84233499385923e-05
0.000162981587713953
0.00020150230988755
0.000223481251702624
0.000232934745257093
0.000231281240288507
0.000217623808982103
0.000187671590987163
0.000129306705849957
2.63380913024371e-05
1.4814660137661e-05
0.000108120185262889
0.000178957330294876
0.000223158267843955
0.000250493037408768
0.000265118796100878
0.000269044686247919
0.000262684698198188
0.000244494807352113
0.000209593482756437
0.0001442583865053
2.42416562904589e-05
6.72410209034578e-09
1.25697432989556e-07
1.18722365339517e-07
7.49173540074143e-07
3.18097652047775e-06
6.07916114833632e-07
2.11214539158536e-06
1.42571496977528e-05
1.31807390327659e-05
1.45625030415251e-06
2.56971843089459e-06
2.55314508409857e-05
3.82440151382542e-05
2.92077776711005e-05
4.12916333107717e-06
3.91766399021644e-06
3.82322052954686e-05
6.14095648461907e-05
6.36019566862118e-05
4.53114432645289e-05
6.71166736215301e-06
5.48853291156656e-06
5.08743978136082e-05
8.37035115883344e-05
9.44151218106537e-05
8.90557621471121e-05
6.1829431321918e-05
9.86854161185463e-06
7.24723541293622e-06
6.33405196229144e-05
0.000105044170172986
0.000123424933022693
0.000126422474199787
0.000114351038647432
7.85892428647661e-05
1.36478307060436e-05
9.12853024418236e-06
7.54875040750159e-05
0.000125344459931358
0.000150880590286671
0.000160753276055207
0.000157661384923509
0.00013919732982726
9.55301727078821e-05
1.79969597408627e-05
1.10597754533012e-05
8.71195412230851e-05
0.000144513925531138
0.000176708149631974
0.000192814958526066
0.000196454767813164
0.000187845814619119
0.000163435902048543
0.000112393422237309
2.25689719870375e-05
1.2978201582809e-05
9.80545364734304e-05
0.000162429599017575
0.000200821973652651
0.000222708146328158
0.00023210026944905
0.00023041766347328
0.000216769571939423
0.000186881586638455
0.000128678951212943
2.61374885264297e-05
1.48298425332808e-05
0.000108150305851846
0.000178961085086521
0.000223121305877231
0.000250409375457596
0.000264988315377172
0.000268871529466723
0.000262476877430473
0.000244265716310893
0.000209367501022294
0.000144082413376966
2.42109260443678e-05
1.65616381344106e-05
0.000117290508559044
0.000193979495270408
0.000243485680204005
0.000275830769918143
0.000295214951454571
0.000303918064041428
0.000303058644180387
0.000292449966891044
0.000270178830837538
0.000231208325968746
0.000162402136852151
6.12739869493831e-09
1.15497086394572e-07
1.09202824542692e-07
6.947141803166e-07
2.96174089435075e-06
5.65186939022299e-07
1.98326671619694e-06
1.35390159922725e-05
1.251212715447e-05
1.36786123883501e-06
3.91457608129293e-06
2.8098123576763e-05
3.69370377653195e-05
2.45356224963666e-05
2.4361804558343e-06
3.7457997412237e-06
3.70382756658444e-05
5.97646290259145e-05
6.18997461032741e-05
4.39284760725259e-05
6.41216587121948e-06
5.28816986996793e-06
4.95933180947383e-05
8.18918543516976e-05
9.24194715709933e-05
8.71133525404469e-05
6.02803698145715e-05
9.49173306532913e-06
7.03182239697407e-06
6.20685587949808e-05
0.000103219803115296
0.000121344340471354
0.000124273493158635
0.000112319830216749
7.69793418713059e-05
1.32101835997644e-05
8.91498794285479e-06
7.43125744984821e-05
0.000123646001903573
0.000148898812866779
0.000158639462903818
0.000155544241282158
0.000137228561828191
9.39698672951691e-05
1.75292753098036e-05
1.08672729915539e-05
8.61246704122331e-05
0.000143067956491045
0.000174992245152743
0.000190943241688772
0.000194519969064371
0.000185940832325839
0.000161679871485329
0.000110999014845357
2.21194015725901e-05
1.28288998728802e-05
9.73197171625492e-05
0.000161354619914886
0.000199525334348695
0.00022126474049688
0.000230571110013977
0.000228860307122971
0.000215248150544674
0.000185484025721319
0.00012756758391702
2.57705491921218e-05
1.47489492501517e-05
0.000107757795236609
0.000178371319617986
0.000222387502183034
0.000249565561062346
0.000264064133149538
0.000267895848314115
0.000261480841301891
0.000243288085551025
0.000208465807963378
0.000143362721546611
2.40169552177455e-05
1.6580157017097e-05
0.000117330600275585
0.000193995317707286
0.000243459997761536
0.000275755364808477
0.000295087717475843
0.000303741079421115
0.000302837323954763
0.000292193609062206
0.000269903738093268
0.000230946466310885
0.000162216082212719
2.04654542428879e-05
1.82716522192733e-05
0.000125938293708946
0.000208106983538191
0.000262614886602649
0.000299708889480918
0.000323590645633774
0.000336641033221113
0.0003403377187848
0.000335217225773827
0.000320743820507108
0.000295000652335467
0.00025445994505303
5.51233877999819e-09
1.04972160516381e-07
9.93161272601436e-08
6.3783363481897e-07
2.73166405269967e-06
5.20195331533013e-07
1.84603291375112e-06
1.27645133640013e-05
1.17901213750798e-05
1.27367778861742e-06
3.68198032572751e-06
2.6874749528889e-05
3.54900656384792e-05
2.34364390878607e-05
2.29135053260342e-06
6.08052993843869e-06
4.23729416474782e-05
5.99791021403393e-05
5.79074911930115e-05
3.56937359951748e-05
3.55529865745428e-06
5.06072937302361e-06
4.8117451860963e-05
7.98004417361698e-05
9.01156525270155e-05
8.48723998078819e-05
5.84973979971682e-05
9.06268915972265e-06
6.77976157927538e-06
6.05605708785083e-05
0.000101053225360927
0.000118873443801077
0.00012172207330439
0.00010990850892031
7.50692773186739e-05
1.26932679286277e-05
8.65446704626657e-06
7.28625009420678e-05
0.000121547186552558
0.000146450937200463
0.000156030332025104
0.000152932307574851
0.000134799246955492
9.20413892336131e-05
1.69494649465401e-05
1.06174323104525e-05
8.48165817529565e-05
0.000141165879525652
0.000172738577760791
0.000188489906716868
0.000191988740562186
0.000183451590931088
0.000159384725520359
0.000109171181608443
2.15263487035662e-05
1.26094897516752e-05
9.62327697194773e-05
0.000159768532066227
0.000197622048174086
0.000219158341615498
0.00022835211148133
0.00022661126394953
0.00021305827668684
0.000183474082811256
0.000125964948944323
2.52401468419929e-05
1.45823359358044e-05
0.000106968373515872
0.000177212952582456
0.000220978155128995
0.00024797937110274
0.000262360937842375
0.000266129117058374
0.000259704084481005
0.000241564088977722
0.000206884550459506
0.000142098474037392
2.36636488074119e-05
1.64921224677021e-05
0.000116917727574716
0.000193373088594522
0.00024268008159247
0.000274850335268055
0.00029408586474845
0.000302669194145618
0.00030172236983029
0.000291065828250018
0.0002688020052608
0.000229928226350777
0.000161378773492461
2.02889434033917e-05
1.82936777880283e-05
0.000125989180295278
0.000208136591666471
0.000262603211345767
0.000299645634979246
0.000323471893258203
0.000336467095260983
0.000340112020579228
0.000334946428232109
0.000320439990069424
0.000294687097970677
0.000254181469021961
0.000201068371483801
0.000124189878276995
1.99368584535964e-05
0.000134087757576323
0.000221389004415931
0.00028061718862456
0.000322223727178159
0.000350395057281137
0.000367532731034851
0.000375280517214309
0.000374551919945403
0.000365495043425429
0.000347444138166216
0.000318858343985642
4.88822340930121e-09
9.42458307517638e-08
8.91482890933359e-08
5.7920713128396e-07
2.49329636886227e-06
4.73327265473375e-07
1.70206411898012e-06
1.19384845152998e-05
1.10195479688591e-05
1.17476978677531e-06
3.43424656262625e-06
2.55434990110407e-05
3.390919952306e-05
2.22400666691178e-05
2.13689383910612e-06
5.72141211160323e-06
4.06536421723264e-05
5.7847110001367e-05
5.58445597758568e-05
3.42048024659962e-05
3.34826950375055e-06
8.58818724992056e-06
5.64894773607851e-05
8.23406640162388e-05
8.75104805175796e-05
7.74354964644828e-05
4.64524337975298e-05
4.80840806958033e-06
6.493273611472e-06
5.88216641888326e-05
9.85500347617026e-05
0.000116018352892782
0.000118774602901801
0.00010712378567526
7.28677662989481e-05
1.21041205507116e-05
8.34904010654775e-06
7.11419999025125e-05
0.000119053286090834
0.000143542447800626
0.000152931200198405
0.00014983023146734
0.000131912632547305
8.97467302114036e-05
1.62614712433796e-05
1.03119388054207e-05
8.32004766635383e-05
0.0001388139354724
0.00016995335355425
0.000185460545177451
0.000188865504916886
0.000180380733747845
0.000156550040755041
0.000106903219676752
2.07863134214298e-05
1.23239250850915e-05
9.48015460928265e-05
0.0001576793454883
0.000195119306386032
0.000216394920054101
0.000225447633354802
0.000223672801023528
0.000210199256600441
0.000180846577169762
0.000123858082833364
2.45393613681744e-05
1.43367752847094e-05
0.000105796983252896
0.000175498799964612
0.000218903981196163
0.000245659283936794
0.000259884881057029
0.000263574932959128
0.000257147090892535
0.00023909015011054
0.000204615919246772
0.000140278106287004
2.31553481956559e-05
1.63091173041723e-05
0.000116078914364192
0.000192139478193962
0.000241169155850135
0.000273135529452325
0.000292226381999947
0.00030071654372722
0.000299724494854081
0.00028907288103342
0.00026687495597679
0.000228155544334751
0.000159924049681306
1.99758155877836e-05
1.81991263938509e-05
0.000125558803553931
0.000207486533269344
0.000261783628264262
0.000298687755725311
0.000322402862043869
0.000335312338979399
0.000338896059249006
0.000333694767392273
0.000319182090997421
0.000293460069686292
0.000253032170786591
0.000200045931190642
0.000123477794136975
1.99623915788823e-05
0.000134149868567399
0.000221433609449913
0.000280621647653777
0.000322175829058882
0.000350289212877357
0.000367367681968481
0.000375058067853457
0.000374276827112638
0.000365176906841957
0.000347102506147783
0.000318531818083825
0.000278063359409824
0.000234670510956515
0.000165658413416824
2.15495951614958e-05
0.000141757716239279
0.00023386758387698
0.000297551902096822
0.000343450968542435
0.00037573004544867
0.000396774690739039
0.000408294323860634
0.000411390967375774
0.000406559157036112
0.000393724812648488
0.000372189866039372
4.26685934177145e-09
8.34512704996218e-08
7.88416469971163e-08
5.19558358222554e-07
2.24908000742474e-06
4.25551129757471e-07
1.55287631311568e-06
1.10654196544986e-05
1.02057790261449e-05
1.07238167848843e-06
3.17382401854026e-06
2.41121760433181e-05
3.22002703134965e-05
2.09528505510119e-05
1.97446722199564e-06
5.33944269389533e-06
3.87805600531003e-05
5.5511144781983e-05
5.35827784424136e-05
3.25785122982959e-05
3.1270885217478e-06
8.07667201969081e-06
5.42689111173928e-05
7.95272344419604e-05
8.46117397111053e-05
7.48040489724554e-05
4.46049916916173e-05
4.53378863047152e-06
1.1454411766076e-05
7.0388801171054e-05
0.000103975705730974
0.000115439152048478
0.000112786296702216
9.5716762583326e-05
5.68578307915525e-05
6.17509860972928e-06
8.00166415352639e-06
6.91565103485947e-05
0.000116170196650063
0.000140179764630568
0.000149348801452974
0.00014624500529513
0.000128576796329902
8.70968119446844e-05
1.54758037109517e-05
9.95330956893013e-06
8.12814328056195e-05
0.00013601764077128
0.000166642439573852
0.000181861012286526
0.000185155662739771
0.000176732415418977
0.000153177764873612
0.000104195494588891
1.99032018005648e-05
1.19741536342073e-05
9.30313926098357e-05
0.000155093788557428
0.000192024004211307
0.00021298066812455
0.000221862837873127
0.000220048445936461
0.000206671923815614
0.00017759714131076
0.000121232571078555
2.36508600166615e-05
1.40164815648338e-05
0.000104251998250406
0.000173237630816634
0.000216172843900433
0.00024261198018016
0.000256641158379892
0.000260236587752249
0.000253810496253014
0.000235862656262556
0.000201649728682373
0.000137879151443211
2.2491153298213e-05
1.60383855066911e-05
0.000114829968617615
0.000190308241690226
0.000238938916648319
0.000270620501938987
0.000289516664848183
0.000297888227346771
0.000296846119523306
0.000286213797028357
0.000264117338049493
0.000225619280387659
0.000157833843214287
1.9516167914878e-05
1.80005483980888e-05
0.000124675231881037
0.000206185007227866
0.00026018108577784
0.000296856957376057
0.000320402610908631
0.000333193294323833
0.000336703416711916
0.000331472113481638
0.000316976340717144
0.000291328264532594
0.000251051012926282
0.000198318838841645
0.000122262217448863
1.98617815527178e-05
0.000133704372372827
0.000220759692672376
0.000279768029310157
0.000321172442339145
0.000349162172253713
0.000366141418268663
0.000373755627697544
0.000372921035759352
0.000363792254323994
0.00034571654370931
0.000317174293063616
0.000276762392576264
0.000233481699669426
0.000164745067412245
2.15783770177235e-05
0.000141831031702201
0.000233927831263359
0.000297574025893257
0.000343420971181023
0.00037564076923704
0.000396623434838171
0.000408081502759621
0.000411119869084076
0.00040623775732426
0.000393370886402056
0.000371840381298816
0.00034037004466548
0.000300271998200823
0.000256808183850395
0.000188489840663143
2.31014010941141e-05
0.000148961247813703
0.000245576327688887
0.000313467531169355
0.000363450858172641
0.000399669694736091
0.000424477825502716
0.000439599147308541
0.00044622342800529
0.000445024932185564
0.000436225398580579
0.000419611758982329
3.65743423885608e-09
7.27231226141014e-08
6.86410012692705e-08
4.59604323771337e-07
2.00140229240323e-06
3.77478004689003e-07
1.4000473151111e-06
1.01510499049247e-05
9.35461110048836e-06
9.67595285409299e-07
2.90298724401223e-06
2.25858459151671e-05
3.03688818591573e-05
1.95814490925431e-05
1.80589491085537e-06
4.93858964056166e-06
3.67602497350152e-05
5.29785721741836e-05
5.11291383020143e-05
3.08220958969482e-05
2.89405088247889e-06
7.53639569674074e-06
5.18489319354184e-05
7.64413269558753e-05
8.14278526699276e-05
7.19138083823329e-05
4.25828435157746e-05
4.2397755605838e-06
1.07591854627762e-05
6.76519809936535e-05
0.000100476626250758
0.000111725238847547
0.000109185591332192
9.25608348613571e-05
5.46759929882087e-05
5.82836637395246e-06
1.46118677704783e-05
8.41141790748837e-05
0.000124804812369779
0.000142186206885591
0.000145291457956707
0.000136370412688526
0.000112904627966204
6.69121579018947e-05
7.61548445755665e-06
9.54502184221197e-06
7.90652046452055e-05
0.000132783102530937
0.000162812567386365
0.000177698424613165
0.000180866444240355
0.000172514111374742
0.000149276760168182
0.000101061224350983
1.88903375645757e-05
1.15632260250178e-05
9.09276889589748e-05
0.000152017773123339
0.000188342495672331
0.000208922239733937
0.000217603991192577
0.000215743419779774
0.000202479205582752
0.000173724688711119
0.000118083273846844
2.25938889339201e-05
1.36235466838117e-05
0.000102338985824292
0.00017043634965023
0.000212791905038283
0.000238844257919628
0.000252635741546308
0.000256118691554015
0.000249696520669935
0.00023187965840172
0.000197974938663744
0.000134874749724648
2.16098205092116e-05
1.56844191744656e-05
0.000113179702692459
0.000187888769218324
0.000235997843785822
0.000267312656043278
0.000285962798028621
0.000294188689380429
0.000293089481824965
0.000282487462074438
0.000260522258852964
0.000222303192481567
0.000155078969523952
1.8913503989106e-05
1.7705542675764e-05
0.000123354836144976
0.000204246617686295
0.000257808143876527
0.000294163754683864
0.00031747965902422
0.000330116448667401
0.000333538335340524
0.000328280080538789
0.000313821351926742
0.000288287089140159
0.000248228932473171
0.000195860942151223
0.000120520306248822
1.96482258454122e-05
0.000132780081147355
0.000219396777226321
0.00027808277992628
0.00031923691342071
0.00034703483759971
0.000363872609566886
0.000371389335328071
0.00037049758334462
0.000361351554016067
0.000343301519257642
0.000314836237815805
0.000274572909350563
0.000231498466229872
0.000163222604561388
2.14719157850807e-05
0.000141372360666502
0.000233233439824369
0.000296691246398705
0.000342378507223168
0.000374463751267595
0.000395335471196522
0.000406704679374025
0.000409675463964185
0.00040474752742837
0.000391857384073152
0.000370324095046182
0.000338862303168131
0.000298845544712684
0.000255493806304311
0.000187448231041872
2.31329386128301e-05
0.000149044992007046
0.000245652239176285
0.00031350824440362
0.000363440670124283
0.000399599939202731
0.000424344427209641
0.000439401263771625
0.000445963142642009
0.000444709074383706
0.000435870850021435
0.000419255549761429
0.000394146601001227
0.000360177436203019
0.000319656754850733
0.000272647271772594
0.000203358028940365
2.45802429452678e-05
0.000155704758403635
0.000256540619702719
0.000328402977332846
0.000382271649052459
0.000422269953078402
0.000450714534379967
0.000469318263957926
0.000479303765608866
0.00048143727507987
0.000476100401955415
0.000463341533155842
3.06108286914913e-09
6.21667965452199e-08
5.86566424755054e-08
4.00045544111061e-07
1.75309201846304e-06
3.29586930466959e-07
1.24519967813396e-06
9.20120402546451e-06
8.47198956694269e-06
8.61598673069572e-07
2.62435293235447e-06
2.09701884537027e-05
2.84206661514046e-05
1.81328754912214e-05
1.63302617010021e-06
4.52185369563872e-06
3.45980689761185e-05
5.02561073805816e-05
4.84905443983996e-05
2.89430862324794e-05
2.6516561048952e-06
6.97270196027502e-06
4.92411640293995e-05
7.30923550902281e-05
7.79674097640992e-05
6.87726974654852e-05
4.03937344333293e-05
3.92935140439606e-06
1.00338881412538e-05
6.46785143050593e-05
9.66396473669275e-05
0.000107643266266032
0.000105225397927419
8.90904469040217e-05
5.22840142446755e-05
5.4565879800485e-06
1.36987699537193e-05
8.08309309333959e-05
0.000120614117833238
0.000137665697935071
0.000140769036392142
0.000132123066897666
0.00010926420390513
6.44161580899541e-05
7.19420248940471e-06
1.77790689490111e-05
9.75325552348581e-05
0.00014486451385034
0.000167737262936928
0.000176007369011118
0.000172981406723723
0.000158471510024958
0.000129117215143841
7.65581320989216e-05
9.09065549691048e-06
1.10947963701962e-05
8.84963584307305e-05
0.000148457629392936
0.000184081784749768
0.000204227091778677
0.000212678741864469
0.000210765244533844
0.000197628637291029
0.000169237825030011
0.000114421613240625
2.1347214639207e-05
1.3161522119687e-05
0.00010006365224346
0.00016710142339448
0.00020876832199267
0.000234363467911144
0.000247875733485655
0.000251227519200903
0.000244809673532842
0.000227141574925642
0.000193584698696044
0.000131250620826429
2.06012533950655e-05
1.524958992625e-05
0.000111133988484542
0.000184888090215116
0.00023235349231241
0.000263219296165753
0.000281571467332193
0.000289623569967298
0.000288458436870433
0.000277894307292578
0.000256083667592654
0.000218186679003224
0.000151611758148955
1.81169842469099e-05
1.73191117097944e-05
0.000121606839142864
0.000201681103712933
0.00025467385012194
0.000290616217242309
0.000313640933706279
0.000326087373689497
0.000329404653092576
0.000324120021616932
0.0003097143494007
0.000284326032120879
0.000244541973056313
0.000192628428931295
0.000118214876168416
1.93299224313284e-05
0.000131393699347015
0.000217360120319834
0.000275579192716713
0.00031638057655096
0.000343916707208624
0.000360568969252713
0.000367965053989082
0.000367010384513978
0.000357856969301546
0.000339858453541294
0.000311515658349473
0.000271474816939966
0.000228694906788323
0.000161059999393355
2.12438994233446e-05
0.000140410756047242
0.000231814937181703
0.000294931271445324
0.00034034833804966
0.000372221510332768
0.000392931355559557
0.000404182245696419
0.000407073564352296
0.000402102618202986
0.00038920541685378
0.00036770362114679
0.000336324866140243
0.000296463995058339
0.000253323534112253
0.00018573520473855
2.30203541082651e-05
0.00014857446535111
0.000244940172357863
0.000312600509899438
0.000362364758256739
0.000398380009071371
0.000423003319605242
0.000437960347420271
0.000444442755242124
0.000443129428297318
0.000434251698733229
0.000417611802727921
0.000392477446317363
0.000358552775596806
0.000318113767326714
0.000271228976483525
0.000202219029515662
2.46153391759818e-05
0.000155797509444097
0.00025663144279638
0.00032846255736304
0.00038228255904208
0.000422222018876758
0.000450602316883056
0.000469139717628673
0.000479059912376139
0.000481134081166685
0.000475754338270821
0.000462990453302422
0.000442572940820854
0.00041399670744937
0.000377842426616194
0.000335079078834484
0.000283702625537344
0.000213120533413452
2.59683217918695e-05
0.000161983533239826
0.0002667772192693
0.000342388575809687
0.000399952056602703
0.000443574329909874
0.000475534834130013
0.000497523651402798
0.00051076626757718
0.000516070231018729
0.000513906857922494
0.00050447126357142
2.48577950244322e-09
5.18995971886535e-08
4.89412299456768e-08
3.41529397646813e-07
1.50656030814863e-06
2.82324822190537e-07
1.09011429118914e-06
8.22266408052666e-06
7.56461141725019e-06
7.55487045666457e-07
2.34092126433201e-06
1.92708448198957e-05
2.63611749344245e-05
1.66141455964293e-05
1.45753623537112e-06
4.09191157565167e-06
3.22996402732338e-05
4.73503589057517e-05
4.56737576262338e-05
2.69493307240224e-05
2.4023924585178e-06
6.3869244777284e-06
4.64512661180611e-05
6.94882732958786e-05
7.42389573786544e-05
6.53887089910458e-05
3.80459899015493e-05
3.6057553304426e-06
9.28900810660859e-06
6.14838510601152e-05
9.24765084898621e-05
0.000103203953986694
0.000100915387452043
8.53141281159242e-05
4.96900323436529e-05
5.06339440655491e-06
1.27704760656178e-05
7.72835216897035e-05
0.000116023582013597
0.000132696701771529
0.000135792652800101
0.00012744737825859
0.00010525735686327
6.16764348064843e-05
6.74178970954574e-06
1.66078517253489e-05
9.36588909853066e-05
0.000139966381024552
0.00016241695951643
0.00017059017239662
0.000167720138260223
0.000153628154128746
0.000125027730904123
7.37674892347103e-05
8.59449825835343e-06
1.99989306304057e-05
0.000110289622263354
0.00016415879628123
0.00019213380471733
0.000205124704681307
0.000207096852233157
0.000198904145874178
0.000179249836212637
0.000144420352122005
8.57439916010628e-05
1.05729595243238e-05
1.26343124264749e-05
9.74319648055597e-05
0.000163239294032965
0.000204109253118882
0.000229177432754416
0.000242369313287618
0.000245571168818316
0.000239157455383962
0.00022165492922283
0.000188483902033901
0.000127001161631603
1.93016864662103e-05
1.47379438549997e-05
0.000108698810473574
0.000181313221981547
0.000228013466196535
0.000258348371543435
0.000276350573007693
0.000284200230247447
0.000282959009229971
0.00027243744229614
0.000250797580758905
0.000213252575674672
0.000147402347189224
1.71932191329027e-05