/*--------------------------------*- C++ -*----------------------------------*\
  =========                 |
  \\      /  F ield         | OpenFOAM: The Open Source CFD Toolbox
   \\    /   O peration     | Website:  https://openfoam.org
    \\  /    A nd           | Version:  12
     \\/     M anipulation  |
\*---------------------------------------------------------------------------*/
/*   Windows 32 and 64 bit porting by blueCAPE: http://www.bluecape.com.pt   *\
|  Based on Windows porting (2.0.x v4) by Symscape: http://www.symscape.com   |
\*---------------------------------------------------------------------------*/
FoamFile
{
    format      ascii;
    class       volScalarField;
    location    "400";
    object      omega;
}
// * * * * * * * * * * * * * * * * * * * * * * * * * * * * * * * * * * * * * //

dimensions      [0 0 -1 0 0 0 0];

internalField   nonuniform List<scalar> 
10103
(
3.73734922155493
3.73735139990989
3.98683253486339
3.04791046762875
3.73734077550497
3.98685621615656
3.04790917893939
4.20371297736552
0.848033565425016
3.02834735616194
3.737337763125
3.98680068813873
3.04791210468647
4.20375907813518
0.846406777248205
3.02834794752523
4.33730861222848
0.757583885250623
0.610967931479826
2.99243724289199
3.73732114530662
3.98681679011599
3.04791498764207
4.203664915431
0.846655885289776
3.02835118919333
4.3373393973255
0.756033720509235
0.610641761864799
2.99244006801209
4.40627919263996
0.791522116585269
0.396769055918812
0.607734478165718
2.97494419100702
3.73728427170651
3.9867989189361
3.04790170369421
4.20369924186754
0.848248759341146
3.02835913660116
4.33728647904058
0.755469049064392
0.610399436353036
2.99244799032097
4.40629050079893
0.790814596448736
0.396344427756661
0.607608133675542
2.97495134666853
4.43507589818257
0.827557774180144
0.379646871246493
0.342028149972085
0.628307967617792
2.97384212483954
3.73722872139226
3.98676421136003
3.04792987876444
4.20369169356904
0.849834452976601
3.02836007758106
4.33729950117782
0.754860141064238
0.611361903817984
2.99246698653983
4.40628175629652
0.790230018510944
0.395844643554691
0.607217990462661
2.97496934782962
4.43508596841634
0.827282901017132
0.379373717753264
0.341812949724343
0.62815911425143
2.97385721902173
4.43971636349095
0.85777437034606
0.389997784985864
0.291026695499707
0.337915565209968
0.651942722814237
2.97198803640423
3.73714643361032
3.98670658375187
3.04794837432847
4.20367229261342
0.851159997852739
3.02840564255434
4.33730123297346
0.753957186087733
0.612091135280424
2.99250586118799
4.40627431959321
0.789297410256365
0.39514166921414
0.607162413829582
2.9750102350848
4.43508636903859
0.826693815280061
0.378854971158842
0.341324178058249
0.627661647166122
2.97389427764657
4.43972528214075
0.8576156330978
0.389819277917329
0.290844726482648
0.337701495981712
0.651751491410833
2.97201657546414
4.43310442460738
0.882405788879359
0.404765647450974
0.281628204130971
0.266960377152191
0.345854545366259
0.673578122072363
2.96211912703611
3.73702866342576
3.9866247707707
3.04797769752047
4.20363732171202
0.852302947029891
3.02845593145822
4.33729825297123
0.752727670100856
0.612389223569896
2.99257645964016
4.40627734069788
0.78795799166795
0.394115883286217
0.606943058596129
2.97509292121143
4.43507521138449
0.82565974376998
0.377991792707634
0.340569578308772
0.627061605905912
2.97397663997968
4.43973336842385
0.8570031760026
0.389303535422202
0.290375319185162
0.337194179950135
0.651177265815205
2.97208661131671
4.43310833819501
0.882280068811288
0.404623592494551
0.281481879988662
0.266784641324769
0.345616773312634
0.673347481711843
2.96216578014264
4.42456998660237
0.902966575759636
0.419344949950194
0.283886872377616
0.244506756646391
0.262123097554014
0.356490078805118
0.691786649799872
2.95324750513219
3.73686764118494
3.98651152396347
3.04801915079783
4.20358842097583
0.853303697189684
3.0285325872903
4.33728088860487
0.751184909763978
0.612313889572478
2.99269304030253
4.40628011236471
0.786211126147414
0.392697532485003
0.60624727927416
2.97524339474053
4.43507851029866
0.824160893461028
0.37674991855504
0.339491917232225
0.626244296053292
2.97414178543704
4.43971614115761
0.85589056830518
0.388407015594338
0.289594062858799
0.336382403943125
0.650314079770091
2.97224123066895
4.43311275021557
0.881644654317514
0.404105240768934
0.281031666172088
0.266326615380774
0.345080032151404
0.672716453704955
2.96228657760098
4.42456977819959
0.902864416305262
0.419221589004868
0.283759615120821
0.244362216797331
0.261939240874039
0.356238928326113
0.691500854019079
2.95331968323941
4.41827024575506
0.920950369586521
0.432859016562917
0.289879652536752
0.23799845043988
0.230826220480207
0.263913682660755
0.366907090969717
0.707844271406673
2.98372909100893
3.73665261468742
3.04807018476487
3.98635918382597
4.20352274260704
0.854101684457799
3.0286380357441
4.33726201484686
0.749337519755241
0.611920504200649
2.99286812541596
4.40627353604342
0.784058985131658
0.390884423269509
0.605109504197186
2.9754914056977
4.43507944353046
0.82219531571086
0.375116215337616
0.338036062793443
0.624945837919359
2.97444144727839
4.43972260943726
0.854272538366573
0.387113839322736
0.288480594675777
0.335239937744922
0.649151003649468
2.97254967116919
4.43310458148978
0.880472108403106
0.403183497261475
0.28026245868646
0.265572288449796
0.344220051970546
0.671717348109361
2.96255378015007
4.42457057845584
0.902212010617499
0.418698946021324
0.283319834065881
0.243940717855711
0.261476935980627
0.355673977917578
0.690821421437914
2.95350873117985
4.41827379458625
0.920868134622566
0.432750040185789
0.28976483165282
0.237872032059728
0.230676907827673
0.263722223602412
0.36664429127451
0.707519298035887
2.98382676028519
4.41468847815087
0.937258076253857
0.445303148966877
0.297066312223959
0.237820627097475
0.218098126757757
0.22636392311906
0.267823733380784
0.376258419190723
0.726576331673372
3.21034670515829
3.73636100712315
3.04812856616502
3.986177159555
3.02876727472946
0.854755445148598
4.20343550655953
4.33723769441154
0.747192651192733
0.611238875437454
2.99310457387179
4.4062689143869
0.781504744784415
0.38868046465734
0.603570501387247
2.97586066853844
4.43508062320651
0.81976150347182
0.373086808665065
0.33619081718064
0.623171100789567
2.97493357574233
4.43972415789802
0.85214400743195
0.385417556956264
0.287020503778508
0.333719404708287
0.647507972483803
2.97310666001544
4.43310349426461
0.878759738315608
0.401849756868482
0.279163892602046
0.264506500630263
0.343012282334415
0.670353409892527
2.96308620753859
4.42456961313311
0.900994455896249
0.417756022168722
0.282555451260292
0.243232777412128
0.260723197507601
0.354771030981695
0.689708656618531
2.95392509349629
4.4182697262471
0.920205989160083
0.432223981409057
0.28933061954309
0.237472191858222
0.230265336646126
0.263251160022184
0.366055901967502
0.706802334302051
2.98408378225068
4.41469615940661
0.937195471907303
0.445206645463151
0.296961469382873
0.237706427943116
0.217969104284571
0.226209823756758
0.267625938536698
0.375986293364477
0.726231839152504
3.21045868736685
4.41297865150931
0.952270781599034
0.456804467507762
0.304535112067399
0.240437641267912
0.213411761799049
0.209119164083307
0.225676164202665
0.271871925654797
0.384233379715815
0.758970778332363
4.87759952916195
3.73597001609313
3.04819214804633
3.98586592895936
3.02891045680058
0.855321928194204
4.2033414642153
2.99338842102497
0.610275999403329
0.744769021459542
4.33720574194912
4.40626270054063
0.778556039956337
0.386086440520307
0.601668072695375
2.97635217452197
4.43508457337518
0.81686118596779
0.370657517052153
0.333955368939507
0.620951028044775
2.97566089829504
4.43972696868825
0.849500875471709
0.383313918427714
0.285206611902847
0.331809362995252
0.645374370072167
2.97401593288769
4.43310881036563
0.876503013426253
0.400098609971426
0.277728483047275
0.263115200909253
0.341423758284109
0.668513290774756
2.96404445955458
4.42456137573636
0.899207616178467
0.416385972356027
0.281459366946
0.242229888250763
0.259665013619777
0.353509200595526
0.688200770841118
2.95476459648408
4.41826801530798
0.918953793328581
0.431263631140237
0.288566020584792
0.236790839937104
0.229583532892571
0.262488819885867
0.365116260477387
0.705619912109001
2.98467273924207
4.41468665981303
0.936527347419734
0.444678910300345
0.296530859611817
0.237320005654395
0.217588698236534
0.225800680457102
0.267146381947494
0.375379364658997
0.725483202201249
3.21076452338719
4.41298208579994
0.952226710444526
0.456719432811395
0.304439053097106
0.240333079778204
0.213296444033052
0.208987631701392
0.2255182760307
0.271669537459537
0.383955628522371
0.758629606002822
4.87775595528554
4.41227332312209
0.966117921497286
0.467458054936809
0.311918014562659
0.244355159996512
0.21264803749809
0.201086328120654
0.205099886456053
0.22624022319777
0.27464671604003
0.38853553764405
0.8042025529187
3.73542850845234
3.04826009650922
3.98554453769171
3.0290614195225
0.855773588539396
4.20314921555509
2.99369149855641
0.609040857999447
0.742090043569305
4.33716393661953
2.9769277438473
0.599403379566403
0.383100938566919
0.775220451894722
4.40625490917017
4.43507805427943
0.813496898146265
0.367823937605176
0.331328247339195
0.618306382426539
2.97661598811017
4.439735406989
0.84634269885447
0.380798142748134
0.283033382704128
0.329508007612229
0.642775140541848
2.9753486863003
4.43311223617488
0.873695361821208
0.397925406425847
0.275950605941119
0.261391028758438
0.339442566524062
0.666190144781994
2.9656010962143
4.42457074454339
0.896848386829487
0.414584819354302
0.280026513235094
0.240924879661619
0.258290101327013
0.35186419787229
0.686222176439686
2.95628368553332
4.41825931584835
0.917107875089782
0.429862961160509
0.287464991883748
0.235821852699533
0.228624027943577
0.261424206383456
0.363811048731397
0.704010315854509
2.98588096766863
4.41468373781182
0.935247687259744
0.443704548788363
0.295764027082478
0.236653708410259
0.216950472280052
0.225129700477834
0.266374452110801
0.374413857365432
0.724262040417957
3.2115270184991
4.41297538578652
0.951555784134575
0.456191286880087
0.30401130928699
0.239955808274792
0.212936174183861
0.208617419300651
0.225109554346636
0.271184033927626
0.383336022521581
0.757849119845245
4.87817068871056
4.41226776602996
0.966090439341204
0.467383763853109
0.311830038879501
0.244258856031096
0.212543233774811
0.200970176753865
0.204966674649441
0.226080262120905
0.274443339613761
0.388263090662678
0.803889852693397
3.18378836646791
4.41201757233935
0.978857535663566
0.477322795689726
0.319047143474887
0.24886475405357
0.213943008906784
0.19777867111619
0.194579116898246
0.203251936527985
0.226500823106673
0.273934035907001
0.375618457419347
3.73469763655541
3.04834526558004
3.98511409370256
3.02922984717811
0.856108092372967
4.20299215625941
2.99398959432219
0.607484647220618
0.739162801042421
4.33710942990764
2.97751119685036
0.596779525779586
0.379721236097924
0.771506743638604
4.40624563905747
2.97770537882038
0.615238649520081
0.32830298082356
0.364580449718006
0.809670913841542
4.43507133324402
4.43972516836721
0.842667831489221
0.377864677040174
0.280494747736082
0.326811431472852
0.639709418119014
2.97707661850531
4.43312040385567
0.8703351234079
0.395325283004169
0.273824872393964
0.259328059641461
0.337068430867866
0.6633821583282
2.96786816926001
4.42457469765671
0.89391022156982
0.41234734519419
0.278252217071359
0.239312160319277
0.256591491777571
0.349828270176164
0.683763845254239
2.95875325819566
4.41826963566356
0.914665902942591
0.428017862497528
0.286023434267976
0.234560525862635
0.227380416955043
0.260047423125523
0.36212435910099
0.701949748668653
2.98812129146836
4.41467459517049
0.933354028732779
0.442277680003741
0.294655274219208
0.235702260054435
0.216049113223847
0.224190588258405
0.265301567742945
0.373078586719073
0.722588330798452
3.21320532689983
4.41297161728593
0.950254743922871
0.455205436686618
0.303241583889773
0.239298337384027
0.212325120510989
0.208003399665215
0.224444234108694
0.270406150693047
0.382355441296841
0.756592702891823
4.87934849469073
4.41226402572497
0.965419543393336
0.466856182457476
0.311404850034041
0.24388833602894
0.212196911367271
0.20062570556392
0.204603157690579
0.225672938244565
0.273956571077905
0.387640346017157
0.803104928021831
3.18392126296775
4.41200703796252
0.978845201118677
0.477258627037826
0.318966789551886
0.24877582500944
0.213846863673746
0.197674108243077
0.194462844540475
0.203118549050596
0.226342200586652
0.273739125675366
0.375397395250205
0.440172792776828
0.667991278828446
4.41193220525402
0.990546116871691
0.486442361342044
0.32583890155047
0.253597732053607
0.21635453433934
0.197089631955606
0.189361747017985
0.190950851698857
0.202019628008112
0.225076184030434
0.265696572823025
3.73376668954166
3.048482783321
3.98461401927223
3.02945354012724
0.85631547501401
4.20280529136216
2.9942910102377
0.605657915339698
0.736017397121046
4.33706569708152
2.97802345510432
0.59379390568936
0.37593772121752
0.767423563391062
4.40623384469903
2.97874411127788
0.611736853025563
0.324871282730767
0.360919945080551
0.805384220400831
4.43507478299561
2.97899934388573
0.636186440628128
0.323711244798262
0.277583031554197
0.374506269825939
0.838473489105058
4.43971475459327
4.43311048421536
0.866415550144657
0.392292103791611
0.271345141788546
0.256919901743676
0.334295788476038
0.660068891208063
2.9707810159132
4.42458348821906
0.890389007063474
0.409668248543843
0.276131585778169
0.237386456752499
0.254563402238535
0.347396785952255
0.680838338950721
2.96235524925807
4.41827419319998
0.911621672111477
0.425723812719979
0.284237398269552
0.233002685223993
0.225847775385169
0.258352526225871
0.36004935611779
0.699454379182453
2.9917960980358
4.4146859961745
0.930843597707535
0.440394607314217
0.293200833029473
0.234462018951489
0.214880597008925
0.2229782545927
0.263920981664266
0.371368364952034
0.720497423478637
3.21627900450719
4.41296243576115
0.948321952098097
0.453756289398111
0.302124218033107
0.238355723086096
0.211458872374549
0.207141290060914
0.223517545567127
0.26932995833465
0.381006420858206
0.754905694390781
4.88259044344408
4.41225584405502
0.964102120794089
0.465861062842919
0.310632090392787
0.243236139733592
0.211603536484663
0.200048544492687
0.204005329847099
0.225013585675801
0.27317949721627
0.38665897742511
0.801905256524846
3.18443161688371
4.41200226911478
0.978176258853701
0.476732520239724
0.31854406415213
0.248410591397095
0.21351072800928
0.197347627571895
0.194129602118786
0.202761384959418
0.225939427805686
0.273258754103612
0.374791206987359
0.439406415193191
0.667033490165346
4.4119211858135
0.990548564811215
0.486387822047181
0.325765864855477
0.25351558408767
0.216265818545371
0.19699431651901
0.189258063687554
0.190835708917688
0.20188900315275
0.224926606614083
0.265543938646233
0.309283832253824
0.334851337522506
0.445805697497416
4.4118995275966
1.00124940668226
0.494857655418322
0.332251670469468
0.258348399587365
0.219364999036174
0.19791589073626
0.187169888283527
0.18435489786646
0.188633905816262
0.20038071520767
0.220677834582378
3.73273214225141
3.04875147233586
3.98413707827086
3.02981072677852
0.856466450685714
4.20266882073121
2.9946608096763
0.603678936197948
0.732680144437291
4.33705768860459
2.97844811532053
0.590457274583103
0.371750485284918
0.762986188159475
4.40624125098417
2.97952090987583
0.607777006599803
0.321023346832218
0.356833685491214
0.800639101375443
4.43507790662619
2.98071858754717
0.632186599722526
0.320197013172902
0.274289160239129
0.370714078691741
0.833756469394652
4.43972288954153
2.97396486408835
0.65623686226427
0.331112557149809
0.254158601669039
0.268504006140008
0.388817626291983
0.861932503343173
4.43310355791921
4.4245732802205
0.886276054680651
0.406540519476357
0.27365896823976
0.235142150325937
0.25219924397619
0.34455783940832
0.677428104136267
2.96698405533615
4.418283770928
0.907969252391159
0.422974886460062
0.282102266146375
0.231144025793721
0.224021266574278
0.25633379060477
0.357581447616937
0.696527467485847
2.9972445107505
4.41469518915327
0.927711223672347
0.438050985695562
0.291397257244162
0.23292975483898
0.213441559272513
0.221488880622203
0.262228192081826
0.369279635387882
0.718037094692396
3.2219366922213
4.41297483687434
0.945755131236075
0.451840268786564
0.300655633237657
0.237124785962207
0.210334517025143
0.206028159856899
0.222326283904596
0.267952800413166
0.379292191432603
0.752841847731106
4.88752227851304
4.41225570098546
0.962137340625776
0.464392973922306
0.309506057699215
0.242297429574905
0.210759124724622
0.199235351398163
0.203170239460692
0.224099493520392
0.272109963603945
0.385321765500078
0.800456207894487
3.1861432496099
4.41199000804579
0.976846108772009
0.47573007423143
0.317768463101962
0.247761540747767
0.212929207135905
0.196795264887694
0.193576231377761
0.202177552916255
0.225289744033148
0.272493237591438
0.373846664678014
0.438271932757451
0.665711657528194
4.41191577026331
0.989882937296255
0.485863859171662
0.325345692943459
0.253154742120941
0.215937442832119
0.196680935001654
0.188946064520174
0.190512275078301
0.201539840673407
0.224533057813746
0.265076584641476
0.308699000431949
0.334181739879504
0.444934372266228
4.41188856594604
1.00126705504592
0.494812360287092
0.332185729960779
0.258272652819693
0.219282875107253
0.197828235427129
0.187076002024299
0.184253129364858
0.188522379469581
0.200259322464941
0.220564484163847
0.246478469918339
0.270664057239419
0.304742064231991
0.409719231885952
4.41190497621237
1.01103703965392
0.50260938802887
0.33826772970822
0.262996826002065
0.222672061754024
0.199631977029454
0.186787207113235
0.181059455805487
0.181161020066561
0.186715361881207
0.19771346978324
3.73151955475405
3.04933261594638
3.98391687682987
3.03044320290094
0.856691526986076
4.20274494385181
2.99522890948021
0.60159402485845
0.729191583699337
4.33716974658718
2.97889182525409
0.586812644078812
0.367164328463417
0.758209800639726
4.40630343576115
2.97994622591734
0.603375483932305
0.316749793882505
0.352313200100959
0.795441225427496
4.43509295505786
2.98174569539078
0.627661829665513
0.316261214664782
0.270603005929908
0.366478011876905
0.828513028535472
4.43972784740026
2.97665176294687
0.651824238831442
0.327503001042036
0.251034931836028
0.265292847673983
0.384891938756294
0.856879772164017
4.43310362571774
2.97203803679816
0.67345846632154
0.341294826392822
0.249490425014326
0.232572715674868
0.270827515114956
0.402955670126575
0.881563495742889
4.42456921235463
4.41827315177398
0.903698365186772
0.419763375861995
0.279612676151022
0.228979957761489
0.221895954354796
0.253984163019603
0.35470740934801
0.693133062410818
3.00434827639555
4.41469688854442
0.923949734310983
0.435240538526917
0.2892401453624
0.231101977116008
0.211728557576684
0.219718508655183
0.260218851445502
0.36681037669214
0.715223749904066
3.22967143266788
4.41298840925913
0.942548941058069
0.44945285456079
0.29883246058669
0.235602863955172
0.208949729185184
0.204661809196896
0.220868435821588
0.266273099263967
0.377220561334456
0.750513163312173
4.90074117467561
4.41226470640602
0.959523339438374
0.462448325991351
0.308023164445383
0.241069235225601
0.209661314658379
0.198184282217998
0.202096552842905
0.222930167589656
0.270750338299453
0.383638134145604
0.798676732989875
3.18875765259067
4.41199921231785
0.974855660524828
0.474245982700356
0.316634163656971
0.246823833647981
0.212098517446823
0.196014162119645
0.192800693378122
0.20136593293533
0.224393610789635
0.271446919333445
0.372582318366715
0.436769216412081
0.663977265092396
4.41190367474504
0.988543523862182
0.48485578342708
0.324567656996952
0.252507587799171
0.215364046408103
0.196145727678659
0.188423043319195
0.189978522592113
0.200971032173672
0.223898877551745
0.264337173463041
0.307827651264451
0.333172921533758
0.443661503050024
4.41188297337482
1.00060671541173
0.494291162279476
0.331768279633187
0.257915705914154
0.218960678419124
0.197524716579485
0.186779425627487
0.183953350219013
0.18820918447414
0.19992066063844
0.220180814843108
0.246007648002901
0.270124659236053
0.304109086845698
0.40888138392993
4.41189465792056
1.01107018224881
0.502573227855897
0.338208718954284
0.262927265511326
0.222595992866859
0.199550896357429
0.186701202969564
0.180967873156142
0.181063299911199
0.186613107684374
0.197625218764902
0.213178186273569
0.230803470008025
0.252502511236585
0.295524628179862
0.403455605163689
4.41190842946719
1.01997768492092
0.50973672497201
0.343883495852743
0.267471787320309
0.226091223631427
0.201862565890957
0.187512188510545
0.179772580253433
0.177124272983794
0.178880466018473
0.184701383433406
3.73119428472262
3.05053386832833
3.98428819725289
3.03160179573688
0.857172444630036
4.20336756119692
2.99619148125814
0.599531493871283
0.725616283171493
4.33759606027879
2.9795889926814
0.582923997200782
0.362181037138988
0.753123233235531
4.40650204661802
2.98021101692259
0.598579298170771
0.312044607045416
0.347349101019923
0.789796769196114
4.43516288998876
2.98180967585644
0.622520613216864
0.311889116916149
0.266513752088518
0.361787140841446
0.822740017719806
4.43974510435196
2.97777386801731
0.646730449998197
0.323448080656057
0.247539304652618
0.261702046864536
0.380503431164049
0.851246956049958
4.43311186194363
2.97617231439773
0.668802406720525
0.337582004885952
0.246426724485664
0.229670741331183
0.267629067699725
0.398903351125512
0.87624180706486
4.42456125810728
3.01230598021972
0.689155803599151
0.35139956424793
0.251293966954979
0.219466063929497
0.226505218402403
0.276762217358725
0.416080129591916
0.898799276697091
4.41826854400994
4.41468992709466
0.919546917049259
0.431955115287583
0.28672428277446
0.228974874221929
0.209738179489537
0.217663169432844
0.257886526212809
0.363945211262414
0.712020773792525
3.24161347205935
4.412981495787
0.938694034951242
0.446587847017349
0.296650693639742
0.233787109808974
0.207302212039389
0.203040118551426
0.219141865125745
0.264289889376582
0.374795396148758
0.747891308599188
4.91328183671417
4.41227823508888
0.95625437218628
0.460022252366818
0.306180098183362
0.239549203624792
0.20830844335044
0.196894246663683
0.20078385972483
0.221506580983321
0.269104624521728
0.381632997739089
0.796883896666089
3.19693607991513
4.41200460182899
0.972201382179256
0.472276368814352
0.31513748657929
0.245594570830792
0.211016586310989
0.195003048398727
0.191802622662862
0.200327481166777
0.223254391162581
0.270128289118195
0.371006066321147
0.434907145435297
0.661828275122327
4.41191349574454
0.986532356080139
0.483358335576659
0.323425782655932
0.251569211913407
0.214541923363182
0.195386083943159
0.187687430015744
0.189234118448848
0.200184274745175
0.223029815213765
0.263338196836772
0.306667370474346
0.331822536124185
0.441947943702827
4.41187097527514
0.999261550878108
0.493279060107563
0.330988359230707
0.257269797735146
0.218393011814995
0.197001645819013
0.186277665904265
0.183453958840786
0.187693971603638
0.199369176786331
0.219566963842793
0.245303596878303
0.269317136528601
0.303156804696232
0.40766072290791
4.4118896373895
1.01041674587042
0.502055539316732
0.337794250605847
0.262574010298736
0.222278993965016
0.199255083727282
0.18641615065191
0.180685193671978
0.180775242608383
0.186311196653216
0.197295080592121
0.212782950398562
0.23035665929108
0.251989817386585
0.294901564123943
0.402620520340709
4.411898946231
1.02002416998256
0.509709858069366
0.343831335676726
0.267408343711093
0.226020925893374
0.201787364917952
0.187432758100272
0.179688989812871
0.177036867344496
0.178791907777024
0.184630497437895
0.194065849229786
0.206098075167401
0.221087613989362
0.244827633546014
0.293399760331713
0.40455522454275
4.41191565696349
1.02812814530902
0.516275715000061
0.3491032332945
0.271731176113987
0.229506579555146
0.204372897435297
0.18891729622925
0.179744338894898
0.175199811468298
0.174446439451797
0.177015321142173
3.72980706632655
3.05303312703156
3.9858017671708
3.03371779020565
0.858239501735183
4.20505698251919
2.99783450459337
0.597660213626998
0.722057778630938
4.33872403581603
2.98084623152946
0.578953017603037
0.356813577067743
0.747777748668587
4.40704449504757
2.98079964889272
0.593414696254272
0.306903558441147
0.34193192972457
0.783724953406778
4.4353653944105
2.98127239084857
0.616739598535479
0.307074972667084
0.262010431530882
0.356629187299266
0.816438188623233
4.4398049416014
2.97658412991545
0.64082730537263
0.318927488686914
0.243661768079596
0.257721302903122
0.375639414012143
0.845026594754595
4.4331268676292
2.97712680683831
0.663256274565221
0.333388467342809
0.242997427059456
0.226428329003454
0.264054421821715
0.394370638833609
0.870297231078281
4.42457271021127
3.01909300005156
0.684420343968472
0.347615760527799
0.248250793770526
0.216725056333553
0.223713828455756
0.273543307747161
0.411914035160576
0.893258038194646
4.41825941046303
3.2535983286712
0.708243043458521
0.360645081989882
0.255220059294135
0.215317900203105
0.207466626237107
0.226544139391918
0.283843496684147
0.428184995596281
0.914491608839322
4.41468508493501
4.41297828644528
0.93417917985398
0.443236654571225
0.294105169128143
0.231674270328255
0.205389667570137
0.20116116077278
0.217144473674984
0.261999183755853
0.372005746499223
0.745093178433711
4.94475963855479
4.4122706148914
0.952318645516944
0.45710857652295
0.303973063962392
0.237734974411756
0.206699035320358
0.19536441994153
0.199232067340574
0.219829967420032
0.267178552920395
0.379316647194609
0.794775147058852
3.20514503594968
4.41201799720138
0.968877634154541
0.469816297785362
0.31327506375028
0.244071573301651
0.20968215235741
0.193761515781267
0.190582657648898
0.199064511442409
0.221877783895742
0.268550120067712
0.369166692759501
0.432753948709088
0.659481191383134
4.41191902232994
0.983843935851699
0.481367159636548
0.321916218456219
0.250336708378639
0.213469147753804
0.194401043542125
0.186739359800655
0.188280738433859
0.199183788981251
0.221934462521812
0.262093845905138
0.30523428928335
0.330141529405406
0.439779858339395
4.41188085684322
0.997233605021581
0.491770642838102
0.32983979357988
0.256329904905255
0.217576166080431
0.196256520238822
0.185569377026886
0.182754980208497
0.186978952940536
0.198611224565543
0.218735317230805
0.244368647615917
0.268246982154081
0.301886429174147
0.406023434013264
4.41187795539698
1.0090692431488
0.50104111455643
0.337013126008082
0.261929132020065
0.221715580691377
0.198740834901629
0.185929618531453
0.180209979408958
0.180296803437733
0.185814444820554
0.196761311336202
0.212189438072031
0.229690312228881
0.25122290022761
0.293972220032034
0.401415351163435
4.4118952858957
1.01937865870536
0.509196638406587
0.343420280670521
0.267058834205352
0.225708605290962
0.201497876833085
0.187156611023522
0.17941900362699
0.176766888968712
0.178515621529766
0.184336555746503
0.193721907013469
0.20571760833456
0.220658991325012
0.24432539165518
0.292772647742227
0.403710157590029
4.41191028755742
1.02817776875077
0.516258201673005
0.349058119808304
0.271673976458776
0.229442014368741
0.204303215191204
0.188843607344773
0.179667251853632
0.175120324159749
0.174367956253265
0.176956917862109
0.182513286885065
0.190494634891447
0.200920642124954
0.215927958611667
0.242021916446514
0.293854273257727
0.407858602622653
1.03549642958347
0.522257565301232
0.353934872316545
0.27575070636837
0.232844072741411
0.207011653681935
0.190731135753736
0.180514282085343
0.174619575874532
0.172125061387853
0.172497308004361
3.73222390316149
3.05702376403129
3.98802086140758
3.03739650218479
0.859867161031684
4.20832058114266
3.00059479822098
0.596123654996416
0.718670741133233
4.34115802681052
2.9830000182944
0.575037890315606
0.351081967756159
0.742261138846994
4.40834345907444
2.98228923855998
0.587916554623788
0.301329531880321
0.336054146461032
0.77726593724912
4.43591004973567
2.9812211633034
0.610462279022343
0.301814178631595
0.257081427359262
0.350991950990186
0.80961817282616
4.43999119860972
2.97371997420901
0.634114791118616
0.313934392677143
0.239393962578246
0.253339670326514
0.370285842473169
0.838211858539428
4.43317923465626
2.97269085907046
0.656619506337831
0.328687955595622
0.239193305828851
0.222837619131988
0.260093694741269
0.389343468867187
0.863717891195816
4.42458602420099
3.02013570071261
0.678581111160574
0.343302800507877
0.244841754574003
0.213666273083996
0.220599368980224
0.269947140078866
0.407251545843526
0.887060574218783
4.41827085300465
3.26799751162666
0.703584440042766
0.356847958342914
0.25220381266594
0.212676812094175
0.204909721398327
0.223804943304887
0.280590528804766
0.423918242451466
0.908767558537966
4.41467513577452
4.96589621338643
0.741658628647458
0.368799486374365
0.259390081444692
0.214872818198568
0.199022759365875
0.203209682704524
0.229260753581986
0.291189874341902
0.439389083117569
0.928990683294316
4.41297355357068
4.41226721043568
0.947707095643397
0.453698504843436
0.301396992886594
0.23562373146088
0.204831612613245
0.193594225758656
0.197441505804696
0.217902062939476
0.26497576732
0.376707754820023
0.79315792016799
3.22819544540167
4.41201010782603
0.964874134466941
0.466859117338916
0.3110431940973
0.242252756539456
0.20809430102343
0.192289615825678
0.189141960148606
0.197580123036838
0.2202709710451
0.266729593682679
0.367080135913597
0.430333928739194
0.656755157245202
4.41193244564022
0.980475103799155
0.478877073611761
0.320035532020035
0.248807968146339
0.212144700211479
0.193190605722406
0.185580030774814
0.187121411368283
0.197975871393344
0.220625314041373
0.260628635474514
0.303572554814876
0.328167656124264
0.437149403712004
4.41188593691433
0.994520352481417
0.489760952637049
0.328318476952158
0.255093053279828
0.216508277789309
0.195288545629223
0.184654939949582
0.181858381052357
0.186068606295189
0.197655378947557
0.217699844597506
0.243220059129485
0.266935949456278
0.300312977256995
0.403952951181813
4.41188734811947
1.00703286510329
0.499524221440193
0.335858892559061
0.260987453877647
0.22090198730794
0.19800566836418
0.185240340360083
0.17954237111448
0.179630308538008