/*--------------------------------*- C++ -*----------------------------------*\
  =========                 |
  \\      /  F ield         | OpenFOAM: The Open Source CFD Toolbox
   \\    /   O peration     | Website:  https://openfoam.org
    \\  /    A nd           | Version:  12
     \\/     M anipulation  |
\*---------------------------------------------------------------------------*/
/*   Windows 32 and 64 bit porting by blueCAPE: http://www.bluecape.com.pt   *\
|  Based on Windows porting (2.0.x v4) by Symscape: http://www.symscape.com   |
\*---------------------------------------------------------------------------*/
FoamFile
{
    format      ascii;
    class       volScalarField;
    location    "400";
    object      p;
}
// * * * * * * * * * * * * * * * * * * * * * * * * * * * * * * * * * * * * * //

dimensions      [0 2 -2 0 0 0 0];

internalField   nonuniform List<scalar> 
10103
(
83333.3281899044
83333.3281870474
83333.3281899163
83333.3281899029
83333.3281841849
83333.3281870462
83333.3281870502
83333.3281899404
83333.3281899166
83333.3281898939
83333.3281813302
83333.3281841698
83333.328184192
83333.3281870506
83333.3281870498
83333.3281870523
83333.3281899855
83333.3281899406
83333.3281899093
83333.3281898791
83333.328178485
83333.3281813022
83333.3281813434
83333.3281841508
83333.3281841771
83333.3281842046
83333.3281870634
83333.3281870542
83333.3281870567
83333.3281870547
83333.3281900525
83333.3281899875
83333.3281899402
83333.3281898953
83333.3281898619
83333.3281756548
83333.3281784444
83333.3281785044
83333.3281812577
83333.328181315
83333.3281813674
83333.3281841275
83333.3281841576
83333.3281841961
83333.3281842232
83333.3281870835
83333.3281870674
83333.3281870665
83333.3281870639
83333.3281870579
83333.3281901409
83333.3281900556
83333.3281899924
83333.3281899328
83333.3281898783
83333.328189845
83333.3281728456
83333.3281756019
83333.3281756798
83333.3281783746
83333.3281784624
83333.3281785396
83333.3281811959
83333.3281812683
83333.3281813446
83333.3281814018
83333.3281840988
83333.328184132
83333.3281841778
83333.3281842213
83333.3281842461
83333.3281871124
83333.328187088
83333.3281870839
83333.3281870845
83333.3281870702
83333.3281870627
83333.3281902493
83333.3281901443
83333.3281900621
83333.328189992
83333.3281899206
83333.3281898618
83333.3281898291
83333.3281700637
83333.3281727806
83333.3281728763
83333.3281755077
83333.3281756246
83333.328175726
83333.3281782747
83333.3281783891
83333.3281785027
83333.3281785899
83333.3281811164
83333.3281812016
83333.3281812965
83333.3281813867
83333.3281814432
83333.3281840669
83333.3281841021
83333.3281841512
83333.3281842115
83333.3281842486
83333.3281842723
83333.3281871506
83333.3281871169
83333.3281871052
83333.3281871107
83333.3281870994
83333.3281870766
83333.3281870696
83333.3281903765
83333.3281902527
83333.328190151
83333.3281900652
83333.328189985
83333.3281899073
83333.3281898466
83333.3281898154
83333.3281673159
83333.3281699867
83333.3281701
83333.3281726627
83333.3281728081
83333.3281729333
83333.3281753699
83333.3281755258
83333.3281756759
83333.3281757924
83333.3281781446
83333.3281782819
83333.3281784261
83333.3281785624
83333.3281786506
83333.3281810227
83333.3281811199
83333.3281812239
83333.3281813452
83333.3281814342
83333.3281814898
83333.3281840341
83333.3281840698
83333.3281841189
83333.3281841895
83333.3281842473
83333.3281842772
83333.3281843018
83333.3281871982
83333.3281871547
83333.3281871336
83333.3281871348
83333.328187134
83333.3281871111
83333.3281870847
83333.3281870786
83333.3281905221
83333.32819038
83333.3281902596
83333.3281901562
83333.3281900631
83333.3281899757
83333.3281898947
83333.3281898336
83333.3281898033
83333.3281646087
83333.328167227
83333.3281673574
83333.3281698451
83333.328170019
83333.3281701675
83333.3281724873
83333.3281726844
83333.3281728703
83333.3281730154
83333.3281751891
83333.3281753786
83333.328175572
83333.3281757535
83333.3281758729
83333.328177989
83333.3281781485
83333.328178309
83333.3281784917
83333.3281786311
83333.3281787185
83333.328180918
83333.3281810257
83333.3281811365
83333.3281812724
83333.3281814011
83333.3281814845
83333.3281815407
83333.3281840013
83333.3281840365
83333.3281840842
83333.328184156
83333.3281842333
83333.3281842819
83333.3281843075
83333.328184334
83333.3281872555
83333.3281872022
83333.328187171
83333.328187163
83333.3281871627
83333.3281871519
83333.3281871225
83333.3281870949
83333.3281870893
83333.3281906859
83333.3281905255
83333.3281903872
83333.3281902661
83333.3281901568
83333.3281900567
83333.3281899655
83333.3281898838
83333.3281898216
83333.3281897912
83333.3281619487
83333.3281646548
83333.3281645083
83333.3281670623
83333.3281672639
83333.3281674347
83333.3281696325
83333.3281698708
83333.3281700919
83333.3281702649
83333.3281722555
83333.3281724976
83333.32817274
83333.3281729656
83333.3281731158
83333.3281749714
83333.3281751935
83333.3281754114
83333.3281756554
83333.3281758439
83333.3281759633
83333.3281778122
83333.3281779917
83333.328178167
83333.3281783706
83333.3281785694
83333.3281787042
83333.328178792
83333.3281808044
83333.3281809202
83333.3281810377
83333.328181179
83333.3281813345
83333.3281814581
83333.3281815378
83333.3281815956
83333.3281839696
83333.3281840034
83333.3281840492
83333.3281841182
83333.3281842022
83333.3281842751
83333.3281843166
83333.32818434
83333.3281843686
83333.3281873229
83333.3281872595
83333.3281872186
83333.3281871997
83333.3281871922
83333.3281871845
83333.3281871669
83333.328187135
83333.3281871064
83333.3281871008
83333.3281908683
83333.3281906894
83333.3281905334
83333.3281903951
83333.3281902688
83333.3281901529
83333.3281900486
83333.328189956
83333.3281898733
83333.328189809
83333.3281897761
83333.3281593432
83333.3281619987
83333.3281618375
83333.328164741
83333.3281645493
83333.3281643213
83333.3281668134
83333.3281670917
83333.3281673468
83333.3281675467
83333.3281693505
83333.328169645
83333.328169936
83333.3281702045
83333.3281703849
83333.3281719755
83333.3281722608
83333.3281725363
83333.328172841
83333.3281730779
83333.3281732293
83333.3281747222
83333.3281749742
83333.3281752151
83333.3281754875
83333.3281757557
83333.3281759408
83333.3281760612
83333.3281776172
83333.3281778141
83333.3281780045
83333.3281782184
83333.3281784531
83333.3281786499
83333.3281787813
83333.3281788707
83333.3281806832
83333.3281808055
83333.3281809294
83333.3281810736
83333.3281812403
83333.3281813991
83333.3281815162
83333.3281815933
83333.3281816539
83333.3281839397
83333.3281839714
83333.3281840152
83333.3281840798
83333.3281841627
83333.3281842483
83333.3281843151
83333.3281843521
83333.3281843744
83333.328184404
83333.3281874011
83333.328187327
83333.3281872761
83333.3281872467
83333.3281872281
83333.3281872152
83333.3281872025
83333.3281871813
83333.328187148
83333.3281871175
83333.3281871103
83333.3281910702
83333.3281908723
83333.3281906981
83333.3281905428
83333.3281903997
83333.3281902673
83333.3281901473
83333.3281900409
83333.3281899467
83333.3281898612
83333.328189793
83333.3281897513
83333.3281567998
83333.3281593961
83333.328159222
83333.3281620924
83333.3281618817
83333.3281616294
83333.3281648659
83333.3281646412
83333.328164354
83333.3281640371
83333.3281664818
83333.3281668277
83333.328167166
83333.3281674757
83333.3281676853
83333.3281690091
83333.328169357
83333.3281696898
83333.3281700543
83333.3281703384
83333.3281705215
83333.3281716542
83333.328171979
83333.328172286
83333.3281726273
83333.3281729641
83333.3281731991
83333.3281733527
83333.3281744455
83333.328174724
83333.3281749889
83333.3281752773
83333.3281755917
83333.3281758606
83333.328176043
83333.3281761654
83333.3281774059
83333.3281776177
83333.328177823
83333.328178046
83333.3281782969
83333.3281785415
83333.328178732
83333.3281788609
83333.3281789535
83333.3281805554
83333.3281806836
83333.3281808132
83333.3281809595
83333.3281811296
83333.328181308
83333.3281814632
83333.3281815753
83333.328181651
83333.3281817136
83333.3281839127
83333.3281839415
83333.3281839825
83333.3281840431
83333.3281841208
83333.3281842083
83333.3281842917
83333.3281843537
83333.3281843877
83333.3281844093
83333.3281844374
83333.328187491
83333.3281874056
83333.3281873442
83333.3281873043
83333.3281872742
83333.3281872512
83333.3281872345
83333.3281872187
83333.3281871956
83333.3281871607
83333.3281871268
83333.3281871114
83333.3281912925
83333.3281910746
83333.3281908819
83333.3281907092
83333.3281905495
83333.3281904006
83333.3281902641
83333.3281901415
83333.3281900331
83333.328189936
83333.3281898443
83333.3281897635
83333.3281543264
83333.3281568548
83333.3281566695
83333.3281594958
83333.3281592684
83333.3281589944
83333.3281622282
83333.3281619811
83333.3281616647
83333.3281613112
83333.3281650211
83333.3281647847
83333.3281644365
83333.3281640531
83333.3281636571
83333.3281660799
83333.3281664896
83333.3281668786
83333.3281673008
83333.3281676302
83333.3281678439
83333.3281686165
83333.3281690134
83333.3281693862
83333.3281697956
83333.3281701997
83333.3281704838
83333.3281706709
83333.3281712962
83333.3281716565
83333.3281719963
83333.3281723598
83333.3281727535
83333.3281730938
83333.3281733274
83333.3281734841
83333.3281741438
83333.328174446
83333.3281747342
83333.3281750381
83333.3281753745
83333.3281757047
83333.3281759677
83333.3281761484
83333.3281762743
83333.3281771797
83333.3281774055
83333.3281776244
83333.328177856
83333.3281781152
83333.3281783868
83333.3281786301
83333.3281788152
83333.3281789431
83333.3281790384
83333.3281804224
83333.3281805555
83333.3281806896
83333.3281808382
83333.3281810084
83333.3281811943
83333.3281813754
83333.3281815261
83333.3281816349
83333.3281817096
83333.3281817715
83333.3281838894
83333.3281839143
83333.328183952
83333.3281840085
83333.3281840801
83333.3281841633
83333.3281842516
83333.3281843322
83333.3281843916
83333.3281844235
83333.3281844428
83333.3281844632
83333.3281875936
83333.3281874959
83333.3281874235
83333.3281873727
83333.3281873311
83333.3281872966
83333.3281872708
83333.3281872518
83333.3281872342
83333.3281872098
83333.3281871728
83333.3281871272
83333.3281870901
83333.3281915361
83333.3281912973
83333.3281910854
83333.3281908947
83333.3281907181
83333.3281905529
83333.3281903998
83333.3281902602
83333.3281901355
83333.3281900245
83333.3281899216
83333.3281898145
83333.3281519311
83333.3281543826
83333.3281541879
83333.3281569584
83333.328156717
83333.3281564241
83333.3281596396
83333.3281593734
83333.3281590308
83333.3281586432
83333.3281623969
83333.328162137
83333.328161754
83333.3281613284
83333.3281608843
83333.3281651995
83333.3281649579
83333.3281645862
83333.3281641093
83333.3281636662
83333.328163196
83333.3281656172
83333.3281660852
83333.3281665227
83333.3281669984
83333.3281674673
83333.328167799
83333.3281680188
83333.3281681782
83333.3281686193
83333.3281690334
83333.3281694716
83333.3281699434
83333.3281703537
83333.3281706384
83333.3281708307
83333.3281709049
83333.3281712972
83333.3281716686
83333.3281720542
83333.3281724761
83333.3281728913
83333.3281732265
83333.3281734595
83333.3281736213
83333.3281738189
83333.3281741431
83333.3281744531
83333.3281747726
83333.3281751222
83333.3281754874
83333.3281758184
83333.3281760757
83333.3281762559
83333.3281763857
83333.3281769401
83333.3281771787
83333.3281774095
83333.3281776501
83333.3281779145
83333.3281781988
83333.328178478
83333.3281787172
83333.3281788987
83333.3281790262
83333.3281791216
83333.328180285
83333.3281804221
83333.3281805599
83333.3281807105
83333.3281808799
83333.3281810667
83333.32818126
83333.32818144
83333.3281815875
83333.328181694
83333.3281817669
83333.3281818219
83333.3281838708
83333.3281838911
83333.3281839247
83333.3281839765
83333.3281840419
83333.3281841187
83333.3281842047
83333.3281842925
83333.3281843711
83333.3281844288
83333.3281844595
83333.3281844707
83333.3281844675
83333.3281877098
83333.3281875989
83333.3281875147
83333.3281874524
83333.3281873992
83333.3281873528
83333.3281873158
83333.3281872885
83333.3281872681
83333.3281872495
83333.3281872242
83333.3281871781
83333.3281871202
83333.3281870886
83333.3281918021
83333.3281915414
83333.3281913094
83333.3281911001
83333.3281909059
83333.3281907242
83333.3281905546
83333.3281903982
83333.3281902561
83333.3281901286
83333.3281900124
83333.3281898946
83333.3281496216
83333.3281519876
83333.3281517854
83333.3281544887
83333.3281542355
83333.3281539257
83333.3281571076
83333.3281568255
83333.3281564603
83333.3281560408
83333.3281598177
83333.3281595387
83333.3281591254
83333.328158661
83333.3281581709
83333.328162591
83333.3281623257
83333.3281619162
83333.3281613889
83333.3281608942
83333.3281603655
83333.3281653978
83333.3281651477
83333.3281647717
83333.3281642418
83333.3281637027
83333.3281632024
83333.3281626649
83333.3281651001
83333.3281656207
83333.3281661079
83333.3281666192
83333.3281671664
83333.3281676444
83333.3281679791
83333.3281682075
83333.3281676982
83333.3281681796
83333.3281686335
83333.3281691003
83333.3281696065
83333.3281701053
83333.3281705119
83333.3281707977
83333.328170998
83333.3281704822
83333.3281709042
83333.3281713055
83333.3281717134
83333.3281721537
83333.3281726119
83333.3281730305
83333.3281733601
83333.3281735939
83333.3281737609
83333.3281734726
83333.3281738175
83333.3281741471
83333.3281744822
83333.3281748421
83333.3281752254
83333.3281756028
83333.3281759302
83333.328176184
83333.3281763645
83333.3281764951
83333.3281766881
83333.3281769384
83333.3281771805
83333.3281774292
83333.3281776978
83333.3281779879
83333.3281782861
83333.3281785663
83333.328178802
83333.3281789813
83333.3281791079
83333.3281791975
83333.3281801445
83333.3281802844
83333.3281804253
83333.3281805774
83333.3281807457
83333.3281809306
83333.3281811274
83333.3281813234
83333.3281815014
83333.3281816463
83333.3281817509
83333.328181818
83333.3281818504
83333.3281838582
83333.3281838727
83333.3281839014
83333.328183948
83333.3281840069
83333.3281840763
83333.3281841565
83333.3281842439
83333.3281843309
83333.328184408
83333.328184465
83333.3281844916
83333.3281844912
83333.3281844775
83333.3281878409
83333.3281877157
83333.3281876188
83333.3281875445
83333.328187479
83333.3281874204
83333.3281873714
83333.3281873332
83333.3281873049
83333.3281872838
83333.328187265
83333.3281872323
83333.3281871721
83333.3281871181
83333.3281870856
83333.3281920918
83333.3281918081
83333.328191555
83333.3281913263
83333.3281911138
83333.3281909149
83333.3281907288
83333.3281905555
83333.3281903959
83333.3281902507
83333.3281901183
83333.328189989
83333.3281474055
83333.328149678
83333.3281494694
83333.3281520952
83333.3281518319
83333.328151506
83333.3281546406
83333.3281543459
83333.3281539612
83333.3281535115
83333.3281572906
83333.3281569971
83333.3281565585
83333.3281560587
83333.3281555247
83333.3281600215
83333.3281597384
83333.3281592972
83333.3281587246
83333.3281581814
83333.3281575965
83333.3281628072
83333.3281625324
83333.3281621174
83333.328161532
83333.3281609334
83333.3281603728
83333.3281597676
83333.3281656134
83333.3281653504
83333.3281649694
83333.3281644277
83333.3281638091
83333.3281632275
83333.3281626691
83333.3281620706
83333.3281645329
83333.3281651019
83333.3281656369
83333.3281661833
83333.3281667716
83333.328167351
83333.3281678267
83333.3281681649
83333.3281684056
83333.3281671788
83333.3281676978
83333.3281681893
83333.3281686849
83333.3281692149
83333.3281697646
83333.3281702695
83333.3281706713
83333.3281709599
83333.3281711676
83333.32817003
83333.3281704806
83333.3281709093
83333.328171339
83333.3281717946
83333.3281722765
83333.3281727516
83333.3281731673
83333.328173494
83333.3281737289
83333.3281738975
83333.328173106
83333.3281734703
83333.3281738187
83333.3281741683
83333.3281745375
83333.3281749311
83333.3281753343
83333.3281757148
83333.328176039
83333.3281762909
83333.3281764714
83333.3281765972
83333.3281764248
83333.3281766859
83333.3281769383
83333.3281771948
83333.3281774673
83333.3281777597
83333.3281780668
83333.3281783712
83333.3281786498
83333.3281788824
83333.3281790598
83333.3281791826
83333.3281792493
83333.3281800019
83333.3281801437
83333.3281802867
83333.3281804398
83333.3281806067
83333.3281807885
83333.3281809842
83333.3281811865
83333.3281813826
83333.328181558
83333.3281816999
83333.3281817968
83333.328181847
83333.3281818645
83333.3281838527
83333.3281838603
83333.3281838832
83333.3281839239
83333.3281839759
83333.3281840375
83333.3281841101
83333.3281841925
83333.3281842803
83333.3281843666
83333.3281844431
83333.3281844973
83333.3281845122
83333.3281845146
83333.328184501
83333.3281879881
83333.3281878474
83333.328187737
83333.3281876498
83333.3281875715
83333.3281875001
83333.3281874385
83333.3281873882
83333.3281873492
83333.3281873205
83333.3281872997
83333.3281872746
83333.3281872233
83333.3281871633
83333.3281871174
83333.3281870865
83333.3281924058
83333.328192099
83333.3281918239
83333.3281915746
83333.3281913428
83333.3281911259
83333.3281909226
83333.3281907325
83333.3281905554
83333.3281903922
83333.3281902418
83333.3281900974
83333.3281452903
83333.3281474617
83333.3281472461
83333.3281497866
83333.3281495143
83333.3281491725
83333.3281522484
83333.328151943
83333.3281515409
83333.3281510626
83333.3281548254
83333.3281545208
83333.3281540614
83333.3281535293
83333.3281529536
83333.3281574959
83333.3281572029
83333.3281567366
83333.3281561242
83333.3281555356
83333.3281548969
83333.3281602456
83333.3281599559
83333.3281595095
83333.3281588755
83333.3281582222
83333.3281576043
83333.3281569339
83333.3281630439
83333.328162752
83333.3281623313
83333.3281617324
83333.328161048
83333.3281603998
83333.3281597725
83333.3281590983
83333.3281658419
83333.3281655604
83333.3281651726
83333.3281646321
83333.3281639768
83333.3281633103
83333.328162687
83333.3281620728
83333.328161418
83333.3281639184
83333.3281645329
83333.328165113
83333.3281656944
83333.3281663119
83333.3281669504
83333.3281675384
83333.3281680111
83333.3281683551
83333.3281686074
83333.328166622
83333.3281671773
83333.3281677038
83333.3281682273
83333.3281687775
83333.3281693566
83333.3281699279
83333.328170431
83333.3281708312
83333.3281711223
83333.3281713331
83333.3281695496
83333.3281700273
83333.3281704819
83333.3281709329
83333.3281714026
83333.3281718991
83333.3281724066
83333.3281728872
83333.3281733003
83333.3281736261
83333.3281738616
83333.3281740263
83333.3281727202
83333.3281731031
83333.3281734692
83333.3281738329
83333.3281742108
83333.3281746108
83333.3281750277
83333.3281754406
83333.3281758205
83333.3281761417
83333.3281763923
83333.3281765709
83333.3281766709
83333.3281761516
83333.3281764224
83333.3281766843
83333.3281769481
83333.3281772241
83333.3281775175
83333.3281778276
83333.3281781444
83333.3281784503
83333.3281787256
83333.3281789536
83333.3281791207
83333.3281792174
83333.3281792661
83333.3281798586
83333.3281800011
83333.3281801452
83333.3281802988
83333.3281804639
83333.3281806422
83333.3281808343
83333.3281810369
83333.3281812413
83333.3281814357
83333.3281816077
83333.3281817422
83333.3281818237
83333.3281818817
83333.3281819025
83333.3281838556
83333.3281838551
83333.3281838712
83333.3281839053
83333.3281839498
83333.3281840031
83333.3281840671
83333.3281841421
83333.3281842259
83333.3281843138
83333.3281844
83333.3281844747
83333.3281845152
83333.3281845254
83333.3281845294
83333.3281845179
83333.3281881523
83333.3281879956
83333.3281878706
83333.3281877697
83333.3281876777
83333.3281875929
83333.328187518
83333.3281874547
83333.3281874036
83333.3281873644
83333.3281873363
83333.3281873101
83333.3281872654
83333.3281872085
83333.3281871585
83333.3281871195
83333.3281870892
83333.3281927438
83333.3281924154
83333.3281921186
83333.3281918472
83333.3281915944
83333.3281913582
83333.3281911371
83333.3281909295
83333.3281907349
83333.3281905535
83333.3281903846
83333.3281902223
83333.3281432824
83333.3281453469
83333.3281451227
83333.3281475711
83333.3281472899
83333.3281469332
83333.328149941
83333.3281496254
83333.3281492071
83333.3281487023
83333.3281524331
83333.3281521193
83333.3281516422
83333.3281510805
83333.3281504656
83333.3281550246
83333.3281547285
83333.3281542426
83333.3281535955
83333.3281529647
83333.3281522747
83333.3281577152
83333.3281574231
83333.3281569548
83333.3281562799
83333.3281555771
83333.328154905
83333.328154172
83333.328160492
83333.328160183
83333.3281597333
83333.3281590861
83333.3281583427
83333.3281576322
83333.3281569393
83333.3281561918
83333.3281632997
83333.3281629804
83333.32816255
83333.3281619521
83333.328161228
83333.3281604884
83333.3281597917
83333.3281591008
83333.3281583626
83333.3281660779
83333.3281657772
83333.3281653793
83333.3281648398
83333.3281641737
83333.3281634513
83333.3281627497
83333.328162085
83333.3281614182
83333.3281607103
83333.3281632586
83333.3281639169
83333.3281645394
83333.3281651551
83333.3281657977
83333.3281664712
83333.3281671356
83333.3281677233
83333.3281681972
83333.3281685462
83333.3281688045
83333.3281660291
83333.3281666192
83333.3281671787
83333.3281677299
83333.328168299
83333.328168897
83333.3281695071
83333.3281700865
83333.328170588
83333.3281709899
83333.3281712817
83333.3281714898
83333.3281690421
83333.3281695462
83333.3281700258
83333.3281704969
83333.3281709804
83333.3281714872
83333.3281720129
83333.3281725337
83333.3281730151
83333.3281734256
83333.3281737512
83333.3281739866
83333.3281741209
83333.3281723165
83333.328172717
83333.3281731
83333.3281734773
83333.3281738638
83333.3281742685
83333.3281746922
83333.328175123
83333.3281755391
83333.3281759158
83333.3281762314
83333.3281764702
83333.3281766132
83333.3281766914
83333.3281758697
83333.328176149
83333.3281764194
83333.3281766901
83333.3281769696
83333.3281772633
83333.3281775734
83333.3281778951
83333.3281782161
83333.32817852
83333.3281787893
83333.3281790054
83333.3281791488
83333.3281792586
83333.3281793148
83333.328179716
83333.3281798578
83333.3281800021
83333.3281801553
83333.3281803185
83333.3281804927
83333.3281806799
83333.3281808793
83333.3281810856
83333.3281812899
83333.3281814814
83333.3281816469
83333.3281817674
83333.3281818468
83333.328181907
83333.3281819313
83333.3281838683
83333.3281838585
83333.3281838667
83333.3281838934
83333.3281839299
83333.3281839744
83333.328184029
83333.3281840951
83333.3281841719
83333.3281842566
83333.3281843454
83333.3281844306
83333.3281844916
83333.3281845202
83333.3281845327
83333.3281845373
83333.3281845271
83333.3281883345
83333.3281881613
83333.3281880214
83333.3281879058
83333.328187799
83333.3281876999
83333.3281876109
83333.328187534
83333.3281874696
83333.3281874182
83333.3281873799
83333.3281873469
83333.3281873014
83333.3281872478
83333.3281871989
83333.3281871582
83333.3281871221
83333.3281870923
83333.3281931029
83333.3281927553
83333.3281924415
83333.3281921477
83333.3281918711
83333.3281916136
83333.3281913732
83333.3281911474
83333.3281909349
83333.3281907353
83333.3281905474
83333.328190366
83333.3281413884
83333.32814334
83333.3281431071
83333.3281454565
83333.3281451665
83333.3281447958
83333.3281477273
83333.3281474009
83333.3281469676
83333.3281464386
83333.3281501244
83333.3281498022
83333.3281493094
83333.3281487201
83333.3281480686
83333.3281526239
83333.3281523263
83333.3281518246
83333.3281511468
83333.3281504767
83333.3281497383
83333.328155228
83333.3281549439
83333.3281544623
83333.3281537533
83333.3281530062
83333.3281522831
83333.3281514904
83333.3281579534
83333.3281576465
83333.3281571809
83333.3281564959
83333.328155701
83333.3281549333
83333.3281541778
83333.3281533598
83333.3281607649
83333.3281604193
83333.3281599593
83333.3281593154
83333.3281585313
83333.3281577249
83333.3281569591
83333.3281561945
83333.3281553756
83333.3281635708
83333.3281632208
83333.3281627737
83333.3281621749
83333.3281614388
83333.3281606391
83333.3281598583
83333.3281591136
83333.3281583629
83333.3281575641
83333.3281663097
83333.3281659989
83333.3281655911
83333.3281650449
83333.3281643778
83333.3281636256
83333.3281628619
83333.3281621303
83333.3281614252
83333.3281607087
83333.3281599495
83333.3281625548
83333.3281632554
83333.3281639183
83333.3281645678
83333.328165234
83333.3281659307
83333.3281666403
83333.3281673155
83333.3281679033
83333.3281683816
83333.3281687341
83333.3281689903
83333.3281654013
83333.3281660254
83333.3281666171
83333.3281671947
83333.3281677823
83333.3281683943
83333.328169027
83333.328169654
83333.328170236
83333.3281707361
83333.3281711398
83333.3281714334
83333.3281716059
83333.3281685088
83333.3281690383
83333.3281695421
83333.3281700331
83333.32817053
83333.3281710453
83333.3281715814
83333.3281721252
83333.3281726513
83333.3281731299
83333.3281735349
83333.3281738473
83333.3281740374
83333.3281741441
83333.3281718959
83333.328172313
83333.328172712
83333.3281731027
83333.3281734978
83333.3281739066
83333.3281743336
83333.3281747734
83333.3281752109
83333.3281756252
83333.3281759942
83333.3281762947
83333.328176501
83333.3281766613
83333.3281767519
83333.3281755802
83333.328175867
83333.3281761448
83333.3281764218
83333.3281767047
83333.3281769986
83333.3281773072
83333.3281776294
83333.3281779574
83333.3281782785
83333.328178577
83333.3281788351
83333.3281790315
83333.3281791752
83333.3281792911
83333.3281793533
83333.3281795756
83333.3281797152
83333.3281798586
83333.3281800107
83333.3281801713
83333.3281803413
83333.3281805229
83333.3281807171
83333.3281809211
83333.3281811288
83333.3281813316
83333.3281815181
83333.3281816716
83333.3281817817
83333.3281818625
83333.3281819216
83333.3281819476
83333.3281838923
83333.3281838717
83333.3281838711
83333.3281838896
83333.3281839172
83333.3281839523
83333.328183997
83333.3281840531
83333.328184121
83333.3281841995
83333.328184286
83333.3281843749
83333.3281844473
83333.3281844923
83333.3281845198
83333.3281845368
83333.3281845415
83333.3281845324
83333.3281885358
83333.328188345
83333.3281881913
83333.3281880604
83333.3281879373
83333.3281878224
83333.3281877185
83333.328187627
83333.3281875486
83333.3281874838
83333.3281874335
83333.3281873905
83333.3281873384
83333.3281872828
83333.3281872348
83333.3281871952
83333.3281871584
83333.3281871242
83333.328187096
83333.3281931111
83333.3281927856
83333.3281924787
83333.328192177
83333.3281918947
83333.3281916327
83333.3281913874
83333.3281911563
83333.3281909379
83333.3281907309
83333.3281905297
83333.3281396158
83333.3281414452
83333.3281412074
83333.3281434492
83333.3281431514
83333.3281427683
83333.328145613
83333.3281452771
83333.3281448304
83333.3281442793
83333.3281479085
83333.3281475778
83333.328147071
83333.3281464558
83333.328145771
83333.3281503096
83333.3281500074
83333.328149492
83333.3281487863
83333.3281480795
83333.3281472959
83333.3281528079
83333.328152534
83333.328152043
83333.3281513046
83333.3281505175
83333.3281497466
83333.3281488975
83333.3281554443
83333.3281551546
83333.3281546843
83333.3281539705
83333.328153131
83333.328152311
83333.3281514963
83333.328150611
83333.3281582309
83333.3281578758
83333.3281574043
83333.3281567282
83333.3281558941
83333.328155028
83333.3281541979
83333.3281533626
83333.328152466
83333.3281610713
83333.3281606754
83333.3281601919
83333.3281595458
83333.3281587509
83333.3281578823
83333.3281570281
83333.3281562075
83333.3281553756
83333.328154489
83333.3281638434
83333.3281634738
83333.3281630054
83333.3281623952
83333.3281616571
83333.3281608252
83333.3281599773
83333.3281591612
83333.3281583698
83333.3281575621
83333.3281567047
83333.3281665322
83333.3281662177
83333.3281657987
83333.3281652459
83333.3281645761
83333.3281638106
83333.3281630065
83333.3281622151
83333.3281614551
83333.3281607098
83333.3281599459
83333.328159137
83333.3281618085
83333.3281625507
83333.3281632529
83333.328163935
83333.3281646243
83333.3281653388
83333.3281660753
83333.3281668053
83333.3281674853
83333.3281680738
83333.3281685566
83333.3281689136
83333.3281691297
83333.3281647399
83333.328165397
83333.3281660201
83333.3281666239
83333.3281672298
83333.3281678539
83333.3281685003
83333.3281691552
83333.3281697898
83333.3281703701
83333.3281708655
83333.3281712542
83333.3281714924
83333.3281716287
83333.3281679507
83333.3281685047
83333.3281690318
83333.3281695427
83333.3281700532
83333.3281705764
83333.3281711188
83333.3281716753
83333.3281722284
83333.3281727535
83333.3281732237
83333.3281736111
83333.328173882
83333.328174093
83333.3281742182
83333.3281714596
83333.3281718923
83333.3281723063
83333.3281727099
83333.3281731138
83333.3281735269
83333.3281739556
83333.3281743992
83333.3281748482
83333.3281752864
83333.3281756938
83333.328176048
83333.3281763227
83333.3281765298
83333.3281766995
83333.3281767988
83333.3281752851
83333.3281755773
83333.3281758618
83333.3281761443
83333.3281764304
83333.3281767244
83333.328177031
83333.3281773513
83333.3281776812
83333.3281780114
83333.328178329
83333.3281786183
83333.3281788603
83333.3281790483
83333.3281791955
83333.3281793115
83333.3281793762
83333.32817944
83333.3281795746
83333.3281797156
83333.3281798659
83333.3281800236
83333.328180189
83333.3281803647
83333.3281805524
83333.3281807515
83333.3281809582
83333.3281811661
83333.3281813657
83333.3281815422
83333.3281816812
83333.3281817884
83333.3281818718
83333.3281819304
83333.3281819572
83333.3281839312
83333.3281838962
83333.3281838857
83333.3281838949
83333.3281839131
83333.3281839382
83333.3281839723
83333.3281840177
83333.3281840753
83333.3281841453
83333.3281842264
83333.3281843141
83333.328184391
83333.3281844462
83333.3281844874
83333.3281845185
83333.328184538
83333.3281845436
83333.3281845363
83333.3281885451
83333.3281883792
83333.3281882356
83333.328188095
83333.3281879625
83333.3281878423
83333.3281877352
83333.3281876417
83333.3281875626
83333.3281874989
83333.3281874439
83333.3281873818
83333.3281873193
83333.3281872682
83333.3281872283
83333.328187193
83333.3281871581
83333.3281871254
83333.3281871
83333.3281931329
83333.3281928271
83333.3281925139
83333.3281922055
83333.3281919184
83333.3281916512
83333.3281914001
83333.3281911623
83333.3281909357
83333.3281907143