/*--------------------------------*- C++ -*----------------------------------*\
  =========                 |
  \\      /  F ield         | OpenFOAM: The Open Source CFD Toolbox
   \\    /   O peration     | Website:  https://openfoam.org
    \\  /    A nd           | Version:  12
     \\/     M anipulation  |
\*---------------------------------------------------------------------------*/
/*   Windows 32 and 64 bit porting by blueCAPE: http://www.bluecape.com.pt   *\
|  Based on Windows porting (2.0.x v4) by Symscape: http://www.symscape.com   |
\*---------------------------------------------------------------------------*/
FoamFile
{
    format      ascii;
    class       surfaceScalarField;
    location    "400";
    object      phi;
}
// * * * * * * * * * * * * * * * * * * * * * * * * * * * * * * * * * * * * * //

dimensions      [0 3 -1 0 0 0 0];

internalField   nonuniform List<scalar> 
28828
(
2.2182630842925e-06
-1.45663388632111e-08
6.97646933143444e-09
2.22013444335274e-06
-2.29555190619092e-09
4.30232766984854e-10
2.22497561592754e-06
-2.989414555197e-08
7.33707769194714e-09
2.34473982659943e-06
-1.64220671310889e-08
1.58161045039342e-08
2.21588978911276e-06
1.10612258251578e-08
-6.82560252863976e-09
2.23235880993178e-06
-9.02251310487872e-09
-6.56437946852778e-10
2.35247749466782e-06
-7.695422653433e-09
4.06424611367162e-10
2.1481058473919e-06
-4.46358668381959e-08
6.87890673826801e-09
1.1614866922023e-06
-2.14870697938835e-08
1.55305655775238e-08
2.30395894396045e-06
-1.0692909575455e-08
1.98540278758098e-08
2.20586630176368e-06
2.50786828797858e-08
-1.5066340952397e-08
2.23672199442611e-06
1.45285638882014e-08
-7.85687071565832e-09
2.35650268500906e-06
3.9421874799062e-09
-1.48069234258418e-08
2.15553104140262e-06
-1.53175701539916e-08
-1.15164597565568e-09
1.16327380364419e-06
-1.24946072494002e-08
2.36439373843506e-09
2.31266898329675e-06
-7.18400319692724e-09
-1.13937091135495e-09
2.17466124780353e-06
-5.5114280076708e-08
2.82641247731252e-09
3.67570386573303e-07
-1.97840360728667e-08
9.41878233788822e-09
1.59885489635387e-07
-7.84801112388944e-09
1.66139007357279e-08
2.39239830078509e-06
-7.21644349765419e-09
1.91913604077005e-08
2.1900206122533e-06
3.88774077585068e-08
-2.30443605353891e-08
2.2364805251525e-06
4.00722526961737e-08
-1.4749582430978e-08
2.35482825037416e-06
1.71514720380336e-08
-3.05433395616353e-08
2.1603205470149e-06
1.70790657604461e-08
-7.32922518002972e-09
1.16794938110182e-06
2.37055977324063e-11
-8.64511720743489e-09
2.31915209877983e-06
3.53332368564255e-11
-2.13517914637412e-08
2.17922021727053e-06
-1.75899599172569e-08
-2.29940923923867e-09
3.66076406114565e-07
-1.22477236697709e-08
7.21107593199973e-11
1.57979945847227e-07
-7.91469787035589e-09
5.00819728133671e-09
2.40147256001449e-06
-6.59285264240461e-09
-3.65398197573881e-09
2.13406173945615e-06
-6.35678647822909e-08
4.50680242277887e-10
1.88546465831121e-07
-1.79805849093001e-08
3.49475413549216e-09
-4.87975334054817e-07
-3.20570632094848e-09
8.92692499373087e-09
-8.66615726699358e-08
-2.10424064209274e-09
1.45698586749264e-08
2.37011761517964e-06
-3.81273250149859e-09
1.62035348647772e-08
2.16869570542577e-06
5.18319686726467e-08
-3.04888599314415e-08
2.23061548313904e-06
6.57663277695132e-08
-2.10772208811172e-08
2.34771682571563e-06
3.04459561697535e-08
-4.64195042612606e-08
2.1612491259571e-06
5.12357462604915e-08
-1.2117666856332e-08
1.17405376536085e-06
1.49004302772556e-08
-1.86714703715359e-08
2.31995776292376e-06
9.90974090648085e-09
-4.13102695065789e-08
2.18089795341988e-06
2.1304444884552e-08
-5.90037205855586e-09
3.67342846707301e-07
-2.11240821045257e-09
-6.47409389245142e-09
1.59091743638711e-07
-4.80848040757796e-09
-4.9585416359465e-09
2.40762320183913e-06
-1.70014443081188e-09
-2.58154475743662e-08
2.14021167756861e-06
-2.01221523799905e-08
-3.58194375248424e-09
1.87591403908085e-07
-1.02588895428957e-08
-3.35367383310855e-09
-4.92972950942841e-07
-4.8274596751511e-09
1.98548055443924e-09
-8.9711505945519e-08
-4.47296864834803e-09
5.92991616720822e-09
2.37798976712387e-06
-5.13613996129746e-09
-6.37226410671903e-09
2.07890574903088e-06
-7.06749093361908e-08
-7.21616741034821e-10
1.22616214761741e-07
-1.6343153485375e-08
2.71357006057198e-10
-4.84172916732405e-07
4.41047446238932e-11
3.39270579388391e-09
-5.55397383739445e-07
2.85898889670056e-09
7.50671647197853e-09
-1.57671153165785e-07
1.46877732889422e-09
1.20924090202592e-08
2.21414071730628e-06
-1.49691184520484e-09
1.29688830192561e-08
2.14219431079589e-06
6.44638670698508e-08
-3.79781826422131e-08
2.21861860367044e-06
9.076117087876e-08
-2.6949390362238e-08
2.33601758493774e-06
4.29273229638448e-08
-6.17409808675653e-08
2.15790563679857e-06
8.5651201057431e-08
-1.6512003051897e-08
1.18174559308277e-06
3.0098030829708e-08
-2.84032376500255e-08
2.31511398344278e-06
2.00123388447452e-08
-6.16060114335922e-08
2.17911053391237e-06
6.16110933806921e-08
-8.60952532105716e-09
3.71512505017951e-07
1.0057039038517e-08
-1.14762215771568e-08
1.63577869920516e-07
3.63638594427324e-10
-1.36151539218564e-08
2.40806454737694e-06
5.71586634951403e-09
-4.74641322290535e-08
2.14348515528768e-06
2.38094062804101e-08
-5.81578633871259e-09
1.88129333986528e-07
-1.4887381270035e-09
-7.08457073311177e-09
-4.96250494320452e-07
-4.85261022344573e-09
-3.1651118296688e-09
-9.09004490163339e-08
-3.4836401514244e-09
-1.97054625703229e-09
2.38299866663401e-06
-2.17567432860945e-09
-2.8655178852861e-08
2.08580547840718e-06
-2.27998525130317e-08
-4.23087536510556e-09
1.22222200664945e-07
-8.32522505350508e-09
-5.13619157376613e-09
-4.88768159704741e-07
-1.57912713237591e-09
-2.01589678831161e-09
-5.60989190699702e-07
2.19670371308092e-10
2.88884950011731e-09
-1.6090873534543e-07
-1.6957423677327e-09
5.72637030894034e-09
2.22031621130434e-06
-3.48511724941096e-09
-9.0474294385538e-09
2.01399270655488e-06
-7.68558948253865e-08
-1.25993535314464e-09
8.37986334615531e-08
-1.44012119907135e-08
-1.34665545863258e-09
-4.32359203075969e-07
2.78828329095347e-09
1.52298488602967e-10
-5.31534707535126e-07
6.61187030980746e-09
2.74642846446854e-09
-5.16706708820497e-07
6.34861111213198e-09
5.98987739543083e-09
-1.93173632999846e-07
3.71970356825908e-09
9.91499805771207e-09
1.97932009321299e-06
-2.13615246906867e-10
9.22750158291471e-09
2.11044229070935e-06
7.72476288315924e-08
-4.54997274601709e-08
2.20091871401953e-06
1.15197217378378e-07
-3.30461576977754e-08
2.31971026701001e-06
5.52654229392451e-08
-7.69650125181323e-08
2.14903588627208e-06
1.19945478381721e-07
-2.03269518169304e-08
1.19100550079308e-06
4.48315688977499e-08
-3.80913956773151e-08
2.30607403006429e-06
2.93665369296379e-08
-8.21280787465229e-08
2.17320717138812e-06
1.02252701931322e-07
-1.07090160386758e-08
3.786398592651e-07
2.27208094096382e-08
-1.62908546900437e-08
1.71560518004683e-07
5.77558635959978e-09
-2.21641916984101e-08
2.40302397677343e-06
1.32725588810796e-08
-6.98278241372567e-08
2.14307543617025e-06
6.85911829804572e-08
-6.57328575491682e-09
1.90449981058781e-07
8.48418648461664e-09
-9.39082077249475e-09
-4.96970329940108e-07
-3.41301548030441e-09
-6.9891357010853e-09
-8.92734620787934e-08
-7.53007983973706e-10
-8.79537404918016e-09
2.38292130020385e-06
2.99285172475261e-09
-5.03808102895376e-08
2.09006099857342e-06
2.52327954634142e-08
-5.68961577321503e-09
1.22527993271327e-07
-1.13474788208631e-10
-7.50736511112966e-09
-4.92456595846951e-07
-2.75869730890988e-09
-5.49535523499351e-09
-5.65546024525123e-07
-9.81798856960598e-10
-1.11357501010739e-09
-1.63044092224274e-07
-1.59299724829205e-09
-4.19419777597952e-10
2.22419108029185e-06
-1.77285576630803e-09
-3.07596845454739e-08
2.02107435633855e-06
-2.54549808764369e-08
-4.44975231165155e-09
8.3456113521179e-08
-6.4456929162986e-09
-5.77586572999627e-09
-4.36213971140834e-07
1.30450137497945e-09
-4.17539349974914e-09
-5.36644289549424e-07
4.1410560355691e-09
-8.29386321192157e-10
-5.2194652745851e-07
3.50086694075978e-09
2.92791462287538e-09
-1.96462755223582e-07
3.90655298380344e-10
5.14367759302374e-09
1.98317299253159e-06
-2.01676447892441e-09
-1.08872928772406e-08
1.95474736033172e-06
-8.24419682853676e-08
-1.48442994644363e-09
6.066165276332e-08
-1.21459184409506e-08
-2.15236514369983e-09
-3.8861165638903e-07
5.60551747995066e-09
-1.55707871043047e-09
-4.72948105427822e-07
9.7291607330448e-09
-1.05400816736342e-10
-4.95421833092487e-07
1.02345889309196e-08
2.01861529144369e-09
-4.73891127673729e-07
8.48811067165752e-09
4.73219793584101e-09
-2.12447388389223e-07
4.92321687055138e-09
8.13593281200351e-09
1.71310904036664e-06
5.10436477824629e-10
6.48805333561216e-09
2.0735371941952e-06
8.96859859981778e-08
-5.2803660058996e-08
2.17827205982854e-06
1.39763774665137e-07
-3.98727975164343e-08
2.29869243735872e-06
6.76385904326061e-08
-9.21064729349302e-08
2.13464657716829e-06
1.53925189445257e-07
-2.43375591450474e-08
1.2014134619166e-06
5.96862806889285e-08
-4.78843938422324e-08
2.29351320412304e-06
3.83429627735756e-08
-1.02717391849529e-07
2.16211787922942e-06
1.43300207976591e-07
-1.23040166569196e-08
3.88731768427388e-07
3.55541689024536e-08
-2.1137652800882e-08
1.82676734003426e-07
1.09563830157004e-08
-3.07958967031579e-08
2.39401071599848e-06
1.99168122657598e-08
-9.30691679891874e-08
2.13844026536909e-06
1.1370689405552e-07
-6.82996423798561e-09
1.95014782267857e-07
1.89905706448974e-08
-1.15661538115673e-08
-4.95241291435838e-07
-1.69158066187976e-09
-1.05664371694166e-08
-8.47180755331855e-08
1.98082941346071e-09
-1.54344732227595e-08
2.378073718826e-06
8.22271178021678e-09
-7.32032091201644e-08
2.09060433330229e-06
7.3714106335897e-08
-5.6777104494632e-09
1.24102774464952e-07
8.77176355869996e-09
-8.44874501138396e-09
-4.94363024256198e-07
-3.14243825161729e-09
-7.75335489294519e-09
-5.68040738896647e-07
-1.08800323913828e-09
-4.16242220555396e-09
-1.63000300033674e-07
-1.03866780606859e-11
-5.86038638980957e-09
2.22376048041955e-06
1.74964371078614e-09
-5.17281735274685e-08
2.02577537294194e-06
2.60573488994733e-08
-5.55172627451333e-09
8.36456182633474e-08
1.37644238902407e-09
-7.40926653795754e-09
-4.3956393518289e-07
-2.68731576533911e-10
-6.64588776300141e-09
-5.41259969485079e-07
1.92277181534474e-09
-3.78304919894333e-09
-5.26585592130471e-07
2.00689064403414e-09
-7.39844151510756e-11
-1.99056082383946e-07
-1.24606401669216e-10
5.12634549069145e-10
1.98575666071427e-06
-1.54332881296358e-09
-3.17954107226557e-08
1.96183207941653e-06
-2.80621314513405e-08
-4.49835495674911e-09
6.01953060737172e-08
-4.54054577473444e-09
-5.90117085911181e-09
-3.9210453829317e-07
4.05444084572105e-09
-5.02858672930951e-09
-4.77273290473251e-07
7.29692221629497e-09
-3.00506843516896e-09
-5.00134355332711e-07
7.69641983403607e-09
-3.1150704839412e-10
-4.78794387850815e-07
5.55840026136396e-09
2.66652493972823e-09
-2.15665445817962e-07
1.75855277847352e-09
4.58589449974656e-09
1.71577117253615e-06
-1.12805533922274e-09
-1.24090681017741e-08
1.91111295094502e-06
-8.75806053514247e-08
-1.78807247688411e-09
4.93967181582589e-08
-9.68977685168305e-09
-2.5081069164444e-09
-3.50513685419152e-07
8.55547431002336e-09
-2.4115555178259e-09
-4.21969226137354e-07
1.27334329086955e-08
-1.70340672505859e-09
-4.44814005318248e-07
1.35035856578972e-08
-4.06182952134437e-10
-4.53847662707198e-07
1.23756173877811e-08
1.43527299098447e-09
-4.3409755889887e-07
9.59727025248599e-09
3.77456978792716e-09
-2.18833746387384e-07
5.46490509718089e-09
6.79322716138052e-09
1.46297221498221e-06
9.01173786209712e-10
5.02564279421642e-09
2.0313972724502e-06
-5.95476528784098e-08
1.0166559979458e-07
2.15083091839734e-06
1.63897687813466e-07
-4.67715832555198e-08
2.273259208379e-06
7.9447677743179e-08
-1.06818915013261e-07
2.11607422844517e-06
1.87686251331156e-07
-2.93412574854281e-08
1.21235768180394e-06
7.49143530712345e-08
-5.81078275796842e-08
2.27766321307548e-06
4.71800263372907e-08
-1.23421158810801e-07
2.14574363389166e-06
1.84423116898145e-07
-1.41395155458556e-08
4.01630569011505e-07
4.86338091265553e-08
-2.62094160157763e-08
1.96794317892736e-07
1.59676209258945e-08
-3.96370104070317e-08
2.38220792429748e-06
2.60256047745896e-08
-1.1690756198631e-07
2.12914984730113e-06
1.59376944790272e-07
-6.80413008656289e-09
2.02203024704928e-07
2.98541000110999e-08
-1.37925548042359e-08
-4.91261600168181e-07
-3.78033024359429e-11
-1.41160096153243e-08
-7.76398289043537e-08
4.28540446709516e-09
-2.22346769203685e-08
2.36991898144225e-06
1.26183004496686e-08
-9.75582968966143e-08
2.08692590095884e-06
1.2261940151488e-07
-5.25913389125388e-09
1.27465483800039e-07
1.80643357373333e-08
-9.28749530458415e-09
-4.9451383466506e-07
-3.2990153854817e-09
-9.80893806210876e-09
-5.68648135241862e-07
-1.13358064875292e-09
-6.85229989797384e-09
-1.6055343658207e-07
1.42400691845457e-09
-1.11034126415908e-08
2.21941750650727e-06
5.2517935031525e-09
-7.41263154436524e-08
2.02694105146393e-06
7.7738203804847e-08
-5.21679312397702e-09
8.48840540712497e-08
9.5252830320657e-09
-7.67466479637574e-09
-4.4164065412046e-07
-1.55645976504711e-09
-7.96677783631151e-09
-5.44400647318844e-07
2.06348077030593e-10
-5.91049458624617e-09
-5.29675056759241e-07
1.39164439466836e-09
-2.47081177314198e-09
-1.99960073835692e-07
6.02245499476358e-10
-3.82035910175794e-09
1.98553744546216e-06
1.24862960616048e-09
-5.27364156572932e-08
1.96663835433253e-06
2.64263101073352e-08
-5.20516838812097e-09
6.02582483577398e-08
2.81645136249368e-09
-7.08942514938628e-09
-3.95175973293204e-07
2.22759467418994e-09
-6.8396698039141e-09
-4.81396476364742e-07
4.64097785775806e-09
-5.24202058463671e-09
-5.04674556277414e-07
5.35105062432616e-09
-2.58945820343196e-09
-4.83300298152576e-07
3.77725042998334e-09
5.25482482498933e-10
-2.18658370489547e-07
8.2333771153436e-10
1.12557585472382e-09
1.718004257607e-06
-1.44639554646803e-09
-3.26001350030203e-08
1.91813666543678e-06
-3.06446742697911e-08
-4.44020902230074e-09
4.87366649748055e-08
-2.5893117758034e-09
-5.80935976313956e-09
-3.53889253548331e-07
6.79180667441189e-09
-5.26671273144173e-09
-4.25877268203331e-07
1.01841540483051e-08
-4.01003342738923e-09
-4.4881846635213e-07
1.09712187859389e-08
-2.27732385067933e-09
-4.58227009103721e-07
9.75568133940082e-09
-1.30619773524686e-10
-4.38791413040565e-07
6.73113804354888e-09
2.39217644015793e-09
-2.22082160341724e-07
2.5363558181036e-09
4.16443883639514e-09
1.46438256141672e-06
-5.84679676138596e-10
-1.322015821628e-08
1.88529350195255e-06
-9.25776687796043e-08
-1.92914530061325e-09
4.70471896372873e-08
-7.30222023473732e-09
-2.64633725191038e-09
-3.15261047798963e-07
1.15688568173885e-08
-2.78005656095118e-09
-3.77413049004899e-07
1.57654059739761e-08
-2.53083597879417e-09
-3.98193959448183e-07
1.65330245855601e-08
-1.78651656438033e-09
-4.09809957063415e-07
1.56365611304963e-08
-5.61898196092142e-10
-4.14751827633616e-07
1.34584200966677e-08
1.03603194149796e-09
-3.96685039140983e-07
1.00198878669958e-08
3.03811289912228e-09
-2.15523924970148e-07
5.57552645998781e-09
5.84208493226995e-09
1.24899173378764e-06
1.03246867946489e-09
4.9233704342626e-09
1.98387060317819e-06
-6.54462318978912e-08
1.12986451002053e-07
2.2434304684451e-06
-1.20761399605183e-07
9.1028409168426e-08
2.11847746240129e-06
-5.33017054787876e-08
1.87314924446276e-07
2.09339904080945e-06
2.20949625091482e-07
-3.43767572455455e-08
1.22365470948035e-06
9.00414548071173e-08
-6.86375897832384e-08
2.25877482342727e-06
5.59872339940118e-08
-1.43865809453205e-07
2.1249040606254e-06
2.25238727707425e-07
-1.67274000264983e-08
4.16902114146053e-07
6.19961221592294e-08
-3.17194859848862e-08
2.138555281537e-07
2.09004321207334e-08
-4.88909930281767e-08
2.36819987077675e-06
3.186048300267e-08
-1.41309109703294e-07
2.11553828025673e-06
2.05317048624028e-07
-7.29382051405577e-09
2.11845747071903e-07
4.10437191510759e-08
-1.62103821970329e-08
-4.85176176094225e-07
1.41946901952152e-09
-1.77504105338804e-08
-6.8083226408049e-08
6.14794413397427e-09
-2.93265526689382e-08
2.35975473896712e-06
1.64018558023542e-08
-1.23157735479426e-07
2.07896513580869e-06
1.72047587978269e-07
-4.7081233486504e-09
1.33044824326434e-07
2.76844128876509e-08
-1.02234980760197e-08
-4.92953898368432e-07
-3.52374339216316e-09
-1.187472875913e-08
-5.67584561364995e-07
-1.45235269929696e-09
-9.44511552512203e-09
-1.56003476555676e-07
2.34694819535604e-09
-1.65123172225214e-08
2.21250422865597e-06
8.15242909923093e-09
-9.88023612779476e-08
2.02407201652526e-06
1.30003900210373e-07
-4.53320223464025e-09
8.76252242537311e-08
1.78884633609101e-08
-7.8376367334719e-09
-4.42362445678859e-07
-2.78670750457015e-09
-9.08293419577044e-09
-5.46141832374274e-07
-1.49106409422224e-09
-7.71042308881115e-09
-5.31299527246389e-07
7.00168838739671e-10
-4.51203910071287e-09
-1.98963660853428e-07
1.11724520072254e-09
-7.98623732230819e-09
1.98253194290435e-06
3.73406619867611e-09
-7.48496768703885e-08
1.96807685369896e-06
8.10570504556539e-08
-4.77020836512041e-09
6.12529806974371e-08
1.02952239403574e-08
-6.99293719330889e-09
-3.97229166852985e-07
3.7389534374481e-10
-7.5550143112835e-09
-4.84496191729733e-07
2.05977507287125e-09
-6.72492029962774e-09
-5.08170573282428e-07
3.34270859887526e-09
-4.36805966139802e-09
-4.86636651354608e-07
2.70488525581542e-09
-1.23873413531442e-09
-2.20186198731595e-07
9.86277307662103e-10
-2.04178571241111e-09
1.71801618870699e-06
4.32388055569337e-10
-5.3177211494122e-08
1.92296404928649e-06
2.64428784953052e-08
-4.86195697161369e-09
4.86997088200606e-08
4.31011297840893e-09
-6.67900281185317e-09
-3.5682054807093e-07
4.70138614650432e-09
-6.63834918343949e-09
-4.29644176983989e-07
7.27527979794544e-09
-5.71057109276543e-09
-4.52856021928187e-07
8.19512354180151e-09
-4.0478553958871e-09
-4.62555082561891e-07
7.28879801605549e-09
-1.77470066154466e-09
-4.43208449988583e-07
4.76590190474301e-09
9.94900866763847e-10
-2.25269030844236e-07
1.28636315164784e-09
1.57519157862935e-09
1.46611035974231e-06
-1.63274300369433e-09
-3.26770711955202e-08
1.89230668160216e-06
-3.33384756884426e-08
-4.32876796048917e-09
4.62670572989327e-08
-6.41415938826097e-10
-5.61695648395365e-09
-3.18612971913293e-07
9.5445661267145e-09
-5.2186805654076e-09
-3.81150624046546e-07
1.30397236330011e-08
-4.38716093283548e-09
-4.01815856978299e-07
1.38657112318665e-08
-3.28315508503182e-09
-4.13547734374051e-07
1.30429337254104e-08
-1.82876003707276e-09
-4.18963834855149e-07
1.08408900070077e-08
-2.90440548475336e-11
-4.01223457487125e-07
7.28609932396982e-09
2.17659314139597e-09
-2.18689411623629e-07
2.82857447486371e-09
3.91586868284538e-09
1.24940777683129e-06
-9.46480421568467e-10
-1.26707243768013e-08
1.87518945046652e-06
-9.76089272835399e-08
-1.95790051978363e-09
5.12123059739092e-08
-5.04308686263239e-09
-2.62912038440265e-09
-2.82085651227445e-07
1.4550892901302e-08
-2.87827479621236e-09
-3.36688148630302e-07
1.88139614421253e-08
-2.8972000683894e-09
-3.55903415402272e-07
1.95035417558202e-08
-2.54349348455069e-09
-3.67741707735329e-07
1.86135443531114e-08
-1.74205184879085e-09
-3.75590075545439e-07
1.66895228620268e-08
-5.85393384805933e-10
-3.78670058041815e-07
1.38371311556274e-08
7.63330918140303e-10
-3.62829057012414e-07
9.9897788672738e-09
2.46501636991412e-09
-2.05349694518542e-07
5.41909407406655e-09
5.15455057007811e-09
1.08619056361795e-06
7.33275787225238e-10
6.34511555967517e-09
1.93083622412373e-06
-7.03803871158748e-08
1.23408423921214e-07
2.20877803589181e-06
-1.33470734893194e-07
1.02655407995685e-07
2.0809490854956e-06
-5.92697952260183e-08
2.09781358056646e-07
2.23675671904163e-06
-1.63444832960601e-07
6.4696814719002e-08
1.2352905587791e-06
-7.9240552023657e-08
1.05286259660083e-07
2.0664376023143e-06
-3.92697514230182e-08
2.53557418045891e-07
2.09965458251336e-06
2.65636829553648e-07
-1.94328912866285e-08
4.34485954312407e-07
7.56501764846208e-08
-3.75909793589018e-08
2.34001726267117e-07
2.58179077222848e-08
-5.86416193213521e-08
2.35247676491808e-06
3.7688200195616e-08
-1.65842128168616e-07
2.09807446661092e-06
2.50981101784372e-07
-8.28652838099841e-09
2.2353240557536e-07
5.24620282071778e-08
-1.88975809486266e-08
-4.77069688502798e-07
2.64797003941491e-09
-2.15833686066356e-08
-5.59416729150752e-08
7.64739888826929e-09
-3.68161264473008e-08
2.34857163947872e-06
1.98745327078531e-08
-1.50026953155477e-07
2.06734329951886e-06
2.21749781766378e-07
-4.81744225641775e-09
1.40607380660459e-07
3.75445417379305e-08
-1.13512674718036e-08
-4.89775294746196e-07
-3.97791437573316e-09
-1.3990462928137e-08
-5.64976313369757e-07
-2.17850136053047e-09
-1.20411050069045e-08
-1.49400168206084e-07
2.71088692093868e-09
-2.2226587493271e-08
2.2044901957506e-06
1.04611839321401e-08
-1.25616902356357e-07
2.01723764189807e-06
1.82715232225991e-07
-3.84022768698129e-09
9.22172317188824e-08
2.64686789991294e-08
-8.10698731107527e-09
-4.41708854210259e-07
-4.17222732506184e-09
-1.02297563989193e-08
-5.4660427733468e-07
-3.45679940137781e-09
-9.40942292832526e-09
-5.3160877026855e-07
-3.86978988860516e-10
-6.40588611845356e-09
-1.96171466818276e-07
1.11752215550525e-09
-1.22857839005298e-08
1.97727002656084e-06
5.81842705243615e-09
-9.93785310315552e-08
1.96577248486586e-06
1.36235919371361e-07
-3.94212140250485e-09
6.35593882977931e-08
1.78470199573641e-08
-6.81104380211764e-09
-3.98194221841124e-07
-1.60965946594964e-09
-8.05461121226211e-09
-4.86528003117306e-07
-6.51834384931418e-10
-7.89118153797074e-09
-5.10594010982909e-07
1.22682587968091e-09
-5.81704579505521e-09
-4.88846245735468e-07
1.49338669183265e-09
-2.6789821079188e-09
-2.20262084119407e-07
8.91245846445467e-10
-5.07494869451551e-09
1.71614173101996e-06
1.94226352621314e-09
-7.49408925567672e-08
1.9245269171199e-06
8.37633653921734e-08
-4.28918956567821e-09
4.94471862968775e-08
1.11455429296008e-08
-6.38786548511765e-09
-3.58865805913855e-07
2.39737748658246e-09
-6.97909371877099e-09
-4.3263074201149e-07
4.18085691850076e-09
-6.68950542368006e-09
-4.56236354157729e-07
5.38259486305576e-09
-5.3844151830893e-09
-4.66161953325004e-07
5.04200331602176e-09
-3.10023216181691e-09
-4.46687068625561e-07
3.37474994032733e-09
-1.45946395127722e-10
-2.27249153614486e-07
1.08335816943295e-09
-7.20305888339327e-10
1.465916991342e-06
-1.80889321240318e-10
-5.28016862353357e-08
1.89719798944596e-06
2.61160862800989e-08
-4.57111827485174e-09
4.61234430972298e-08
5.83794677702397e-09
-6.27494536221982e-09
-3.21495961598339e-07
7.19072355651602e-09
-6.29379976074158e-09
-3.84744462538547e-07
9.92660842360581e-09
-5.70025859197259e-09
-4.05506713988535e-07
1.08313287654061e-08
-4.65874865373732e-09
-4.17391945237436e-07
1.0211438724082e-08
-3.12641122266404e-09
-4.2314952791068e-07
8.3030358580174e-09
-1.12782378087609e-09
-4.05574152028734e-07
5.23933800103049e-09
1.39502964050502e-09
-2.21861460936804e-07
1.22146155898427e-09
1.88654843031929e-09
1.25041146659502e-06
-2.13550068974482e-09
-3.15362846396359e-08
1.88227345653978e-06
-3.62134446963806e-08
-4.20229694842139e-09
5.03339091107568e-08
1.26711159207271e-09
-5.36505745392678e-09
-2.85429105864204e-07
1.22942825025852e-08
-5.02917154690137e-09
-3.4035305923937e-07
1.59205936873896e-08
-4.43676448843793e-09
-3.59373352672636e-07
1.66786894969727e-08
-3.732794692941e-09
-3.71135005821985e-07
1.59014650848215e-08
-2.74881817652172e-09
-3.79212954411297e-07
1.40956306816587e-08
-1.46176444909595e-09
-3.82778771162364e-07
1.12955999263592e-08
7.17060469713654e-11
-3.67157642230868e-07
7.38483567991041e-09
1.95200319266445e-09
-2.08557267260677e-07
2.71578468846914e-09
3.46240534042624e-09
1.0854318239069e-06
-1.540221202042e-09
-1.03756296489788e-08
1.87761573189406e-06
-1.0280970684154e-07
-1.91538439898217e-09
5.99562654411085e-08
-2.94764105997175e-09
-2.51378188279728e-09
-2.50770113703744e-07
1.74515442989703e-08
-2.81495022510475e-09
-2.98701952195275e-07
2.18380030370042e-08
-2.98867711663126e-09
-3.16344676728434e-07
2.24496943487677e-08
-2.89868464983311e-09
-3.28506321756489e-07
2.14667464395274e-08
-2.41368708658681e-09
-3.37204430800239e-07
1.95864620479488e-08
-1.56202057898458e-09
-3.43450736747955e-07
1.70271759718175e-08
-5.13313601282179e-10
-3.46445378971325e-07
1.374258059676e-08
5.80014507356218e-10
-3.35217429583997e-07
9.69897470213226e-09
2.01468836402563e-09
-1.77922140966204e-07
5.20546137460154e-09
4.55046495525903e-09
8.35257350556136e-07
1.35649761410709e-09
1.87222867241719e-06
-7.42213804301663e-08
1.3281284688963e-07
2.16877934871686e-06
-1.44380078231734e-07
1.13993955066207e-07
2.03789370177257e-06
-6.43560425766833e-08
2.30825640199405e-07
2.21128827407151e-06
-1.81269514074626e-07
7.32663961465656e-08
1.24715479785787e-06
-8.95424466620902e-08
1.21059471891704e-07
2.03472634308395e-06
-4.39440016641779e-08
2.85437187537075e-07
2.33522904741727e-06
-1.89640282671239e-07
4.34568026056123e-08
2.57483401416519e-07
-6.87870124041197e-08
3.07701504453963e-08
4.54499253506408e-07
-4.36823399669315e-08
8.96876047405185e-08
2.06985425161379e-06
-2.2168911120565e-08
3.05516169962486e-07
2.07677557258264e-06
2.96317479615394e-07
-9.3560878833245e-09
2.37338024410783e-07
6.41139992871591e-08
-2.17173330281662e-08
-4.66841226838471e-07
3.64282464555682e-09
-2.5643123020704e-08
-4.09725534992821e-08
8.87226297951396e-09
-4.47807966890117e-08
2.33731052618315e-06
2.32621989978402e-08
-1.77836199460934e-07
2.05230281175664e-06
2.71284148707532e-07
-5.26642712493295e-09
1.49892849436055e-07
4.75179747931313e-08
-1.2640568962774e-08
-4.85074623130085e-07
-4.77815050718275e-09
-1.61756443351739e-08
-5.60838501772822e-07
-3.36825253037931e-09
-1.47098502469305e-08
-1.40581578653748e-07
2.58084327801852e-09
-2.83446212866654e-08
2.19663193432328e-06
1.26010087167501e-08
-1.54785127795047e-07
2.00722165692104e-06
2.35599003641942e-07
-3.83910713163681e-09
9.83650321418077e-08
3.51510656344265e-08
-8.58282585569786e-09
-4.39762532591977e-07
-5.87421706890161e-09
-1.14122098263842e-08
-5.45858263478709e-07
-5.85814150602996e-09
-1.10612554187003e-08
-5.30694096320281e-07
-1.99639640779185e-09
-8.24880956250207e-09
-1.91615257304236e-07
5.43399789357086e-10
-1.68639804253659e-08
1.97121751829609e-06
7.61326979960834e-09
-1.27175216519227e-07
1.95996865776419e-06
1.91777785531269e-07
-3.28094039309653e-09
6.74028553188096e-08
2.54822641158439e-08
-6.71820938208928e-09
-3.98040073460055e-07
-3.86154614924439e-09
-8.57425021296332e-09
-4.87541768630846e-07
-3.70498933463419e-09
-8.96703660923812e-09
-5.12021418736912e-07
-1.27304525461814e-09
-7.0982137602503e-09
-4.9003247495908e-07
-1.66229942464262e-10
-3.93789780782138e-09
-2.18846531915501e-07
2.86382907499016e-10
-8.1716631249688e-09
1.71278275729785e-06
3.19747408680592e-09
-9.92108486323675e-08
1.9225495294278e-06
1.41519788601237e-07
-3.31432884541048e-09
5.13865575121097e-08
1.79677981062511e-08
-6.01417815032085e-09
-3.60003141191842e-07
-1.78231302033481e-10
-7.10615905278845e-09
-4.34779745931156e-07
8.01782556425839e-10
-7.36297850034623e-09
-4.58832443280883e-07
2.33663346026251e-09
-6.40903956151063e-09
-4.68972866685178e-07
2.61751294772228e-09
-4.13156242793397e-09
-4.49310015075468e-07
1.79189788045063e-09
-9.57824360903111e-10
-2.28081547634908e-07
4.79736841678382e-10
-2.78682975428742e-09
1.46466878766606e-06
5.75848858207212e-10
-7.42867503737785e-08
1.89884229065093e-06
8.58915273724343e-08
-3.78935702147261e-09
4.66601142264542e-08
1.21407021281565e-08
-5.84130471546374e-09
-3.23585815507988e-07
4.50214109461166e-09
-6.41017078857809e-09
-3.87686840925716e-07
6.47573090991004e-09
-6.33343245910932e-09
-4.08751431842979e-07
7.5429317045089e-09
-5.60605601059263e-09
-4.2084620741175e-07
7.26774286108698e-09
-4.15712824124163e-09
-4.26808472611971e-07
5.90925448652669e-09
-1.97836114415727e-09
-4.09093636883933e-07
3.64992943895053e-09
8.08257480683206e-10
-2.24002285106428e-07
9.1908846206066e-10
3.14044627844934e-10
1.24979860303238e-06
-1.08838151900584e-09
-5.10970857883407e-08
1.88725746059861e-06
2.54216438417799e-08
-4.29289033065464e-09
5.00598823375083e-08
7.40069556660893e-09
-5.87900396631971e-09
-2.88320712095112e-07
9.70764474152932e-09
-5.90188887547796e-09
-3.43879426894156e-07
1.26344018140555e-08
-5.47931868835159e-09
-3.62903309559297e-07
1.34628950897188e-08
-4.80240554247341e-09
-3.74660797040181e-07
1.28411331900235e-08
-3.76464596123149e-09
-3.82943956518379e-07
1.12581917773641e-08
-2.3524892090634e-09
-3.86861525066809e-07
8.77020044343979e-09
-5.75536187307063e-10
-3.71434773536409e-07
5.29921545003105e-09
1.59121742638168e-09
-2.11559673790137e-07
8.93079497602967e-10
1.8584011675587e-09
1.08554139982579e-06
-2.92766621574562e-09
-2.87269803583678e-08
1.88483092321236e-06
-3.93426942441581e-08
-4.06527127854116e-09
5.89910753958305e-08
3.11244710548833e-09
-5.08086075786979e-09
-2.54105765222745e-07
1.50254645022276e-08
-4.75960957204958e-09
-3.02326424615648e-07
1.88218748901535e-08
-4.30720674764123e-09
-3.19748383443469e-07
1.95033148658038e-08
-3.85977886953484e-09
-3.31757294367904e-07
1.86302390069721e-08
-3.20990877727429e-09
-3.40503743322863e-07
1.6908734875228e-08
-2.26367039277482e-09
-3.47014745826309e-07
1.45098885986356e-08
-1.11150576348849e-09
-3.50432023274887e-07
1.13136018275109e-08
1.28522171412072e-10
-3.39387889655476e-07
7.19099588256479e-09
1.64722192305108e-09
-1.81519946275999e-07
2.42455701136536e-09
3.09663457157826e-09
8.32938183282274e-07
-1.51080318281816e-09
-6.5484689818016e-09
1.88988981176659e-06
-1.08286872112088e-07
-1.86002913949662e-09
7.19244746721656e-08
-1.03999304279362e-09
-2.35463817618039e-09
-2.2106082268379e-07
2.0250398839267e-08
-2.65329960264226e-09
-2.62999941655672e-07
2.48031012277485e-08
-2.91337584205983e-09
-2.78798148209035e-07
2.53630458413682e-08
-2.99764159194018e-09
-2.91114510241694e-07
2.42587913729725e-08
-2.75155744117367e-09
-3.00689846306586e-07
2.23202649782789e-08
-2.14727676411101e-09
-3.08074016009013e-07
1.98523473273085e-08
-1.28915991774007e-09
-3.14082512606159e-07
1.68833095990254e-08
-3.79781055641326e-10
-3.19636399010191e-07
1.33447454953435e-08
5.01128658970842e-10
-3.18357122752917e-07
9.26982027335704e-09
1.78112166807541e-09
-1.41922420327015e-07