/*--------------------------------*- C++ -*----------------------------------*\
  =========                 |
  \\      /  F ield         | OpenFOAM: The Open Source CFD Toolbox
   \\    /   O peration     | Website:  https://openfoam.org
    \\  /    A nd           | Version:  12
     \\/     M anipulation  |
\*---------------------------------------------------------------------------*/
/*   Windows 32 and 64 bit porting by blueCAPE: http://www.bluecape.com.pt   *\
|  Based on Windows porting (2.0.x v4) by Symscape: http://www.symscape.com   |
\*---------------------------------------------------------------------------*/
FoamFile
{
    format      ascii;
    class       volVectorField;
    location    "400";
    object      U;
}
// * * * * * * * * * * * * * * * * * * * * * * * * * * * * * * * * * * * * * //

dimensions      [0 1 -1 0 0 0 0];

internalField   nonuniform List<vector> 
10103
(
(-3.47304378781849e-07 -2.12991783760946e-06 1.33966401154643e-06)
(-4.4489154149468e-07 -1.2972906056489e-06 5.52829803774648e-06)
(-6.73456693463113e-07 -5.30237279677443e-06 -0.000187985575835812)
(-5.16937789714001e-06 -2.47168112740609e-06 -0.000247853010069102)
(-3.14932250003394e-07 -4.17544799587641e-07 5.00382372338362e-06)
(-1.58259476122124e-07 -4.84607557707291e-06 -0.000182968288930128)
(-3.32590781313701e-06 -2.79330966531962e-06 -0.000242618556013302)
(-1.62114700817038e-06 -7.37954831271281e-06 -0.000177574990845036)
(-5.77746163636263e-06 -4.73618269449737e-06 -0.000685773198508132)
(-9.78341254688415e-06 -1.42648877536668e-06 -0.000282381850551774)
(3.74782838298824e-07 1.81423894827772e-07 3.22990411449626e-06)
(2.69289267617206e-07 -3.58796386607995e-06 -0.000182171705420015)
(-1.62369206603288e-06 -2.63715781716585e-06 -0.00024205618331501)
(-8.94565104776677e-07 -8.14494250808395e-06 -0.000173522539274635)
(-3.85378060868496e-06 -7.24998690553362e-06 -0.00068425011242165)
(-6.04969163905553e-06 -2.46045822242606e-06 -0.000278115431563341)
(-9.83459048355072e-07 -9.73230106108002e-06 -0.000125768703227732)
(-3.69444290258175e-06 -2.25229605334683e-06 -0.000619481179534599)
(-8.17170735953264e-06 -5.6433106961839e-07 -0.00068159544330244)
(-1.14156834393405e-05 -5.23483982937945e-07 -0.000225359984803702)
(8.78328307805457e-07 8.42732103258919e-07 2.82728474203004e-06)
(9.88591123612639e-07 -1.68636366176007e-06 -0.000181915372958381)
(4.33649863764593e-07 -2.66317687555869e-06 -0.000241920213803523)
(-1.96038941954494e-07 -7.29594560837171e-06 -0.000172598737438086)
(-2.3249443991693e-06 -8.42049732400422e-06 -0.000685354979322346)
(-2.96426089347397e-06 -3.09265151748441e-06 -0.000277471779751934)
(-3.46754597483335e-07 -9.64903632036999e-06 -0.000123009013274907)
(-2.10106515330544e-06 -7.22898303142549e-06 -0.000620675015291856)
(-5.52281774343974e-06 -4.3250844185794e-06 -0.000682886101603835)
(-7.22131520094078e-06 -1.87440687269039e-06 -0.000221962513239342)
(-7.81337006748609e-07 -1.1173131337723e-05 -0.00010111924224698)
(-1.54992066712094e-06 -1.34704493738164e-06 -0.000504784110646323)
(-4.12110137996509e-06 1.57108614355737e-06 -0.000584268935825924)
(-7.71253876221147e-06 1.18138413074077e-06 -0.000560061664776648)
(-1.10180474429078e-05 5.84726839733903e-07 -0.000181567819370086)
(1.38067682160103e-06 1.46631536391004e-06 3.03261320868482e-06)
(1.54892708912581e-06 3.67118306874671e-07 -0.000179414318314449)
(2.1198985411257e-06 -2.64262184946009e-06 -0.000239452748671682)
(-3.51539128339759e-08 -4.85672737461285e-06 -0.000172368491929522)
(-1.08318927327699e-06 -8.64943579514943e-06 -0.000685846431523239)
(-5.74414757656893e-07 -3.09399270298817e-06 -0.00027711564115117)
(2.42633250894729e-07 -8.39433119965248e-06 -0.000122326035090429)
(-1.14005527831029e-06 -1.07271278989793e-05 -0.00062270393325575)
(-3.74138532369637e-06 -7.01827730719483e-06 -0.00068531605940085)
(-3.67180818614835e-06 -2.62874159027967e-06 -0.000221403040466573)
(1.26411625712647e-07 -1.01186059655882e-05 -9.84889203226406e-05)
(-2.20606626361251e-07 -6.06139527291838e-06 -0.000506317923174602)
(-2.52381650021081e-06 -3.00454420217889e-06 -0.000587462424168711)
(-5.72563998717201e-06 -2.27213496950454e-06 -0.000562182513815621)
(-7.37279246290618e-06 -1.17324529843045e-06 -0.000179168461486074)
(-5.76224703526667e-07 -1.17380039265572e-05 -8.60009794482696e-05)
(-4.20598330922979e-07 -1.92654459619301e-07 -0.000435218703262187)
(-1.62381157814125e-06 2.77940079302401e-06 -0.000460540989649213)
(-3.64534949071987e-06 2.94410645649235e-06 -0.000462894741082104)
(-6.6623571248996e-06 2.13772063508688e-06 -0.000473857698371637)
(-1.00333377183839e-05 1.09693417242669e-06 -0.000160150247482281)
(1.88229490947935e-06 2.09537088390568e-06 3.5188160701586e-06)
(2.19325363797379e-06 2.26978871481831e-06 -0.000175824945607204)
(3.67399923818427e-06 -2.60565078403346e-06 -0.000235333802751954)
(-6.37107933732446e-08 -2.20799277619696e-06 -0.000170420077376502)
(-1.91391404005976e-07 -8.74535193539671e-06 -0.000682637194176231)
(1.44101440674483e-06 -3.17207528590106e-06 -0.000275066291412278)
(6.45327334907753e-07 -5.87649755139665e-06 -0.000122702858516018)
(-7.835222837831e-07 -1.27166330855476e-05 -0.000624105075107484)
(-3.04594957197911e-06 -8.72975623394899e-06 -0.00068685387757243)
(-1.15366400873335e-06 -2.65058653703265e-06 -0.000221457983195098)
(6.670662449693e-07 -8.47024849079127e-06 -9.71348393934871e-05)
(2.67850014047082e-07 -9.94289180778994e-06 -0.000507938757508442)
(-1.65913864437514e-06 -6.76023510055618e-06 -0.000590602686030259)
(-4.34357086465601e-06 -4.66180297038202e-06 -0.000564728042183494)
(-4.11239490046809e-06 -2.13155966313356e-06 -0.000178786559484465)
(3.81974937631488e-07 -1.01501116325505e-05 -8.34965806350477e-05)
(8.20419254579871e-07 -4.60769356104673e-06 -0.000436630380249501)
(-3.56012494496581e-07 -1.47728351481239e-06 -0.000463584003219896)
(-2.49890455183939e-06 -5.25697186845836e-07 -0.000466248783236311)
(-5.52216119708194e-06 -9.58252250636259e-07 -0.00047606143862618)
(-7.10340213868685e-06 -6.462410476767e-07 -0.000158684659330198)
(-3.2675669737199e-07 -1.16421183134519e-05 -7.5817088505555e-05)
(1.36094614830648e-07 1.34103267340787e-06 -0.000392251967785943)
(-3.19621823439652e-07 4.08197570551755e-06 -0.000386957678248656)
(-1.36353986292157e-06 4.20416876280665e-06 -0.00036361461963263)
(-3.00371000375633e-06 3.71346072408982e-06 -0.000382396944486507)
(-5.71220744060074e-06 2.62388412065596e-06 -0.000418812097674519)
(-9.07571365724751e-06 1.2437004744408e-06 -0.00015166638018691)
(2.41276585271521e-06 2.75770943416975e-06 4.17804863394927e-06)
(2.86655008659194e-06 4.1357405571543e-06 -0.00017196303562424)
(5.25961688204783e-06 -2.53402964942684e-06 -0.000230241173931687)
(-7.08153520578943e-08 3.81886245229508e-07 -0.000167218346229339)
(6.83525627965039e-07 -9.20621787934002e-06 -0.000676913824994448)
(3.36824368899507e-06 -3.39367609058446e-06 -0.000271622208396778)
(5.80563468428712e-07 -3.0445144842719e-06 -0.000121915293291469)
(-5.66790169201582e-07 -1.44955017490647e-05 -0.00062313819310526)
(-2.63795343511965e-06 -1.04031281415508e-05 -0.00068585267851015)
(1.06173636122456e-06 -2.7143651448363e-06 -0.000220397734751062)
(1.13166512204821e-06 -5.99029462191533e-06 -9.70469693372925e-05)
(1.7969865332279e-07 -1.28013961250179e-05 -0.000509294339907522)
(-1.5605378355605e-06 -9.60830834437469e-06 -0.000592761176074968)
(-3.88427755358412e-06 -6.21863486752747e-06 -0.000566517718723192)
(-1.77657777128101e-06 -2.23309164045849e-06 -0.000179082590279286)
(9.07459572517769e-07 -8.2698129723027e-06 -8.18064069872633e-05)
(1.15577347265144e-06 -8.71212948378975e-06 -0.000437831847225286)
(1.9775200043431e-07 -5.35875057479967e-06 -0.000466269891107922)
(-1.76701359887488e-06 -3.37830411371052e-06 -0.00046924148381327)
(-4.63380648325614e-06 -3.01529875615846e-06 -0.000478359866781346)
(-4.37171112242029e-06 -1.60132899864026e-06 -0.000158470039813121)
(5.16255661627275e-07 -9.8903871416342e-06 -7.34627777270976e-05)
(1.28021171762628e-06 -3.07991068359923e-06 -0.000393652285634189)
(7.59860236078136e-07 8.03273845316762e-08 -0.000389608855187586)
(-4.79220586598934e-07 1.06924284353392e-06 -0.000366688678373389)
(-2.38147415874027e-06 8.88842035332593e-07 -0.000385437530338712)
(-5.21916703181899e-06 -1.37445609210999e-07 -0.000421062526562777)
(-6.79123581630005e-06 -3.06459784174912e-07 -0.0001510503424998)
(-1.29484710892502e-07 -1.11647159608577e-05 -6.74876862278489e-05)
(4.18359551516814e-07 3.15647192334952e-06 -0.000361371026191812)
(3.39225713302372e-07 5.55707255481191e-06 -0.000341368323345772)
(-1.20499111182129e-07 5.49464463013339e-06 -0.000305032941790205)
(-1.02313272608024e-06 4.99793762393245e-06 -0.000301093534536905)
(-2.49408551682228e-06 4.15971476555828e-06 -0.000332339102319918)
(-5.0049096000168e-06 2.80347938727234e-06 -0.000379045915335571)
(-8.31766822590025e-06 1.17657558974138e-06 -0.000150420387515936)
(2.95539278970436e-06 3.40089796370123e-06 4.9747937335248e-06)
(3.67123718653662e-06 6.10162379203358e-06 -0.000167477767448554)
(6.92739573333523e-06 -2.37813298320566e-06 -0.000224329931521093)
(-1.42361200835775e-08 2.8789522524686e-06 -0.00016416716168214)
(1.594014644012e-06 -9.59315395887808e-06 -0.00066925384291842)
(5.38913207484344e-06 -3.68241037392635e-06 -0.000267209985713939)
(4.40789836501508e-07 -1.37732266226709e-07 -0.000120176385219835)
(-3.77355997551799e-07 -1.63219799176592e-05 -0.000620282616473304)
(-2.30937206587819e-06 -1.21893144386393e-05 -0.000682974297964111)
(3.27516064015764e-06 -3.04017334021588e-06 -0.000218494636786341)
(1.23362522101067e-06 -3.24448003561792e-06 -9.62474596639528e-05)
(2.15410425573986e-08 -1.5397885903074e-05 -0.000509168804897844)
(-1.64245146247882e-06 -1.23508689316266e-05 -0.000593399199981377)
(-3.73929485217015e-06 -7.84524741180313e-06 -0.000566593264139335)
(3.76724347084308e-07 -2.36593686998866e-06 -0.000178653288571397)
(1.25538661975842e-06 -5.92830836961205e-06 -8.13598737718734e-05)
(9.44865871143211e-07 -1.22613672181097e-05 -0.000438938297680052)
(1.32618577169614e-07 -8.66025350425592e-06 -0.000468234702983177)
(-1.63863797838952e-06 -5.63629122091538e-06 -0.000471376813028439)
(-4.40080062740301e-06 -4.38131438877169e-06 -0.000480111238802805)
(-2.41676112533493e-06 -1.81526484656797e-06 -0.00015892298020556)
(9.59336495492276e-07 -7.98905826120873e-06 -7.16364560336981e-05)
(1.56705836830371e-06 -7.47190311860563e-06 -0.000394644672737755)
(1.17377104514388e-06 -3.86256580939644e-06 -0.000391806824831268)
(6.93994741243092e-08 -1.86515524995987e-06 -0.000369238310289473)
(-1.88254766875686e-06 -1.42317118720399e-06 -0.000388039918392319)
(-4.83491164930771e-06 -1.98251247259388e-06 -0.000423181842886115)
(-4.59975306621534e-06 -1.11248708337921e-06 -0.00015118790078148)
(6.01035682074108e-07 -9.45392105380121e-06 -6.52678475280735e-05)
(1.4529563000052e-06 -1.51813519397083e-06 -0.000362810562228982)
(1.26830108874113e-06 1.59488971018057e-06 -0.000343812111447484)
(5.9576232630748e-07 2.54218722394061e-06 -0.000307677527815808)
(-5.25652240365709e-07 2.47676707717636e-06 -0.000303837698772125)
(-2.24869759745779e-06 1.69478830368829e-06 -0.000335140063086542)
(-4.95481707655832e-06 3.42568586668234e-07 -0.000381364239596252)
(-6.57257459366786e-06 -2.06376066396155e-07 -0.00015035512238674)
(-1.81770963210875e-08 -1.04787823307364e-05 -5.95613600293368e-05)
(5.45962141491343e-07 5.10144421022485e-06 -0.000336646115966782)
(6.53423172183519e-07 7.18054313400221e-06 -0.000308480285482327)
(5.29986694697627e-07 6.8485790322035e-06 -0.000267904273491778)
(6.45957663560267e-08 6.28805506726169e-06 -0.000253331605303918)
(-7.87307874943188e-07 5.49154573319011e-06 -0.000262142274210307)
(-2.15022578760976e-06 4.34578285285727e-06 -0.000296914752189787)
(-4.51117636550032e-06 2.79768229107619e-06 -0.000346198745447593)
(-7.94201746214337e-06 9.497704256534e-07 -0.000151236575793792)
(3.46867893117495e-06 4.04298003586237e-06 5.98480811696181e-06)
(4.50434292925761e-06 7.98557766643047e-06 -0.000162396883211669)
(8.66288595507607e-06 -2.31203560184915e-06 -0.000217626095482922)
(3.14957777546105e-07 5.40311009246692e-06 -0.000160360842847399)
(2.72653452003117e-06 -9.89760338243233e-06 -0.000659852511311119)
(7.55843478193769e-06 -3.95357183031867e-06 -0.000261866377197794)
(3.25524143385523e-07 2.72911395723985e-06 -0.000118562221377025)
(-1.58319459445111e-07 -1.8215122590827e-05 -0.000615865286885287)
(-1.94314311623858e-06 -1.40406149141451e-05 -0.000678558620215348)
(5.58188680358845e-06 -3.50810658192535e-06 -0.000215806118737832)
(1.30852588670368e-06 -3.8186133879858e-07 -9.4933046486237e-05)
(-1.24934239893707e-07 -1.79910270325372e-05 -0.000507586111547579)
(-1.77213583485779e-06 -1.51779662270971e-05 -0.000592788087664485)
(-3.67570098141027e-06 -9.65107990566505e-06 -0.000565341909036595)
(2.60895174696802e-06 -2.74807573747625e-06 -0.000177673724860888)
(1.43163219686051e-06 -3.38366385175318e-06 -8.04961127180693e-05)
(6.77573630768804e-07 -1.56103919105843e-05 -0.000439021946013433)
(-4.64244249558356e-08 -1.183604464323e-05 -0.000469214198889351)
(-1.74741929940256e-06 -7.88371560012314e-06 -0.000472486098555807)
(-4.46648537760192e-06 -5.86188499484289e-06 -0.000480666698714793)
(-5.3847979712164e-07 -2.03301871640465e-06 -0.000158813990243899)
(1.14866745120003e-06 -5.8463639489233e-06 -7.09368102681774e-05)
(1.32092566578781e-06 -1.15915631518665e-05 -0.000395545483926771)
(1.03795999950976e-06 -7.53679098666969e-06 -0.000393502377407072)
(1.56402014244567e-07 -4.45858369017986e-06 -0.000371143502641934)
(-1.78942879438743e-06 -3.29813764588725e-06 -0.000390014309330541)
(-4.88564551557841e-06 -3.26661191425065e-06 -0.000424877156377494)
(-3.00499469626686e-06 -1.43721794667181e-06 -0.000151740250055486)
(9.3991519654559e-07 -7.64821412753655e-06 -6.33947674213473e-05)
(1.7073578776327e-06 -6.26374320317293e-06 -0.000363710472947774)
(1.60528160968928e-06 -2.45302378075004e-06 -0.000345732949521221)
(1.01353218682912e-06 -4.49182201713762e-07 -0.000309790517816218)
(-1.12407742290765e-07 8.05677096064885e-08 -0.00030605457297843)
(-2.01541614460382e-06 -3.46276512606432e-07 -0.000337475205606698)
(-4.99966837899246e-06 -1.340197826604e-06 -0.000383396819315493)
(-4.87255710412086e-06 -7.71504593923254e-07 -0.000150591497648349)
(6.49759086773815e-07 -8.89745221382319e-06 -5.7412653681019e-05)
(1.50838423561219e-06 5.88568302853894e-08 -0.000338120222594041)
(1.47730015043079e-06 3.10093067041864e-06 -0.000310834044653311)
(1.12292781064606e-06 3.91714523444328e-06 -0.000270297486043505)
(4.663917853525e-07 3.89441673180824e-06 -0.000255687338572015)
(-5.53397722399166e-07 3.27347021511491e-06 -0.00026462116384758)
(-2.14981598817216e-06 2.13110326446391e-06 -0.000299588212714945)
(-4.76006407902339e-06 5.65551601688537e-07 -0.000348596841495826)
(-6.51536477156573e-06 -3.12529347561644e-07 -0.0001515954822147)
(4.01115645746388e-08 -9.70395490363915e-06 -5.15727547412091e-05)
(5.81755376680587e-07 7.0739506812881e-06 -0.000315786569506416)
(7.77993678419421e-07 8.87014707876529e-06 -0.000282061781086407)
(8.48727645938388e-07 8.27189726361391e-06 -0.00024034843087531)
(6.58846997416778e-07 7.57495445562614e-06 -0.000222343357188349)
(1.56131317635879e-07 6.78248212105319e-06 -0.000221003714506864)
(-6.68660079840148e-07 5.72498931371668e-06 -0.000234383453055086)
(-1.93178046247372e-06 4.34688039253053e-06 -0.000268650102094505)
(-4.17188327015528e-06 2.65680608404033e-06 -0.000317533799808811)
(-7.94043916545514e-06 4.99872506723414e-07 -0.000150659864950064)
(3.9634887742862e-06 4.67951637147355e-06 7.2685582071933e-06)
(1.04307802944954e-05 -2.16322819071863e-06 -0.000209893102688269)
(5.28831138380102e-06 9.84579023780004e-06 -0.00015662482675283)
(7.15109403370495e-07 7.92646530399777e-06 -0.000155922495877122)
(4.03786897958323e-06 -1.05901245388803e-05 -0.000648755856753272)
(9.86150993538473e-06 -4.14632161458261e-06 -0.000255543635803327)
(3.23114808381555e-07 5.52706545054258e-06 -0.000116392583124917)
(1.86217054033518e-07 -2.01557100687847e-05 -0.000609999790400134)
(-1.43529896267193e-06 -1.59776750523199e-05 -0.000672694468862408)
(8.03881513654873e-06 -4.03403442549216e-06 -0.000212313320057405)
(1.43945667699078e-06 2.45408454302398e-06 -9.34716179442903e-05)
(-2.55200405013475e-07 -2.06542755728229e-05 -0.000504730652941216)
(-1.89502264495475e-06 -1.81586986645414e-05 -0.000591132825588092)
(-3.59571789069353e-06 -1.16290919794853e-05 -0.000562961797874976)
(4.95994075994626e-06 -3.28248181934429e-06 -0.000176019889939674)
(1.49076941015921e-06 -7.45926576323887e-07 -7.94753856141233e-05)
(4.61284742531716e-07 -1.89698172993622e-05 -0.00043794678193093)
(-2.23898172148182e-07 -1.51001339811238e-05 -0.000469261895054825)
(-1.93707541733902e-06 -1.02859751023663e-05 -0.000472711548702365)
(-4.63061301996996e-06 -7.56319791556341e-06 -0.000480215433721389)
(1.50359099311356e-06 -2.469053061595e-06 -0.000158423943167548)
(1.35104096831872e-06 -3.55486423243639e-06 -7.00659651597198e-05)
(1.03671764846026e-06 -1.56490617916285e-05 -0.000395678709285838)
(8.04127049389569e-07 -1.11676658859697e-05 -0.000394505155508228)
(6.5612406430324e-08 -7.03121877562935e-06 -0.000372373513615915)
(-1.92744566959288e-06 -5.21784975456085e-06 -0.000391279102671234)
(-5.19434565690877e-06 -4.67259182056983e-06 -0.000425705006308089)
(-1.47725750155946e-06 -1.76256058816184e-06 -0.000151675502943966)
(9.97998217750586e-07 -5.70125587266811e-06 -6.25572519895108e-05)
(1.46466818521802e-06 -1.09112098392298e-05 -0.000364493558028471)
(1.43475996781858e-06 -6.44729553162205e-06 -0.00034724939293374)
(1.04135226031205e-06 -3.32798803338724e-06 -0.000311462487631365)
(8.98532820579647e-09 -2.09680000107184e-06 -0.000307812486962064)
(-2.0514466466773e-06 -2.05059896004338e-06 -0.000339332335016048)
(-5.35560368205187e-06 -2.5910750228223e-06 -0.000385076868722287)
(-3.59365888201293e-06 -1.07344740497041e-06 -0.000151137349676034)
(9.28086575954389e-07 -7.25123392368979e-06 -5.55282699278258e-05)
(1.74673085234448e-06 -5.0706095409101e-06 -0.000338980677178615)
(1.77069557271109e-06 -1.11576034761566e-06 -0.000312622178209735)
(1.45145719637839e-06 8.49728043473594e-07 -0.000272167649672184)
(7.88601333408865e-07 1.42984332896288e-06 -0.000257545649010459)
(-3.15835649192805e-07 1.13662084480048e-06 -0.000266612270125255)
(-2.16140888336882e-06 2.55903873259623e-07 -0.000301778655420084)
(-5.13429251178671e-06 -9.74721555515595e-07 -0.000350589575564567)
(-5.26063341024986e-06 -7.06550201609183e-07 -0.000151895295091321)
(6.64366798265819e-07 -8.29371771084831e-06 -4.94487778365202e-05)
(1.50374787362033e-06 1.647036451928e-06 -0.000317290361630044)
(1.53670719082806e-06 4.60829332495945e-06 -0.000284364018274503)
(1.35470464084023e-06 5.26695136356791e-06 -0.000242613571140536)
(9.78266620006347e-07 5.17918118273073e-06 -0.000224460444651191)
(3.5212796981979e-07 4.66019063415995e-06 -0.000223133109245217)
(-5.95427417415104e-07 3.7006029548851e-06 -0.000236711145553697)
(-2.10196131733245e-06 2.32322864439194e-06 -0.000271236624921526)
(-4.60796056371097e-06 5.64646043226198e-07 -0.000319922326983781)
(-6.70715007261088e-06 -6.10299951364079e-07 -0.00015137735979637)
(6.0918072105232e-08 -8.94845618769826e-06 -4.34896159186807e-05)
(5.67848556024293e-07 9.01896902693415e-06 -0.000297772134897579)
(7.96118638665261e-07 1.05747063140413e-05 -0.000259714881281294)
(9.73426308784286e-07 9.7288455987683e-06 -0.000217585292424353)
(9.63075808323869e-07 8.86837264497568e-06 -0.00019866426275694)
(6.82173647032603e-07 8.0237303800845e-06 -0.000193810565207176)
(1.47814331577205e-07 7.01910980270171e-06 -0.000197726586436085)
(-6.24586616203629e-07 5.74940883893013e-06 -0.000212126003882246)
(-1.79330942719072e-06 4.20660819015781e-06 -0.000244887263357788)
(-3.94228881716099e-06 2.37190271176264e-06 -0.000292970813813253)
(-8.33020872264203e-06 -6.52129189709941e-07 -0.000141813909147697)
(4.42066706635142e-06 5.28056857392007e-06 8.89224499206622e-06)
(1.22193516700077e-05 -1.95454567346675e-06 -0.000200983911039013)
(6.07497431816805e-06 1.1720828930198e-05 -0.000150054991645951)
(1.23206550063257e-05 -4.29348320056496e-06 -0.000248128720029562)
(5.49304997850307e-06 -1.12455208237877e-05 -0.000635743465335903)
(1.18929296482022e-06 1.04612270008329e-05 -0.000150785120972951)
(3.5698248016494e-07 8.26799895431004e-06 -0.00011381449884343)
(6.4524281552323e-07 -2.20802907048494e-05 -0.000602698022252976)
(-7.07049849443502e-07 -1.79439071069337e-05 -0.000665362260491248)
(1.06927714231281e-05 -4.45826660533589e-06 -0.00020787264345193)
(1.47102191005344e-06 5.19137866213629e-06 -9.14489995959401e-05)
(-3.27800375385861e-07 -2.34296609420987e-05 -0.000500711339010108)
(-1.96404203083048e-06 -2.13089781294622e-05 -0.000588503231120565)
(-3.41126707837136e-06 -1.37558327024924e-05 -0.000559522899795632)
(7.49289612204838e-06 -3.94492330673693e-06 -0.000173660562112586)
(1.62255690976541e-06 1.83811359080959e-06 -7.8078808396813e-05)
(2.73910937889279e-07 -2.24531561382313e-05 -0.00043579919727252)
(-4.00622336933755e-07 -1.85397521874294e-05 -0.000468488193789817)
(-2.15436423012808e-06 -1.2885407165403e-05 -0.000472186165034697)
(-4.80517504970433e-06 -9.48451922768419e-06 -0.000478901849205275)
(3.70935846583991e-06 -3.05842525533285e-06 -0.000157390208255283)
(1.33786702052939e-06 -1.22884316431633e-06 -6.92501801313219e-05)
(8.04699020605758e-07 -1.97722664941664e-05 -0.000394865536084642)
(5.96319437678442e-07 -1.49145318063405e-05 -0.000394773105564103)
(-7.68800966174456e-08 -9.74706059320656e-06 -0.000372943028118634)
(-2.17456796839718e-06 -7.33012320695328e-06 -0.00039188531277835)
(-5.62145759812137e-06 -6.31799318716531e-06 -0.000425760014977024)
(2.12396253076464e-07 -2.22224079916933e-06 -0.000151577140766561)
(1.10756820858806e-06 -3.68145951580091e-06 -6.18193527193409e-05)
(1.20501941340114e-06 -1.56206847432214e-05 -0.000364674858878928)
(1.1763463307576e-06 -1.05021932276997e-05 -0.00034823754494427)
(9.19924589539552e-07 -6.2479650501414e-06 -0.000312668656440611)
(-4.70514017169127e-08 -4.31503259467955e-06 -0.000309118143085852)
(-2.29258053235001e-06 -3.82746850452416e-06 -0.000340676189096083)
(-5.94011132891681e-06 -3.97950465922335e-06 -0.000386101027949896)
(-2.45340634043568e-06 -1.45338233744626e-06 -0.000151213691048428)
(9.09107807132888e-07 -5.49948559729611e-06 -5.45989779770751e-05)
(1.52016070522235e-06 -1.02412993980146e-05 -0.00033972174167288)
(1.59728732989588e-06 -5.4047461084209e-06 -0.000314044510391235)
(1.4282105112892e-06 -2.25709449660908e-06 -0.000273698531179245)
(8.74390713399794e-07 -1.0011449760414e-06 -0.000259105087920531)
(-2.62202017193457e-07 -8.52910100103918e-07 -0.00026827352512571)
(-2.36734924967799e-06 -1.35397728609705e-06 -0.000303574479978085)
(-5.78449777184279e-06 -2.21722151978059e-06 -0.000352280634695671)
(-4.35889557110167e-06 -9.13195393612461e-07 -0.000152428675001651)
(9.25469777757146e-07 -6.82621841540002e-06 -4.7564875991144e-05)
(1.73263084437841e-06 -3.88327450893957e-06 -0.000318140512487827)
(1.80903654306462e-06 1.95757952316636e-07 -0.000286093149015575)
(1.62878179472799e-06 2.09817407915375e-06 -0.000244370349952538)
(1.23038026429041e-06 2.64394299484363e-06 -0.000226117276292623)
(5.46489614924615e-07 2.45642705299572e-06 -0.000224818302088526)
(-5.20411352680619e-07 1.71990781958547e-06 -0.000238581248597937)
(-2.3181622898655e-06 5.68606770890842e-07 -0.000273331626218451)
(-5.2152063727351e-06 -9.01687625181954e-07 -0.00032181431393021)
(-5.87319581501242e-06 -9.58842508810675e-07 -0.000151666145171591)
(6.72747606784579e-07 -7.70141347263832e-06 -4.13632230939284e-05)
(1.46171679735552e-06 3.22038222146616e-06 -0.000299294157019873)
(1.515995499734e-06 6.11984553234355e-06 -0.000261976942908758)
(1.42757403141064e-06 6.61744972653872e-06 -0.000219775476434154)
(1.22406405209619e-06 6.42025970803948e-06 -0.000200656257321212)
(8.36609126917443e-07 5.89432337658252e-06 -0.000195717662496273)
(2.30118070708624e-07 5.06309388758769e-06 -0.000199714181319331)
(-6.65173030627265e-07 3.87571837624719e-06 -0.000214350659112742)
(-2.06657311811104e-06 2.31417277560525e-06 -0.00024737756202559)
(-4.44641907770535e-06 3.47683432949208e-07 -0.000295337331612623)
(-7.24199282324598e-06 -1.4890933607166e-06 -0.000143117414326386)
(3.66186308265973e-08 -8.25384722439534e-06 -3.53804479017379e-05)
(5.2104611463867e-07 1.09156212749736e-05 -0.000282006229172024)
(7.50151324547412e-07 1.22647236141392e-05 -0.000240323086461172)
(9.85138786190885e-07 1.11948721627091e-05 -0.000197800310423604)
(1.0877452893292e-06 1.01684008190206e-05 -0.000178591624392276)
(9.65091095657011e-07 9.23193541043724e-06 -0.000172584595519482)
(6.17139236244949e-07 8.22480156858116e-06 -0.000173117622785441)
(8.76820206584162e-08 7.0397090030745e-06 -0.000178870386503449)
(-6.22791714569523e-07 5.61757000148887e-06 -0.000193290802742999)
(-1.69278286675788e-06 3.96103449425799e-06 -0.000224468402182763)
(-3.77981946541987e-06 1.93254483100912e-06 -0.000267947812075001)
(-7.56052041530034e-06 -3.21545737209274e-06 -0.00013790253352441)
(4.8267146677306e-06 5.84807559914012e-06 1.09315725343914e-05)
(1.3999603383637e-05 -1.75937495709324e-06 -0.000190927316780538)
(6.93260472116464e-06 1.35259517893232e-05 -0.000142614215422284)
(1.48845663956902e-05 -4.45582541645312e-06 -0.000239593306666479)
(7.12547935868682e-06 -1.13493910344664e-05 -0.000620526362442333)
(1.80793883025762e-06 1.29805974506901e-05 -0.00014485822999095)
(1.35291792895378e-05 -4.84155155190287e-06 -0.000202382253431706)
(3.6029574199446e-07 -1.98936269714285e-05 -0.000656396886393661)
(1.22606927773653e-06 -2.39709985531363e-05 -0.000593838854652161)
(5.55018602088425e-07 1.09632036388516e-05 -0.000110754458508238)
(1.46991391708656e-06 7.81626557058028e-06 -8.89544868071412e-05)
(-3.60911508651362e-07 -2.62988524235639e-05 -0.000495540238695424)
(-1.9383206945258e-06 -2.46186718448639e-05 -0.000584890139127528)
(-3.02271780741992e-06 -1.59832929056706e-05 -0.000554991309419412)
(1.02582645939534e-05 -4.59699450499178e-06 -0.000170414684743061)
(1.77177651011035e-06 4.26353929371486e-06 -7.61906961327027e-05)
(1.01165600894782e-07 -2.61062783780735e-05 -0.000432652691577986)
(-5.71099667076213e-07 -2.22008062176974e-05 -0.000466954487637696)
(-2.35658779671535e-06 -1.57055162398619e-05 -0.00047096485195621)
(-4.91781492385164e-06 -1.1605100829524e-05 -0.00047678141862187)
(6.14737633699604e-06 -3.73346329366039e-06 -0.000155684529872869)
(1.39420732103545e-06 1.00721698905575e-06 -6.79293871382303e-05)
(6.12633951420227e-07 -2.40758374738751e-05 -0.000393142281215334)
(3.89023149745057e-07 -1.88751878461632e-05 -0.000394362161085214)
(-2.48294256382961e-07 -1.26814495910226e-05 -0.000372920844717189)
(-2.47555060094908e-06 -9.674484956209e-06 -0.000391920883643554)
(-6.10336041950306e-06 -8.20845562039547e-06 -0.000425136963284633)
(2.11864392084536e-06 -2.79367316571674e-06 -0.000150923663321078)
(1.08553280090813e-06 -1.70905822248648e-06 -6.10894055986177e-05)
(9.82512552822392e-07 -2.04741305532989e-05 -0.000364052539613986)
(9.4173066809408e-07 -1.47233401977148e-05 -0.000348624449214141)
(7.60824277723338e-07 -9.33224703052898e-06 -0.000313358320865171)
(-1.87014010213344e-07 -6.71382963245498e-06 -0.000309939242308498)
(-2.65961328453259e-06 -5.81582028628164e-06 -0.000341527779208585)
(-6.6691409690882e-06 -5.61952380083664e-06 -0.000386532637853845)
(-1.22210250247117e-06 -1.94009787135883e-06 -0.000151143716870072)
(8.96348046147483e-07 -3.73914073099296e-06 -5.40413165470187e-05)
(1.28051697532744e-06 -1.55297278064545e-05 -0.000339986704431838)
(1.34420052456596e-06 -9.83244596019179e-06 -0.000315036294617744)
(1.27095000847097e-06 -5.47893684169606e-06 -0.000274883528675588)
(8.10459755223291e-07 -3.52031198569703e-06 -0.000260370607115653)
(-3.6388736807332e-07 -2.91875159187215e-06 -0.000269625414345633)
(-2.75987082015265e-06 -3.06191915953363e-06 -0.000304985512714979)
(-6.66591063903703e-06 -3.64215330880937e-06 -0.000353448934574581)
(-3.6319845927e-06 -1.24759509560025e-06 -0.000152650170737256)
(8.46825590634551e-07 -5.2820258673415e-06 -4.65513842545366e-05)
(1.52481329353824e-06 -9.53582602802382e-06 -0.000318885504402562)
(1.65622217751401e-06 -4.36737051322375e-06 -0.000287474923349868)
(1.58365455589636e-06 -1.19837309723234e-06 -0.000245837855560152)
(1.26806840438092e-06 2.74538949030318e-08 -0.000227563248214088)
(6.02306048429109e-07 2.36908392983396e-07 -0.000226302009071339)
(-5.80927142799059e-07 -1.62914173537624e-07 -0.000240191613323529)
(-2.70064343266412e-06 -9.9155469933327e-07 -0.000275084118383615)
(-6.13009380493373e-06 -2.17987330393155e-06 -0.000323446414190047)
(-5.43114723259192e-06 -1.13370215693153e-06 -0.000152186213552112)
(9.05907346360402e-07 -6.4025577143008e-06 -3.94746633746791e-05)
(1.69151623708841e-06 -2.68611991996824e-06 -0.000300157243972319)
(1.7810856491807e-06 1.50704701162728e-06 -0.000263678948070332)
(1.67266666613217e-06 3.33650814728681e-06 -0.00022147922017779)
(1.42724894105757e-06 3.8102528768735e-06 -0.000202225458500653)
(9.88954610968555e-07 3.62828706803334e-06 -0.00019723527238962)
(3.10445428847503e-07 3.01538697770237e-06 -0.000201310628995697)
(-7.27365327640328e-07 2.0134620143034e-06 -0.000216145398015452)
(-2.43465923181864e-06 6.38987465295261e-07 -0.000249370078669261)
(-5.20901913350095e-06 -1.13501434132252e-06 -0.000297091206548151)
(-6.72308730702636e-06 -1.89631326515385e-06 -0.000143330320601895)
(6.57621608053972e-07 -7.14489310376875e-06 -3.32319419566247e-05)
(1.39975473635231e-06 4.77801302318544e-06 -0.000283525991396987)
(1.44945289279045e-06 7.62722092353432e-06 -0.000242551186612509)
(1.41243653616502e-06 7.9788387955574e-06 -0.000199936700883703)
(1.31485600003309e-06 7.65236011628481e-06 -0.000180509110053914)