/*--------------------------------*- C++ -*----------------------------------*\
  =========                 |
  \\      /  F ield         | OpenFOAM: The Open Source CFD Toolbox
   \\    /   O peration     | Website:  https://openfoam.org
    \\  /    A nd           | Version:  12
     \\/     M anipulation  |
\*---------------------------------------------------------------------------*/
/*   Windows 32 and 64 bit porting by blueCAPE: http://www.bluecape.com.pt   *\
|  Based on Windows porting (2.0.x v4) by Symscape: http://www.symscape.com   |
\*---------------------------------------------------------------------------*/
FoamFile
{
    format      ascii;
    class       volScalarField;
    location    "500";
    object      k;
}
// * * * * * * * * * * * * * * * * * * * * * * * * * * * * * * * * * * * * * //

dimensions      [0 2 -2 0 0 0 0];

internalField   nonuniform List<scalar> 
10123
(
9.92871932408243e-06
1.06749827518665e-05
7.15280287689108e-05
1.02518672449472e-05
1.1396122495305e-05
7.52468260619713e-05
1.10175293854138e-05
0.000122230367794096
7.17784794419215e-05
1.06821866720375e-05
1.20452895298671e-05
7.87276464138568e-05
1.17559536877474e-05
0.000128051662847203
7.55000035162527e-05
1.14762290630616e-05
0.000160793394993644
0.000122196711166071
7.20630942404016e-05
1.08400077351539e-05
1.26463879479735e-05
8.19584285578585e-05
1.24189956437351e-05
0.00013350995100613
7.89823201822309e-05
1.22409487351126e-05
0.000168305251830347
0.000128011678685675
7.57825940758024e-05
1.16421663336482e-05
0.000193081976587332
0.000160605371782504
0.000121701448991894
7.16958365157545e-05
1.05598907671439e-05
1.32094155039307e-05
8.49532338385133e-05
1.30312556699689e-05
0.000138607824693243
8.22144553682643e-05
1.2925844664469e-05
0.000175365571214383
0.00013346273699034
7.92622849990353e-05
1.24153374204192e-05
0.000202069900098208
0.000168106583182662
0.000127483994155883
7.53836740002196e-05
1.13409956006271e-05
0.000221531679447808
0.000192733557080163
0.000159605389587586
0.000120380387013595
7.02675372442753e-05
9.9631484690733e-06
1.37464053644703e-05
8.77205539152532e-05
1.36049417280162e-05
0.0001433513929541
8.52096931395919e-05
1.35568253947222e-05
0.000181976287983992
0.000138553463963238
8.24914522606952e-05
1.31081706776547e-05
0.000210530857040639
0.00017515471335329
0.000132904396716837
7.88334850199459e-05
1.20954306430014e-05
0.000231867783636221
0.000201705066224032
0.000167054564711092
0.000126089625010494
7.38775893887977e-05
1.07026495630451e-05
0.00024726531727965
0.000221000325895093
0.000191328171748088
0.000157548899980466
0.000117964648550517
6.78817739908559e-05
9.23043343137752e-06
1.42868152702149e-05
9.02951782112349e-05
1.41524877174612e-05
0.000147750018585702
8.79765698709971e-05
1.41492310407089e-05
0.000188140301925775
0.000143290036992064
8.54833960906637e-05
1.37443342032847e-05
0.000218462658799021
0.000181753506302781
0.000137966306484202
8.20347726014445e-05
1.27702283773723e-05
0.00024160481921704
0.000210147542122799
0.000174053257940775
0.000131441656123184
7.72548936142953e-05
1.1417735280401e-05
0.000258869361893431
0.000231312204043344
0.000200230541800241
0.000164891747931348
0.000123548367776164
7.13703683492005e-05
9.91880631646935e-06
0.000270902651010148
0.000246578898730995
0.000219217357122677
0.000188660072144663
0.000154297741235959
0.000114486890723859
6.48430848725661e-05
8.4458582201232e-06
1.47962346334842e-05
9.26320724617358e-05
1.47025544463541e-05
0.000151816392669326
9.05503726103633e-05
1.47144492443501e-05
0.000193865285903711
0.000147681891109049
8.82477917345525e-05
1.43405398404798e-05
0.000225865313173663
0.000187906264258721
0.000142675858434645
8.49999811094438e-05
1.33876734207324e-05
0.000250736551489134
0.000218061332514107
0.000180605609693803
0.000136439668324873
8.03878109576647e-05
1.2054368743089e-05
0.000269800523741335
0.000241022796919128
0.000208607095221874
0.000171791140565786
0.000128783256017999
7.46346156334859e-05
1.05860480393844e-05
0.000283724960320573
0.000258151265173051
0.000229442690641979
0.000197427322306129
0.000161473284314248
0.000119893740741814
6.81783713114596e-05
9.079980081026e-06
0.000292841961173856
0.000270112310766408
0.000244476299202668
0.000216012062149212
0.000184676347839772
0.000149905733064258
0.000110129643509809
6.13482166554284e-05
7.61879256536502e-06
1.52724135505506e-05
9.47740978422396e-05
1.52250722757084e-05
0.000155546119590311
9.28936160166192e-05
1.52791555311021e-05
0.000199157956755482
0.000151742589491299
9.08183169574422e-05
1.49092803159346e-05
0.000232745024985858
0.000193620481907513
0.0001470426684783
8.77391711556132e-05
1.39651905423677e-05
0.000259260499899679
0.000225447058697058
0.000186715038838292
0.000141089507341836
8.32883073884454e-05
1.26359064047113e-05
0.000280049882010801
0.000250128906072272
0.000216458934853568
0.000178250795282723
0.000133671665673701
7.76610003656643e-05
1.11762678003871e-05
0.000295795532574344
0.000269048612779948
0.000239070858817984
0.000205677532385021
0.000168216459795268
0.000124963620054996
7.12996929322721e-05
9.69479306128376e-06
0.000306854300635546
0.000282897157410236
0.00025594591398289
0.00022607537557039
0.000193238802749418
0.000156856102734929
0.000115316436198649
6.45074554339342e-05
8.19585350334322e-06
0.00031334904706253
0.000291987474048484
0.000267767867502071
0.000240821776795555
0.000211387549485809
0.000179472692951647
0.000144505259162943
0.00010502978129466
5.74516496998743e-05
6.74749734232742e-06
1.57158204798124e-05
9.6742494074351e-05
1.57137554334043e-05
0.000158961708932742
9.50386542884189e-05
1.58188390228256e-05
0.000204023884522416
0.000155468115658334
9.31637631211035e-05
1.54789041206125e-05
0.000239103747720787
0.000198903990704508
0.000151081324080246
9.02864924946836e-05
1.45157993860707e-05
0.00026718146140758
0.00023231097087876
0.000192388985364506
0.000145400787900898
8.59670500746831e-05
1.31783475255668e-05
0.000289613784330098
0.000258628845436764
0.000223786983430699
0.000184273945774042
0.000138219067632551
8.04613890778493e-05
1.17135772248485e-05
0.000307104925538472
0.000279265450038083
0.000248099609669081
0.000213411514495301
0.000174530343271241
0.000129697475180778
7.41918380684692e-05
1.02356617682435e-05
0.000320028371225475
0.000294928323922717
0.000266745812179426
0.000235552231767487
0.000201297741737782
0.000163388674465894
0.000120180615283122
6.74638902923401e-05
8.75465206149185e-06
0.000328537620908924
0.000305957927204212
0.000280436072457543
0.000252104864893453
0.000221211624086751
0.000187766251093064
0.000151180274775081
0.000109961169105552
6.04150813828633e-05
7.26478066417679e-06
0.00033259712512978
0.000312451751095367
0.000289464053128461
0.000263755743448249
0.000235654491381941
0.00020547106789463
0.000173170345027954
0.000138190277570576
9.92444288990076e-05
5.31515935192775e-05
5.84074036430474e-06
1.61264822904849e-05
9.85464248469938e-05
1.61690153492893e-05
0.000162080089321385
9.700898694969e-05
1.63239023855813e-05
0.00020847813808711
0.000158879698248202
9.53074071621172e-05
1.60227575135053e-05
0.000244951943696992
0.000203761440300976
0.000154786748985894
9.26095372092921e-05
1.50708747186585e-05
0.000274501117998694
0.000238655375045517
0.000197636107109759
0.000149388351611445
8.8458868748775e-05
1.36953394266831e-05
0.000298496734597694
0.000266527565662716
0.000230597405662493
0.000189867922460043
0.000142434941051713
8.30467369449277e-05
1.22141698748129e-05
0.000317650147971483
0.000288798968451309
0.000256527657361365
0.000220630097138829
0.000180417875821325
0.000134100498160714
7.68663561528827e-05
1.07256864168427e-05
0.000332356936942591
0.00030620006062334
0.000276871481757835
0.000244440067059253
0.000208853483050733
0.000169505847750397
0.000124722105674686
7.0201187004571e-05
9.24388854997923e-06
0.00034279138489806
0.000319088421046314
0.000292357271347303
0.000262731141283061
0.000230465378412026
0.000195573636638847
0.00015745481015462
0.000114585928167478
6.31876175635491e-05
7.76492833926141e-06
0.000348955872466854
0.000327594561570375
0.000303305738135049
0.0002762154242151
0.000246666732144399
0.00021498607716272
0.000181139184939201
0.000144546310364741
0.000103888977666778
5.5900408407227e-05
6.29548265933827e-06
0.00035069879035459
0.000331666199341293
0.000309788150977012
0.000285166202183382
0.000258137210358768
0.000229122269169336
0.000198383136188551
0.000165842013907966
0.000131005034445992
9.27895434725696e-05
4.84448219678141e-05
4.91570204668043e-06
1.65040990353022e-05
0.000100191342786178
1.65904602639206e-05
0.000164913988725246
9.88149466138549e-05
1.67942904746215e-05
0.000212535324965671
0.000161994258267144
9.72758972190634e-05
1.65317094885451e-05
0.000250302800088552
0.000208207957153726
0.000158179610571661
9.47320958784412e-05
1.55981859624599e-05
0.000281230959337498
0.000244490415318655
0.000202460073500329
0.000153046763847075
9.07231406698204e-05
1.42198941327668e-05
0.000306701568531532
0.000273826772777556
0.000236893004807459
0.000195041406696405
0.000146333448004627
8.54511805662098e-05
1.26942830602974e-05
0.000327436414633254
0.000297653867417254
0.000264359981360375
0.000227339369099727
0.000185886445137718
0.000138181875292436
7.93345834179552e-05
1.11809948213871e-05
0.00034384044689236
0.00031671022482102
0.000286320489691496
0.000252737476805488
0.000215906553947871
0.000175210284822166
0.000128945615252713
7.27306969622725e-05
9.68525819236835e-06
0.000356108499828965
0.000331375625093005
0.000303526594917865
0.000272695604016329
0.000239145715746683
0.000202894744602801
0.000163330706651345
0.00011890312377829
6.57519845272019e-05
8.19801702768685e-06
0.000364271569932689
0.000341801242923724
0.000316315719524651
0.000287943503152739
0.000257041227115436
0.000223951123449081
0.000188642212174212
0.00015052136007085
0.000108244371061952
5.84709845942452e-05
6.73475708426637e-06
0.000368222647426581
0.000347975246017509
0.000324790666747006
0.000298778857881656
0.000270296592550869
0.000239788039658701
0.000207528364120531
0.000173436789429435
0.000137002823848816
9.71181866012803e-05
5.09608064087628e-05
5.30552883787623e-06
0.000367734413904818
0.000349737957404258
0.000328883817174948
0.000305252760008721
0.000279168670925391
0.000251075801901127
0.000221349866413946
0.00019018641327248
0.000157520835435124
0.000122969315801882
8.56683862259109e-05
4.33386580192156e-05
3.99265761530683e-06
1.68480254458398e-05
0.000101681000594835
1.69780897417314e-05
0.000167473039680436
0.000100461749498839
1.72298394943808e-05
0.000216209399334205
0.000164824603095887
9.90800804141475e-05
1.70057629138068e-05
0.000255170920980115
0.000212258109482857
0.000161277046226193
9.66802784592513e-05
1.60914829854364e-05
0.000287385046208334
0.000249829267783405
0.000206876055469818
0.000156396384552145
9.27939765666494e-05
1.47149442161973e-05
0.000314241294400354
0.000280537904982909
0.000242683249872478
0.000199797869342066
0.000149909009563992
8.76258700647328e-05
1.31776827415343e-05
0.000336469436627391
0.000305832929318652
0.000271598239989621
0.0002335417080377
0.000190942977838119
0.000141953986913264
8.16249474235859e-05
1.16221596550027e-05
0.000354484446915935
0.000326464329498709
0.000295097541206279
0.000260449228621132
0.000222462881703419
0.000180509734373474
0.000132860646119798
7.50644683664784e-05
1.00930982834906e-05
0.000368495479171152
0.000342820696992358
0.000313942147385845
0.00028199555981274
0.000247250832475844
0.000209729753945864
0.000168810274632841
0.000122917192512622
6.81198248076393e-05
8.58667798569508e-06
0.000378551608709299
0.000355074043632253
0.000328491333926381
0.000298934283921278
0.000266772221437769
0.000232362704308302
0.000195679026888711
0.00015611679449026
0.000112308784396817
6.08444487605007e-05
7.10915498359507e-06
0.000384582747524064
0.000363240455106865
0.000338867226513168
0.000311578130752032
0.000281746811887022
0.000249839821010389
0.0002161472581924
0.000180588563047592
0.000142640981318478
0.000101176549498795
5.33121340242306e-05
5.68208534676367e-06
0.00038641210981908
0.000367207770448449
0.000345040676249844
0.000320005923878467
0.000292452483063111
0.000262852983957402
0.000231603667579981
0.000198908026949034
0.000164696827082473
0.000128572852998045
8.96539830095884e-05
4.56049366187181e-05
4.31833343707258e-06
0.000383773308937988
0.000366745640939954
0.00034684910302948
0.000324142009888262
0.000298928927518207
0.00027164880977073
0.000242704446951201
0.000212397146867702
0.000180906766876033
0.000148224702807113
0.000114093278853564
7.78803856504425e-05
3.78463122848607e-05
3.09296178786276e-06
1.7157586492517e-05
0.00010301773435286
1.73312034314552e-05
0.000169766477852579
0.000101953294789123
1.76306063062611e-05
0.000219513538345709
0.000167380788201175
0.000100726069064649
1.74453572186169e-05
0.000259571634671092
0.000215925824049976
0.000164091941393133
9.84664470997149e-05
1.65512310503945e-05
0.000292979238090664
0.000254686511302439
0.000210898583905931
0.000159454183238737
9.46953391468548e-05
1.51779980397305e-05
0.000321131722956555
0.000286674947329013
0.00024798140531094
0.000204152252388429
0.000153182956383542
8.96172780466356e-05
1.36331244684889e-05
0.000344764767377636
0.000313349124020625
0.00027825372149115
0.000239246685792376
0.000195592225998936
0.000145412055692106
8.36921735835711e-05
1.20617631786786e-05
0.000364301129080291
0.000335467869437289
0.000303205254405981
0.000267576727907667
0.000228523804746686
0.000185407401503175
0.000136473879239787
7.72240650047177e-05
1.04919582767136e-05
0.000379961061287253
0.000353429873235614
0.000323609439509689
0.000290635366424949
0.000254785056662962
0.000216084201276579
0.000173901163359088
0.000126638870083642
7.03075612320111e-05
8.94617292328704e-06
0.000391811124532591
0.000367420268559973
0.000339833664887386
0.000309185349002679
0.000275856410105723
0.000240218566947789
0.000202249488803777
0.00016133459336498
0.000116086441850085
6.30336102990462e-05
7.44239340203795e-06
0.000399800464928575
0.000377473399396351
0.000352020432207187
0.000323560023275826
0.000292481009839585
0.000259271267198479
0.000224236089455495
0.000187296753376154
0.00014792043648524
0.000104961697205773
5.54776323430755e-05
5.99648509318145e-06
0.000403793628414473
0.000383513800350278
0.000360166247006439
0.000333854967569123
0.000304949347133272
0.000273948713680211
0.000241270779005225
0.00020712954392619
0.000171454691530532
0.000133839824783011
9.3389479544489e-05
4.77210021837057e-05
4.63236255538637e-06
0.000403579353189707
0.000385364468348528
0.00036415389342849
0.000340028337439781
0.00031332434980198
0.000284515115940346
0.000254028939010602
0.000222181102170125
0.000189155968263452
0.000154941014128814
0.000119268911599971
8.14976022999505e-05
3.98491442456618e-05
3.35772980891373e-06
0.000398886185376173
0.000382758170764084
0.000363758857196507
0.000341922128922032
0.000317530282397371
0.000291006185539806
0.000262749244919464
0.000233084986580709
0.000202286269428648
0.00017055926448687
0.000137965549283005
0.000104378379600184
6.94179341909428e-05
3.19752667683514e-05
2.23485015337202e-06
1.74313177494821e-05
0.000104203292856599
1.7648778048224e-05
0.00017180225581261
0.000103292534704919
1.79956043036167e-05
0.000222460167092349
0.000169671635376106
0.000102217583062288
1.78497713069567e-05
0.000263520466369568
0.000219224248639515
0.000166634527965889
0.000100098112295464
1.69776552975388e-05
0.000298030663442732
0.000259077424865539
0.000214541506580739
0.000162233363454902
9.64403287841087e-05
1.56098268943289e-05
0.000327390722970719
0.000292253720180994
0.000252801923583599
0.000208118959588096
0.000156172012696683
9.14469363210823e-05
1.4059376050528e-05
0.000352340662961434
0.000320218176124914
0.000284340261100769
0.000244467299477547
0.000199848863611379
0.000148578662754498
8.55849818872237e-05
1.24751238853244e-05
0.00037330923408326
0.000343736334852132
0.000310656417977458
0.000274131047690698
0.000234099398737309
0.000189911270314997
0.00013978608833182
7.91692533224493e-05
1.08857539122247e-05
0.000390524845255107
0.000363214631316106
0.00033253358706852
0.000298617293524543
0.000261749339620657
0.000221958649630795
0.000178604254393962
0.000130066700998006
7.23185832023795e-05
9.29993701805294e-06
0.000404066177568149
0.000378848742763476
0.000350349198575696
0.00031870162500121
0.000284297464850068
0.000247522462289462
0.000208358689256196
0.000166181999035457
0.000119588035807564
6.50606584274903e-05
7.7493909334551e-06
0.000413901479981503
0.00039068994801195
0.000364257305830536
0.000334724722341573
0.000302495829260801
0.000268078427226119
0.000231792255331504
0.000193561005113427
0.000152842938471445
0.000108477762123067
5.74713140638771e-05
6.27326048721436e-06
0.000419920013551363
0.00039868150185945
0.000374271933076265
0.000346800412333367
0.000316653474773039
0.000284355169244539
0.000250344528774434
0.000214847212570849
0.000177793775230443
0.000138770612217661
9.68705768819537e-05
4.96628200269903e-05
4.88654984880865e-06
0.000421948193869714
0.000402688109467513
0.000380310398821701
0.000354909508388929
0.000326846909444663
0.000296626893089817
0.000264703555406246
0.000231408401058963
0.000196933442375979
0.000161265855905604
0.000124132796915697
8.48862488777207e-05
4.17166448492178e-05
3.61106387732894e-06
0.000419771300096689
0.000402500086966427
0.000382198687187016
0.000358933720226783
0.000333028665029367
0.000304948096306144
0.000275122349292393
0.000243894958035866
0.000211548108201345
0.000178291546557322
0.000144184719722763
0.000109095685453041
7.26445699513732e-05
3.37043766320401e-05
2.44139626406147e-06
0.000413140298425886
0.000397846037248578
0.000379680546560309
0.000358662857534988
0.000335051654987277
0.000309248359409962
0.000281636187975035
0.000252535553134935
0.000222238343489249
0.000191029966691134
0.000159156075557005
0.000126748629243884
9.38155507381663e-05
6.0256851942171e-05
2.57100037871522e-05
1.43402576035844e-06
1.76673843845428e-05
0.000105236130916107
1.79294402273212e-05
0.000173585306432371
0.000104478204082636
1.83237397935085e-05
0.000225060824697579
0.000171704689826834
0.000103555106608286
1.82181111312721e-05
0.000267032768359973
0.00022216577721399
0.000168913333538463
0.000101575395309642
1.73702838496105e-05
0.000302557097905675
0.000263017486594504
0.000217817871914009
0.000164744342890493
9.80327654675135e-05
1.60107314447319e-05
0.000333037566924388
0.000297291279156189
0.00025715993186027
0.000211711705841299
0.000158889244793543
9.31260375695993e-05
1.44573709441474e-05
0.000359217531918564
0.000326457860540119
0.000289873508088528
0.00024921774942218
0.00020372694981574
0.00015147025957557
8.73252945995983e-05
1.28619960651455e-05
0.000381530190879259
0.000351287900024755
0.000317466543008595
0.000280125731151218
0.000239202213619162
0.00019403519545733
0.000142819030810597
8.09500100779487e-05
1.12550974403792e-05
0.000400210009260402
0.000372193724646266
0.000340729823171877
0.000305953775121911
0.000268154447770403
0.000227363260229499
0.000182929394819841
0.000133209215711764
7.41299837506963e-05
9.64561964691857e-06
0.000415344053979371
0.000389378777231396
0.000360048444955644
0.000327487705850974
0.000292097120072347
0.000254274786853265
0.000214006540589869
0.00017065910341921
0.000122809221725584
6.69107328937614e-05
8.05735537825263e-06
0.000426913402248907
0.000402906047060596
0.000375586187373372
0.0003450776540245
0.000311794981391471
0.000276263973759773
0.000238818806348736
0.000199385899070159
0.000157415211541397
0.000111735276461998
5.93199932844672e-05
6.52647282771167e-06
0.000434827081847816
0.000412737470719218
0.000387372925526603
0.000358847743491763
0.000327563760349547
0.000294068064235024
0.000258820472248102
0.000222058269148185
0.000183713666671634
0.000143366907185896
0.000100101314323142
5.14454076934214e-05
5.10677381738276e-06
0.000438943105453849
0.000418761583052593
0.000395343106121507
0.000368793809147935
0.000339494335518112
0.000307976702036981
0.000274719832851222
0.000240072338096746
0.000204235630869233
0.000167198588296042
0.000128684674131214
8.80403777034609e-05
4.34208838321342e-05
3.80726510601987e-06
0.000439080062770107
0.000420807078024951
0.000399362450577128
0.000374828384083057
0.000347559013718435
0.000318055240611415
0.000286777574841977
0.000254089471356121
0.000220285450550507
0.000185582214946659
0.000150040605366383
0.00011352731835916
7.56651647842903e-05
3.53131133816531e-05
2.63729818177359e-06
0.000435025850383185
0.000418661549767037
0.000399228443585212
0.000376785122412832
0.000351643229373558
0.000324255691083164
0.000295043565889934
0.000264349679003074
0.00023247830748547
0.000199722174250723
0.00016633079940863
0.000132436439509564
9.80465979405092e-05
6.30734565202111e-05
2.71583062301343e-05
1.58400447550999e-06
0.000426512576852844
0.000412075470210115
0.000394683855405343
0.000374428833440986
0.000351556878142366
0.000326445571300996
0.000299455084927318
0.000270887822714503
0.00024102827318151
0.000210175216378421
0.000178639134223891
0.000146703694049408
0.00011456797328094
8.23754857437225e-05
5.03507031405963e-05
1.90234853045108e-05
7.53875183539652e-07
1.78630413789545e-05
0.000106113833719003
1.81713727074997e-05
0.000175120832609423
0.000105510684050731
1.86137033133969e-05
0.000227325865358605
0.000173485458860067
0.000104739051052122
1.85493988507125e-05
0.000270123240390641
0.000224761864213371
0.000170935452803581
0.000102899581026789
1.77282272438802e-05
0.000306576447665934
0.000266521967626413
0.000220739886992701
0.000166995061123878
9.94763217691089e-05
1.63801124572459e-05
0.000338092366479929
0.000301805329704487
0.000261070733917628
0.000214943353542896
0.000161344663531994
9.46610832618456e-05
1.48269809181355e-05
0.000365417100852082
0.000332087364103977
0.000294870317330133
0.000253512890968406
0.000207239899360588
0.00015409930620436
8.89234297357071e-05
1.32234083314222e-05
0.000388987327957529
0.000358142806787697
0.000323653165809709
0.000285576100274799
0.000243846057152949
0.000197792819520099
0.00014558894679292
8.2588032453095e-05
1.1600484191404e-05
0.000409041991262624
0.000380388448980835
0.00034821605031867
0.000312659931399336
0.000274013487957124
0.0002323101745756
0.000186889857365238
0.000136086543478023
7.5786664045083e-05
9.96901936624054e-06
0.000425673958059816
0.00039903340493476
0.000368949902270376
0.000335558317034864
0.000299267289342402
0.000260485896798928
0.000219203097949926
0.000174776073111209
0.000125761447394194
6.85754810569197e-05
8.35202560828812e-06
0.000438872631100698
0.000414148673806237
0.000386025695108152
0.00035462869649956
0.000320382475536616
0.000283829080814239
0.000245315624783701
0.000204770971412905
0.000161637445016358
0.000114728815224191
6.09921864206998e-05
6.78646510232973e-06
0.000448560425060551
0.000425708714230963
0.0003994842288188
0.00037000392749306
0.000337683148800616
0.000303089077144624
0.000266699880115638
0.000228764766459302
0.000189218167623159
0.000147634834742101
0.000103091752213419
5.30984828094196e-05
5.31131455305127e-06
0.000454617112289056
0.000433621417026231
0.000409277552545799
0.000381694057648802
0.000351269784255246
0.000318562049862402
0.000284073027760333
0.000248168540457316
0.000211060113331256
0.000172739108010051
0.00013292617896576
9.09638591198682e-05
4.49775916441442e-05
3.97329980275499e-06
0.000456892150149701
0.000437746257440233
0.000415293125171305
0.00038962611702773
0.000361125503227065
0.000330322621252181
0.000297706114987183
0.00026365969286923
0.000228491771601131
0.000192428040149046
0.000155532637259875
0.000117672300287292
7.84714126014107e-05
3.67684399156698e-05
2.7794909786305e-06
0.000455209764533253
0.00043790418793317
0.000417364811468017
0.000393668907688019
0.00036716207055328
0.000338339952435435
0.000307658937352129
0.000275485536534804
0.00024213932448077
0.00020792370058553
0.000173095461353459
0.000137790438395532
0.000102019366949171
6.57076705883152e-05
2.85016227065709e-05
1.72602713650778e-06
0.000449365280587326
0.000433886681437378
0.00041528956617949
0.000393633309559935
0.000369225053302406
0.000342506562454074
0.000313884994059245
0.000283690981000762
0.000252224854800451
0.000219794953248337
0.000186718382549847
0.000153283550177473
0.000119692214849493
8.60949159365524e-05
5.27414541220014e-05
2.01881392539546e-05
8.39544369314949e-07
0.000401112961754384
0.000439090755767685
0.000425425006861762
0.000408833357470211
0.000389287653119277
0.000367106375092228
0.000342655191060469
0.000316267780394309
0.000288221261312749
0.000258780837153079
0.000228235781671535
0.00019690375002541
0.000165117954659869
0.000133193624931539
0.000101390617840915
7.00027005138404e-05
3.96515829964947e-05
1.20106291139724e-05
2.70231608402586e-07
1.80146108825635e-05
0.000106833504719107
1.83717398553829e-05
0.000176412906373754
0.000106388343418858
1.88637438876108e-05
0.000229264550321837
0.00017501876620042
0.000105769493760638
1.88420986832524e-05
0.000272805748371105
0.0002270228076452
0.000172706496028621
0.000104072618379435
1.8050346433814e-05
0.000310106224503374
0.000269605540712295
0.000223318801864166
0.000168992051016338
0.000100771776234541
1.67171860129869e-05
0.000342575509675977
0.00030581369951006
0.000264549398621621
0.000217825786511135
0.000163545909301927
9.60524225419293e-05
1.51678133561421e-05
0.000370961991111176
0.000337126710232641
0.000299348174964375
0.000257367720323251
0.000210400229185812
0.000156475588882985
9.03838985059813e-05
1.35593113450862e-05
0.000395705226019049
0.00036432269752276
0.000329235226996599
0.000290498651918826
0.000248045376558576
0.000201197113934876
0.000148107842909699
8.4092261628185e-05
1.1923158999595e-05
0.000417047614477723
0.000387821977505241
0.000355012201779193
0.000318752877792822
0.000279341297822517
0.000236812730496984
0.000190498890227726
0.000138714639407607
7.73099348968666e-05
1.02710308821907e-05
0.000435086095297514
0.000407837844340453
0.000377074520634481
0.000342930848355239
0.000305822512535103
0.000266168356834729
0.000223960065328204
0.000178545879870587
0.000128463837820662
7.00964694784115e-05
8.62845704867668e-06
0.000449815398467537
0.000424446763147836
0.000395598361216716
0.000363395609786951
0.000328272281244809
0.000290785019960933
0.00025129260817139
0.000209725980278867
0.000165519422294459
0.000117471573040238
6.25028938196286e-05
7.0305581582559e-06
0.000461166155633902
0.00043763128416735
0.000410631947012824
0.000380286490564911
0.000347021415575114
0.00031142203928945
0.000273983677475172
0.000234966466362532
0.000194307109592097
0.000151575189376162
0.000105836702290851
5.45779314983023e-05
5.51922549375511e-06
0.000469032179134507
0.000447312377431618
0.000422139126474647
0.000393623337898369
0.000362178039269723
0.000328382776283336
0.000292761350417685
0.000255695478704709
0.000217406706663413
0.000177889366412082
0.000136862333827233
9.36657423366929e-05
4.64129291840786e-05
4.13272701775658e-06
0.0004732849857581
0.000453370786197334
0.000430025533474283
0.00040334893562407
0.000373737355408612
0.000341750763048858
0.000307903945158551
0.000272600354176833
0.000236162829174455
0.000198827083035548
0.000160661273598907
0.000121532652844529
8.10669801000056e-05
3.80874333299345e-05
2.89629089981429e-06
0.000473779471962042
0.00045565795624667
0.000434153517556501
0.000409350909966462
0.000381622471078514
0.000351501210106795
0.000319474957624974
0.000285933356374213
0.00025121251260639
0.000215628411645353
0.000179447236852793
0.000142810029090023
0.000105731666277999
6.81473363506742e-05
2.96995757373931e-05
1.82087750556722e-06
0.000470354431139384
0.000454000902213745
0.000434350498756997
0.000411471070981811
0.000385707164691007
0.000357547972242621
0.000327441945493419
0.000295747988752918
0.000262784843504458
0.00022887379550872
0.000194342080302484
0.000159486155495309
0.000124513743912156
8.95849298611258e-05
5.4974429069769e-05
2.12648693256804e-05
9.26195993083e-07
0.000462829615374908
0.000448197426277845
0.000430419359057035
0.000409523129921234
0.000385821089203633
0.000359751243736287
0.000331706528988688
0.000302000259682226
0.000270918267264748
0.000238762082374763
0.00020585750281307
0.00017254431659675
0.000139143765347647
0.00010592163242845
7.31878986232617e-05
4.16081869127282e-05
1.2898755073007e-05
3.07215705600276e-07
0.000412535018829904
0.000400146758176184
0.000451027929979285
0.000437981439542918
0.000422107273635752
0.000403301182045239
0.00038176405842835
0.000357932339493381
0.000332124866341032
0.000304589430250318
0.000275564878183125
0.000245320569794175
0.000214162110945497
0.000182422785449488
0.000150450611821596
0.000118581881841018
8.7137119288764e-05
5.6621789289363e-05
2.81555094227393e-05
5.39762554749022e-06
5.21526948130069e-08
0.000107398701253024
1.85268893678029e-05
0.000177465603406139
0.000107106464122057
1.90702952191518e-05
0.000230885601602287
0.000176308519656263
0.000106645135937621
1.90944866406114e-05
0.000275093295417664
0.000228957926451674
0.000174231150630515
0.000105094369163954
1.83347977311432e-05
0.000313163286944791
0.000272282044678764
0.000225564799286685
0.0001707411940114
0.000101920131757364
1.70207175884174e-05
0.000346507189850871
0.00030933386053462
0.000267610414528196
0.000220369925504869
0.000165499465661389
9.73024165734985e-05
1.54791724921701e-05
0.000375875092431138
0.000341596202511816
0.000303324677953628
0.000260796967195392
0.00021321942677178
0.000158606393139282
9.17093659050719e-05
1.38693073502132e-05
0.000401709130392962
0.000369850073974659
0.00033423248997366
0.000294910490634349
0.00025181472719159
0.000204260150681718
0.000150384854775277
8.54667816713699e-05
1.22234478956465e-05
0.000424254597189726
0.000394518744082365
0.000361139627389193
0.00032425111708928
0.000284153862903141
0.000240884851693285
0.000193768971758749
0.000141104796530702
7.8709094259949e-05
1.05530435523583e-05
0.000443611307739991
0.000415818732407922
0.000384445109885239
0.00034962471105172
0.000311779297933336