/*--------------------------------*- C++ -*----------------------------------*\
  =========                 |
  \\      /  F ield         | OpenFOAM: The Open Source CFD Toolbox
   \\    /   O peration     | Website:  https://openfoam.org
    \\  /    A nd           | Version:  12
     \\/     M anipulation  |
\*---------------------------------------------------------------------------*/
/*   Windows 32 and 64 bit porting by blueCAPE: http://www.bluecape.com.pt   *\
|  Based on Windows porting (2.0.x v4) by Symscape: http://www.symscape.com   |
\*---------------------------------------------------------------------------*/
FoamFile
{
    format      ascii;
    class       volScalarField;
    location    "500";
    object      nut;
}
// * * * * * * * * * * * * * * * * * * * * * * * * * * * * * * * * * * * * * //

dimensions      [0 2 -1 0 0 0 0];

internalField   nonuniform List<scalar> 
10123
(
4.02486540549405e-06
4.32738777079831e-06
0.000126798187561965
4.30446366572789e-06
4.61972631675191e-06
0.000131944148847572
4.62595023759465e-06
0.0004201936536252
0.000130518821657028
4.67083258202523e-06
4.88288371892686e-06
0.000136668912385575
4.93600197056195e-06
0.000433279536188485
0.000135768784162633
5.01801365851543e-06
0.000778593689428007
0.000425664676284931
0.000135245635334852
4.89145480913744e-06
5.12654843741565e-06
0.000140975441912315
5.21439206902211e-06
0.00044518964777166
0.000140584466910243
5.35242759306397e-06
0.000801143656144452
0.000438863590724484
0.00014063390302476
5.25340410152464e-06
0.00113996331553946
0.000782698078700308
0.000432152696009968
0.000138104229449941
4.82799668314399e-06
5.35479053273307e-06
0.000144905217040388
5.4714512159997e-06
0.00045602529571963
0.000144975465423123
5.65189639195257e-06
0.000821638079316728
0.000450871562450796
0.000145571615173101
5.60233392262985e-06
0.00117317861692836
0.000805332410039201
0.000445490960399271
0.000143574844122123
5.18512765526804e-06
0.00147681316384602
0.0011414051737434
0.000786390300513174
0.000435519960995309
0.000137418307161645
4.55730267467386e-06
5.57247582371378e-06
0.000148471979874902
5.7123300500452e-06
0.000465855136436033
0.000148980519915369
5.92778464752407e-06
0.000840244218894801
0.000461795199326229
0.000150072131473584
5.91495579347878e-06
0.00120335306317327
0.000825897900843465
0.000457617596520913
0.000148584327995729
5.53007182193195e-06
0.00152163890706776
0.00117464040352142
0.00080908595104767
0.000448921297997362
0.000142861438987658
4.89556736375237e-06
0.00177859462034819
0.0014755261693241
0.00114039348538687
0.000786176826409746
0.000433097631978526
0.000133798856922073
4.21109410470694e-06
5.79154745533761e-06
0.000151747252668432
5.94223384199937e-06
0.000474700856747316
0.000152609715812183
6.18681711427496e-06
0.000857078261495817
0.000471702467349595
0.000154176514930213
6.20200049486616e-06
0.00123070943206219
0.00084456609041694
0.000468646749731455
0.000153149896447685
5.838574706251e-06
0.00156234981375173
0.00120482553901504
0.000829701758373018
0.000461099544691678
0.000147844511496762
5.22266941641581e-06
0.00183581463221234
0.00152027740916823
0.00117354922431091
0.000808814536154685
0.000446409168617567
0.00013911772635716
4.52514993095985e-06
0.00204296686100871
0.00177538383052359
0.00146974032127496
0.00113440224667889
0.000779566411165298
0.000425288001748739
0.000128660103068665
3.84801977887047e-06
5.99805391123216e-06
0.000154403809774772
6.17316439102505e-06
0.000482521474264501
0.000155937372561373
6.43396920008697e-06
0.000872215640626867
0.000480614283786696
0.000157898219387319
6.47104046681744e-06
0.00125542805765396
0.000861454542480966
0.000478648566280909
0.000157312119431361
6.12085635734464e-06
0.00159921228740958
0.00123218922154078
0.000848413555667072
0.000472173564263051
0.000152383528567056
5.51386565902158e-06
0.00188775485051688
0.0015609115111052
0.00120366023180542
0.000829376723449366
0.000458504149166687
0.000143988025081485
4.82956870707429e-06
0.00211330510400315
0.0018324268517606
0.00151421956295527
0.00116728561460011
0.000801952004119375
0.000438355110055815
0.000133800704078495
4.13694305735741e-06
0.00227126645225832
0.00203874842215535
0.00176591503281374
0.0014577214170104
0.00112164973944817
0.000766484481830747
0.000413847289193167
0.000122781982526273
3.4707708868103e-06
6.19108033152225e-06
0.000156805860233192
6.39258730946724e-06
0.00048927170547288
0.000158678368759735
6.68086319589345e-06
0.000885642072892401
0.00048850131050582
0.000161309261124543
6.72768854225627e-06
0.00127767275034052
0.000876638588201675
0.0004876483628535
0.000161086346110602
6.38490181689816e-06
0.00163247298873499
0.00125691397524439
0.000865340508001669
0.000482214456856974
0.000156519167794095
5.77986624627943e-06
0.00193471081402546
0.00159770247222182
0.00123095670027072
0.000848039476932567
0.00046950039052815
0.00014842106374991
5.09882875052563e-06
0.00217709077408725
0.00188419616409012
0.00155460854592164
0.00119715472124678
0.000822288897079001
0.000450230162397043
0.000138509768849573
4.41706976998406e-06
0.00235545957639358
0.00210881090319332
0.00182246598292401
0.00150163698995986
0.00115400536066177
0.000788414500269376
0.000426556623387183
0.00012771717208003
3.73366007625273e-06
0.00246610374335828
0.00226661421619245
0.00202692601528642
0.00174889353440574
0.00143832291626313
0.00110184945873383
0.000748087369366863
0.000399931621479863
0.000116267100947201
3.07429983322173e-06
6.37082742730457e-06
0.000159037022758631
6.59776095915509e-06
0.00049534271079097
0.000161129993797876
6.91687723847107e-06
0.000897544384886588
0.000495325237346803
0.000164145452393626
6.98473487480405e-06
0.00129749772523653
0.00089012029124996
0.000495632795935872
0.000164548388048428
6.6366562038577e-06
0.00166237922318908
0.00127916537063732
0.000880560777217523
0.000491250244363499
0.000160269780555684
6.02798528114044e-06
0.001976995925081
0.00163089965411532
0.00125562180637765
0.000864921533685696
0.000479468477009075
0.000152458075023602
5.34395254559998e-06
0.00223463765869604
0.00193099707781355
0.00159118112249642
0.00122423594644177
0.000840748707386779
0.000461024885074108
0.000142793057695899
4.66348575597786e-06
0.00243169556386052
0.00217233647916785
0.0018737959616063
0.00154152736488874
0.00118340616004511
0.00080834439679199
0.000438110870354018
0.000132239058984327
3.9882335096929e-06
0.0025649234782898
0.00235043250369209
0.00209626239542604
0.00180453651886688
0.0014813336167015
0.00113341636787078
0.000769390617696016
0.000412203564158086
0.000120973593474076
3.30999107461573e-06
0.0026304055637228
0.00246128011660166
0.00225340723538914
0.00200625861560532
0.00172349885574964
0.00141119852394897
0.00107544691870828
0.00072521150546202
0.000383821191048508
0.000109001818649028
2.66116641590484e-06
6.53730012382312e-06
0.000161111581186879
6.78894184663862e-06
0.000500894757225373
0.000163401963419468
7.13770479671287e-06
0.000908234929076713
0.000501452001577514
0.000166650248006309
7.23015115235178e-06
0.00131520922109446
0.000902070382575453
0.000502537832745867
0.000167415864853488
6.89043828401061e-06
0.00168910542748488
0.00129900018486727
0.000894090581096634
0.000499270276366449
0.000163713902588472
6.26447774780727e-06
0.00201494415375301
0.00166075176857536
0.00127782126003222
0.000880102063075578
0.000488436426654536
0.000156119579506903
5.57233947953307e-06
0.00228632774832566
0.00197314517807262
0.0016241857640683
0.0012487097160583
0.000857447384633381
0.000470808438514284
0.00014669128774727
4.88673536850946e-06
0.00250030031435629
0.00222965024988801
0.00192020899270418
0.00157765945684201
0.00121007068973479
0.000826437835221473
0.000448613508386071
0.000136348739730654
4.21109794310342e-06
0.00265422167331089
0.00242632054214212
0.00215914465018371
0.00185506573692424
0.00152042256512194
0.00116211482677659
0.000788759378823175
0.000423364634054671
0.000125286015586088
3.53787800057499e-06
0.00274463151599229
0.00255961636413477
0.00233624554813008
0.00207430014084909
0.00177777659214967
0.00145296865774705
0.00110599211828204
0.000745746717719822
0.000395587558873687
0.000113453701512075
2.86836481077056e-06
0.00276723042545676
0.00262552549324262
0.00244726764776852
0.00223021555626913
0.00197596587941105
0.00168934817798673
0.00137625428260564
0.00104268605931214
0.000698025932173903
0.000365370910370632
0.000100888600287374
2.239367318885e-06
6.69038018770934e-06
0.000163031448893998
6.965861572589e-06
0.000505989871747241
0.00016551649658805
7.3434096253041e-06
0.000917907070229089
0.000507050133897155
0.000168969224169641
7.45978778149302e-06
0.00133109319534896
0.000912800516086623
0.000508720047912425
0.000169943305086631
7.13153168601564e-06
0.00171300349929451
0.00131671947954385
0.00090607579008437
0.000506199189609288
0.00016651291267815
6.50441434469485e-06
0.00204885107657419
0.00168742915491002
0.00129761739315807
0.000893598668369588
0.000496379865472461
0.000159475651418511
5.79138470511445e-06
0.0023325850035857
0.00201097478205791
0.00165387025068244
0.00127074088942862
0.000872465080927554
0.000479607317925753
0.000150226150918205
5.0941907741548e-06
0.00256173591108357
0.00228113579015914
0.00196201752317746
0.00161027577504205
0.00123417300240999
0.000842806550940638
0.000458131924199807
0.000140085984190578
4.41215535272235e-06
0.00273433587732679
0.00249461678477144
0.00221589554555528
0.00190077583598116
0.00155584626670945
0.00118815291920455
0.000806347140573522
0.000433508899110932
0.000129200820199367
3.73519367643875e-06
0.00284758587612315
0.00264847192834412
0.00241127177207491
0.00213604470226463
0.00182709878779593
0.00149095429507263
0.0011337773042206
0.000764425764840804
0.000406292607251883
0.000117532083440667
3.06851571833847e-06
0.00289758684516938
0.00273914331234411
0.00254433718111627
0.00231132226028966
0.00204210510044094
0.00174182479623613
0.00141648012319347
0.00107200420601079
0.000717666985815518
0.000376564205239422
0.000105056929311135
2.41696115424121e-06
0.00287984582146235
0.00276236880061659
0.00261106991444532
0.00242237353987877
0.00219612138224099
0.00193560506154425
0.00164601788436267
0.00133316321503121
0.00100334499035872
0.000666244018431874
0.000344301842250828
9.18707550893024e-05
1.81909847674186e-06
6.8297963036748e-06
0.000164799910301888
7.12862496566789e-06
0.000510651068048184
0.00016747491333008
7.53382350651623e-06
0.000926674973509745
0.000512186919566003
0.000171127793656238
7.6736782975884e-06
0.0013453707904338
0.000922506351097843
0.000514364074833778
0.000172275044514053
7.35704881579934e-06
0.00173438722290936
0.00133260933256235
0.000916830001136052
0.000512393696535419
0.000169000821512141
6.73085479301617e-06
0.00207912810405539
0.0017112839266283
0.00131529678327716
0.000905551023334151
0.000503223423056775
0.00016214395368723
6.01191438396469e-06
0.00237383656459186
0.00204477625309347
0.00168039906949601
0.00129038576092005
0.000885795262903273
0.000487365049214341
0.000153421545794249
5.29520346841781e-06
0.00261650912735287
0.00232721742332396
0.00199955192673604
0.00163961836684377
0.00125587307021312
0.000857533006675209
0.000466696503410246
0.000143475522491438
4.59795985066414e-06
0.00280581820890674
0.0025557831250875
0.00226689267042406
0.00194196964758187
0.00158783683294692
0.00121169542124505
0.000822259550192235
0.000442702652178931
0.000132758741065555
3.91226629955011e-06
0.0029396292677356
0.00272819808387639
0.00247882092764581
0.00219180365105701
0.00187174780058273
0.00152539985475347
0.00115899863823319
0.000781390806425148
0.000416019463976633
0.00012122638481257
3.23909198128618e-06
0.00301471450678147
0.00284154774247435
0.00263208662683253
0.00238483350045705
0.00210217175453088
0.00178954701178619
0.00145308650212653
0.00109868843046842
0.000735539982279316
0.000386750573717858
0.000108874239997412
2.58850962084215e-06
0.00302691367137838
0.00289197401773143
0.00272309202417403
0.0025172120401501
0.00227470611255987
0.00199927719749455
0.0016963038307397
0.00137157143934028
0.0010312474391454
0.000684869201185166
0.000354851816678471
9.57254216259185e-05
1.96748345071821e-06
0.00297180857581217
0.00287507388661114
0.00274774777326221
0.00258510860387613
0.00238546032980159
0.0021505775834509
0.00188456325721811
0.00159274891393466
0.00128121994330694
0.000956777969445812
0.00062927524709288
0.00032025155881746
8.19063790910238e-05
1.41106759132672e-06
6.95529037200608e-06
0.000166418145933405
7.27688471980777e-06
0.000514899753779152
0.000169281084277273
7.70907221739711e-06
0.000934608951980934
0.000516889745811192
0.000173134438176891
7.8720559474672e-06
0.00135820371880246
0.000931304071737079
0.000519542475556772
0.000174450009298459
7.56722904995067e-06
0.00175351828440086
0.00134689171043368
0.000926554485371848
0.00051804102888569
0.00017130026396205
6.94265784045995e-06
0.00210614469927465
0.00173262916963624
0.00133114875994381
0.000916270321547302
0.000509347091113186
0.000164544945773709
6.21969125525799e-06
0.00241057979529723
0.00207496075983649
0.00170412127343102
0.00130793029279863
0.000897599467865525
0.000494030119831967
0.000155962835503749
5.49547985473076e-06
0.00266521490891096
0.00236831518127071
0.00203309379250182
0.00166584618936756
0.00127521568694634
0.000870560414446951
0.000474175262234647
0.000146487450055787
4.77967445269196e-06
0.00286929662702891
0.00261032954857912
0.00231255375122792
0.00197896727302018
0.00161662509601091
0.00123289093827878
0.000836572160578174
0.000450985699773368
0.000135999011584223
4.07606977847263e-06
0.00302141854927819
0.00279934769957873
0.00253934451639946
0.00224194074201565
0.00191201191678712
0.00155652415887223
0.00118181003967583
0.000796740431008461
0.00042483203269128
0.000124581076037007
3.39091439750275e-06
0.00311902775892018
0.00293311351850305
0.00271086310498277
0.0024510710851817
0.00215646357408169
0.00183278428693819
0.00148630500175687
0.00112292237164331
0.000751774967278541
0.00039599990857224
0.000112320729051022
2.73172943534273e-06
0.00315857430713699
0.00300843010563425
0.00282411188515806
0.00260301822513415
0.00234599925435774
0.00205715570145836
0.00174207097241964
0.00140654791530981
0.00105665656789641
0.000701822882275916
0.000364454015517212
9.92536125837207e-05
2.11056177627618e-06
0.00313592307272877
0.00302123061997823
0.00287538385291163
0.002694328928824
0.00247706524691174
0.00222592058982935
0.0019452754648542
0.00164049610715237
0.00131755785790197
0.000983083326644548
0.00064676043164927
0.000330085094713248
8.54209107758168e-05
1.53186098722116e-06
0.00304698100548455
0.00296719261778774
0.00286052975048091
0.00272125878415632
0.00254626292370941
0.00233582459295556
0.00209282952082805
0.00182178253095531
0.0015283947387746
0.00121932312495226
0.000901925638805499
0.000586204837992954
0.00029269589751726
7.09121617034297e-05
1.02225586925517e-06
7.06626255212352e-06
0.000167883976351095
7.41022895319713e-06
0.000518750271315246
0.000170939854896917
7.86866982474761e-06
0.000941757197117706
0.000521177283777182
0.000174991746508011
8.05455665513914e-06
0.00136971015515119
0.00093926516764769
0.00052428881877388
0.000176489106450264
7.76220344464582e-06
0.00177060799763615
0.00135972872857391
0.000935368563231688
0.000523225166009463
0.000173457400322495
7.14018092590094e-06
0.0021302200458041
0.00175172636449113
0.00134539652142887
0.000925960484692554
0.000514932724051785
0.000166771371233755
6.41414822484944e-06
0.00244326374403247
0.00210189636438445
0.00172534868665479
0.0013236609225686
0.000908188039434773
0.000500006105456801
0.000158254312629538
5.68380199699979e-06
0.00270845892952701
0.00240492468774429
0.0020630502793239
0.00168930273203628
0.00129249444619679
0.000882103539144064
0.000480612930845731
0.000148889015900902
4.95905839104958e-06
0.00292553779597345
0.00265883843004232
0.00235328600228145
0.00201204063990472
0.00164236604757933
0.00125178092805315
0.000849202303164457
0.000458134430269528
0.000138793712730497
4.23726307309256e-06
0.00309375036686597
0.0028625431288401
0.00259334569718035
0.00228685775103893
0.00194819463046211
0.0015845424507189
0.00120234568491148
0.000810537001706017
0.000432758525250951
0.000127654239736939
3.53079786957986e-06
0.00321130878093408
0.00301449726362884
0.00278120648062694
0.00251046797744368
0.00220532532007807
0.00187180780265473
0.00151634000151302
0.00114484885828168
0.000766463475196728
0.000404374218869388
0.000115444622668744
2.8578087942264e-06
0.00327535136739046
0.00311216432838705
0.00291449875270347
0.00268012406669487
0.00241030801738857
0.00210952541485577
0.00178357607132021
0.00143831134100641
0.00107974332873426
0.000717222003619645
0.000373162661833133
0.000102424504366184
2.22636944529768e-06
0.00328222592364632
0.00315208550132781
0.00299014110217741
0.00279291933786993
0.00256003694725724
0.00229434453276561
0.00200051530087229
0.00168398792231066
0.00135067071170736
0.00100704846714552
0.000662679147151752
0.000339035043304285
8.86342385831338e-05
1.64743758887069e-06
0.0032281154506145
0.00313022341103791
0.00300430490841881
0.00284545037279782
0.00265144054674653
0.0024232997399312
0.0021643194333556
0.00187910457477351
0.00157328499479339
0.00125334949312001
0.000926452540766455
0.000602422958617714
0.000301740608775841
7.40641317828267e-05
1.11673495337182e-06
0.00310947487343614
0.00304256890380568
0.00295292800108067
0.00283398601247041
0.00268129132219784
0.00249362619696789
0.00227255812751587
0.00202159554505031
0.00174576385503738
0.0014514235790616
0.00114591884657817
0.000837221248843665
0.000535635001404194
0.000260751364931667
5.86257928940116e-05
6.55638772710962e-07
7.16194836074014e-06
0.000169184401174489
7.52808288663722e-06
0.000522193968387566
0.000172428245746545
8.01215030132875e-06
0.000948152739363623
0.000525060579974198
0.000176683938684807
8.22076810151761e-06
0.00137997861856756
0.000946437998819154
0.000528618379157648
0.000178363590127674
7.94172224403564e-06
0.00178582458523897
0.00137123884092613
0.00094334610078535
0.000527986179928146
0.000175460327193451
7.32355837768945e-06
0.00215162262099734
0.00176878627153335
0.00135820287710987
0.000934744713889612
0.000520065757134613
0.000168853108270774
6.59572929476744e-06
0.00247228267442489
0.00212590084718508
0.00174434185642004
0.00133780028920561
0.000917762087180605
0.000505463623818937
0.000160387122521639
5.86006616321911e-06
0.00274679378737472
0.00243749275402812
0.00208978584585831
0.00171029566408813
0.00130798991378015
0.000892463188771239
0.000486390015663864
0.000151060749287534
5.12730106370903e-06
0.00297528605713225
0.00270191305738
0.00238957781018584
0.00204158756121779
0.00166539476202758
0.00126865929672177
0.000860398126794431
0.000464308284076037
0.000141051818118956
4.39475303753092e-06
0.00315756925235364
0.0029185435454207
0.00264138538738431
0.00232694636203047
0.00198055847515595
0.00160960748789282
0.00122064873877218
0.000822700984602774
0.000439569514342904
0.000130226755127335
3.67112262700415e-06
0.00329256474431825
0.00308648704449877
0.00284372021840356
0.00256350282238133
0.0022491335910665
0.00190689887682035
0.00154338807052141
0.00116458630033011
0.000779652660961087
0.000411887163424238
0.000118318326657628
2.97316804388814e-06
0.00337817437901316
0.00320395913743914
0.00299489173380871
0.00274904392803508
0.00246804271557256
0.00215671092029834
0.00182107302665613
0.0014670524462387
0.00110064076948417
0.000731152401474156
0.000381036951815753
0.000105289691835816
2.32670296263251e-06
0.00341141578517317
0.00326817374156989
0.00309243901999578
0.00288123151080256
0.00263469078450904
0.00235614355050145
0.00205055597833948
0.00172346906023023
0.00138076484587694
0.00102883177773621
0.000677133711276492
0.000347137325630474
9.15021525296009e-05
1.73694793568321e-06
0.00338883568579961
0.00327557793706572
0.00313311628756406
0.00295723449642699
0.00274650082718055
0.00250262622532511
0.0022293139945322
0.00193130846632483
0.00161420621524128
0.00128437394345324
0.000948804109009274
0.000617187532509921
0.000309970225523825
7.69398109974732e-05
1.20634344647345e-06
0.00330711352322233
0.00322244124302399
0.00311313785715957
0.00297361055424441
0.00280053526674428
0.00259367079826876
0.00235516233778761
0.0020887147285792
0.00179931211444922
0.0014931586294276
0.00117739551035737
0.000859783006224253
0.000550453354411724
0.000268934038425217
6.13923144491631e-05
7.24210262939826e-07
0.00316353821745396
0.00310527430681862
0.00302872282353812
0.00292671986428159
0.00279362160849964
0.00262670008122852
0.00242610062088965
0.00219417947646552
0.00193510113088748
0.0016546253597299
0.00135986313641159
0.00105888087166454
0.000760396211860781
0.000475373455079042
0.000222830155004178
4.44975536354491e-05
3.40179813630303e-07
7.24124463346988e-06
0.000170305864558706
7.62961567755468e-06
0.000525224843153467
0.000173746914340027
8.13895130014338e-06
0.000953812415937201
0.00052853061911144
0.00017820348251193
8.37026083334032e-06
0.00138907440318413
0.00095285459539461
0.000532533999422987
0.000180066555539454
8.10537635125834e-06
0.00179930191249465
0.0013815102710168
0.000950534460570741
0.000532327226878321
0.000177315032239633
7.49252734927517e-06
0.00217057525950987
0.00178397666012853
0.00136968654032411
0.000942698615230522
0.000524777381760008
0.000170806050003171
6.76435018718144e-06
0.00249797311104457
0.00214724150649098
0.00176131049255078
0.0013505111157702
0.000926444199823407
0.000510479764196089
0.000162384896315946
6.02473996522753e-06
0.00278070621910335
0.00246641078674233
0.00211361518426934
0.00172908239019483
0.00132192123049756
0.000901834747358826
0.000491673216013877
0.000153088196830373
5.28465488471201e-06
0.00301922323298635
0.00274010216211307
0.00242186964787203
0.00206796490307923
0.00168601144216928
0.00128380061396174
0.000870448969596259
0.000469852092337892
0.000143089868531143
4.5420887426733e-06
0.00321379081097507
0.00296808730268077
0.00268405637144257
0.0023626804041796
0.00200948650819234
0.00163204199595235
0.00123700662469743
0.000833482094589688
0.000445458449173992
0.000132314616299678
3.8053717147841e-06
0.00336394336647467
0.00315001830715399
0.00289914275235818
0.00261071485417506
0.00228826398040466
0.00193831135296138
0.0015676005142724
0.00118218503838111
0.000791289738616683
0.000418332434940257
0.000120622715256004
3.09161648158561e-06
0.00346831493039633
0.00328480821872375
0.00306605207539929
0.00281034979936822
0.00251964013351559
0.00219905228700769
0.00185481423422203
0.00149294441383269
0.00111944911817948
0.000743646586551846
0.00038807253064662
0.000107925332775319
2.41989778285211e-06
0.00352466034158343
0.00337042176980309
0.00318303814731962
0.00295987109780596
0.00270150795565265
0.00241170301817939
0.00209570486924384
0.00175918055312596
0.00140802215094854
0.00104856078272743
0.000690205329210572
0.000354447949844567
9.40749176130368e-05
1.8126959957569e-06
0.00353009315035009
0.00340396387959173
0.00324748801876544
0.00305700948541474
0.00283177626739124
0.0025741050794366
0.00228809538132462
0.00197865551952266
0.00165139040997679
0.00131258983367904
0.00096912516051478
0.000630584070186711
0.000317397858030225
7.94783734287764e-05
1.27138453560256e-06
0.00348157745337867
0.0033820670213919
0.00325608467933323
0.0030988564119653
0.00290801811958197
0.00268421607813148
0.00243016370038264
0.00214980046726709
0.0018481227607135
0.00153123064657194
0.00120610891269084
0.000880346611692024
0.000563940251962273
0.000276374966954656
6.39078975268744e-05
7.89143055997916e-07
0.0033765639017102
0.0033014832334804
0.0032053251101429
0.00308202730323136
0.00292730839212572
0.00273969680945524
0.00252013352656123
0.00227130575335665
0.00199740332787588
0.0017040506322353
0.00139815533767579
0.00108756557874058
0.000780795995997043
0.000488653918586981
0.000230072097775296
4.68542614039552e-05
3.78837487620987e-07
0.0029228529753248
0.00321348108045888
0.00315952789051882
0.00309188740120664
0.00300312370702049
0.00288656262263856
0.00273802967789665
0.00255615781496536
0.0023419997118555
0.00209868598103223
0.00183119799758454
0.00154609025981472
0.0012512077516577
0.000955358434552426
0.000668225309132263
0.00040210168940956
0.000176284016233202
2.79215418782409e-05
1.1816021007578e-07
7.30270247100486e-06
0.000171230610317289
7.71377368866942e-06
0.000527830150206878
0.000174886237818763
8.24824516631834e-06
0.000958742198722986
0.000531582325328606
0.000179547734219477
8.50235363429234e-06
0.00139704432528553
0.00095853093908281
0.000536031743565268
0.000181604386309026
8.25265280199918e-06
0.00181114561381711
0.00139060831035586
0.000956963568527609
0.000536250121562363
0.000179010115707353
7.64671098541249e-06
0.00218726172359702
0.00179743090277149
0.00137993506293021
0.000949866682708404
0.000529079178573097
0.000172606839413744
6.9198484428408e-06
0.00252061984891448
0.00216614017166825
0.0017764212817224
0.00136191151076187
0.000934308010888119
0.000515092042171881
0.000164248413902797
6.17779022823869e-06
0.00281061485448961
0.00249201366883758
0.00213480300191528
0.00174586997914141
0.00133444858419805
0.000910336819062434
0.000496532276417932
0.000154983891659848
5.43165664976982e-06
0.00305794896279312
0.00277388890704704
0.00245054743054204
0.00209148113958141
0.00170446738917247
0.00129741850199552
0.000879545638063019
0.000474926065925934
0.000144990137851766
4.67970189719313e-06
0.00326325073378812
0.00301185010562875
0.00272189752283989
0.00239448819220946
0.00203532338319548
0.00165213583780365
0.00125168550923432
0.000843159668089899
0.000450738467527553
0.000134199114859443
3.93130928546036e-06
0.00342655746856834
0.00320599772298858
0.00294819499816799
0.00265267502410245
0.00232316846954728
0.00196640897101582
0.00158928394542783
0.00119791641977287
0.000801599486801969
0.000423908628828961
0.000122552062798514
3.20280642958374e-06
0.00354714685914779
0.0033558477805029
0.00312888821423777
0.00286474723637943
0.00256562125382173
0.00223691347410045
0.0018850477358922
0.00151614037989078
0.00113623517190968
0.000754688508386846
0.000394082742841238
0.000109933416023011
2.51463043936233e-06
0.00362349671341874
0.00346008529400769
0.00326289580381306
0.00302955751110649
0.00276101992129645
0.00246141102098451
0.00213624826810766
0.00179132801655539
0.00143257699964287
0.00106630501646882
0.000701906699700987
0.000360933768552521
9.63673625324792e-05
1.88543113161658e-06
0.00365338305434142
0.00351654028310576
0.00334831780479232
0.00314549236916604
0.00290782857880837
0.00263818084169861
0.00234101974855783
0.00202143128361087
0.00168506272659907
0.00133816907351784
0.000987538994565989
0.00064269221602608
0.000324071788294068
8.17297614666164e-05
1.32481078175983e-06
0.00363420794213639
0.00352240514154162
0.00338246083282186
0.00321022030290557
0.00300411507350191
0.00276557833083556
0.00249785153900126
0.0022051238019884
0.00189244468209173
0.00156585773524615
0.00123223716021671
0.000899039118796085
0.000576157546445533
0.000283055093818683
6.60909338357276e-05
8.32508617296737e-07
0.00356356572630033
0.00347471493939914
0.00336217429943845
0.00322078471150797
0.0030474175969271
0.00284170800671626
0.00260535770621678
0.00234141836234814
0.00205416313847491
0.00174914067952781
0.0014331086943956
0.00111374207059735
0.000799390026997512
0.000500736066254651
0.000236651302905102
4.89957329192448e-05
4.17938377907165e-07
0.00343990880106289
0.00337096605636686
0.00328439678147801
0.0031740516376763
0.0030348777920103
0.00286425641565478
0.00266188598416649
0.00242932581154363
0.00216983139431197
0.00188829269353454
0.0015910672765639
0.0012857720423376
0.000981001047553055
0.000686258250510182
0.000413689033162579
0.000182494987243934
2.99699493212048e-05
1.34331709616189e-07
0.00295570254516797
0.00292076580083852
0.00326301621505533
0.00320959379115706
0.00314653183502855
0.00306701062901399
0.0029636112589129
0.00283077656319534
0.00266561899775321
0.00246775517554451
0.0022391140240844
0.00198372540495255
0.00170740947898299
0.00141745154262876
0.00112236135303218
0.000831717381567665
0.00055656488862292
0.000311625272180525
0.000117908072441154
1.13584188967043e-05
2.18974643495209e-08
0.000171959322188824
7.77891392538817e-06
0.000529988378809086
0.00017581641724495
8.33858836643853e-06
0.0009629432902861
0.00053420359540499
0.000180709365302746
8.61625857633116e-06
0.00140392192592996
0.000963474346290134
0.000539106354283896
0.00018297429873216
8.38271590819296e-06
0.0018214393189972
0.00139857978585635
0.000962649911951525
0.000539757972357808
0.000180545586573096
7.78555409319931e-06
0.00220183340320258
0.00180925456361936
0.00138901294777619
0.000956277457044855
0.000532972051287444
0.000174260251984189
7.0618939661855e-06
0.00254046163302287
0.00218277980241907
0.00178980642909015
0.00137208745588073
0.000941398038253359
0.000519304071060638
0.00016597683348214
6.31901939550195e-06
0.00283687481254152
0.00251458448887152
0.00215356890177905
0.00176082271115777
0.00134568770929381
0.000918041790917337
0.000500996826323444
0.00015674541166639
5.56846823393305e-06
0.00309197818760753
0.00280368906158912
0.0024759418093184
0.00211239587133861
0.00172096463542948
0.00130966856610263
0.000887801798979573
0.000479592181342019
0.000146767835736176
4.80819839786651e-06
0.00330668168587072
0.00305042668767308
0.00275538386177045
0.00242274568609604
0.00205836749981115
0.00167013156740217
0.00126489241573794
0.000851919760429579
0.000455566338005602
0.000135958975402262
4.04877761144263e-06
0.00348141991402748
0.00325525309498867
0.00299153798911811
0.00268990417259813
0.00235425688866172
0.0019915200437243
0.0016087150922144
0.00121203553873588
0.000810846425308155
0.000428895769135539
0.000124283685265192
3.30634975832919e-06
0.00361600380410584
0.00341817895311128
0.00318428253640363
0.00291292710698192
0.00260652401992555
0.00227071774338394
0.00191211380903664
0.0015369260593867
0.00115124231818125
0.000764470586843586
0.000399332615295747
0.00011166492793086
2.60289724003443e-06
0.00370955775889594
0.00353852309802053
0.0033331129591236