/*--------------------------------*- C++ -*----------------------------------*\
  =========                 |
  \\      /  F ield         | OpenFOAM: The Open Source CFD Toolbox
   \\    /   O peration     | Website:  https://openfoam.org
    \\  /    A nd           | Version:  12
     \\/     M anipulation  |
\*---------------------------------------------------------------------------*/
/*   Windows 32 and 64 bit porting by blueCAPE: http://www.bluecape.com.pt   *\
|  Based on Windows porting (2.0.x v4) by Symscape: http://www.symscape.com   |
\*---------------------------------------------------------------------------*/
FoamFile
{
    format      ascii;
    class       volScalarField;
    location    "500";
    object      omega;
}
// * * * * * * * * * * * * * * * * * * * * * * * * * * * * * * * * * * * * * //

dimensions      [0 0 -1 0 0 0 0];

internalField   nonuniform List<scalar> 
10123
(
2.4668450553724
2.46684219609402
0.564109236450685
2.38168283927508
2.46683931339845
0.57029301199934
2.3816791836357
0.29089056138654
0.549947344993186
2.28699840648233
2.46683931529591
0.576046483722268
2.38167524199934
0.295540527885669
0.556092506697371
2.28700634235754
0.206517721857944
0.287072707635893
0.532831200518833
2.2161111894368
2.46684257495257
0.581366707889703
2.3816766133706
0.299894554319485
0.561813989255708
2.28699006614779
0.210081238913287
0.291688992641998
0.538864331045838
2.21611856020545
0.169375605298281
0.20519453944386
0.281616776004301
0.519142945884522
2.18721997138311
2.46684075188066
0.586267600115704
2.38168177975574
0.303947666926049
0.567092198175152
2.2869925009371
0.213434084457498
0.296010545142564
0.54448997426307
2.21610093076907
0.172241376702954
0.208741857507608
0.286165164926412
0.525047925081495
2.18721627597823
0.150006571495395
0.168856389925118
0.20295950939811
0.276406130131177
0.511340437061415
2.18619415481029
2.46683983912002
0.590822281680113
2.38167991149401
0.307716673579671
0.571951911484783
2.28699694756701
0.216575471621038
0.300032274405172
0.549678687513114
2.21610627962873
0.174953522356494
0.212077925339694
0.290426761836208
0.530563930148893
2.18721040747276
0.152380293747244
0.171716438170649
0.206473199163546
0.280872450411641
0.517127574188721
2.18619186864619
0.139022863586107
0.149777300118186
0.167773820352175
0.200398809387386
0.272374263538725
0.50734195756539
2.19193235816322
2.46683902366161
0.595036658808774
2.38167801768962
0.311248687432535
0.57648079221424
2.28699681586872
0.219513561804056
0.30377207436964
0.554451474852426
2.21611304524432
0.177509534832249
0.215203414350976
0.294392965625515
0.535650199603414
2.18721674721401
0.154641948359097
0.174421553426396
0.209778099400537
0.285061344424174
0.522541505478795
2.18618763127396
0.141010621307375
0.152151313075091
0.170619636272875
0.203868427878765
0.276760372460017
0.513021382810484
2.19192876872599
0.132602567462299
0.138887656005223
0.149153802171333
0.166307914760386
0.197927641604407
0.26919849667308
0.503987509150057
2.19485831816654
2.46683922026381
0.599933852648182
2.38168846883936
0.314631370346237
0.580684226770109
2.28699404469502
0.222267610065303
0.307277365844151
0.558890354032959
2.21611036339766
0.179910996728671
0.218126732163437
0.298080613806565
0.540326971734249
2.18722228380152
0.15678753437749
0.176970654102488
0.212874497923127
0.288960836970663
0.527536090767778
2.18619195470714
0.142921377565239
0.154411569909221
0.173310615163364
0.207132821200128
0.280876969711304
0.518339046537022
2.19192409953256
0.134256506447235
0.140879438065982
0.151525377333113
0.169133689164638
0.201350309600588
0.273508253905261
0.509551663281699
2.19485256507884
0.128933336237447
0.132489280104922
0.138441711328052
0.148184735182271
0.164647074166513
0.195575692160405
0.266111791440066
0.499651621460835
2.19512978926904
2.46684144490748
0.604404055443446
2.38167607866074
0.317913580226299
0.585420790134761
2.2870032034923
0.224874091747986
0.310628827861641
0.563007457379174
2.21610739294635
0.182163253402586
0.220866939367457
0.301534219489372
0.544671682448935
2.18722087556737
0.158814572546514
0.179365543813945
0.215770597945858
0.292586639275486
0.53212848344564
2.18619356682262
0.14475025413649
0.156555372743734
0.175846099871721
0.210191624483652
0.284710446190111
0.523247835607237
2.19192845008472
0.135867340073754
0.142792251628361
0.15378203049582
0.171805305308254
0.204570997362143
0.277554971860803
0.514762919066786
2.19484716477973
0.130273643288486
0.134150082865112
0.140439336800264
0.150552614967504
0.167450524353374
0.198951316447549
0.270342622470493
0.505080518017676
2.19512578434
0.127062394640308
0.12882098416332
0.132105397771134
0.137699506606835
0.1469680744815
0.16288313392456
0.193166286559876
0.262619347042425
0.494135049655743
2.19480782889558
2.46684134190426
0.608301717400583
2.38168001700634
0.32091258328786
0.589825966279355
2.28699143810773
0.227313420882463
0.313870774061695
0.567568347234463
2.21610474814862
0.184280668143136
0.223457427787873
0.304825115123726
0.548692658527359
2.18721581172656
0.160722329586761
0.181611366451404
0.21848461837289
0.295981100404927
0.536389641120242
2.18619437688367
0.14649184687532
0.158580477213392
0.178228016026819
0.213052789874237
0.288275609889439
0.527760756951663
2.19193137006673
0.137429405766693
0.144622409451957
0.155921664832119
0.174322208979062
0.207589190132349
0.281324239492906
0.519575946237336
2.19485215648466
0.131607087655908
0.135765488795591
0.142355847512213
0.152804443912345
0.17010029906394
0.202127552456999
0.274315529276891
0.510166140098866
2.19512023060204
0.128088663731981
0.130170905449788
0.133779088471674
0.139706158483153
0.149332750970254
0.165663966407861
0.196493525262627
0.266764236573608
0.499407181748389
2.19480370200702
0.126443286813557
0.126946847288059
0.128456165659943
0.131466472665424
0.136730285950461
0.145600398815369
0.161021750135237
0.190551689444774
0.258569436012367
0.487621162454352
2.19480462754855
2.46684135423385
0.611665679903459
2.38166944341922
0.323581125542623
0.593683116895351
2.28699600929124
0.229542083675468
0.316839294186449
0.571900782040895
2.21610270323235
0.18624561002785
0.225881975771367
0.308010141525345
0.553170616717468
2.18721568896869
0.162512720361945
0.183722356490582
0.221047074299061
0.299213389386309
0.54032594269733
2.18619013076977
0.148141443047798
0.160486094734887
0.180461393838978
0.215733981802675
0.291614083796529
0.531943124669099
2.19192852834522
0.138934651081459
0.14636478433554
0.157942313642011
0.176686458270921
0.210412765908041
0.284830277434898
0.524000827406422
2.19485722225925
0.132926806845664
0.137330983026921
0.144188201810223
0.154938422229945
0.1725961010563
0.205104171815865
0.278016830396806
0.514864949564241
2.19512551711557
0.129149493557733
0.131511239139327
0.135404208014701
0.141629019421531
0.151579819780919
0.168291146565368
0.199623376129665
0.270655408955774
0.504346931841975
2.19479822028894
0.127141246624027
0.1279858052795
0.129826138514341
0.133160779761619
0.13875012936588
0.147963327368722
0.16377981537569
0.193827618587049
0.262619426057205
0.492715598188547
2.19479845649307
0.126732774809205
0.126323739836048
0.126585317000159
0.127864861036315
0.130638495860924
0.135627617891293
0.144147152670766
0.159052681703034
0.187679323084739
0.253959855146771
0.480181327026268
2.19512984994708
2.46684023512167
0.614552244158249
2.3816810154834
0.325923497551007
0.597009655537797
2.28698810655358
0.231543401133872
0.319483710658089
0.575701863443493
2.2161098911632
0.188043031820121
0.228097983605837
0.310936459494302
0.557433526611421
2.18721400243467
0.16417418846682
0.185681475148643
0.223447172649295
0.302344940467418
0.544841473316713
2.18619131242228
0.149694417538807
0.162274529855541
0.182559979587605
0.218265104459328
0.294801337006981
0.535825875650199
2.19192536960754
0.1403749120096
0.148014719067065
0.159843241180069
0.178903009253089
0.213058893933147
0.288114609864704
0.528101019250312
2.1948520024247
0.134221660165946
0.138838830282403
0.145931667943415
0.156952914974386
0.174940266499321
0.207889087509604
0.281459571886275
0.51918610832135
2.19513081886213
0.130235829029575
0.132836284561184
0.136976941682422
0.143465420200676
0.153707805754142
0.170764841228212
0.202556316545222
0.274280698786448
0.508913058181375
2.1948037338463
0.127922944479774
0.129056018780394
0.131182110282185
0.134802189695497
0.140682719966943
0.150206565143683
0.166383831703079
0.196907753498075
0.26641974067435
0.497489560999425
2.19479308644803
0.127079072035564
0.127037984631668
0.127652368230736
0.129267503288015
0.132361744012346
0.137664844464755
0.146509902061073
0.161787415065132
0.190900273464765
0.257906049619167
0.485078011920925
2.19512375222342
0.127692396295746
0.126607988522819
0.125957491737564
0.126013909491431
0.12711896217709
0.129714375566272
0.13447597897738
0.142658011508387
0.15699568637783
0.184570986605347
0.248817681793002
0.471735080190519
2.19485512541243
2.46684157136204
0.616996698654577
2.38167806884209
0.32795983433571
0.599861480751071
2.2869980268954
0.233317404176052
0.321805569020681
0.578982982817974
2.21611621628068
0.189665869658013
0.23008850749944
0.313546482184455
0.561197233946238
2.1872198198386
0.165698318352609
0.187473749191769
0.225642763885864
0.305226987782303
0.549074115358565
2.18619249244023
0.151140900739795
0.163934166982825
0.184508358081599
0.220636788202645
0.297897519661121
0.540420213471298
2.19192787852776
0.141740775943116
0.149567919157887
0.161627225889312
0.180985961803534
0.215561073573916
0.291268294971299
0.53203053717795
2.19484666157227
0.135479919871164
0.140280975136573
0.147581834340246
0.158847469562378
0.17713803009222
0.210498876391171
0.28468318307285
0.523186583070001
2.19512536240018
0.131332628037485
0.134135284651988
0.138490080047379
0.145211105726539
0.155715516446966
0.173087848867466
0.205300473060331
0.277651809646132
0.51310990343003
2.19480917919174
0.128775289069325
0.130149656555635
0.132519186950046
0.136387346456475
0.142525729884504
0.152329045780495
0.168834561520288
0.199793487722862
0.269960408398403
0.501907640441256
2.19479873516039
0.127568546427518
0.127831902901819
0.128744708877976
0.130649846495497
0.134026542445813
0.139610649714655
0.148750441130709
0.164367402112898
0.193926890114739
0.261606721164442
0.489667106061984
2.19511849637825
0.12765878111189
0.126974781999079
0.126709150181769
0.127127122695387
0.128567150476418
0.131474006849477
0.136534306757408
0.145021995387064
0.159706410731996
0.187733442788127
0.252651892411821
0.476414058503036
2.19485121234245
0.129137964020144
0.127560422933074
0.12623032812713
0.12538815947703
0.125312889836684
0.126314350089538
0.128785513578073
0.13335256110331
0.141198837733588
0.15492068958587
0.181309020783275
0.243185032222852
0.462067945193884
2.19193028517839
2.46683971118927
0.619029456043118
2.38167898747652
0.329707824885453
0.60227222211153
2.28699457069218
0.234872069094184
0.323823000083882
0.58177951264518
2.21611194521933
0.191113918389178
0.231853194464434
0.315839318464353
0.564439334200625
2.18722480066893
0.167080800181544
0.189092047511699
0.227615954847266
0.307802228680081
0.552803229584243
2.18619416202211
0.152473722753784
0.165456609153822
0.186291279211655
0.222807884952202
0.300743754222211
0.54463707545221
2.19192945581725
0.143021512106852
0.15101448185715
0.163282816680601
0.182920058591541
0.2179059068117
0.294338441837441
0.536616132383407
2.19485167765564
0.136687337243341
0.141648321173744
0.149134907363458
0.1606251102986
0.17920404139155
0.212974767088348
0.287813157094334
0.527171883839252
2.19511985189796
0.132423067628492
0.135396648836158
0.139935964445306
0.1468621388475
0.15760305669611
0.17526627422394
0.20787347649592
0.280804624508673
0.516971119223688
2.194803673513
0.129677870888227
0.13125210155754
0.133827317519419
0.13790968833757
0.144275465902568
0.154330124321256
0.171135361871908
0.202493292778896
0.273252563171109
0.505964567847544
2.19480427094206
0.128181117909316
0.128693757338448
0.129855480920504
0.132007604851591
0.135629932893318
0.14146305653439
0.150868152357988
0.166794035016026
0.196761588139492
0.265054852119052
0.493921583413821
2.19512409084142
0.127840471412079
0.127479710973516
0.12753257011497
0.128256869024387
0.129986975301387
0.13316868212066
0.138496526734564
0.147260922768186
0.162261511204027
0.19070313630839
0.256244891174971
0.480798642401585
2.19484812406656
0.128695552738329
0.127552152358136
0.126645314871524
0.126201494480555
0.126490148046207
0.127819077302375
0.130587643549826
0.135435312038499
0.143565587749336
0.157607203712484
0.184409722307578
0.246898765213101
0.46650338756331
2.191928534589
0.130911936982272
0.12899673869149
0.127164857186104
0.125648516382479
0.124704436231115
0.124583920563826
0.125547371300221
0.12794336460043
0.132352110548897
0.139880283574174
0.152967765131641
0.178057861067053
0.237167431384478
0.450913721994247
2.18619449453526
2.46683697653489
0.620686352095206
2.38167783474619
0.33118489823055
0.604262445216233
2.28699446087051
0.236218175739138
0.325554548629646
0.584128023761446
2.21610848010708
0.192391408779823
0.233399742895335
0.317829642744598
0.567163120198993
2.18722111815423
0.168321087355653
0.190536111667848
0.229365744172009
0.310064144452807
0.555988551683614
2.18619486765446
0.153688687521076
0.166837541584808
0.187901425012688
0.224760087529218
0.303286245760091
0.548337137510885
2.19193189144893
0.14420901706662
0.152347271516734
0.164801621434601
0.184690274759454
0.220052296367786
0.297153696990875
0.540806632471192
2.19485546680011
0.137830863895895
0.142930186797051
0.150581118206807
0.16227467255692
0.18112216994522
0.215293626980881
0.290849620058784
0.531733337368171
2.19512517373702
0.133488224213888
0.136606507267283
0.141306065963141
0.148415140132898
0.159373326066042
0.177314292506437
0.210320030608034
0.283905099473719
0.521050858714359
2.19479811794301
0.130607233827168
0.132346911718667
0.135095447921431
0.139362242735221
0.145928676942628
0.156210685410897
0.173293497761033
0.205027036009063
0.276338948466046
0.50966312252192
2.19479880177259
0.12888872052382
0.129603683083672
0.130970968307403
0.133331604047151
0.137166079991361
0.143218992273625
0.152862982642559
0.169071230418961
0.199413205478859
0.26826082638593
0.497825821032694
2.19512953416903
0.128206096522073
0.128104257934887
0.128417256219133
0.129397148677912
0.131374692565689
0.134795801577949
0.140361004388855
0.149374621784263
0.16466299952866
0.193483484217326
0.259593434150363
0.484872446630914
2.19485128990139
0.128555499738714
0.127752914474522
0.127188111137886
0.12707474346882
0.127672731362271
0.129286115861711
0.132317685993617
0.137416900675534
0.145804185038586
0.160137134573784
0.187319606251728
0.250376032077413
0.47066061057308
2.19192757390239
0.130036024584183
0.128585098925245
0.12721700987007
0.126143025954045
0.125602916285644
0.125840023535348
0.127117256839411
0.129793179852837
0.13446267453223
0.142252059410416
0.155630983108405
0.181094833608875
0.240751717994113
0.45507016447407
2.18619132202322
0.132864974068545
0.130759910400369
0.128577651206314
0.126557737390644
0.124959064393136
0.124015523973076
0.123929145998519
0.124918930373211
0.12730149203627
0.131615587239283
0.138889482472743
0.151392035759895
0.175148282864682
0.231089305929278
0.438544239966746
2.18721927385254
2.46684051526965
0.622020293747831
2.38167412571227
0.332415379994465
0.605922792001317
2.28699401588481
0.237367689143243
0.327018817210144
0.586103679706969
2.21610814297376
0.193505004184164
0.234738860328072
0.31953738310731
0.569485034680751
2.18721875631647
0.169421510044442
0.191810119976519
0.230899212635397
0.312023967962405
0.558717557613062
2.18619564684664
0.154784376997308
0.168076428419172
0.189338379555993
0.226491471623664
0.305517605444683
0.55152101446816
2.19192909503075
0.145297920676537
0.15356212918979
0.166179299672052
0.186289202830241
0.221982311822877
0.299665994619285
0.544465747789798
2.19485509325376
0.138900194340366
0.14411854125278
0.151913433444759
0.163787897632642
0.18287772030891
0.217415348776997
0.293630679518917
0.535877191525549
2.19513098617177
0.134511439093741
0.137751924929507
0.142589967867745
0.149860716696085
0.161015546514588
0.179215381794788
0.212610173271039
0.286898210263139
0.525551423152723
2.1948035679242
0.131539174847796
0.133415442042091
0.136310455367586
0.140737109885598
0.147482199458588
0.157973163498477
0.175321969205598
0.207437582564229
0.279385211481662
0.513801736274058
2.19479330899603
0.12965983523501
0.130538713188095
0.132075646873666
0.134611770664619
0.138628929215193
0.144876048288637
0.154736719111776
0.171207491461681
0.201904283052596
0.27127642321524
0.501359298767965
2.19512410041133
0.128716588625256
0.128821078239191
0.129344550640556
0.130535470834857
0.132722079031584
0.136350245861576
0.142125257175079
0.151363551942201
0.166915193190358
0.196083479855689
0.262707629394288
0.488608208424079
2.19485422049954
0.128668896755887
0.128133207156679
0.127841843789064
0.127998672708257
0.128855476139442
0.130712197892796
0.133973339793282
0.139295995290264
0.147914854204969
0.162513048210795
0.190043224828706
0.253618298013794
0.47453401512153
2.19192816768127
0.12956664278826
0.128468040177945
0.127464930734386
0.12674963197404
0.126546116527198
0.127088590934149
0.1286393821352
0.131563380882205
0.13646673421932
0.144492354343231
0.158136546776819
0.183942987146025
0.244104622166281
0.458970628129211
2.18619182578834
0.131542460616626
0.12992061551886
0.128239885897462
0.126709639860211
0.125562864195728
0.125018059847688
0.125275256467922
0.126560930215153
0.129203991691365
0.133758175665023
0.141270115220792
0.154034725681727
0.178119721053009
0.234531325560524
0.442373063693879
2.18721627760417
0.134821376425825
0.132701793624245
0.130313626700339
0.127934633584378
0.125842697190181
0.124279727873734
0.123430612213235
0.123457458981824
0.124555905287993
0.127022842447387
0.131365524544834
0.138545985648785
0.150668784896467
0.173285834250096
0.225960005905181
0.427517554343834
2.21610793272684
2.46684683132917
0.623077977930842
2.38168912766569
0.333420695711939
0.60726652010777
2.28699037836349
0.238333933968807
0.328241075515605
0.587749743022614
2.21610762436778
0.194462758633695
0.235882647047832
0.320985050698723
0.571453042562604
2.18721827039258
0.170386329018503
0.192920728291258
0.23222712710506
0.313707533058514
0.561014599341309
2.18619321540822
0.155761641988066
0.169175604395375
0.190606190709774
0.228008559756222
0.307453539614977
0.554202168249242
2.19192982442465
0.146285442079589
0.154657668035988
0.167415295927236
0.187716256466224
0.223693881833456
0.301871527556118
0.547608994143718
2.19485129777261
0.139887962735941
0.145208092955487
0.153127763378362
0.165160493157658
0.184463379153967
0.219322686444904
0.296109167737969
0.539480078562854
2.19512616140045
0.13547921425407
0.138822725021133
0.143779848194815
0.151192087899451
0.162521725003579
0.180955026854757
0.214705127920277
0.289636985122027
0.529643816316656
2.19480946564975
0.132452291731665
0.134441262753408
0.137459818726564
0.142024421263773
0.148927244906766
0.159607349225672
0.177204465662051
0.209693854547948
0.282319142509008
0.518275931826033
2.19479888806657
0.130463739513137
0.13147500535653
0.133151668642104
0.135835859642977
0.140011151807738
0.146431108903428
0.156491161204782
0.173213976462872
0.204270872132033
0.274252736918608
0.505644283427488
2.19511868394786
0.129330938528495
0.129599259952036
0.130292708341157
0.131657606315142
0.134020388193077
0.137827135323393
0.143787919671373
0.153230598768254
0.169027930390331
0.198528222158132
0.265650732974179
0.49199276429345
2.19485078695816
0.128981821858279
0.128654941915938
0.128580787789315
0.12895631094602
0.130027299575501
0.132090082178894
0.135550111053009
0.141070534241829
0.149898290441717
0.164739241497032
0.192589325726875
0.256635308963581
0.478103970594509
2.19192838294759
0.129427788641892
0.128598972528679
0.127881341754475
0.127453355603465
0.127526142296457
0.128325228014576
0.130110884981917
0.13325194318455
0.138363266627146
0.146601805995779
0.160487668256657
0.18660842518976
0.247233592212642
0.462621947700268
2.18619221863761
0.130748136621662
0.129478270289555
0.128179962307824
0.127036834029478
0.126258522283919
0.126047956866035
0.126600087600554
0.128144700277702
0.131019069527225
0.135788622733631
0.143515614163966
0.156518394647648
0.180904566741223
0.237748271170651
0.445979664635117
2.18721703674516
0.133083600271781
0.131421743123614
0.1295623850652
0.127718956008997
0.126131245445679
0.125016228537411
0.124550937778105
0.12490215400613
0.126276376573718
0.128983816026651
0.133546235899822
0.140941891848929
0.153295118652154
0.176187916768393
0.229238810929226
0.43087093145919
2.21610689741159
0.137233369293853
0.136640218122891
0.134648283415502
0.132227763957594
0.129627578181088
0.127177693015599
0.125146631472488
0.123727799020341
0.123066309467817
0.123306125590927
0.124637413306803
0.127355921671097
0.131966857175484
0.139417437596538
0.15173118475949
0.17409203283038
0.224930109057877
0.430156370530964
2.28699329689139
2.46684168690837
0.623915925552944
2.38167991399186
0.334222867535344
0.608328847059481
2.28700087197223
0.239130551077453
0.329241131356708
0.589088435008299
2.21610385708458
0.195273509532597
0.236844527796288
0.322194530644605
0.573073263783067
2.18721747623277
0.171221033879106
0.193875974064403
0.233361863720441
0.315136620433727
0.562939003957092
2.18619299786248
0.156623007653881
0.170139335558613
0.191711483915675
0.229322483330016
0.309114242112122
0.556480976467499
2.19192854893152
0.147170939430209
0.155634762072208
0.168511927910552
0.18897536168064
0.225193647848329
0.303781802225496
0.550287801010189
2.19484813244492
0.140789559048604
0.14619610721987
0.154222767487782
0.166391916574274
0.185878556503278
0.221013925529335
0.298284421665745
0.542587108425094
2.19512383944597
0.136381482997935
0.139811647294159
0.144870569471356
0.152405332164084
0.163887733844025
0.182526093263469
0.216587840339078
0.292076281677998
0.533208230865374
2.19480452127757
0.133329042354171
0.135411069620715
0.138533694773733
0.143216763177607
0.150257455429495
0.161105612955272
0.178926786062424
0.211758088803116
0.285007486770161
0.522331831710135
2.19480494210627
0.131273268460743
0.132391473675837
0.134183241428244
0.136992133029906
0.141303691724423
0.147876166274159
0.158116873258758
0.175075637011998
0.206486437453708
0.277115314601524
0.510010948753989
2.19512428016752
0.130010448945635
0.13040856224467
0.131238931817466
0.132746961314999
0.135258240107808
0.139219528558066
0.145345750273796
0.154976722128764
0.171009588856085
0.200844703068496
0.268564671286529
0.496463527403517
2.19484557546146
0.129441866856829
0.129277847053739
0.129375607391854
0.129927666484405
0.131175453127358
0.133412409989125
0.13704462856137
0.142740735555733
0.15175917714553
0.166827843501273
0.194986504453564
0.259509501458751
0.481624981366859
2.19192679512677
0.12954704686542
0.128925236083724
0.128430321894416
0.128230778614481
0.128527987561691
0.129540309613051
0.131525565022778
0.134855117948847
0.140150764387922
0.148581436359804
0.162688536334219
0.189099307279609
0.250151302977488
0.466016695099396
2.18619212621969
0.130366638207149
0.129359894145296
0.128354336979655
0.127514896593221
0.127033239986262
0.12709862750501
0.127899898227223
0.129667711226182
0.132744970029308
0.137706259509876
0.145627191458204
0.158847402859691
0.183511726836324
0.240756438724708
0.449374430254124
2.18721760680369
0.13198982908271
0.13065845979649
0.129187382947262
0.127754913115307
0.12656852972167
0.125821502912182
0.125680226063428
0.126311467232332
0.127927932588431
0.130849278269891
0.135608751145317
0.143198465520629
0.155760942352291
0.178906485668574
0.232301400393363
0.434014720439621
2.21610658901665
0.134547059861558
0.132958154660537
0.131049744502351
0.129022201485368
0.127129036371532
0.125600222720998
0.124613349693321
0.124314432525759
0.12485682895682
0.12644336505261
0.129383279918649
0.134195106842622
0.141838549199023
0.154346606907393
0.176915249755966
0.227996327686043
0.430389619106921
2.2869931937742
0.13957257624057
0.137000631156838
0.138224238021948
0.136460084372554
0.134150008888094
0.131496506151626
0.12881718453465
0.126443161974378
0.124595775548183
0.123427734350962
0.123068711650719
0.123666596788906
0.125431019085745
0.128697722612212
0.134048282591999
0.142574730874938
0.156562372276776
0.181698322774547
0.238792042307292
0.475209234364155
2.3816773476856
0.624558761258039
2.38168072632047
0.334848103282782
0.60919489658827
2.28699323927617
0.239770715400788
0.330039934535822
0.590147255284507
2.216099536876
0.195946291839158
0.237637802535458
0.323185117826982
0.574366836720562
2.18721449372076
0.171931770484237
0.19468467042947
0.234316542791148
0.31632917484397
0.564511898030257
2.18619219450096
0.157372119683022
0.170973099504476
0.192662289402443
0.230445592836486
0.310521846805306
0.558374129875165
2.19192932749898
0.147955429653109
0.156495951691161
0.169473454237072
0.190073137158731
0.226492321109338
0.305421047085845
0.552543171122373
2.19485120746516
0.141602699074717
0.147081983369999
0.155199348252825
0.167484488225644
0.187127165873974
0.222495481907872
0.300171272299015
0.545258586919746
2.19511854645403
0.137211381014948
0.140714157460369
0.145859497194165
0.153499219293496
0.165113133095979
0.183928100534718
0.218257016353723
0.294218300506599
0.536282993239974
2.19480201920139
0.134156036136021
0.136314940492838
0.139525064082438
0.144309290512079
0.151469209439977
0.162464088981636
0.180481956161945
0.213613294664858
0.287404611010069
0.525852871964227
2.19480002580432
0.132066059815959
0.133270831456037
0.135157546561085
0.138071343061905
0.142499751830183
0.149205426435588
0.159606701097151
0.176778786939762
0.208515169237882
0.27974452135792
0.513986755040815
2.19513035328083
0.130721201027105
0.131222230492842
0.132162997522333
0.133788799621792
0.136425012630615
0.140519398131946
0.146791674587118
0.156593564616304
0.172847747730473
0.203012760738285
0.271333899322924
0.500770332861696
2.19485095472063
0.13000093736889
0.129963854924849
0.130197428148717
0.130891613952274
0.132284921967844
0.134668733565036
0.138450012512131
0.144302715687729
0.153496846577542
0.168782414976084
0.197252168728441
0.262367528124315
0.486143401569549
2.19192216402112
0.129858196870535
0.129395363803805
0.129073591131349
0.129054906902758
0.129533696681245
0.130722578143739
0.1328770868811
0.136370422846654
0.141830310484693
0.150437010510831
0.164753549341
0.191450962291381
0.252983182796349
0.469948594918993
2.18619187020659
0.130302865621935
0.129494576371903
0.128713163176221
0.128111024915129
0.127866311380223
0.128157099327438
0.129166475048136
0.131124761793543
0.134378717481361
0.13951024635977
0.147606507348935
0.161026748455751
0.185950537000991
0.243579313774811
0.452624559557433
2.18721789611615
0.131388310233496
0.130300185231766
0.129119843993268
0.128003189810154
0.127133634455626
0.126685008299152
0.12681304633996
0.127682173328154
0.12950830956648
0.132617747566775
0.137552861022391
0.14531788221884
0.158072802838187
0.181456415470505
0.235185988946808
0.437242390599107
2.21610750088685
0.133199395770901
0.131899027546758
0.130363655884453
0.12876020314677
0.127297696454793
0.126172227464624
0.125543362931865
0.125552857238056
0.126357973139842
0.128169522615728
0.131306613886011
0.136298414369261
0.144115318548668
0.156799921729168
0.179559677642307
0.230850300470645
0.431335158385606
2.28700518891891
0.135847199867739
0.134418713911907
0.13257420289999
0.130488299843283
0.12841154890155
0.126595495142596
0.125233449512253
0.124473549019426
0.124452776525844
0.125331144422554
0.127331738541577
0.130803338500397
0.136338634538353
0.145035074558728
0.159170980104196
0.184425346622083
0.241291712849354
0.472558438334087
2.38167783015298
0.141607445384969
0.13932949873649
0.136358255953657
0.139471585888188
0.138041653577842
0.135945347743747
0.133377988977073
0.13062753178969
0.128028197249509
0.125866895761441
0.124322719984612
0.123533639825555
0.123639149693759
0.12482070047507
0.127356652211537
0.13171815729676
0.138765898918473
0.150208222397614
0.169863646518661
0.20841452529027
0.309458336961229
0.775034971338363
3.68516784033527
0.335309622896722
0.609820970039715
2.28699720412472
0.24026742177662
0.330664567211856
0.591026069238282
2.216105981041
0.196489972750929
0.238275544922164
0.323977518994354
0.575424335695508
2.1872105355144
0.172524935430953
0.195355842132399
0.235104252967376
0.317304938054287
0.565791417202492
2.18618859941252
0.158013324094754
0.171683048478124
0.193467373043624
0.23139062249761
0.311694995592482
0.55990862619865
2.19192917620613
0.148641086012705
0.157244900846911
0.170305343710518
0.191017593262321
0.227602247533512
0.3068078673646
0.554391404160401
2.19485327382979
0.142326892666308
0.147866761333506
0.156060064043389
0.168442471980051
0.18821578338286
0.223778285547861
0.301787923295325
0.547470724038941
2.19512410109662
0.137964743178692
0.141528022399001
0.14674609718533
0.154474722996896
0.166200301880472
0.185164999188603
0.219719433413741
0.296078316187544
0.538895219692029
2.19479656489602
0.134923741096855
0.137146113993969
0.140429553420634
0.145299567863581
0.152561483846737
0.163682517194574
0.181869638937743
0.215258298207122
0.289509606192525
0.528863124575669
2.19479736944691
0.132824844376866
0.134099878395151
0.136065005549121
0.139066901438887
0.143594940697335
0.1504156824164
0.160957099549636
0.178316611594857
0.210339744153442
0.282092652669386
0.517447637093979
2.19512552214989
0.131435335562677
0.132018228787622
0.133048273263374
0.134771120831581
0.137512307537
0.141720730465777
0.148120572913211
0.158074586189874
0.17452965415652
0.205000493096306
0.273885395706871
0.504624901071532
2.19485489174755
0.130617514029349
0.130679564314557
0.131020615855209
0.131829328684717
0.133342368511044