/*--------------------------------*- C++ -*----------------------------------*\
  =========                 |
  \\      /  F ield         | OpenFOAM: The Open Source CFD Toolbox
   \\    /   O peration     | Website:  https://openfoam.org
    \\  /    A nd           | Version:  12
     \\/     M anipulation  |
\*---------------------------------------------------------------------------*/
/*   Windows 32 and 64 bit porting by blueCAPE: http://www.bluecape.com.pt   *\
|  Based on Windows porting (2.0.x v4) by Symscape: http://www.symscape.com   |
\*---------------------------------------------------------------------------*/
FoamFile
{
    format      ascii;
    class       volScalarField;
    location    "500";
    object      p;
}
// * * * * * * * * * * * * * * * * * * * * * * * * * * * * * * * * * * * * * //

dimensions      [0 2 -2 0 0 0 0];

internalField   nonuniform List<scalar> 
10123
(
83333.3312838017
83333.3312766793
83333.3312837237
83333.3312837125
83333.3312695998
83333.3312766203
83333.3312765803
83333.3312837057
83333.3312836439
83333.3312835243
83333.3312625874
83333.3312695896
83333.3312694903
83333.3312766147
83333.3312765312
83333.3312763931
83333.3312842939
83333.3312836329
83333.3312834562
83333.3312832092
83333.3312555725
83333.3312625779
83333.3312624904
83333.3312695844
83333.3312694902
83333.3312693017
83333.3312770802
83333.3312765347
83333.3312763456
83333.3312760909
83333.3312856883
83333.3312842103
83333.3312834498
83333.3312831431
83333.33128275
83333.3312485994
83333.331255574
83333.3312554869
83333.3312625804
83333.3312624847
83333.3312623116
83333.3312699413
83333.3312694966
83333.3312693085
83333.3312690045
83333.3312781659
83333.331276998
83333.3312763549
83333.3312760441
83333.3312756519
83333.3312878044
83333.3312855844
83333.3312840287
83333.3312831457
83333.3312826887
83333.3312821415
83333.3312416871
83333.331248622
83333.3312485217
83333.3312555981
83333.3312554897
83333.3312553185
83333.3312628297
83333.3312624915
83333.3312623112
83333.3312620269
83333.3312707388
83333.3312698566
83333.3312693223
83333.331269016
83333.3312685787
83333.3312797925
83333.3312780697
83333.3312768171
83333.3312760609
83333.3312756079
83333.3312750696
83333.3312905271
83333.3312876797
83333.3312853824
83333.331283705
83333.3312826925
83333.3312820886
83333.3312813951
83333.3312348504
83333.3312417329
83333.3312416154
83333.3312486778
83333.3312485429
83333.3312483634
83333.3312557688
83333.3312555116
83333.3312553239
83333.3312550475
83333.3312633711
83333.3312627448
83333.331262323
83333.3312620306
83333.3312616185
83333.3312719196
83333.3312706467
83333.3312696777
83333.3312690381
83333.3312685941
83333.331268018
83333.3312818584
83333.3312796786
83333.3312778687
83333.3312765051
83333.3312756239
83333.3312750308
83333.3312743525
83333.3312937464
83333.3312903748
83333.3312874117
83333.3312849918
83333.331283209
83333.3312820851
83333.3312813518
83333.3312805313
83333.3312281032
83333.3312349171
83333.3312347834
83333.3312418192
83333.331241658
83333.331241466
83333.3312487799
83333.331248591
83333.3312483841
83333.3312481053
83333.3312560906
83333.3312556805
83333.3312553469
83333.3312550547
83333.3312546565
83333.3312641527
83333.3312632803
83333.3312625668
83333.3312620476
83333.3312616251
83333.3312610799
83333.3312733944
83333.3312718126
83333.3312704461
83333.3312693746
83333.3312686155
83333.3312680372
83333.3312673286
83333.3312842674
83333.3312817197
83333.3312794218
83333.3312774974
83333.3312760292
83333.3312750387
83333.3312743214
83333.3312735196
83333.331297331
83333.3312935425
83333.3312900116
83333.3312869096
83333.3312843896
83333.3312825352
83333.3312813358
83333.3312804956
83333.331279574
83333.3312214556
83333.3312281872
83333.3312280405
83333.3312350285
83333.3312348461
83333.3312346413
83333.3312418608
83333.3312417328
83333.3312415062
83333.33124122
83333.3312489084
83333.331248685
83333.3312484272
83333.3312481258
83333.3312477309
83333.3312565246
83333.3312559975
83333.3312555022
83333.3312550785
83333.3312546648
83333.3312541389
83333.3312650993
83333.3312640496
83333.3312630801
83333.3312622709
83333.331261639
83333.3312610893
83333.3312604173
83333.3312750733
83333.3312732629
83333.3312715645
83333.3312700899
83333.3312689158
83333.3312680495
83333.3312673526
83333.331266526
83333.3312869006
83333.331284081
83333.3312813819
83333.3312789515
83333.3312769274
83333.3312753838
83333.331274316
83333.3312734954
83333.3312725921
83333.331301158
83333.331297067
83333.3312930683
83333.3312893557
83333.3312861409
83333.3312835715
83333.3312816986
83333.3312804616
83333.3312795413
83333.3312785469
83333.3312149172
83333.3312215538
83333.3312213964
83333.3312283175
83333.3312281197
83333.3312279048
83333.3312350206
83333.3312349426
83333.3312347005
83333.3312344063
83333.3312418214
83333.3312417619
83333.3312415704
83333.3312412582
83333.3312408616
83333.3312490286
83333.3312488065
83333.331248507
83333.3312481644
83333.33124775
83333.3312472333
83333.3312569987
83333.3312564151
83333.3312557955
83333.3312552114
83333.3312546823
83333.331254148
83333.3312535003
83333.3312661229
83333.3312649693
83333.3312638064
83333.3312627347
83333.3312618269
83333.3312610915
83333.3312604287
83333.3312596444
83333.3312768549
83333.3312749011
83333.3312729465
83333.3312711206
83333.3312695472
83333.3312682948
83333.33126735
83333.3312665551
83333.3312656284
83333.3312896536
83333.3312866642
83333.33128365
83333.3312807778
83333.3312782347
83333.3312761538
83333.3312745823
83333.3312734719
83333.3312725721
83333.331271592
83333.3313051119
83333.3313008347
83333.3312964712
83333.3312922285
83333.331288366
83333.3312851043
83333.3312825559
83333.3312807193
83333.3312794815
83333.3312785104
83333.3312774727
83333.3312084966
83333.3312150271
83333.3312148612
83333.3312216969
83333.3312214896
83333.3312212665
83333.3312282686
83333.3312282326
83333.3312279806
83333.3312276797
83333.3312348358
83333.3312349209
83333.331234784
83333.3312344621
83333.3312340629
83333.3312416683
83333.3312417162
83333.331241586
83333.3312413116
83333.3312408959
83333.3312403838
83333.3312490848
83333.3312489137
83333.3312486047
83333.3312482211
83333.3312477791
83333.3312472505
83333.3312466178
83333.3312574436
83333.3312568669
83333.3312561756
83333.3312554586
83333.33125478
83333.3312541516
83333.3312535097
83333.3312527538
83333.3312671445
83333.3312659607
83333.3312646688
83333.3312633835
83333.3312622147
83333.3312612277
83333.3312604132
83333.3312596568
83333.3312587777
83333.3312786502
83333.3312766418
83333.3312745059
83333.3312723866
83333.3312704481
83333.3312688117
83333.3312675233
83333.3312665322
83333.3312656613
83333.3312646566
83333.3312924239
83333.3312893682
83333.3312861301
83333.3312828868
83333.3312798671
83333.3312772675
83333.3312751921
83333.3312736426
83333.3312725232
83333.3312715707
83333.3312705411
83333.3313090739
83333.3313047303
83333.3313001093
83333.3312954232
83333.3312909712
83333.3312870417
83333.3312838221
83333.3312813668
83333.3312796173
83333.3312784161
83333.331277425
83333.3312763763
83333.3312022014
83333.3312086162
83333.3312084434
83333.3312151794
83333.3312149655
83333.3312147367
83333.3312216147
83333.3312216143
83333.3312213569
83333.3312210505
83333.3312279617
83333.3312281683
83333.3312280788
83333.3312277512
83333.3312273503
83333.3312344493
83333.331234725
83333.3312347456
83333.3312345307
83333.3312341132
83333.3312336043
83333.33124136
83333.3312415492
83333.3312415135
83333.3312413058
83333.3312409371
83333.3312404132
83333.3312397913
83333.3312490213
83333.3312489533
83333.3312486788
83333.3312482762
83333.331247801
83333.331247264
83333.3312466326
83333.3312458961
83333.3312577961
83333.3312572867
83333.3312565783
83333.3312557701
83333.3312549577
83333.3312542
83333.3312534935
83333.3312527617
83333.3312519157
83333.3312680885
83333.3312669495
83333.3312655932
83333.3312641454
83333.3312627486
83333.3312615123
83333.3312604827
83333.331259618
83333.3312587892
83333.3312578357
83333.331280369
83333.331278397
83333.3312761595
83333.3312738087
83333.3312715444
83333.3312695409
83333.3312678966
83333.3312666173
83333.331265611
83333.3312646883
83333.3312636315
83333.3312951048
83333.3312920903
83333.331288724
83333.3312851868
83333.3312817422
83333.3312786462
83333.3312760686
83333.3312740636
83333.3312725828
83333.331271488
83333.3312705124
83333.3312694629
83333.3313129175
83333.3313086337
83333.3313038682
83333.3312988316
83333.3312938575
83333.3312892966
83333.331285411
83333.3312823245
83333.3312800297
83333.3312784148
83333.3312772875
83333.3312763085
83333.3312752843
83333.3311960387
83333.3312023284
83333.3312021505
83333.3312087768
83333.3312085567
83333.331208324
83333.3312150689
83333.3312150989
83333.3312148388
83333.3312145293
83333.331221206
83333.3312215149
83333.3312214658
83333.3312211364
83333.3312207341
83333.3312273763
83333.3312278494
83333.3312279958
83333.3312278319
83333.3312274146
83333.3312269097
83333.3312338277
83333.3312343294
83333.3312345266
83333.3312344694
83333.3312341658
83333.331233647
83333.3312330343
83333.331240854
83333.3312412297
83333.3312413196
83333.3312411928
83333.3312408956
83333.331240437
83333.3312398156
83333.3312390949
83333.3312487883
83333.3312488711
83333.3312486764
83333.3312482896
83333.331247793
83333.3312472388
83333.331246625
83333.3312459077
83333.3312450834
83333.3312579934
83333.3312576131
83333.3312569413
83333.3312560854
83333.3312551675
83333.3312542842
83333.331253479
83333.3312527199
83333.331251918
83333.3312510013
83333.3312688766
83333.3312678609
83333.3312665084
83333.3312649513
83333.331263362
83333.3312618939
83333.3312606381
83333.3312596062
83333.3312587205
83333.331257843
83333.3312568387
83333.3312819158
83333.3312800763
83333.3312778218
83333.3312753072
83333.3312727626
83333.3312704138
83333.3312684148
83333.3312668207
83333.3312655935
83333.3312646029
83333.3312636565
83333.3312625745
83333.3312975822
83333.3312947229
83333.3312913303
83333.3312875827
83333.3312837735
83333.3312802136
83333.3312771388
83333.3312746646
83333.3312727912
83333.3312714225
83333.3312703873
83333.3312694196
83333.3312683821
83333.3313165082
83333.3313124188
83333.3313076287
83333.3313023419
83333.3312969214
83333.3312917768
83333.3312872425
83333.3312835138
83333.3312806456
83333.3312785727
83333.3312771374
83333.3312761202
83333.331275188
83333.3312742262
83333.331190015
83333.331196171
83333.3311959896
83333.3312024958
83333.3312022709
83333.3312020357
83333.3312086406
83333.3312086972
83333.3312084347
83333.3312081247
83333.3312145752
83333.33121497
83333.3312149561
83333.3312146267
83333.3312142249
83333.3312204528
83333.3312210934
83333.3312213461
83333.331221228
83333.3312208116
83333.3312203099
83333.3312264875
83333.3312272565
83333.3312276537
83333.3312277257
83333.3312274776
83333.3312269646
83333.3312263608
83333.331232941
83333.3312336992
83333.3312341037
83333.3312342145
83333.3312340714
83333.331233681
83333.3312330695
83333.3312323631
83333.3312401131
83333.3312407106
83333.3312409641
83333.3312409456
83333.3312407258
83333.3312403503
83333.3312398175
83333.3312391136
83333.331238308
83333.3312483346
83333.3312486178
83333.3312485469
83333.3312482113
83333.3312477158
83333.3312471458
83333.3312465404
83333.3312458731
83333.3312450886
83333.3312441949
83333.3312579686
83333.3312577835
83333.3312572056
83333.3312563461
83333.3312553523
83333.3312543583
83333.3312534464
83333.3312526295
83333.3312518445
83333.331250996
83333.3312500289
83333.3312694249
83333.3312686165
83333.3312673411
83333.331265733
83333.3312639904
83333.3312623106
83333.3312608318
83333.3312596086
83333.3312586135
83333.3312577366
83333.3312568358
83333.3312558058
83333.3312831873
83333.3312815838
83333.3312794035
83333.3312767994
83333.3312740278
83333.3312713625
83333.3312690149
83333.3312670929
83333.3312656044
83333.3312644692
83333.3312635268
83333.331262587
83333.3312615089
83333.3312997345
83333.3312971522
83333.3312938423
83333.3312899755
83333.3312858706
83333.3312818899
83333.3312783335
83333.3312753802
83333.3312730858
83333.3312713998
83333.3312701845
83333.3312692435
83333.3312683158
83333.331267327
83333.3313197024
83333.3313159523
83333.3313112655
83333.331305837
83333.3313000553
83333.3312943853
83333.3312892322
83333.3312848624
83333.3312813963
83333.3312788236
83333.3312770272
83333.3312758121
83333.3312749414
83333.3312740944
83333.3312732408
83333.3311841349
83333.3311901518
83333.331189967
83333.3311963425
83333.3311961153
83333.3311958785
83333.3312023364
83333.3312024177
83333.331202153
83333.3312018433
83333.3312080762
83333.3312085422
83333.3312085592
83333.3312082301
83333.331207831
83333.3312136814
83333.3312144626
83333.3312148055
83333.331214728
83333.3312143132
83333.331213816
83333.3312193383
83333.3312203339
83333.3312209011
83333.3312210838
83333.3312208854
83333.3312203773
83333.3312197812
83333.3312252771
83333.3312263621
83333.3312270355
83333.33122735
83333.3312273394
83333.3312270078
83333.3312264064
83333.3312257134
83333.3312317641
83333.3312328039
83333.331233444
83333.3312337438
83333.3312337636
83333.331233543
83333.3312330803
83333.3312323901
83333.3312316031
83333.3312390974
83333.3312399545
83333.3312404058
83333.3312405242
83333.3312403982
83333.331240103
83333.3312396738
83333.3312390876
83333.3312383191
83333.3312374456
83333.3312476046
83333.3312481424
83333.3312482415
83333.3312479934
83333.3312475233
83333.3312469476
83333.3312463413
83333.3312457167
83333.3312450203
83333.3312441896
83333.3312432472
83333.3312576489
83333.3312577315
83333.3312573094
83333.3312564954
83333.3312554587
83333.3312543701
83333.3312533529
83333.3312524584
83333.3312516653
83333.3312508832
83333.3312500111
83333.3312490175
83333.3312696421
83333.3312691324
83333.3312680142
83333.3312664199
83333.33126457
83333.3312627034
83333.3312610078
83333.3312595828
83333.3312584419
83333.3312575211
83333.3312566832
83333.3312557874
83333.3312547599
83333.3312840716
83333.3312828167
83333.3312808097
83333.3312781985
83333.3312752617
83333.3312723183
83333.3312696361
83333.3312673787
83333.3312656021
83333.33126427
83333.331263265
83333.3312624041
83333.3312615009
83333.331260463
83333.3313014336
83333.3312992579
83333.3312961475
83333.3312922608
83333.3312879383
83333.3312835906
83333.3312795798
83333.3312761485
83333.331273411
83333.3312713662
83333.3312699175
83333.3312688938
83333.3312680805
83333.3312672289
83333.3312663342
83333.3313223549
83333.3313190928
83333.3313146472
83333.3313091941
83333.331303146
83333.3312970204
83333.3312912907
83333.3312862946
83333.3312822186
83333.3312791112
83333.331276902
83333.3312754281
83333.3312744699
83333.331273781
83333.3312730628
83333.3312723748
83333.3311784001
83333.3311842753
83333.3311840876
83333.331190326
83333.3311900987
83333.3311898596
83333.3311961632
83333.3311962665
83333.3311960026
83333.331195693
83333.3312017107
83333.331202239
83333.3312022839
83333.3312019566
83333.3312015602
83333.331207065
83333.3312079622
83333.3312083821
83333.331208339
83333.3312079296
83333.3312074368
83333.3312123779
83333.3312135634
83333.3312142746
83333.3312145513
83333.3312143976
83333.3312138948
83333.3312133061
83333.3312178552
83333.3312192164
83333.331220118
83333.3312206063
83333.3312207096
83333.3312204303
83333.3312198372
83333.3312191565
83333.3312237299
83333.331225146
83333.3312261164
83333.3312266891
83333.3312269147
83333.3312268277
83333.3312264257
83333.3312257486
83333.3312249789
83333.331230268
83333.3312316162
83333.3312325167
83333.331233027
83333.3312332209
83333.3312331639
83333.3312328876
83333.3312323718
83333.3312316196
83333.3312307675
83333.3312377612
83333.3312389215
83333.3312396065
83333.3312398899
83333.3312398765
83333.3312396671
83333.3312393293
83333.3312388753
83333.3312382583
83333.3312374442
83333.3312365221
83333.331246536
83333.3312473897
83333.3312477101
83333.3312475893
83333.3312471709
83333.3312466023
83333.331245993
83333.3312453914
83333.3312447799
83333.3312440806
83333.3312432275
83333.3312422582
83333.3312569546
83333.3312573845
83333.3312571874
83333.3312564741
83333.331255433
83333.3312542705
83333.3312531522
83333.3312521687
83333.3312513363
83333.3312506019
83333.3312498513
83333.3312489816
83333.3312479882
83333.3312694294
83333.3312693177
83333.3312684446
83333.331266937
83333.3312650343
83333.331263014
83333.3312611134
83333.3312594805
83333.3312581704
83333.331257158
83333.3312563469
83333.3312555797
83333.3312547193
83333.3312537289
83333.3312844476
83333.3312836639
83333.331281939
83333.331279412
83333.3312763813
83333.3312732084
83333.3312702161
83333.3312676244
83333.331265541
83333.3312639727
83333.3312628426
83333.3312620038
83333.3312612561
83333.3312604255
83333.3312594719
83333.3313025442
83333.3313009138
83333.3312981272
83333.3312943285
83333.3312898762
83333.3312852262
83333.3312808007
83333.3312769054
83333.3312737141
83333.3312712784
83333.3312695445
83333.3312683758
83333.3312675775
83333.3312669251
83333.3312661929
83333.3312654513
83333.3313242817
83333.3313216989
83333.3313176346
83333.3313122837
83333.3313060743
83333.3312995746
83333.3312933239
83333.3312877296
83333.3312830463
83333.3312793827
83333.3312767188
83333.3312749301
83333.3312738178
83333.331273147
83333.3312726755
83333.3312721422
83333.3312716756
83333.3311728225
83333.3311785395
83333.331178354
83333.3311844532
83333.3311842243
83333.3311839833
83333.3311901301
83333.3311902524
83333.3311899905
83333.3311896806
83333.3311954851
83333.3311960672
83333.3311961372
83333.3311958141
83333.3311954202
83333.3312006019
83333.3312015987
83333.3312020832
83333.3312020706
83333.3312016673
83333.3312011804
83333.3312056042
83333.3312069469
83333.3312077794
83333.3312081354
83333.3312080202
83333.3312075252
83333.3312069449
83333.3312106674
83333.3312122596
83333.3312133535
83333.3312139887
83333.3312141896
83333.3312139573
83333.3312133725
83333.3312127031
83333.331215997
83333.3312177297
83333.3312189797
83333.3312197845
83333.3312201863
83333.3312202144
83333.3312198651
83333.3312192003
83333.3312184466
83333.3312218275
83333.3312235917
83333.3312248747
83333.3312257203
83333.331226189
83333.3312263372
83333.3312261929
83333.3312257379
83333.3312250015
83333.3312241694
83333.3312284167
83333.3312301065
83333.3312312936
83333.3312320345
83333.3312324158
83333.3312325238
83333.3312324192
83333.3312321133
83333.3312315657
83333.3312307701
83333.3312298696
83333.3312360531
83333.3312375666
83333.3312385266
83333.3312390061
83333.3312391251
83333.3312390103
83333.3312387586
83333.3312384151
83333.3312379656
83333.3312373417
83333.3312365049
83333.3312355558
83333.3312450606
83333.3312462981
83333.3312468981
83333.3312469509
83333.3312466156
83333.33124607
83333.3312454597
83333.3312448672
83333.3312443103
83333.3312437441
83333.3312430697
83333.3312422185
83333.3312412477
83333.3312557992
83333.3312566633
83333.3312567679
83333.3312562188
83333.3312552201
83333.3312540114
83333.331252801
83333.3312517217
83333.3312508264
83333.331250098
83333.3312494556
83333.3312487661
83333.3312479292
83333.3312469678
83333.3312686802
83333.3312690742
83333.3312685427
83333.3312672036
83333.3312653118
83333.3312631811
83333.3312610968
83333.3312592564
83333.3312577604
83333.3312566215
83333.3312557794
83333.3312551119
83333.3312544466
83333.3312536569
83333.3312527476
83333.3312841828
83333.3312840058
83333.3312826817
83333.3312803406
83333.3312772978
83333.3312739552
83333.3312706892
83333.331267776
83333.3312653763
83333.3312635438
83333.3312622391
83333.3312613507
83333.3312607099
83333.3312601086
83333.3312593938
83333.3312585833
83333.3313029097
83333.331301986
83333.3312996579
83333.3312960628
83333.3312915781
83333.3312867018
83333.3312819138
83333.3312775817
83333.3312739396
83333.3312710937
83333.3312690361
83333.331267665
83333.3312668117
83333.3312662681
83333.3312658118
83333.3312652534
83333.3312647277
83333.3313477517
83333.3313252604
83333.3313235857
83333.3313200899
83333.331314969
83333.331308714
83333.331301934
83333.3312952312
83333.3312890818
83333.331283808
83333.3312795817
83333.3312764364
83333.3312742883
83333.3312729658
83333.3312722459
83333.3312718913
83333.3312716795
83333.3312713928
83333.3312711738
83333.3311673975
83333.3311729592
83333.3311727824
83333.3311787172
83333.3311784914
83333.331178253
83333.3311842437
83333.3311843808
83333.3311841195
83333.33118381
83333.3311894088
83333.3311900348
83333.3311901273
83333.3311898083
83333.3311894173
83333.3311942971
83333.3311953775
83333.3311959156
83333.3311959305
83333.331195534
83333.3311950541
83333.3311990153
83333.331200488
83333.3312014205
83333.3312018434
83333.3312017618
83333.3312012772
83333.3312007061
83333.3312037065
83333.3312054895
83333.3312067435
83333.3312075022
83333.3312077854
83333.3312075944
83333.3312070211
83333.3312063629
83333.3312085514
83333.3312105477
83333.3312120318
83333.3312130322
83333.3312135836
83333.3312137106
83333.3312134087
83333.3312127559
83333.3312120172
83333.331213755
83333.3312158674
83333.3312174731
83333.331218603
83333.331219306
83333.3312196301
83333.3312195995
83333.3312191972
83333.3312184766
83333.3312176631
83333.3312195432
83333.3312216789
83333.3312232918
83333.3312244229
83333.3312251425
83333.3312255236
83333.33122562
83333.331225442
83333.3312249544
83333.3312241769
83333.3312232984
83333.3312261685
83333.3312282399
83333.3312297449
83333.3312307392
83333.3312313213
83333.3312315991
83333.3312316575
83333.3312315383
83333.33123123
83333.3312306734
83333.3312298548
83333.3312289257
83333.3312339157
83333.3312358393
83333.331237122
83333.3312378348
83333.3312381107
83333.3312381017
83333.3312379352
83333.3312376858
83333.3312373727
83333.3312369572
83333.3312363523
83333.3312355172
83333.3312345654
83333.3312431042
83333.3312448002
83333.3312457454
83333.3312460255
83333.3312458124
83333.3312453122
83333.331244707
83333.3312441156
83333.3312435882
83333.3312431143
83333.3312426244
83333.3312420034
83333.3312411829
83333.3312402405
83333.3312540897
83333.331255482
83333.331255973
83333.33125566
83333.3312547596
83333.3312535421
83333.3312522573
83333.3312510812
83333.3312501065
83333.3312493497
83333.3312487637
83333.3312482451
83333.3312476472
83333.3312468768
83333.3312459908
83333.331267278
83333.3312682955
83333.3312682114
83333.3312671321
83333.3312653252
83333.3312631383
83333.331260903
83333.3312588661
83333.3312571752
83333.3312558845
83333.3312549667
83333.3312543316
83333.3312538383
83333.3312533079
83333.331252632
83333.3312518605
83333.3312831422
83333.3312837125
83333.3312829199
83333.3312808773
83333.3312779155
83333.331274475
83333.3312709844
83333.3312677753
83333.3312650624
83333.3312629485
83333.331261435
83333.3312604412
83333.331259827
83333.331259413
83333.3312589955
83333.331258451
83333.3312578473
83333.3313022882
83333.331302312
83333.3313006078
83333.3312973424
83333.3312929315
83333.3312879161
83333.3312828307
83333.3312781031
83333.3312740274
83333.3312707664
83333.3312683608
83333.3312667463
83333.33126578
83333.3312652709
83333.3312650103
83333.3312647925
83333.3312644691
83333.3312641985
83333.3313506444
83333.3313469042
83333.3313250436
83333.3313245303
83333.3313218281
83333.3313171151
83333.3313109314
83333.3313039771
83333.3312969055
83333.3312902588
83333.3312844268
83333.3312796464
83333.331276008
83333.3312734729
83333.3312719004
83333.3312710805
83333.33127078
83333.3312707791
83333.3312708732
83333.3312708618
83333.3312708657
83333.3311675295
83333.3311673638
83333.3311731307
83333.3311729167
83333.3311726881
83333.3311784962
83333.3311786469
83333.3311783903
83333.3311780858
83333.3311834878
83333.3311841483
83333.3311842586
83333.3311839427
83333.3311835557
83333.3311881572
83333.331189305
83333.3311898873
83333.3311899263
83333.3311895369
83333.331189064
83333.3311926112
83333.3311941891
83333.3311952033
83333.3311956823
83333.3311956308
83333.331195157
83333.3311945965
83333.3311969662
83333.3311989041
83333.3312002903
83333.3312011514
83333.3312015042
83333.3312013499
83333.3312007901
83333.3312001444
83333.3312013801
83333.3312035927
83333.3312052703
83333.331206434
83333.3312071111
83333.3312073225
83333.3312070639
83333.331206425
83333.3312057004
83333.3312060293
83333.3312084297
83333.3312103043
83333.3312116729
83333.3312125739
83333.3312130478
83333.3312131153
83333.3312127603
83333.331212055
83333.3312112592
83333.3312111111
83333.3312136179
83333.3312155879
83333.3312170486
83333.3312180556
83333.33121867
83333.3312189389
83333.3312188714
83333.3312184364
83333.3312176766
83333.3312168182
83333.3312168443
83333.3312193821
83333.3312213469
83333.3312227783
83333.3312237561
83333.3312243708
83333.3312246963
83333.3312247707
83333.3312245845
83333.3312240862
83333.3312232865
83333.331222379
83333.3312234764
83333.3312259757
83333.3312278365
83333.3312291127
83333.3312299132
83333.331230367
83333.3312305848
83333.3312306335
83333.3312305324
83333.3312302493
83333.3312297075
83333.3312288888
83333.3312279562
83333.3312312866
83333.331233683
83333.3312353431
83333.3312363338
83333.3312367981
83333.3312369118
83333.3312368334
83333.3312366685
83333.3312364648
83333.3312362165
83333.3312358642
83333.3312353053
83333.3312344996
83333.3312335745
83333.331240587
83333.3312428223
83333.3312441855
83333.3312447547
83333.3312447119
83333.3312442885
83333.3312437023
83333.3312431092
83333.3312425944
83333.3312421772
83333.3312418211
83333.3312414379
83333.3312409005
83333.3312401428
83333.3312392708
83333.3312517261
83333.3312537485
83333.3312547182
83333.3312547219
83333.3312539855
83333.3312528073
83333.3312514766
83333.3312502124
83333.3312491489
83333.3312483392
83333.3312477659
83333.3312473564
83333.3312469911
83333.3312465174
83333.3312458549
83333.3312451022
83333.3312651013
83333.3312668666
83333.3312673458
83333.3312666277
83333.3312649904
83333.3312628129
83333.3312604716
83333.3312582618
83333.3312563787
83333.3312549202
83333.3312538957
83333.331253242
83333.3312528446
83333.3312525538
83333.3312521957
83333.3312516906
83333.3312511181
83333.3312811531
83333.3312826477
83333.3312825262
83333.3312809065
83333.3312781311
83333.331274677
83333.3312710239
83333.3312675583
83333.3312645493
83333.33126215
83333.3312604062
83333.3312592707
83333.3312586265
83333.3312583143
83333.3312581568
83333.3312579696
83333.3312576554
83333.3312573017
83333.3313005142
83333.3313016667
83333.331300811
83333.3312980382
83333.3312938187
83333.3312887615
83333.3312834564
83333.3312783883
83333.331273911
83333.3312702449
83333.3312674819
83333.3312655992
83333.3312644824
83333.3312639545
83333.3312638169
83333.3312638765
83333.3312639442
83333.3312638922
83333.3312638789
83333.331352347
83333.3313497539
83333.3313448217
83333.3313234788
83333.3313242983
83333.3313226292
83333.3313185383
83333.3313125942
83333.3313055742
83333.3312982314
83333.3312911607
83333.3312848187
83333.3312795083
83333.3312753806
83333.3312724462
83333.3312705997
83333.3312696509
83333.331269367
83333.3312695223
83333.3312699223
83333.3312703162
83333.3312705798
83333.3312706855
83333.3311676802
83333.3311674927
83333.3311672776
83333.3311728992
83333.3311730649
83333.3311728215
83333.3311725291
83333.3311777138
83333.3311784031
83333.3311785274
83333.3311782201
83333.3311778407
83333.3311821858
83333.3311833852
83333.3311840034
83333.331184063
83333.3311836808
83333.3311832149
83333.3311863914
83333.331188054
83333.3311891339
83333.3311896602
83333.3311896354
83333.3311891719
83333.3311886226
83333.3311904415
83333.3311925028
83333.3311939963
83333.3311949416
83333.3311953534
83333.3311952316
83333.3311946858
83333.3311940541
83333.331194471
83333.3311968577
83333.3311986934
83333.3311999916
83333.3312007735
83333.3312010566
83333.3312008368
83333.3312002133
83333.3311995039
83333.3311986306
83333.3312012656
83333.3312033613
83333.3312049278
83333.3312059945
83333.3312065949
83333.3312067469
83333.3312064356
83333.3312057453
83333.331204967
83333.331203091
83333.3312059024
83333.3312081685
83333.3312099046
83333.3312111535
83333.3312119655
83333.3312123817
83333.3312124099
83333.3312120212
83333.3312112788
83333.3312104402
83333.3312080408
83333.3312109639
83333.331213312
83333.3312151111
83333.3312164237
83333.3312173251
83333.3312178791
83333.3312181197
83333.3312180393
83333.3312175919
83333.3312168106
83333.331215925
83333.3312136933
83333.3312166698
83333.3312190152
83333.3312207674
83333.3312220141
83333.3312228638
83333.3312234117
83333.3312237173
83333.3312237994
83333.331223631
83333.3312231445
83333.3312223441
83333.331221431
83333.331220289
83333.3312232678
83333.331225529
83333.3312271226
83333.3312281656
83333.3312288068
83333.3312291832
83333.3312293881
83333.3312294657
83333.3312294144
83333.3312291838
83333.3312286819
83333.3312278907
83333.3312269834
83333.3312280986
83333.331231036
83333.3312331348
83333.3312344552
83333.3312351478
83333.3312354097
83333.3312354292
83333.3312353442
83333.331235232
83333.3312351141
83333.3312349628
83333.3312347018
83333.3312342196
83333.3312334743
83333.3312326166
83333.3312374239
83333.3312402853
83333.331242146
83333.3312430741
83333.3312432584
83333.3312429535
83333.3312424103
83333.331241822
83333.3312413097
83333.331240925
83333.3312406584
83333.331240452
83333.3312402043
83333.3312397824
83333.3312391278
83333.3312383846
83333.3312486037
83333.3312513635
83333.3312529123
83333.3312533219
83333.3312528249
83333.3312517448
83333.3312504087
83333.3312490773
83333.3312479266
83333.3312470485
83333.3312464582
83333.3312461077
83333.3312459038
83333.3312457195
83333.3312454062
83333.3312449097
83333.3312443536
83333.3312620127
83333.3312646661
83333.331265832
83333.3312655874
83333.3312642158
83333.3312621254
83333.3312597355
83333.3312573896
83333.3312553304
83333.3312537008
83333.3312525497
83333.3312518445
83333.3312514907
83333.3312513578
83333.3312512995
83333.3312511623
83333.3312508974
83333.3312505639
83333.3312780747
83333.3312806396
83333.3312813646
83333.3312803041
83333.3312778323
83333.3312744624
83333.3312707229
83333.3312670543
83333.3312637804
83333.3312611065