/*--------------------------------*- C++ -*----------------------------------*\
  =========                 |
  \\      /  F ield         | OpenFOAM: The Open Source CFD Toolbox
   \\    /   O peration     | Website:  https://openfoam.org
    \\  /    A nd           | Version:  12
     \\/     M anipulation  |
\*---------------------------------------------------------------------------*/
/*   Windows 32 and 64 bit porting by blueCAPE: http://www.bluecape.com.pt   *\
|  Based on Windows porting (2.0.x v4) by Symscape: http://www.symscape.com   |
\*---------------------------------------------------------------------------*/
FoamFile
{
    format      ascii;
    class       surfaceScalarField;
    location    "500";
    object      phi;
}
// * * * * * * * * * * * * * * * * * * * * * * * * * * * * * * * * * * * * * //

dimensions      [0 3 -1 0 0 0 0];

internalField   nonuniform List<scalar> 
28900
(
4.85120989115257e-06
-1.60596003217402e-07
1.18394822304373e-07
4.8672085376357e-06
-1.35426847499274e-07
1.19425875705308e-07
1.42429502344063e-06
-2.05307397230754e-07
3.10734115253087e-08
5.65882748679486e-06
-1.90578763393021e-07
2.55952487536741e-07
4.85849148942966e-06
-1.12338110401158e-07
1.21040344500583e-07
1.42351506539635e-06
-1.67385460983508e-07
3.27327266124243e-08
5.68962860793581e-06
-1.61481120943488e-07
2.50078011769636e-07
8.86614292454983e-07
-2.52281222349167e-07
2.37577308676236e-08
1.87735565682158e-06
-2.46364510279465e-07
8.6390954018592e-08
6.23958812539201e-06
-2.19526890858073e-07
4.14517547855584e-07
4.82475560970205e-06
-8.09729896465679e-08
1.14692454323718e-07
1.40663909488087e-06
-1.29566958993234e-07
3.40973093863582e-08
5.6970322020221e-06
-1.32686429968611e-07
2.4631115917179e-07
8.94911572215148e-07
-1.99837578202915e-07
2.41529547569902e-08
1.86358422323248e-06
-2.00220343465012e-07
8.52335553422925e-08
6.27818676923776e-06
-1.8691674217122e-07
3.98393366796572e-07
8.36108625670567e-07
-2.95173086040299e-07
2.85548281526614e-08
1.11153718545677e-06
-3.02601438344566e-07
6.03457044109999e-08
2.13744268986172e-06
-2.86627829759599e-07
1.54749941979116e-07
6.87410056494322e-06
-2.43597317576645e-07
5.82325552667859e-07
4.7692045728912e-06
-5.08753952595145e-08
1.06410938999284e-07
1.38140367385766e-06
-8.86857692027542e-08
3.29408324326624e-08
5.67169531278525e-06
-9.61983550383644e-08
2.36197919499855e-07
8.89341246200944e-07
-1.48186182860055e-07
2.41871961216154e-08
1.83559350243876e-06
-1.53805942180575e-07
8.32037432038997e-08
6.29206686717614e-06
-1.53627806625362e-07
3.86039783068256e-07
8.37491966360136e-07
-2.28987982841705e-07
2.77660227819191e-08
1.11540693624707e-06
-2.39461760778566e-07
5.95214934281836e-08
2.1208706945393e-06
-2.33493847214598e-07
1.48369523717264e-07
6.92289300022469e-06
-2.07408066494361e-07
5.56989553296303e-07
8.6812980442757e-07
-3.35035285755389e-07
3.64094080771146e-08
1.00511304664947e-06
-3.54624862041535e-07
6.81701004462905e-08
1.27205727560269e-06
-3.55389409280863e-07
1.07659320677619e-07
2.39169031045613e-06
-3.17545293401736e-07
2.3082373956343e-07
7.32487089725892e-06
-2.53298286319021e-07
7.4344288971077e-07
4.69405819656858e-06
-2.36622157098266e-08
9.87954823058077e-08
1.349693941773e-06
-4.98938023172172e-08
3.07237784601225e-08
5.61595216742319e-06
-6.1134426481921e-08
2.23268888827058e-07
8.74684710637022e-07
-9.73537275167631e-08
2.33224021329925e-08
1.79938586475009e-06
-1.05891883240714e-07
7.88321840200462e-08
6.26996753268536e-06
-1.11530234837563e-07
3.69811507468023e-07
8.27531076387833e-07
-1.65037690453141e-07
2.68111457528175e-08
1.10572261165087e-06
-1.7771091078649e-07
5.77732830658339e-08
2.08891874486407e-06
-1.7928609674145e-07
1.40793069184649e-07
6.94332117358026e-06
-1.69757282724343e-07
5.35342589813326e-07
8.60220581888831e-07
-2.55231636779966e-07
3.4152389247671e-08
1.00347421033474e-06
-2.75227849456281e-07
6.5168586258769e-08
1.27574578497815e-06
-2.81562714934494e-07
1.03897632257765e-07
2.3732026094453e-06
-2.58911144138782e-07
2.1835080733896e-07
7.38668454190472e-06
-2.15842263552796e-07
7.10983858140113e-07
9.22342786666257e-07
-3.72186839259593e-07
4.52565899004067e-08
1.01324149590101e-06
-4.01119261434132e-07
8.18708964507476e-08
1.14405275461361e-06
-4.16394459571016e-07
1.15094186531726e-07
1.39932001836167e-06
-3.93453075643153e-07
1.59906640779352e-07
2.56083025786279e-06
-3.25876504824727e-07
3.05445101226369e-07
7.52521390074638e-06
-2.50012753585087e-07
8.84959893930604e-07
4.60219120593994e-06
-2.70710725015017e-10
9.21320241887601e-08
1.3116196972092e-06
-1.41604316740481e-08
2.8568957676902e-08
5.53463601029263e-06
-2.94731226246469e-08
2.0958823167477e-07
8.5272116903245e-07
-4.99171225485767e-08
2.19843061971703e-08
1.75629217212973e-06
-6.06040710304152e-08
7.32777939807584e-08
6.21301891624034e-06
-7.10576668780354e-08
3.51265645014051e-07
8.08959053005256e-07
-1.04196775273291e-07
2.54142030034544e-08
1.08634724740998e-06
-1.17892710687509e-07
5.46950231713177e-08
2.0478465965548e-06
-1.23421684850435e-07
1.31782575791156e-07
6.92444158784544e-06
-1.23758720351751e-07
5.12421794723132e-07
8.42587240244826e-07
-1.79186138609698e-07
3.17814149941382e-08
9.90032263520822e-07
-1.99010608705106e-07
6.15520242993005e-08
1.26468899792889e-06
-2.09190015734643e-07
9.87293158218236e-08
2.33782520166661e-06
-1.98198222784601e-07
2.04598661809035e-07
7.41688175305853e-06
-1.76821509113106e-07
6.81943996301605e-07
9.03945543967075e-07
-2.78338767453355e-07
4.15037492280122e-08
1.00198621027832e-06
-3.06092174763511e-07
7.62693730862478e-08
1.14213163607125e-06
-3.23595326876025e-07
1.09119485194607e-07
1.40358343387927e-06
-3.11756823055975e-07
1.52476780367557e-07
2.54170533518787e-06
-2.6598024924015e-07
2.8759746396711e-07
7.60099687060444e-06
-2.14122262783421e-07
8.49310156402013e-07
9.88084301536232e-07
-4.06545756448973e-07
5.50332165090851e-08
1.05929163466e-06
-4.42475470531801e-07
9.79002646840759e-08
1.14388863308736e-06
-4.68988655248874e-07
1.32872682664367e-07
1.24079953622056e-06
-4.59342046259208e-07
1.6458294317168e-07
1.4476789918807e-06
-4.01014150855379e-07
2.08571943153437e-07
2.64846559842736e-06
-3.15502656308374e-07
3.71991732160372e-07
7.53660375935026e-06
-2.3863709599903e-07
1.00159669274644e-06
4.49704612505453e-06
1.90440817243828e-08
8.60974755264052e-08
1.26759695655833e-06
1.73084945789694e-08
2.64361438164133e-08
5.4327700316286e-06
-2.508442248909e-09
1.9650138374617e-07
8.24741632351325e-07
-6.79051610354466e-09
2.06087361837292e-08
1.70629369660143e-06
-1.86957454363346e-08
6.77857652527873e-08
6.12647527281211e-06
-3.56472947004466e-08
3.31748348268867e-07
7.83525514271301e-07
-4.80610425200582e-08
2.35777306390885e-08
1.05886463777246e-06
-6.21405536205898e-08
5.10003046707878e-08
1.99919816688675e-06
-7.10107230692626e-08
1.21874262706568e-07
6.86652645559835e-06
-7.88211527479281e-08
4.87977867984244e-07
8.17308767523002e-07
-1.08165608653108e-07
2.92470010845532e-08
9.67348517249626e-07
-1.27062396716578e-07
5.72675550778717e-08
1.24294962654746e-06
-1.39306623660357e-07
9.23137973068085e-08
2.29194932561293e-06
-1.3628752572565e-07
1.90178500372364e-07
7.404517872329e-06
-1.28765765609781e-07
6.53532269987896e-07
8.77086437269594e-07
-1.90122880427188e-07
3.77954595964171e-08
9.80412047187321e-07
-2.16004429647893e-07
7.03480374637867e-08
1.12698178793155e-06
-2.34517394546409e-07
1.02027571805733e-07
1.39204938380858e-06
-2.31379900556918e-07
1.4344104631531e-07
2.50446293342272e-06
-2.03250210154104e-07
2.68258101498905e-07
7.64281873124848e-06
-1.7588305711729e-07
8.1598813034626e-07
9.57974297198584e-07
-2.97912978762862e-07
4.96841852229255e-08
1.03683154509094e-06
-3.31761554623505e-07
8.96322777754873e-08
1.13134852807272e-06
-3.58423425652124e-07
1.23635745746203e-07
1.23973555766614e-06
-3.56926858296922e-07
1.55350344582593e-07
1.45354881784262e-06
-3.17355886465943e-07
1.97976916326558e-07
2.62962435343718e-06
-2.57615296177909e-07
3.49916035417202e-07
7.62589168492334e-06
-2.05214208394225e-07
9.65217209089749e-07
1.06615509141431e-06
-4.3715662977225e-07
6.55446409042387e-08
1.1276090303262e-06
-4.79202446327181e-07
1.16716827962835e-07
1.19064137859204e-06
-5.14820942369332e-07
1.55905768869464e-07
1.23052129707687e-06
-5.14834363524957e-07
1.85284880834201e-07
1.25994391374338e-06
-4.65833794486812e-07
2.10151873273415e-07
1.43577618316917e-06
-3.84864998430868e-07
2.48502485394856e-07
2.68737928486711e-06
-2.95148343224207e-07
4.28046987316164e-07
7.44825613470609e-06
-2.22688438804677e-07
1.09013160029459e-06
4.38154997367614e-06
3.49208065929707e-08
8.05685239923231e-08
1.21838554453444e-06
4.40256045408987e-08
2.4226554341259e-08
5.31485803783835e-06
1.93245323768804e-08
1.84667491723027e-07
7.91579899075179e-07
3.12966824667425e-08
1.91726303035383e-08
1.64999037711161e-06
1.80426420212862e-08
6.21801710143591e-08
6.01620260564947e-06
-5.40161753241452e-09
3.12152125462046e-07
7.52671073626514e-07
2.49377512348001e-09
2.15697804491456e-08
1.02477438678631e-06
-1.13338355427568e-08
4.73339062469975e-08
1.94284348123382e-06
-2.35348340561493e-08
1.12009961678411e-07
6.77499777516203e-06
-3.91789360462412e-08
4.62440469398909e-07
7.85951852326956e-07
-4.34248370779343e-08
2.67202760476994e-08
9.37087135283487e-07
-6.09019028854628e-08
5.25993473322855e-08
1.21208083524213e-06
-7.43380292696739e-08
8.51946441865142e-08
2.23796038131868e-06
-7.83032388333851e-08
1.7533315438142e-07
7.3498405655705e-06
-8.11181833459715e-08
6.23782537452728e-07
8.43653461483682e-07
-1.08897131648875e-07
3.41642998191063e-08
9.50638135861861e-07
-1.32241500990846e-07
6.41993485592118e-08
1.10135678581373e-06
-1.5054290830002e-07
9.41272557471245e-08
1.36882088379989e-06
-1.53791526558921e-07
1.33043947692734e-07
2.45594471513908e-06
-1.38779959451047e-07
2.4869315867982e-07
7.64029831384266e-06
-1.27124159464805e-07
7.83156052349477e-07
9.20586643293254e-07
-1.97209315886201e-07
4.44735532852641e-08
1.00534628159247e-06
-2.28049033699819e-07
8.13250649165698e-08
1.10714006095447e-06
-2.53642586549279e-07
1.13679883788193e-07
1.22419925849154e-06
-2.5846393320556e-07
1.44645352995264e-07
1.44290519983472e-06
-2.34661381120041e-07
1.85494701399134e-07
2.59192569443235e-06
-1.96382520149043e-07
3.26434148777718e-07
7.68098852783199e-06
-1.70014619021158e-07
9.30905870048882e-07
1.02274885209778e-06
-3.12828422920902e-07
5.8321377210014e-08
1.09242979857652e-06
-3.52286150259255e-07
1.05387033516792e-07
1.16573412863444e-06
-3.86758470109532e-07
1.4287345125803e-07
1.21825667983459e-06
-3.93418889645687e-07
1.72391210181864e-07
1.2610397833001e-06
-3.61264163338449e-07
1.98161505356744e-07
1.44421943106258e-06
-3.03922587469916e-07
2.35839202148701e-07
2.66980968754623e-06
-2.40875533744628e-07
4.03132139458282e-07
7.55058842476097e-06
-1.92748275088194e-07
1.055628698953e-06
1.15922184885764e-06
-4.62782086412049e-07
7.7459913188999e-08
1.21437081992099e-06
-5.11640510685022e-07
1.38674609446298e-07
1.26766887990214e-06
-5.55413906517109e-07
1.84587728092812e-07
1.27746190849303e-06
-5.62694795335058e-07
2.15194959745903e-07
1.24122934355073e-06
-5.20216611926465e-07
2.33785702238299e-07
1.22478415851863e-06
-4.44836699941868e-07
2.4771804319987e-07
1.39586546739012e-06
-3.57147145743323e-07
2.78462222478171e-07
2.7077635680442e-06
-2.70241832188025e-07
4.73316256837008e-07
7.31740959820281e-06
-2.03440547531318e-07
1.14895343254339e-06
4.25828047749416e-06
4.7652092032723e-08
7.56168803753574e-08
1.1649560901974e-06
6.63388930677751e-08
2.20080096896061e-08
5.18440166643246e-06
3.73841521048419e-08
1.73616472931883e-07
7.53904156671856e-07
6.40683281050885e-08
1.76319639747696e-08
1.5882149583735e-06
4.89157910207156e-08
5.64008197655971e-08
5.88727925736717e-06
2.00163358078751e-08
2.93563412922244e-07
7.17324839139598e-07
4.70161785489178e-08
1.96258469589183e-08
9.84969114745541e-07
3.3569006187921e-08
4.34500456816576e-08
1.87926625344442e-06
1.83913409727958e-08
1.01961489612791e-07
6.65637778780922e-06
-5.50149532372963e-09
4.36252395601341e-07
7.500324467149e-07
1.44915499826447e-08
2.39210493168016e-08
9.00786862326622e-07
-1.27031494725967e-09
4.78062570071472e-08
1.17338759451435e-06
-1.5298407459361e-08
7.77866936311249e-08
2.17579703799585e-06
-2.54426822767207e-08
1.60440003423963e-07
7.25820652918285e-06
-3.88920582775375e-08
5.92952126017906e-07
8.05332661162728e-07
-3.55513674349595e-08
3.0446915084198e-08
9.14380058556291e-07
-5.59567453095462e-08
5.80317645423824e-08
1.06708565102937e-06
-7.3301152907552e-08
8.58330711942812e-08
1.33552594098304e-06
-8.1639192714385e-08
1.21822671207529e-07
2.39911468411499e-06
-7.81185453467081e-08
2.29159613995915e-07
7.59330705360663e-06
-7.91722724250564e-08
7.49933724802234e-07
8.77963230668392e-07
-1.05659563905202e-07
3.93852873868682e-08
9.66901521206583e-07
-1.32783202945879e-07
7.31498518154242e-08
1.07363071278883e-06
-1.56254674659478e-07
1.03418635068063e-07
1.19712418347677e-06
-1.65550981896392e-07
1.32959526062999e-07
1.42007371908482e-06
-1.54497008689934e-07
1.71588681170456e-07
2.5430492500853e-06
-1.32560965482729e-07
3.02994891394681e-07
7.69003731899772e-06
-1.21969107724626e-07
8.96040550586594e-07
9.73386877631756e-07
-1.99382204407734e-07
5.15347555880409e-08
1.04946570437983e-06
-2.34972569252818e-07
9.43608582885143e-08
1.13059091100768e-06
-2.66782860418753e-07
1.29607697785721e-07
1.19316636021801e-06
-2.78177702618292e-07
1.58481911409036e-07
1.2470324649904e-06
-2.60392895780034e-07
1.84384473419024e-07
1.4356188687867e-06
-2.2336491870591e-07
2.21073357583891e-07
2.63255251458234e-06
-1.83016088784708e-07
3.76671004722603e-07
7.61889406645093e-06
-1.6057768143875e-07
1.02315697165563e-06
1.10018962132348e-06
-3.21984815096776e-07
6.81883082455682e-08
1.16443725849357e-06
-3.67702089430354e-07
1.23670198909092e-07
1.22868186067518e-06
-4.09351978546236e-07
1.66966782204839e-07
1.2521255282904e-06
-4.22739582007817e-07
1.97529586770123e-07
1.23119826989561e-06
-3.96639539053143e-07
2.17795798700484e-07
1.22890308012266e-06
-3.43776141999056e-07
2.33893678028464e-07
1.40723999479343e-06
-2.81195424551979e-07
2.64781643941428e-07
2.69186106171065e-06
-2.20549012780386e-07
4.46825111904277e-07
7.43232291790977e-06
-1.77584331643685e-07
1.11826552182663e-06
1.26876189750434e-06
-4.81602173491446e-07
9.13009651646651e-08
1.31920838949294e-06
-5.38981013681434e-07
1.64282725828269e-07
1.36809679994739e-06
-5.91242240817493e-07
2.19227746909965e-07
1.36157682462703e-06
-6.04982599137973e-07
2.54258911405133e-07
1.28798946842524e-06
-5.66933863570607e-07
2.70532875833794e-07
1.19963349553527e-06
-4.95189771168535e-07
2.74614528718407e-07
1.16675752802131e-06
-4.11011462325114e-07
2.75811582304438e-07
1.34776877042171e-06
-3.25023565651721e-07
2.98668006540678e-07
2.7286599702209e-06
-2.43381693285151e-07
5.08825586531108e-07
7.17238261021868e-06
-1.82455055436523e-07
1.17774906702079e-06
4.12935324247367e-06
5.77879666256225e-08
7.11302743979469e-08
1.10823139293517e-06
8.4489969679812e-08
1.98825566627837e-08
5.04454931067998e-06
5.19960504253136e-08
1.63455956283321e-07
7.12552481721515e-07
9.16985255440371e-08
1.59911087425014e-08
1.52206696970892e-06
7.48192064935578e-08
5.07150737528269e-08
5.74394982950549e-06
4.10623800330438e-08
2.75867373639494e-07
6.78350937133112e-07
8.54362053662056e-08
1.76058309453008e-08
9.40180131849113e-07
7.20909362149234e-08
3.92440276022831e-08
1.80932218510754e-06
5.45063722471035e-08
9.18425362622168e-08
6.51640795020222e-06
2.2490198415621e-08
4.11037903653857e-07
7.10554288251689e-07
6.52548138592029e-08
2.12394681918899e-08
8.59457431660121e-07
5.15578978487488e-08
4.29653987826272e-08
1.12796821126645e-06
3.69456191862636e-08
7.03110634640388e-08
2.10570880519365e-06
2.11257970983044e-08
1.45416897814159e-07
7.13652009690664e-06
-3.09395197908288e-09
5.61015773411132e-07
7.63455113787548e-07
2.94446405543492e-08
2.69244021825547e-08
8.72970219010154e-07
1.21363990061438e-08
5.19229567402526e-08
1.02583416946605e-06
-3.67628236847074e-09
7.7433954318285e-08
1.29364641402005e-06
-1.60197336554958e-08
1.10239608357733e-07
2.33373108196097e-06
-2.26921141025273e-08
2.0960579901393e-07
7.50696050598979e-06
-3.61233844490074e-08
7.15414136221799e-07
8.31694272226569e-07
-2.39871805714117e-08
3.47043300173034e-08
9.23126524372989e-07
-4.69764231222336e-08
6.52407272445578e-08
1.03270374897246e-06
-6.75368861784973e-08
9.319343652334e-08
1.16048520845682e-06
-7.99648903558069e-08
1.20795046035837e-07
1.38672905707749e-06
-7.97112197257456e-08
1.56758287749405e-07
2.48566207260874e-06
-7.21885954530295e-08
2.79553317685287e-07
7.6535228806985e-06
-7.43940227269806e-08
8.60818203638774e-07
9.20212465433924e-07
-9.77246062896649e-08
4.52393607133306e-08
1.00081022963247e-06
-1.28574244786267e-07
8.38315238007949e-08
1.08750180933238e-06
-1.56562201093199e-07
1.16545347183234e-07
1.15779966709036e-06
-1.7092050116172e-07
1.441547660142e-07
1.22093220419256e-06
-1.64886134170764e-07
1.69445657867508e-07
1.4146654530772e-06
-1.44747444835455e-07
2.04724356740289e-07
2.58447397104401e-06
-1.21784678243371e-07
3.50872223148276e-07
7.64047070840564e-06
-1.1456957101673e-07
9.89039104594684e-07
1.03684724844243e-06
-1.95683772482732e-07
5.96435969048453e-08
1.1080973885308e-06
-2.36567040439974e-07
1.09467795800306e-07
1.18079168561629e-06
-2.74221651520948e-07
1.49689515382289e-07
1.21547806590546e-06
-2.91383680412035e-07
1.79459521378231e-07
1.2077440070647e-06
-2.78964195528783e-07
2.00507121068053e-07
1.21777124360372e-06
-2.45820535735844e-07
2.17971170828876e-07
1.40156162148017e-06
-2.05019341425788e-07
2.48750190654132e-07
2.6558901853665e-06
-1.66782754567926e-07
4.1883784810821e-07
7.5145212054995e-06
-1.48457714727341e-07
1.08938760890821e-06
1.19101025269441e-06
-3.23732740616335e-07
7.94993101159595e-08
1.25184429337731e-06
-3.77009226636724e-07
1.44859072290715e-07
1.3127000768421e-06
-4.26221900662621e-07
1.95936150062807e-07
1.32132156592551e-06
-4.45996979310173e-07
2.30477820406541e-07
1.2649048487559e-06
-4.24885302042753e-07
2.48859189696964e-07
1.19317338880553e-06
-3.75952080020238e-07
2.56430902144901e-07
1.17438314517862e-06
-3.16089323019182e-07
2.61160489664476e-07
1.3619301327156e-06
-2.54935199800628e-07
2.84996161414299e-07
2.71465570325418e-06
-1.98800145925903e-07
4.82040248243797e-07
7.29948831671811e-06
-1.61617281278463e-07
1.1527497159602e-06
1.39474749439138e-06
-4.90741205225757e-07
1.07122092545749e-07
1.44250218495512e-06
-5.59159602537707e-07
1.93920935586554e-07
1.48927827134149e-06
-6.21406043916931e-07
2.60032202496969e-07
1.47241597354542e-06
-6.42094764911176e-07
3.02146498294318e-07
1.3755519174235e-06
-6.0777437523218e-07
3.19591792664114e-07
1.24494981520318e-06
-5.38071724057855e-07
3.17819423566404e-07
1.13602654660023e-06
-4.55923281255445e-07
3.05895954828856e-07
1.10202270233543e-06
-3.72759921085888e-07
2.94216905933806e-07
1.2989234012551e-06
-2.91746974392142e-07
3.09792551116351e-07
2.76266663211571e-06
-2.16264654047207e-07
5.3568835339001e-07
7.02370589773372e-06
-1.60651536023486e-07
1.17666767787173e-06
3.99652703970967e-06
6.58501076691319e-08
6.6962714070203e-08
1.04899648797699e-06
9.90014209473241e-08
1.80164898428153e-08
4.8979460563802e-06
6.35655381334769e-08
1.5414837221471e-07
6.68290089437536e-07
1.14438030147473e-07
1.43141428111168e-08
1.45252480608844e-06
9.60084631919865e-08
4.54131397640733e-08
5.58986664760283e-06
5.78643374813777e-08
2.59663893865633e-07
6.36521458426037e-07
1.17855265983026e-07
1.56719884917474e-08
8.91373523190815e-07
1.04619085920511e-07
3.49952215442405e-08
1.73439460961812e-06
8.4785839422713e-08
8.19098051118341e-08
6.35981432294902e-06
4.58520332198046e-08
3.86586328889553e-07
6.68317370047718e-07
1.0886103435665e-07
1.88117683811145e-08
8.14273582670123e-07
9.65531391302901e-08
3.83273475723225e-08
1.07692757231654e-06
8.20597806376049e-08
6.2731934112526e-08
2.02850674404877e-06
6.08896679571542e-08
1.30647897806393e-07
6.99094874587496e-06
2.67096924982346e-08
5.29870574112523e-07
7.19048219228512e-07
8.59919777673795e-08
2.36692692549737e-08
8.27831059007899e-07
7.18097585730401e-08
4.6125988637902e-08
9.7889333450419e-07
5.77741830698397e-08
6.90777406095239e-08
1.24411776471725e-06
4.2445222318932e-08
9.85185947376039e-08
2.26003792091912e-06
2.60860283983187e-08
1.89936239649495e-07
7.38825464624185e-06
5.84875556035706e-10
6.79113668774753e-07
7.83092716637467e-07
4.76363231879045e-08
3.04096936543636e-08
8.75473855487399e-07
2.89628550471381e-08
5.77493250752253e-08
9.85977316494318e-07
1.17498354809633e-08
8.32229893569937e-08
1.11605425071551e-06
-2.71698286197566e-09
1.08560877082696e-07
1.34432083852814e-06
-1.15303034774829e-08
1.41483479812616e-07
2.41957548260249e-06
-1.67736379828573e-08
2.56330432309299e-07
7.57616248166855e-06
-3.20593708139863e-08
8.24813127898592e-07
8.64873282973524e-07
-8.16324561920016e-09
3.95149628494835e-08
9.48246335538966e-07
-3.37257047258988e-08
7.40165354179256e-08
1.03836654526722e-06
-5.71478473509222e-08
1.03985839867193e-07
1.11421322777825e-06
-7.3050648565262e-08
1.29865226240876e-07
1.18477132021736e-06
-7.66481836378133e-08
1.5389067428477e-07
1.38310027511424e-06
-7.10630506900171e-08
1.87197550570693e-07
2.52809909933508e-06
-6.32748024176716e-08
3.24800627908932e-07
7.61579948497484e-06
-6.80183878623196e-08
9.5348246985099e-07
9.71472476085188e-07
-8.42106490692523e-08
5.18605736332011e-08
1.04765228368304e-06
-1.19168577893876e-07
9.62781519779505e-08
1.12638825223973e-06
-1.51533035390401e-07
1.33204935703154e-07
1.16998732267923e-06
-1.70496631868321e-07
1.61612576406171e-07
1.17345551390149e-06
-1.69094001424312e-07
1.82649940828105e-07
1.19438934543115e-06
-1.52604456923062e-07
2.00682973446432e-07
1.38343827815654e-06
-1.30028861124426e-07
2.31091792950951e-07
2.60914806355807e-06
-1.08987721448225e-07
3.9202414660623e-07
7.55010726622174e-06
-1.0563412251156e-07
1.0590605535201e-06
1.11118486560009e-06
-1.8468269149137e-07
6.88240841754899e-08
1.17985058052245e-06
-2.31801961829201e-07
1.26871236797802e-07
1.24987461333675e-06
-2.75670037778992e-07
1.73741162595129e-07
1.27112927651869e-06
-2.98563381481278e-07
2.07060555917e-07
1.2299066028518e-06
-2.91099854166473e-07
2.26591525932461e-07
1.17311636367758e-06
-2.61895036509192e-07
2.36637833263367e-07
1.16679325748995e-06
-2.23540864413791e-07
2.4407960997886e-07
1.35910674565084e-06
-1.83947035058776e-07
2.68734390567463e-07
2.68053967476794e-06
-1.49475677148653e-07
4.53956101615299e-07
7.39552693322248e-06
-1.36410282254808e-07
1.12973174034936e-06
1.29445906275663e-06
-3.15707039125521e-07
9.22625398431973e-08
1.35424632552461e-06
-3.7836583231112e-07
1.69111373659109e-07
1.41442712621089e-06
-4.36284630625987e-07
2.29772363905162e-07
1.41475318538484e-06
-4.63055905759422e-07
2.7065740503066e-07
1.33757914771702e-06
-4.46835585930327e-07
2.90399519650173e-07
1.22598318823643e-06
-4.01260827442957e-07
2.93133082656214e-07
1.13383134967116e-06
-3.44013105027196e-07
2.86547869649618e-07
1.11343925963745e-06
-2.84885583971354e-07
2.79693993835198e-07
1.3159788886256e-06
-2.27902844768791e-07
2.97036736707771e-07
2.75065609609428e-06
-1.77333381199073e-07
5.09754169880943e-07
7.16302813763311e-06
-1.45534110337264e-07
1.15895008012537e-06
1.53584494138919e-06
-4.86285077893342e-07
1.24871189755125e-07
1.58389009892075e-06
-5.68995009084547e-07
2.27668543954952e-07
1.63059945659109e-06
-6.43657244453627e-07
3.07193272371989e-07
1.60530765134421e-06
-6.728876443753e-07
3.58593552288898e-07
1.4904857066065e-06
-6.42842220798424e-07
3.79938166252979e-07
1.33187740157145e-06
-5.74707972885392e-07
3.75741461888088e-07
1.17858752129084e-06
-4.93392284670341e-07
3.5475224681444e-07
1.0654477238919e-06
-4.11909723958481e-07
3.27001856910104e-07
1.03533813293574e-06
-3.33892941679609e-07
3.03175225037543e-07
1.25273535501649e-06
-2.59364519346975e-07
3.1272369385758e-07
2.81938120960013e-06
-1.90129643617948e-07
5.55214510065208e-07
6.87308444628331e-06
-1.39055998204088e-07
1.14645094758897e-06
3.86137357085836e-06
7.1904460385917e-08
6.32385022394494e-08
9.88128780452436e-07
1.10432727701036e-07
1.62789925404315e-08
4.74678408157532e-06
7.26871485503472e-08
1.45433880936727e-07
6.21873718333798e-07
1.32689153228258e-07
1.27276797186723e-08
1.38043851160182e-06
1.12870568705081e-07
4.07851405566561e-08
5.42800887463025e-06
7.12271951183254e-08
2.44773708980629e-07
5.92567113208475e-07
1.44582429592513e-07
1.38091031269673e-08
8.39406788520952e-07
1.31430576269266e-07
3.08547955499963e-08
1.65569742302889e-06
1.09406392594596e-07
7.25649029286335e-08
6.19051131019326e-06
6.51740759271088e-08
3.63768275277678e-07
6.24110833222272e-07
1.45570952162633e-07
1.64908537689518e-08
7.65962629015076e-07
1.34809741761253e-07
3.37912014698555e-08
1.02130171712159e-06
1.20161989185144e-07
5.52420640567984e-08
1.94554892179533e-06
9.45431075237959e-08
1.1616994519442e-07
6.82656800173522e-06
5.16211826510347e-08
4.99346849374564e-07
6.72931949743776e-07
1.3428734480279e-07
2.06897067985183e-08
7.79633478981151e-07
1.2301316824265e-07
4.0548303996859e-08
9.27427096558466e-07
1.10707623614239e-07
6.11436791831885e-08
1.18836889764696e-06
9.23024882607548e-08
8.70664627146275e-08
2.17875366794645e-06
6.79240519654243e-08
1.70717732975862e-07
7.24366192008613e-06
3.12142840746911e-08
6.43229558605009e-07
7.33160660612265e-07
1.09409415162256e-07
2.65144036356971e-08
8.25143523333856e-07
9.50126154025878e-08
5.07953461311817e-08
9.34891786243078e-07
8.12677332078171e-08
7.37166385060841e-08
1.06548271776096e-06
6.55015683281327e-08
9.65905092828198e-08
1.29392052688528e-06
4.88882806739019e-08
1.26112792823308e-07
2.34511315980055e-06
3.19636375168808e-08
2.33023407000791e-07
7.46454199184396e-06
4.7883109234044e-09
7.85916696496056e-07
8.08642673027728e-07
6.95172307334172e-08
3.43494981392663e-08
8.93197813033782e-07
4.94358424519029e-08
6.49848872006034e-08
9.8480864114341e-07
3.09356291502708e-08
9.21213285329214e-08
1.06420551590539e-06
1.45600605763397e-08
1.15952907163693e-07
1.14040109811768e-06
3.18538309826642e-09
1.38212953374618e-07
1.34233250376286e-06
-3.63157298865016e-09
1.69104936746577e-07
2.46288915886892e-06
-9.36877110034736e-09
2.988433839825e-07
7.54980098894112e-06
-2.64784429907733e-08
9.17289470948535e-07
9.05712376507744e-07
1.26926727338567e-08
4.4904175443533e-08
9.8492087600544e-07
-1.57318318331867e-08
8.42518547101049e-08
1.06746506345134e-06
-4.2007013122394e-08
1.17798557197545e-07
1.1177465058709e-06
-6.12324112763391e-08
1.44407892619382e-07
1.13044745113409e-06
-6.8540041365996e-08
1.64765099610459e-07
1.16075178152584e-06
-6.6116302383034e-08
1.82579573723895e-07
1.35462195126267e-06
-5.92663245962421e-08
2.12000609581443e-07
2.55428386199602e-06
-5.30192024208853e-08
3.64648539097984e-07
7.53867788382088e-06
-6.15984969809699e-08
1.02647908783787e-06
1.03161947061748e-06
-6.39194280710588e-08
5.92740384102133e-08
1.10569634599534e-06
-1.03655223676835e-07
1.1050047926636e-07
1.18222469172172e-06
-1.40690933688402e-07
1.5308557240402e-07
1.21358921096593e-06
-1.64398700569714e-07
1.84646377179015e-07
1.18548919454435e-06
-1.67567744135419e-07
2.04502345875019e-07
1.14199408258696e-06
-1.54918812816001e-07
2.16086204578396e-07
1.14694522408014e-06
-1.34916897822307e-07
2.25414963810887e-07
1.3439176023878e-06
-1.13401587763161e-07
2.50691931645383e-07
2.63553583420758e-06
-9.54908629452138e-08
4.26862016628231e-07
7.44583579220507e-06
-9.5568722982826e-08
1.10427853598126e-06
1.19521042489601e-06
-1.64491582911508e-07
7.90571839730725e-08
1.26379177531135e-06
-2.19102637368684e-07
1.4657866788715e-07
1.33403827565796e-06
-2.70005414044039e-07
2.01594824712283e-07
1.34864510024207e-06
-2.99248178855241e-07
2.40533440906829e-07
1.28901736446393e-06
-2.97010633868483e-07
2.61532728124146e-07
1.19486954770971e-06
-2.71802731632674e-07
2.67611584487353e-07
1.11804342824909e-06
-2.36375920154135e-07
2.65259550272835e-07
1.1097356728534e-06
-1.98605887850961e-07
2.6244078833802e-07
1.31613399584036e-06
-1.62420217947221e-07
2.81520413359159e-07
2.71815051993231e-06
-1.32829301459055e-07
4.8286853384623e-07
7.27379567781853e-06
-1.24869520034062e-07
1.14381478308931e-06
1.40865776539184e-06
-2.9489673971899e-07
1.06376567401043e-07
1.47054534368632e-06
-3.69133304563596e-07
1.96374067658264e-07
1.53245814564584e-06
-4.37480069730871e-07
2.68448210664517e-07
1.52703810878111e-06
-4.72606801391421e-07
3.17592352448078e-07
1.43519615982655e-06
-4.62088930681486e-07
3.41200435123561e-07
1.29870436585714e-06
-4.20054087916375e-07
3.42364468525911e-07
1.16468014122715e-06
-3.65212639576216e-07
3.28238757665808e-07
1.06789556039261e-06
-3.08314050360544e-07
3.07526053778914e-07
1.05074557529235e-06
-2.53319359436769e-07
2.89701086658927e-07
1.27269644456783e-06
-2.01919124130033e-07
3.01658663734614e-07
2.80949612081655e-06
-1.57124303219497e-07
5.31224413760463e-07
7.02371817695393e-06
-1.29217074381019e-07
1.13752266946037e-06
1.68948633341594e-06
-4.63450366140076e-07
1.44340511803136e-07
1.74193744310202e-06
-5.64192076711383e-07
2.65383116962464e-07
1.7913910262244e-06
-6.54496323163127e-07
3.60720353023896e-07
1.75894116707201e-06
-6.94912490008661e-07
4.23622494357653e-07
1.62682602385259e-06
-6.70844019313989e-07
4.50895750310025e-07
1.44523167478999e-06
-6.04906581947721e-07
4.46843788952136e-07
1.26227742371749e-06
-5.24214068267087e-07
4.20069853864067e-07
1.10439244380963e-06
-4.43491016440944e-07
3.8046343360725e-07
9.92149356772536e-07
-3.67571559090508e-07
3.37972459211961e-07
9.68157442465233e-07
-2.96852930021593e-07
3.03177097582883e-07
1.21215895162635e-06
-2.2952898756865e-07
3.08633627207063e-07
2.90696677595133e-06
-1.65622747829783e-07
5.68385343721893e-07
6.71300681159765e-06
-1.16429323656675e-07
1.0888872925587e-06
3.72520415689501e-06
7.6061504954783e-08
6.00913641185097e-08
9.26414848463348e-07
1.18926349279083e-07
1.46904520587676e-08
4.59294841359764e-06
7.95525672500523e-08
1.3749264481888e-07
5.74126866914164e-07