/*--------------------------------*- C++ -*----------------------------------*\
  =========                 |
  \\      /  F ield         | OpenFOAM: The Open Source CFD Toolbox
   \\    /   O peration     | Website:  https://openfoam.org
    \\  /    A nd           | Version:  12
     \\/     M anipulation  |
\*---------------------------------------------------------------------------*/
/*   Windows 32 and 64 bit porting by blueCAPE: http://www.bluecape.com.pt   *\
|  Based on Windows porting (2.0.x v4) by Symscape: http://www.symscape.com   |
\*---------------------------------------------------------------------------*/
FoamFile
{
    format      ascii;
    class       volVectorField;
    location    "500";
    object      U;
}
// * * * * * * * * * * * * * * * * * * * * * * * * * * * * * * * * * * * * * //

dimensions      [0 1 -1 0 0 0 0];

internalField   nonuniform List<vector> 
10123
(
(3.2421878454637e-06 -0.000485049717232905 -3.36415138278826e-05)
(5.95285951865425e-06 -0.000517378292307575 -3.03601309433333e-05)
(2.86525730677781e-06 -0.00030342200322522 -7.76091569647674e-05)
(1.12172697722767e-05 -0.00040868517179361 -3.0508427762123e-05)
(7.859395783461e-06 -0.000535619272386908 -2.94060687641029e-05)
(3.77113642436034e-06 -0.000328019658693236 -6.56406132303829e-05)
(1.59286867135671e-05 -0.000438658213793572 -2.79990518727734e-05)
(3.85328465040925e-06 -0.000333618437172933 -0.000110761456405081)
(9.6198353231259e-06 -0.000253726430071412 -7.78027289377438e-05)
(2.17724137831375e-05 -0.000364722439976137 -3.0893764151196e-05)
(6.2491545865965e-06 -0.000545427891213361 -2.02166003338555e-05)
(4.10082434071039e-06 -0.000336600944664008 -5.35438326184782e-05)
(1.88901403112718e-05 -0.000460676868012372 -2.78141772035143e-05)
(4.06810518785235e-06 -0.000349210356680274 -8.93433294234824e-05)
(1.13811295760088e-05 -0.000274551041304898 -6.54708171171969e-05)
(2.43368808102987e-05 -0.00039399462751976 -2.80882006755218e-05)
(4.96008346179663e-06 -0.00037925244962661 -0.000140666768562015)
(1.21675984614883e-05 -0.000302893586150587 -0.000111024418505112)
(1.87621364565743e-05 -0.000214435421484751 -7.83809949237898e-05)
(3.25574604441361e-05 -0.000340253928909078 -3.20538284778723e-05)
(4.46104488090784e-06 -0.000555710019309197 -1.07151832947132e-05)
(3.56779126632081e-06 -0.000339436311708577 -3.67300231803715e-05)
(1.58557397452486e-05 -0.000474185261112227 -1.88880736364166e-05)
(3.99350060240527e-06 -0.000353893792751451 -6.73172437075268e-05)
(1.1739669924084e-05 -0.000282610518690017 -5.25494132871998e-05)
(2.5918365680765e-05 -0.000416848042157396 -2.79197079393056e-05)
(4.83565668839496e-06 -0.000386855994142188 -0.000110261562194856)
(1.25730943445662e-05 -0.000316961715403945 -8.93780362664794e-05)
(1.9734008160729e-05 -0.000234387487307307 -6.60514820423536e-05)
(3.31760137467328e-05 -0.000368887009530164 -2.8775166863901e-05)
(6.19221241318565e-06 -0.000425552685306147 -0.000167618426460351)
(1.53232322711858e-05 -0.000359486060901884 -0.000141249139783665)
(2.26028798468127e-05 -0.000272749950034997 -0.000111778213221944)
(2.79165777420839e-05 -0.000188287659360431 -7.81090079846229e-05)
(4.15158015087641e-05 -0.000314837825777098 -3.18032149803945e-05)
(3.00981031127638e-06 -0.00055648111153591 -2.79015185512645e-06)
(2.86367566596132e-06 -0.000338818713537483 -2.01297823596817e-05)
(1.19991153650852e-05 -0.000488723034947545 -9.4066426799429e-06)
(3.64748360911713e-06 -0.000352680334356254 -4.43811463505486e-05)
(1.02757304533523e-05 -0.000286501472609706 -3.57428079494452e-05)
(2.30970969796494e-05 -0.000431169911691243 -1.90324196358904e-05)
(4.54693544846426e-06 -0.000386618810795673 -8.01682611354349e-05)
(1.21965452732696e-05 -0.000321823922467101 -6.70512720836874e-05)
(1.91370917089939e-05 -0.00024270689718902 -5.27737125102142e-05)
(3.31271805393031e-05 -0.000392669424601211 -2.79942814621693e-05)
(5.83576559263988e-06 -0.000426497748633069 -0.000128779246226175)
(1.4963123874161e-05 -0.00036637332044449 -0.000110642035617531)
(2.24595219043412e-05 -0.000286464081718477 -9.01283492488002e-05)
(2.78035821043416e-05 -0.000207993998259373 -6.58716650116895e-05)
(4.08389913247336e-05 -0.000343201167274959 -2.85640660778369e-05)
(7.64228889642738e-06 -0.000474356853390744 -0.000191844864413321)
(1.90504162534453e-05 -0.000410440158904042 -0.000168190599293863)
(2.782145311967e-05 -0.000335975594089815 -0.000142021599801478)
(3.33217113957442e-05 -0.000245977400090363 -0.000111063236241458)
(3.57086281653043e-05 -0.000163596257330721 -7.61460441755956e-05)
(4.70079748794742e-05 -0.000284777373787393 -2.99706413041283e-05)
(1.94749894591007e-06 -0.000548955534159712 3.72840460234544e-06)
(2.20765422613838e-06 -0.000332761780371269 -4.32498168493895e-06)
(8.68799184663248e-06 -0.000492800383425059 -1.80345582193985e-06)
(3.20004839162152e-06 -0.000346901074006591 -2.24896535857584e-05)
(8.28258035339927e-06 -0.000287387912504536 -1.9175734984894e-05)
(1.90153039902938e-05 -0.000447664590340454 -9.29259827485239e-06)
(4.14239362232718e-06 -0.000381086772317814 -5.07219749510543e-05)
(1.11324441686979e-05 -0.000321584693094319 -4.41482646029933e-05)
(1.68631751907372e-05 -0.000247504631646686 -3.52901713291321e-05)
(3.01582803042756e-05 -0.00040727896380032 -1.96567632242503e-05)
(5.36556043913695e-06 -0.000421056029058891 -9.10248854367803e-05)
(1.40948422194107e-05 -0.000366262730511139 -8.03832358780919e-05)
(2.13116847903158e-05 -0.000291738568822733 -6.76985187099017e-05)
(2.61390967905006e-05 -0.000216552896626643 -5.22248836556821e-05)
(3.97638668002425e-05 -0.00036840268812044 -2.79365173036541e-05)
(7.06394501148047e-06 -0.000468800322351165 -0.000144709954987921)
(1.80344938896904e-05 -0.000411017081653921 -0.000129276261558101)
(2.68005926000359e-05 -0.000342858558044868 -0.000111457883430748)
(3.24787527888211e-05 -0.000259838381136701 -8.97636765272822e-05)
(3.4832382554184e-05 -0.000183428075734804 -6.46184064660086e-05)
(4.60672251126439e-05 -0.000314532804178703 -2.81863044800715e-05)
(9.39502029357061e-06 -0.000527783731325762 -0.000213870247509949)
(2.35873343123326e-05 -0.00046118621704239 -0.000192183445198918)
(3.41428523506705e-05 -0.000390692928576613 -0.000168629111212073)
(4.10192497806853e-05 -0.000311675638717762 -0.00014074466553425)
(4.29732918350768e-05 -0.000218673156230367 -0.000107894440088846)
(4.11092525339566e-05 -0.000138791301036394 -7.28010911106393e-05)
(4.84715598901291e-05 -0.000250570037558792 -2.7500500456882e-05)
(1.05243334704557e-06 -0.000535108381153461 9.31881218801363e-06)
(1.64971604865841e-06 -0.000321880806720246 9.5807842247449e-06)
(5.96131541039785e-06 -0.000487887512924733 4.52839546511193e-06)
(2.75390403858428e-06 -0.000336724633541754 -2.29942932408978e-06)
(6.39874349985111e-06 -0.000282727466963454 -3.12486621728849e-06)
(1.48843183243155e-05 -0.000453528308168534 -1.57594547342383e-06)
(3.70834805756138e-06 -0.000371086624656727 -2.31633315876602e-05)
(9.79262835111677e-06 -0.00031684718599659 -2.23257898953099e-05)
(1.40090211714763e-05 -0.000249660387652294 -1.85070926747179e-05)
(2.57786005843283e-05 -0.000424994827996151 -9.57470077263286e-06)
(4.84817460571835e-06 -0.000410896119175425 -5.51427905043425e-05)
(1.28898076565948e-05 -0.000361261215088863 -5.09151397851139e-05)
(1.9361724975216e-05 -0.000292421425871599 -4.47573608446822e-05)
(2.31940670923886e-05 -0.000221855138181917 -3.48630354676602e-05)
(3.64163452412224e-05 -0.000383468893574359 -2.00589079307919e-05)
(6.40671293084253e-06 -0.000457650406542313 -9.9607573068231e-05)
(1.66563036455874e-05 -0.000405686198887965 -9.14659350739726e-05)
(2.5050695020697e-05 -0.000343175054450769 -8.12018067105741e-05)
(3.05734396933358e-05 -0.00026561655323766 -6.75734792672841e-05)
(3.23935534362963e-05 -0.000192296563928558 -5.14830628453245e-05)
(4.44779556356479e-05 -0.000339793745134705 -2.81831333747094e-05)
(8.55162625000521e-06 -0.000515194587492714 -0.000158203744881577)
(2.185252645285e-05 -0.000455525741344549 -0.000145157666749994)
(3.21623281471124e-05 -0.000391502427672752 -0.000129920483580114)
(3.91839973700636e-05 -0.000319013157759333 -0.000110693816209861)
(4.15623370322928e-05 -0.000233052633155922 -8.74424894793587e-05)
(3.98439235904778e-05 -0.000158984739231092 -6.21653976261771e-05)
(4.80198344643389e-05 -0.000280394611969452 -2.68617523976009e-05)
(1.14872270663936e-05 -0.000587364511681969 -0.000233811662868657)
(2.90015806352159e-05 -0.000515063470058852 -0.000213950901258576)
(4.18748016840019e-05 -0.000443273327500036 -0.000192128827311057)
(5.02482555568597e-05 -0.000368405054190419 -0.00016659016948525)
(5.32630428089353e-05 -0.000285238560114675 -0.000136317927454519)
(5.03167528063897e-05 -0.0001906469764756 -0.00010276713012794)
(4.35657143338251e-05 -0.000113166606272529 -6.86937133135527e-05)
(4.57623566146037e-05 -0.000212476056900379 -2.52821094358813e-05)
(2.39347945678849e-07 -0.000516007850718264 1.41854097762217e-05)
(1.10129123827453e-06 -0.000306961174968355 2.10070724759769e-05)
(3.54575214031196e-06 -0.000476446797318744 9.85484554259522e-06)
(2.31804561898173e-06 -0.000322882477873628 1.56233385805841e-05)
(4.64049253030294e-06 -0.000273117892934105 1.07578401694873e-05)
(1.08790061339368e-05 -0.000450077767122601 4.67900697216714e-06)
(3.27334664535247e-06 -0.000357339906171548 1.948443654242e-06)
(8.44419123013319e-06 -0.000307639097021985 -2.15000664545841e-06)
(1.12475650299075e-05 -0.000246301159286508 -3.45506580353823e-06)
(2.08953833203605e-05 -0.000432092552124651 -1.53990612167008e-06)
(4.33157612196715e-06 -0.000396746709013595 -2.20241014145177e-05)
(1.15709868092848e-05 -0.000351853422278361 -2.3348458794584e-05)
(1.70705364829012e-05 -0.000288733156812988 -2.29388719212043e-05)
(1.96781701942352e-05 -0.000224826613840359 -1.84255820171909e-05)
(3.1670754996715e-05 -0.000402433981228501 -9.86606946663702e-06)
(5.73420440154476e-06 -0.00044233839629252 -5.7458855374585e-05)
(1.51078627522031e-05 -0.000395883508348292 -5.55861079219809e-05)
(2.28314215403896e-05 -0.00033889720301375 -5.17590669678054e-05)
(2.78049285929595e-05 -0.000267135858237171 -4.48222901820366e-05)
(2.88406149805757e-05 -0.000198089677661613 -3.43832802301405e-05)
(4.08274418694989e-05 -0.000355929507310211 -1.97891954986444e-05)
(7.66383423916476e-06 -0.000497591667720017 -0.000105757068849255)
(1.98709366893677e-05 -0.000444582511576029 -0.000100153511310753)
(2.96431680756105e-05 -0.000386643186306743 -9.225928788675e-05)
(3.65144740288205e-05 -0.000319991938601901 -8.08466342674419e-05)
(3.90161562280511e-05 -0.000239499514376062 -6.59806438064077e-05)
(3.68614605052823e-05 -0.000168125779999218 -4.99449863314111e-05)
(4.6570641092352e-05 -0.000307303086687594 -2.87642705363918e-05)
(1.03118422807175e-05 -0.000566728178565631 -0.000169162337703927)
(2.64180973810241e-05 -0.000502625161878421 -0.000158604308083391)
(3.87286341080634e-05 -0.000438054962194813 -0.000145517733690748)
(4.71513998098791e-05 -0.000369886862581823 -0.000128614594169251)
(5.07488532472959e-05 -0.00029338449631341 -0.000107381706662289)
(4.86123660810772e-05 -0.000205800903574044 -8.35477072680079e-05)
(4.22569190906099e-05 -0.000133723451121484 -5.90176189867595e-05)
(4.629725245966e-05 -0.000242458058934304 -2.5937958947548e-05)
(1.39126031871659e-05 -0.000654239316589834 -0.000251400351269867)
(3.5370218416218e-05 -0.000574277442874602 -0.000233767054307421)
(5.11285959981262e-05 -0.000497634937181877 -0.000213412981960421)
(6.13401685085421e-05 -0.000421968952828386 -0.000189184277352628)
(6.54117370373224e-05 -0.000342856772493914 -0.000160830191154309)
(6.31944224940951e-05 -0.000257256889324948 -0.000129416440743795)
(5.4704291649116e-05 -0.000161610848333864 -9.66036293797479e-05)
(4.28724039314537e-05 -8.62101991015577e-05 -6.44206729979022e-05)
(3.90827006571853e-05 -0.000170569029675182 -2.30602732870148e-05)
(-4.43813256749557e-07 -0.000492955618096767 1.81720804757163e-05)
(5.75724161924795e-07 -0.000288687164349298 3.02959973472703e-05)
(1.31446617366974e-06 -0.000459638496133532 1.45979353246399e-05)
(1.89490654095193e-06 -0.000305931432723587 3.10690243329631e-05)
(2.94503377467011e-06 -0.000259473071615476 2.18015904242137e-05)
(7.17581453592003e-06 -0.000439952466359047 9.98421749965732e-06)
(2.83701294589532e-06 -0.000340556696554058 2.4222717354347e-05)
(7.10182867347768e-06 -0.000294691669049227 1.57777853883401e-05)
(8.36307222905437e-06 -0.000237925276416049 9.80741695117774e-06)
(1.58442168720895e-05 -0.000429802721248872 4.92858529920755e-06)
(3.83170720800905e-06 -0.000379444867569287 7.85621377661736e-06)
(1.02265868191588e-05 -0.000338671574831253 1.8100856909183e-06)
(1.47031002827556e-05 -0.000280528982347747 -2.79630927153274e-06)
(1.59434949151512e-05 -0.000222420280114978 -3.5093987282237e-06)
(2.61790383623411e-05 -0.00041089244327386 -1.70437345810923e-06)
(5.09820078836118e-06 -0.000423629774323767 -1.90086038064571e-05)
(1.35391576482306e-05 -0.000382157124998735 -2.24549688969202e-05)
(2.04238714602024e-05 -0.000330266209574497 -2.41858685889842e-05)
(2.45828618749332e-05 -0.000264425957983232 -2.31482353951116e-05)
(2.4636471118077e-05 -0.000201928409431455 -1.81189102397651e-05)
(3.58203733851959e-05 -0.000376345705829926 -9.97663512930621e-06)
(6.79588777617527e-06 -0.000476432707452637 -5.745349032877e-05)
(1.78325346109721e-05 -0.00042965564246739 -5.81055679528899e-05)
(2.68536755414902e-05 -0.000377497563759598 -5.64974057570178e-05)
(3.32700215250968e-05 -0.00031657918096083 -5.17239278079649e-05)
(3.55449025229159e-05 -0.000241930719379931 -4.37765607330361e-05)
(3.28888380984804e-05 -0.000174502364457442 -3.34198428927783e-05)
(4.27322671691764e-05 -0.000323699596713567 -1.99449483624945e-05)
(9.12895545445166e-06 -0.000541675076865165 -0.000109248599948223)
(2.37049175424485e-05 -0.000485407347255308 -0.000106429055479895)
(3.52214424539667e-05 -0.000427721380042124 -0.000100842955320386)
(4.34175988765554e-05 -0.000365829213008204 -9.15574035690254e-05)
(4.72807674785718e-05 -0.000295284808635978 -7.84965161481723e-05)
(4.56356689894578e-05 -0.000213068997516295 -6.31701221724876e-05)
(3.90326140029886e-05 -0.000143244396250759 -4.79345327385373e-05)
(4.54482014978371e-05 -0.000270367704687704 -2.90102348751599e-05)
(1.23231253608746e-05 -0.000624056670768791 -0.000177225043090815)
(3.17552765536536e-05 -0.000554056445711731 -0.000169644674378543)
(4.65525551030432e-05 -0.000485906148540733 -0.000158714578541075)
(5.66592796597519e-05 -0.000417668895580226 -0.000143582487261215)
(6.13581318553714e-05 -0.000345397248803452 -0.000124290594492673)
(6.02587642755173e-05 -0.000266440765325432 -0.00010206091104519)
(5.30088470407922e-05 -0.000177615274273892 -7.88472500987714e-05)
(4.18286549078875e-05 -0.00010712499321341 -5.58873459292389e-05)
(4.07054143827782e-05 -0.000200369818474139 -2.48293340154881e-05)
(1.66815415461883e-05 -0.000729300929523632 -0.000265890628954128)
(4.27386676590571e-05 -0.000640356717811816 -0.000251424030284389)
(6.20233739721653e-05 -0.000556449845844201 -0.000232797805237544)
(7.45824601242053e-05 -0.000476348587098085 -0.000209480853455983)
(7.98766186322206e-05 -0.000396688563101994 -0.000182007994608606)
(7.81184893731499e-05 -0.000314941407268768 -0.000152143378661395)
(7.00453878065686e-05 -0.00022779528401065 -0.000121201397914963)
(5.59031002071418e-05 -0.000131073599966051 -9.02791228170441e-05)
(3.91107612160171e-05 -5.7624868337962e-05 -6.04463175216265e-05)
(2.89771108387422e-05 -0.000125226179666952 -2.13530568007709e-05)
(-1.01800876970494e-06 -0.000466730376653979 2.11791390497187e-05)
(8.47966793131025e-08 -0.000267723690709687 3.75645515104683e-05)
(-6.06528905902848e-07 -0.000438825861771619 1.85065130139767e-05)
(1.48604022594067e-06 -0.000286386641351654 4.40759713075542e-05)
(1.34059365135133e-06 -0.000242476994942907 3.08929532982943e-05)
(3.67698502426688e-06 -0.00042435476602411 1.4846273966359e-05)
(2.40921212255157e-06 -0.000321282012794975 4.35043202215575e-05)
(5.77122147085641e-06 -0.000278608058757661 3.12123268297934e-05)
(5.36011647601696e-06 -0.000225423077872887 2.12830282909707e-05)
(1.10219632519693e-05 -0.000420708250310076 1.02387412363616e-05)
(3.34019353987259e-06 -0.000359676901108359 3.42109833138836e-05)
(8.87737822702634e-06 -0.000322428235114789 2.41464267174648e-05)
(1.23094483490807e-05 -0.000268502867498393 1.51719735038818e-05)
(1.20514601725559e-05 -0.000215025743787749 9.45938300666991e-06)
(2.02102857623745e-05 -0.000409965019723492 4.83464735162334e-06)
(4.49134860247171e-06 -0.000402395067002268 1.53456943705251e-05)
(1.19985387820543e-05 -0.000365276858758894 7.46167876333694e-06)
(1.79624457858794e-05 -0.000317829266108286 1.00958086341643e-06)
(2.11625169198475e-05 -0.000257212483835336 -3.08547579760228e-06)
(2.00309284226329e-05 -0.000200523999994077 -3.33012966607838e-06)
(2.99107946445288e-05 -0.000386362309205965 -1.87636771967869e-06)
(5.99004428633611e-06 -0.000452549886450184 -1.39085559132831e-05)
(1.58718265041366e-05 -0.000411377972290695 -1.97137653641307e-05)
(2.40128079817498e-05 -0.000364454791654789 -2.34241687167897e-05)
(2.97475577117473e-05 -0.000308877179434201 -2.43714091882395e-05)
(3.14912529461022e-05 -0.000240296436205311 -2.25101372611333e-05)
(2.81717874205547e-05 -0.000179305479377444 -1.75439365880511e-05)
(3.74963139819016e-05 -0.000345926784699563 -9.61318034308853e-06)
(8.00814023849374e-06 -0.000513791203690556 -5.4875742690383e-05)
(2.10487767706355e-05 -0.000464756494814408 -5.83485410331276e-05)
(3.16194591875379e-05 -0.000413520904456094 -5.90479056465912e-05)
(3.93387542497874e-05 -0.000357607894105165 -5.62766611183324e-05)
(4.31388544866087e-05 -0.000292943964839427 -5.01546290075669e-05)
(4.16687041675997e-05 -0.000216509027345122 -4.18286734127009e-05)
(3.48914857513548e-05 -0.000150223492132337 -3.22883947504685e-05)
(4.16355249418688e-05 -0.000287466640922178 -2.04767282297176e-05)
(1.07822874280484e-05 -0.000590256011532756 -0.000109690757206222)
(2.81410676055018e-05 -0.000529600111387579 -0.000110154597719905)
(4.18068617413834e-05 -0.000469503561901261 -0.000107055363356583)
(5.15541906062492e-05 -0.00040832331884589 -9.97425375391286e-05)
(5.65540327163639e-05 -0.000342475609890391 -8.84691749962389e-05)
(5.62219924002984e-05 -0.000269470689753705 -7.45744892521773e-05)
(4.98717161978213e-05 -0.000185830326669591 -5.97713444335139e-05)
(3.86764282209772e-05 -0.000117019083696135 -4.60226581805289e-05)
(4.06863733479914e-05 -0.000228856527417268 -2.83852090109063e-05)
(1.45900268011185e-05 -0.000687577988137563 -0.000181674787056533)
(3.78641381833889e-05 -0.0006108885723129 -0.000177955229880613)
(5.56897440790685e-05 -0.000537255706406599 -0.000169574349483446)
(6.79110388154576e-05 -0.000465833749073909 -0.000156119739070677)
(7.38326813791591e-05 -0.000393727158371733 -0.000138212316084081)
(7.34008349892043e-05 -0.000318808837486482 -0.000117583245736385)
(6.70009602931766e-05 -0.000238164588185789 -9.57146315089867e-05)
(5.45057482919505e-05 -0.000147972674892619 -7.41325285690331e-05)
(3.85641044815302e-05 -7.88719085955745e-05 -5.32473402726236e-05)
(3.19480702915944e-05 -0.000154469233289675 -2.45146502688345e-05)
(1.98026145906382e-05 -0.00081314230834014 -0.000275937953396146)
(5.11717528778426e-05 -0.000714365208087035 -0.000266191956563025)
(7.46975696777154e-05 -0.000621531248920352 -0.000250096717994923)
(9.02199695600075e-05 -0.000534369315806248 -0.000227832111856204)
(9.70639722394963e-05 -0.000450577499830581 -0.000200774078407775)
(9.57180010318147e-05 -0.000368414769116163 -0.000171476659153053)
(8.74829325544938e-05 -0.000285033886248857 -0.000141881999030665)
(7.35141371591963e-05 -0.000196558273510665 -0.000112772673591726)
(5.38920526413966e-05 -9.8583260015028e-05 -8.45524830766232e-05)
(3.26151314201406e-05 -2.73103670067453e-05 -5.7166484545152e-05)
(1.64974820612046e-05 -7.63228001175184e-05 -2.03236860932376e-05)
(-1.51371440580357e-06 -0.000438062561199314 2.34520637315506e-05)
(-3.29013354736202e-07 -0.00024464474724483 4.32557020715501e-05)
(-2.22416828995608e-06 -0.000414755689921772 2.14705343187238e-05)
(1.09644133697191e-06 -0.000264756016229734 5.47414189947505e-05)
(-1.04215723803878e-07 -0.000222815727197582 3.80870732322084e-05)
(5.76152423948181e-07 -0.00040471250769471 1.88685595509792e-05)
(2.00287251070964e-06 -0.000300011323588126 5.97991265488158e-05)
(4.47906842839372e-06 -0.000259905131517412 4.42127087324594e-05)
(2.47243131487074e-06 -0.000209501503406512 3.07524638315897e-05)
(6.25353268033663e-06 -0.000406019030533821 1.50132256389176e-05)
(2.87826367626288e-06 -0.000337977867705807 5.69540075603156e-05)
(7.56337953078292e-06 -0.000303696531847975 4.350115996596e-05)
(9.91632368947438e-06 -0.000253296414004917 3.07387536244042e-05)
(8.10778349294644e-06 -0.000203509063101774 2.0527981466552e-05)
(1.4319902975156e-05 -0.00040210363477567 1.01769676981984e-05)
(3.9224629073347e-06 -0.000379293150417414 4.54266310825307e-05)
(1.04961415156072e-05 -0.000345931346954165 3.38741174711121e-05)
(1.55180545347271e-05 -0.000302306548268573 2.34198040687356e-05)
(1.76741140992041e-05 -0.000246141010128453 1.48316892517325e-05)
(1.51382153841349e-05 -0.000194149157809152 9.49316182246688e-06)
(2.32683458294383e-05 -0.000386933286649949 4.74657185152775e-06)
(5.24578861379104e-06 -0.000426838503867444 2.45977393914828e-05)
(1.39981539900961e-05 -0.000390568791330962 1.46167429373839e-05)
(2.12074968774954e-05 -0.000348233699882355 6.48813131795113e-06)
(2.61322800401423e-05 -0.000297349486335803 6.81987998766466e-07)
(2.7122827681674e-05 -0.000234197357442511 -2.75081871807378e-06)
(2.29177249267697e-05 -0.00017898103633029 -3.01729795903147e-06)
(3.14806694216968e-05 -0.000357650986677794 -1.99600338032143e-06)
(6.99326777945841e-06 -0.000483987200933534 -6.47996223947163e-06)
(1.85626512838969e-05 -0.000441400603059838 -1.49517269283349e-05)
(2.8104547799367e-05 -0.000395965191726666 -2.08146151782182e-05)
(3.51586816363552e-05 -0.000345505098964296 -2.35580414906735e-05)
(3.86126456698041e-05 -0.000286381766675869 -2.34158996546906e-05)
(3.69909690158918e-05 -0.000216050647378034 -2.12476599635372e-05)
(2.98479719214923e-05 -0.000156057505367872 -1.69146875473811e-05)
(3.64268093465128e-05 -0.000311109778223072 -9.59746583600247e-06)
(9.35939369877262e-06 -0.000554581530169634 -4.93503376769996e-05)
(2.4716349873903e-05 -0.000502397912099512 -5.61065522520329e-05)
(3.71535945590008e-05 -0.000449736073401511 -5.93676107544913e-05)
(4.63231894320793e-05 -0.000395178407961774 -5.86168929086642e-05)
(5.13192051741512e-05 -0.000335474274190291 -5.42126486424707e-05)
(5.14080198645372e-05 -0.000268378492342203 -4.74011057365021e-05)
(4.56636702964652e-05 -0.000190398027427577 -3.95148583063048e-05)
(3.4641537626875e-05 -0.000124710331343672 -3.13955174295428e-05)
(3.77223058814494e-05 -0.00024768936087448 -2.11424266438282e-05)
(1.26218581723211e-05 -0.000643419150045655 -0.00010643098250987)
(3.31642996773097e-05 -0.000577929072440474 -0.000110957379031609)
(4.94200611619451e-05 -0.00051387776737614 -0.000110787118928474)
(6.10681853119812e-05 -0.000450669638671216 -0.000105556108096513)
(6.72841263186134e-05 -0.000385759553849014 -9.59149732390698e-05)
(6.77921405588467e-05 -0.00031728531504658 -8.35015113521343e-05)
(6.26871261417997e-05 -0.000242472438704411 -6.98956863191874e-05)
(5.14894907983818e-05 -0.000157168937985999 -5.64682231530635e-05)
(3.58226885392805e-05 -8.91269741052036e-05 -4.46902120031992e-05)
(3.31463240938989e-05 -0.000183772196170113 -2.89571604353151e-05)
(1.71102532852691e-05 -0.000757389056477431 -0.00018135672874672)
(4.477263886439e-05 -0.00067371043677734 -0.000182819493165253)
(6.62135710988584e-05 -0.000593476344382279 -0.000177785572992428)
(8.10697865269751e-05 -0.000516765404013674 -0.000166315535114039)
(8.84986912566824e-05 -0.000441745923936156 -0.000149650116108233)
(8.86605170913298e-05 -0.000367096674739182 -0.000130106625417997)
(8.24582800599327e-05 -0.000290408157167758 -0.000109630956015431)
(7.06716784352625e-05 -0.000208212933549747 -8.93018223946924e-05)
(5.30532842581087e-05 -0.000116419090596085 -7.01095247402942e-05)
(3.27833318245891e-05 -4.89078458646242e-05 -5.16506844941139e-05)
(2.07263059138445e-05 -0.000104740784412008 -2.50928994669424e-05)
(2.32697210736007e-05 -0.000905812987260248 -0.000279554435066537)
(6.07072448634137e-05 -0.000796927556055153 -0.000276782001452072)
(8.92594867046072e-05 -0.000694073170696386 -0.000264619526820208)
(0.000108456770010684 -0.000597965537368578 -0.000244061845720149)
(0.000117334711418334 -0.000507337007793109 -0.000217466163238029)
(0.000116512951009163 -0.000421329045598679 -0.000188261309479147)
(0.000107832526867733 -0.000337730271671655 -0.000159107395564617)
(9.31370393967218e-05 -0.000253102658339153 -0.000131340291884906)
(7.35274217766757e-05 -0.000163251959025595 -0.000105104234537906)
(4.8836993361756e-05 -6.38340972046414e-05 -8.01407388110807e-05)
(2.39171302112812e-05 4.90863105683805e-06 -5.50884397996614e-05)
(2.6047820209356e-06 -2.36900754769352e-05 -2.0752794923593e-05)
(-1.8904250743937e-06 -0.000407686332423667 2.50920798396702e-05)
(-6.940528144305e-07 -0.000219971201721825 4.78323692880296e-05)
(-3.62763894106857e-06 -0.000388202227158214 2.35812870034081e-05)
(7.35219661552364e-07 -0.000241523563016111 6.32546551613249e-05)
(-1.29628774375129e-06 -0.000201050280853242 4.35628018718544e-05)
(-2.0642486936425e-06 -0.000381747684069115 2.20314529264679e-05)
(1.61998470128091e-06 -0.00027719933948719 7.32202328456089e-05)
(3.25278953236796e-06 -0.0002390967672703 5.48691442518275e-05)
(-7.61257688291346e-08 -0.000190906905198173 3.81100117330525e-05)
(1.9302583369687e-06 -0.000387167217905999 1.91471549450841e-05)
(2.4407780846948e-06 -0.000314821147261275 7.61436591706709e-05)
(6.3051926943496e-06 -0.000282967277612959 5.98555485656019e-05)
(7.59638900219248e-06 -0.000235447586534914 4.38576788740737e-05)
(4.13161817088499e-06 -0.000188510640882433 2.99596664564313e-05)
(8.45451435424308e-06 -0.000388534817961634 1.50168699432446e-05)
(3.3915627346143e-06 -0.000354857641914151 7.12401515515219e-05)
(9.06418826437857e-06 -0.000324657826484685 5.66789752476367e-05)
(1.31617942256373e-05 -0.000284274328340362 4.28596315470475e-05)
(1.42090399980936e-05 -0.000231846438476583 3.04005756628879e-05)
(1.01799429832426e-05 -0.000183662284468491 2.04772354147212e-05)
(1.65212114138387e-05 -0.000380548844266624 1.01315990916126e-05)
(4.56685513591377e-06 -0.000399947465616559 5.80306492209628e-05)
(1.22380231346394e-05 -0.000367881169040886 4.47075005295508e-05)
(1.85099091581701e-05 -0.000329516320125499 3.29366085070521e-05)
(2.25428061529638e-05 -0.000282708665011735 2.3006953333087e-05)
(2.26106304114876e-05 -0.000224229906396967 1.49450534496774e-05)
(1.72466455004909e-05 -0.000173714902557604 9.63199476588418e-06)
(2.43957421103046e-05 -0.000359826242734193 4.62386997546985e-06)
(6.07893428297293e-06 -0.000453175681994926 3.58474439700496e-05)
(1.62612123924354e-05 -0.000416194965573503 2.34694716110747e-05)
(2.47530794795913e-05 -0.000375837399342898 1.34342624332461e-05)
(3.10257976540543e-05 -0.000330186208707101 6.10665710191949e-06)
(3.39274928906644e-05 -0.00027598917694875 1.16031518699127e-06)
(3.187757197007e-05 -0.000211178233726756 -2.02593472350338e-06)
(2.41603643891768e-05 -0.000156865083551161 -2.77016961608407e-06)
(3.05806992701542e-05 -0.000324803580718967 -1.81050369972016e-06)
(8.09534855445554e-06 -0.000517994365857343 3.63206839351757e-06)
(2.15918544203e-05 -0.00047326230763359 -7.91873195908392e-06)
(3.27636775370261e-05 -0.00042722480574825 -1.62298219306472e-05)
(4.11876426680283e-05 -0.000378655200013462 -2.08878556496673e-05)
(4.59163142103601e-05 -0.000324599615272698 -2.23174224841064e-05)
(4.60969502102051e-05 -0.000263125538570142 -2.16190397690686e-05)
(4.06097028473711e-05 -0.000191197874308527 -1.98030544911515e-05)
(2.95105022860258e-05 -0.000131592571889143 -1.66125885890009e-05)
(3.31628200265381e-05 -0.000272919809188681 -1.13670809221317e-05)
(1.08427703552638e-05 -0.000598691807764982 -4.03035140685644e-05)
(2.88232751223407e-05 -0.000543131570512503 -5.10022847156701e-05)
(4.34723266225832e-05 -0.000487768621618404 -5.72616397502061e-05)
(5.43550073261356e-05 -0.000432158521719766 -5.87388349456384e-05)
(6.05662624661382e-05 -0.000374025428088108 -5.60692063579191e-05)
(6.16538408003945e-05 -0.000311742347504396 -5.0716832941726e-05)
(5.74796021445532e-05 -0.000242764788929718 -4.414139556102e-05)
(4.73026346584348e-05 -0.000162922208177121 -3.74084456855401e-05)
(3.21633899184696e-05 -9.76538557127088e-05 -3.11038318136331e-05)
(3.08874117433396e-05 -0.000203082928313926 -2.16566554689526e-05)
(1.46396211336507e-05 -0.000700961768028844 -9.85160187927663e-05)
(3.87767436887234e-05 -0.00063067129839575 -0.000108185042974158)
(5.80911263004725e-05 -0.000561911152586564 -0.000111670440917055)
(7.20673153510189e-05 -0.000494945320989173 -0.000108904827047025)
(7.97340658971884e-05 -0.000428262737196197 -0.000100974323123285)
(8.09831131810515e-05 -0.000360814423482587 -8.99209129354371e-05)
(7.638175439152e-05 -0.00029047167969676 -7.76012788009837e-05)
(6.63921354914269e-05 -0.00021390963132299 -6.52845148890098e-05)
(5.04498814232194e-05 -0.000126641127476955 -5.39191757245261e-05)
(3.07815776009008e-05 -5.94567399660139e-05 -4.46470295758722e-05)
(2.337463248009e-05 -0.000135338284950861 -3.08077914373968e-05)
(1.9868886844402e-05 -0.00083311398796906 -0.000174686337178249)
(5.24793605056821e-05 -0.000742680103090396 -0.000183120589022918)
(7.8160559270172e-05 -0.000655317660255525 -0.000182657548717461)
(9.62506179103768e-05 -0.000571985793300534 -0.000173867419167491)
(0.000105615533779632 -0.000491861430202786 -0.000158683851253172)
(0.000106479688708167 -0.000414527738422123 -0.000140076997968521)
(0.000100190541083582 -0.000338265259209849 -0.000120538398988463)