/*--------------------------------*- C++ -*----------------------------------*\
  =========                 |
  \\      /  F ield         | OpenFOAM: The Open Source CFD Toolbox
   \\    /   O peration     | Website:  https://openfoam.org
    \\  /    A nd           | Version:  12
     \\/     M anipulation  |
\*---------------------------------------------------------------------------*/
/*   Windows 32 and 64 bit porting by blueCAPE: http://www.bluecape.com.pt   *\
|  Based on Windows porting (2.0.x v4) by Symscape: http://www.symscape.com   |
\*---------------------------------------------------------------------------*/
FoamFile
{
    format      ascii;
    class       volScalarField;
    location    "200";
    object      k;
}
// * * * * * * * * * * * * * * * * * * * * * * * * * * * * * * * * * * * * * //

dimensions      [0 2 -2 0 0 0 0];

internalField   nonuniform List<scalar> 
10142
(
0.00023788719125524
0.000235043569056185
0.000658244954608075
0.000238710865943307
0.00023163301492654
0.000648858709922791
0.000235943742498335
0.000956763163533499
0.000658456459379405
0.000239547196063712
0.00022749199561441
0.000637850577747521
0.000232612335708703
0.000942696188475368
0.000649097552733809
0.000236822539549959
0.00119508497294095
0.000955936141562143
0.000657024876393575
0.000237886863655227
0.000222481091271736
0.000624944253958644
0.000228505723292079
0.000926345521364721
0.000638100177002915
0.000233515914141534
0.00117734245612916
0.000941890113046338
0.000647670630308701
0.000235210692186668
0.00139987909900419
0.00119347184699175
0.000950807442625803
0.000650785976797876
0.00023296088151626
0.000216552091579136
0.000609886485392848
0.000223512074190934
0.000907441298691716
0.000625187425958799
0.000229401258043302
0.00115684294611585
0.000925547856413748
0.000636670473022013
0.000231941666688671
0.0013790482641108
0.00117575907651459
0.000936789657296033
0.000641472531820787
0.000230371636451749
0.00158202994068617
0.00139727672577413
0.00118543227478055
0.000939312931328076
0.000637836943931908
0.000225568346320073
0.000209804737564847
0.000592454296549074
0.000217563358971955
0.000885697065698748
0.000610114407188081
0.000224366484303957
0.00113333166796091
0.000906645766274183
0.000623744161451259
0.000227846378800353
0.0013550850639886
0.00115527262495629
0.000920480174265182
0.000630522765170549
0.000227189268883665
0.00155850548081773
0.00137649185469561
0.00116777652394686
0.000925368329540131
0.000628641590474784
0.000223069192674259
0.00174687743238906
0.00157825768377814
0.00138663214650843
0.00116939777528044
0.000920062424322427
0.000618822287894013
0.000216688448981476
0.000202915225567231
0.000572441923424965
0.000210612662516375
0.000860836150442925
0.000592656887016066
0.000218322578316279
0.00110652482965166
0.000884902508276526
0.000608650916595529
0.000222822709522293
0.00132775001948299
0.00113177052953676
0.000901616879435962
0.000617654932488485
0.000223168743686517
0.00153152940900167
0.00135255543902105
0.0011473544552123
0.000909155706344541
0.000617837354864776
0.000219993057996623
0.00172095656641246
0.00155479862966323
0.00136593403126596
0.00115185323252212
0.000906272386166217
0.000609815137901696
0.000214277498910692
0.00189754620960407
0.00174210906944107
0.00156511600543784
0.00136657920048651
0.00114465195275035
0.000893474170760069
0.000595336202816238
0.000206762368205918
0.000200218507535787
0.000549562895305761
0.000203196708484767
0.000832573886181019
0.000572624732085244
0.000211181574696751
0.00107614613396121
0.000860044110382118
0.000591161748035715
0.000216785889489807
0.00129677363453313
0.00110497409929771
0.000879923118533079
0.000602633989832148
0.000218224443322349
0.00150087562764644
0.00132524345940357
0.00112392810929742
0.000890414849190194
0.000605142848204233
0.000216087725848629
0.00169128474502796
0.00152786650360545
0.00134209234168398
0.00113157415585945
0.000890258520031233
0.000599245078878121
0.000211321738932533
0.00186949205140842
0.00171626973074193
0.00154177277280659
0.00134603015612674
0.00112730323301714
0.000879925884078289
0.000586575061512396
0.000204454648808924
0.00203611609994818
0.00189211120669515
0.00172684407682567
0.00154145998283347
0.00133691553801214
0.0011117901386315
0.000860776667195716
0.000568412255914014
0.000195910526494253
0.000195342131739036
0.000524215498275142
0.00019618769817443
0.000800575599477416
0.000549841774266013
0.000203351465263027
0.00104191982595276
0.000831793338628481
0.000571079797431733
0.000209643239143828
0.00126189988340828
0.00107460964955736
0.000855128191062206
0.000585232875259533
0.000212282952559371
0.00146629347357888
0.00129429190082227
0.00109722433588389
0.000868874140202261
0.000590335538537362
0.000211280732927442
0.00165765780819613
0.00149725291494694
0.00131488831674617
0.00110832277286365
0.000871760960999826
0.000586835190808905
0.000207540473936075
0.00183734171571022
0.00168665577769189
0.00151496494333538
0.001322372969653
0.00110727031239986
0.000864214091880806
0.000576313494473527
0.000201653673498365
0.00200624124095984
0.00186414813556157
0.00170114450212756
0.00151830042300285
0.00131660259134039
0.00109473017731533
0.000847552355913708
0.000559959726803282
0.000193780369422789
0.00203027117315709
0.00187524137433375
0.0017001592414025
0.00150745397251964
0.00129851579546874
0.00107185850207045
0.000822866035213592
0.000538429042560191
0.000185186367874337
0.000183177620213179
0.000495753792214774
0.00019480824083286
0.000764711589536768
0.000523877851504972
0.000195208495688955
0.00100355069763117
0.0007998307468615
0.000548285827624471
0.000201640018490716
0.00122288568735701
0.0010404003065996
0.000826958879458439
0.000565238033569058
0.000205254847407301
0.00142755211642965
0.00125944692194214
0.00106697408347424
0.000844268926420144
0.000573204375846631
0.000205522317634424
0.00161985005163617
0.00146271287821302
0.00128406354571933
0.00108183101851808
0.000850517388646142
0.000572382101925116
0.000202895724454942
0.00180097518023675
0.00165308281163661
0.00148448992759091
0.00129538851506448
0.0010843174481628
0.000846083752088837
0.000564277272999483
0.000198053524930886
0.00197171027765153
0.00183206475332157
0.00167167877743422
0.00149171441467032
0.00129323691469035
0.00107505294228854
0.000832239050560442
0.000550082057450599
0.000191274964376352
0.00213269345982025
0.00200048231176958
0.00184743346223707
0.0016746716275033
0.00148456799825205
0.00127853658562463
0.00105518082700922
0.000810047226808396
0.000530363558252467
0.000183391758176692
0.00201221953306239
0.00184614485709633
0.00166246106290734
0.00146419083177506
0.00125240154291271
0.00102558812366051
0.000780149676368456
0.000505722185529434
0.000183131676194835
0.00016611791415942
0.000462596867709295
0.000184885819053609
0.000724658962352779
0.000495525378341402
0.000191139364445553
0.000960913271631044
0.000763917545377406
0.000522170355011914
0.000193226909812284
0.00117947554114019
0.00100207043967191
0.000795119698040789
0.000542629755251135
0.00019719159618775
0.00138444378565244
0.00122046597213874
0.001032906083886
0.000816332832725517
0.000553548480580777
0.000198751303682172
0.0015776563591498
0.00142401706541469
0.00124936778180993
0.00105183622938243
0.000826274891461123
0.000555703182941532
0.000197424085663931
0.00176020317724368
0.00161533116842849
0.00145010801061307
0.00126482250718756
0.00105818275727068
0.00082528531781267
0.000550298608136801
0.000193697585285419
0.00193274506927358
0.00179576090305873
0.00163826923654191
0.00146149810915949
0.00126659977378128
0.001052526650051
0.000814588542544244
0.000538515002465535
0.000188081111367667
0.00209568241287747
0.00196602928554052
0.00181551532967744
0.00164545791847139
0.00145831436045426
0.00125557574647478
0.00103596686506851
0.00079522562922863
0.000520967934814881
0.000181568389648513
0.00224880108569515
0.00212661586822688
0.00198258518303658
0.0018185686397206
0.00163727853999863
0.00144167962544518
0.00123285673784293
0.00100938668082244
0.000767820043940871
0.00049812268584966
0.000180328644788338
0.00198120217387602
0.00180537341565762
0.0016149918987353
0.00141271368614372
0.00119921918330871
0.000973359464534907
0.000732800326270032
0.000470842178849601
0.00016784574756473
0.000145489475117849
0.000423241646535517
0.000169074047919397
0.000680123650110537
0.000462647441275396
0.000184150740876466
0.000913781626816066
0.000723888665750002
0.000493222253013492
0.000184979205449089
0.00113157803645158
0.000959466259009941
0.000759344110761901
0.000516539727056023
0.000188949080460237
0.00133677314002913
0.00117709334989438
0.000994747525517025
0.000784777316709276
0.000531378002038006
0.000191028234850779
0.00153090144878464
0.00138095683815033
0.00121056076089979
0.0010180780254331
0.000798778072896774
0.000536616908804285
0.000191125330580566
0.00171484160178711
0.00157319670746858
0.00141159221576932
0.00123042891090316
0.00102861139188598
0.000801582393702019
0.000534242168857433
0.000189018943588506
0.00188918819937087
0.00175505343032978
0.00160070086486347
0.00142741471493876
0.00123644076984885
0.00102689729279778
0.000794368205132464
0.000525142710910048
0.000184664359118494
0.00205421852166382
0.00192713432364567
0.0017793924651974
0.00161233852137399
0.00142848807779571
0.0012294170369755
0.0010139904214243
0.000778159691369521
0.000509981303011599
0.000179354040699756
0.00220985157050715
0.00208972253807905
0.00194831341771982
0.00178692516030691
0.00160843131924968
0.00141587498408442
0.00121041566022606
0.00099074294067518
0.000753579776331457
0.000489279193143018
0.000180241759685557
0.00235565004754913
0.00224250798643546
0.00210777028273358
0.0019518067393749
0.00177812633351885
0.00159021946841743
0.00139068340375111
0.00118021244773947
0.000957730230392938
0.000721044681967501
0.000463734398825861
0.000165065237875143
0.00193785263079188
0.00175428613208136
0.00155884523289062
0.0013536364564495
0.00113932560032038
0.000915387856802625
0.000680828541086436
0.000430780587878889
0.000143637770312209
0.00012272950075553
0.000377212354501949
0.000149006239558211
0.000630149177481436
0.000423713360396341
0.000169763609551863
0.000861930468611455
0.000679414258153655
0.000460427239260826
0.000181162502961605
0.00107901762927368
0.00091237674490009
0.000719420239219916
0.000486942802987682
0.000181055930658151
0.00128439638024765
0.00112924292748356
0.000952346328963438
0.000749318610904034
0.000505740951107769
0.000183915558017594
0.00147943579771229
0.00133332308983544
0.00116738642187862
0.00098027113110721
0.000767748127927498
0.000515091902109441
0.000184624957142862
0.0016647398004976
0.00152650328371879
0.00136873414196203
0.00119197172098174
0.000995351981671225
0.000774736236607533
0.0005159646855015
0.000183726676485529
0.00184085610492579
0.00170975887801203
0.00155877074421585
0.0013892394971269
0.00120251873647433
0.00099791977287265
0.000771362527545241
0.000509905032545454
0.000183267373864725
0.0020080175075873
0.00188364717629419
0.00173888587131485
0.00157510012686743
0.00139485428407585
0.00119981488576721
0.000989006963212823
0.000758637124960365
0.000497378317942927
0.000177907631983623
0.00216612650350543
0.00204834013809745
0.00190961467092026
0.00175111642748378
0.00157573729962461
0.0013865728583654
0.00118486617535754
0.000969436199956593
0.000737193402745248
0.000478930602908859
0.000177243853553696
0.00231482830202241
0.00220367784489659
0.00207109065688341
0.00191782941497066
0.0017468770607736
0.00156185940248929
0.00136544837168374
0.00115840923917669
0.000939763482153536
0.000707455372283615
0.000455321609998966
0.00016196972387042
0.00245362171668483
0.00234916547698135
0.00222289744612078
0.00207539604657873
0.00190880110132958
0.00172747791185512
0.00153459409438564
0.00133219821667632
0.00112096515183012
0.000900431409424381
0.000669749138141623
0.000423793220597306
0.000140975711859632
0.0018836321696673
0.00169405239432319
0.00149464311873425
0.00128730364096448
0.00107297404682174
0.000851823239875292
0.000624011111744826
0.000385235979903757
0.000116723667929975
9.85979021744415e-05
0.000324393726068174
0.000126018043073297
0.000573930200742264
0.000378091944055477
0.000150068390581041
0.000804863223462612
0.000629653877076701
0.000422227206508886
0.000167952578468191
0.00102158030044433
0.000860583259145149
0.000675071718267207
0.000454874753278774
0.000176770590645332
0.00122724632018771
0.00107673481156529
0.000905474990548008
0.00070968554480196
0.000476725565204776
0.000178438782383343
0.00142310958811675
0.00128101390289238
0.00111976199152851
0.000938281795102432
0.000732892827095547
0.000490468862426431
0.000182288146798512
0.00160978506020682
0.00147509867664657
0.00132132363729426
0.00114919723673605
0.00095812745839666
0.000744477930921269
0.000495435919717822
0.00018263652429797
0.00178760948319585
0.00165972526094267
0.00151230119067497
0.00134676585849961
0.00116460395912426
0.000965354965576428
0.00074535768416242
0.000492672950437123
0.000179177827956289
0.00195686006963251
0.00183538610848517
0.00169381218382897
0.00153353993873213
0.00135719039749596
0.00116653411337777
0.000960783215126079
0.000736458343851534
0.000483062867482654
0.000178478241185756
0.00211743343003804
0.0020022135899439
0.00186634171176032
0.00171096354433077
0.00153898318526313
0.00135354079070948
0.00115596880056252
0.000945234118044798
0.000718467559700748
0.000467028130476544
0.000172357031073845
0.00226896424270555
0.00216003844989175
0.0020299226756338
0.0018794658002952
0.00171152276860026
0.00152972881763197
0.00133680713877662
0.00113360231370272
0.000919246204396136
0.000691831366369644
0.000445491148032283
0.000157772121743995
0.00241097211936118
0.00230846597773956
0.00218428732817823
0.00203903664286428
0.00187524294338185
0.00169674882881039
0.00150684715180146
0.00130765923707806
0.00109992279012794
0.000883250887078222
0.00065683694754348
0.000415810996215543
0.000137911670869239
0.00254294290387138
0.00244695836237886
0.00232888380066967
0.00218916897187893
0.00203018442461994
0.00185504041970211
0.00166779933893306
0.00147103055253504
0.0012665746723721
0.00105537374160768
0.000837647029746085
0.000613564741019108
0.000378722011617958
0.000114549863652214
0.00181979622344638
0.00162533169054201
0.00142273188460425
0.00121398373323949
0.00100038961575126
0.000782794823959693
0.000562163814111621
0.000335063713623961
8.93625200159942e-05
7.60722080389788e-05
0.000265273595401688
0.000101493611646113
0.000510788547280395
0.000325689103481124
0.000126816285942745
0.000741951115218137
0.000573796313972792
0.000377426215661051
0.000148570335986836
0.000958905885794793
0.000803651908597583
0.000625783116061476
0.000417617186511072
0.000163226116395092
0.0011651123374237
0.0010193659323185
0.000853934604391156
0.000665872100143507
0.000445295679124131
0.000171219515031479
0.00136188933896028
0.00122392620378334
0.00106750391905145
0.000891876202989249
0.000693981235838001
0.000462644825762813
0.000176786625463905
0.0015498866673875
0.00141882868686798
0.00126925563219099
0.00110201931162993
0.000916800266860105
0.000710515348528141
0.000472555299653789
0.000178497914237328
0.00172936224301622
0.00160483709749366
0.00146113628917581
0.00129979008308011
0.00112245314308481
0.000928941972157337
0.000716117073114272
0.00047371665771211
0.000177323550480761
0.00190060527725963
0.00178221038187521
0.00164401640760606
0.00148747848994125
0.00131529317760954
0.00112935468539558
0.000929096432209604
0.000711447162006502
0.000466819600902472
0.000173965170573424
0.00206357018378274
0.00195112995387349
0.00181831313985266
0.00166628134276514
0.00149796548954959
0.00131655873281074
0.0011234955070594
0.000917914604385223
0.000697175598302004
0.000454011611443394
0.000166053154465303
0.00221789164686049
0.002111423169192
0.00198402275235781
0.00183656626028155
0.00167188240596501
0.0014936145267807
0.00130453080039983
0.00110556032925382
0.000895960596991798
0.000673982788559071
0.000433926890563296
0.000152380547869615
0.00236305161947488
0.00226269097954932
0.00214087297686426
0.0019982258451516
0.00183736011620398
0.00166199220325756
0.00147542226767859
0.00127982180367666
0.00107599782092604
0.000863650839208325
0.000642113003730419
0.000406336913319953
0.000134015609003519
0.00249852776094512
0.00240443525731234
0.00228841126645817
0.00215089089990435
0.00199427192451493
0.00182203351448318
0.00163772213474761
0.00144402992865601
0.00124286550384927
0.00103522213986777
0.000821368256763644
0.000601567081923513
0.000371233920779067
0.000112115406006535
0.00262382307767566
0.00253611351702883
0.00242607362118628
0.00229396254775923
0.00214204008334305
0.0019736902326495
0.00179178569486152
0.00159975654703192
0.00139988206111656
0.00119408743130177
0.000983668729110003
0.00076949180075298
0.000552487079357376
0.00032923724711003
8.7858824352145e-05
0.00174705315603412
0.00154848472096407
0.00134338709705194
0.00113392811611186
0.000921769020074194
0.000708313048969612
0.000495182661159241
0.000280981057036774
6.27799119515276e-05
5.57937121960258e-05
0.000203845924004231
7.76571975372214e-05
0.000440410410633733
0.000267536624471995
0.000101855329602428
0.000672515641158711
0.000511242437502417
0.000326089619603215
0.00012533334227011
0.000890458106504158
0.000740989982677917
0.000570642605418124
0.000373873698665404
0.000143760511853605
0.00109765614829159
0.000956809669223285
0.000797404402065075
0.000617384397871306
0.000408863183061215
0.000156219389403775
0.0012956140970566
0.00116186798900932
0.00101042613964247
0.000840908774633715
0.00065106370936375
0.000432038567974616
0.0001644819095707
0.00148493478273386
0.00135767780147133
0.0012124315475956
0.00105026348316769
0.000871166465429669
0.000672644242514808
0.000446061484698938
0.000168474377826333
0.00166606858929478
0.00154499647382197
0.00140511730789145
0.00124818018592346
0.00107596067920053
0.000888521519394192
0.000683316252904482
0.000451557785262818
0.000168857194289357
0.00183918400611018
0.00172403075822684
0.00158937754369767
0.00143675702863722
0.001268973485406
0.00108806379314327
0.000893722081091843
0.000683372476729948
0.000448636587062232
0.000165926910420612
0.00200440232191766
0.00189494758459611
0.00176538441650098
0.00161691029694655
0.00145250322525586
0.00127542703155462
0.00108723592078137
0.000887274663653963
0.000673255739291284
0.000438287822503196
0.000158343531996012
0.00216141649958732
0.00205763645370105
0.00193318180302987
0.00178894656349565
0.0016277675473856
0.00145331246674994
0.00126840285582347
0.00107406353940539
0.000869691391045368
0.000653877909946194
0.000420510516865109
0.000145883319573796
0.00230968853945249
0.00221169960774151
0.00209249493039528
0.00195271827637284
0.0017949982348381
0.00162302459912167
0.00144010732661812
0.00124846212441377
0.00104896925430708
0.000841429973612828
0.00062529871047211
0.000395193950643616
0.000129179463960304
0.00244862939741666
0.0023566076448882
0.00224287084072343
0.00210785058908761
0.00195396829022315
0.00178478038047571
0.00160371121560235
0.00141346099385179
0.00121598338113985
0.00101232775555848
0.000802838745060254
0.0005877858800843
0.00036242142036201
0.000108953262541898
0.00257771922629346
0.00249182959498595
0.00238378626659638
0.00225383453309839
0.00210422673327318
0.00193836304048903
0.00175946796280327
0.00157047061092115
0.00137376935213793
0.00117134932557853
0.000964545063271359
0.000754265933372858
0.000541407906236404
0.000322562699200296
8.6200452337281e-05
0.00269649692329978
0.00261684209244911
0.00251468758534226
0.00239008801380419
0.00224513545947721
0.00208313921868294
0.00190725319695953
0.00171975138105623
0.00152371745668474
0.00132143061392662
0.00111499260985386
0.000906046763750614
0.000695985297960015
0.000486409130724517
0.000276084839086365
6.194777806587e-05
0.00166578316481261
0.00146379236789929
0.00125686625511261
0.00104734758124294
0.000837193872026275
0.000628255816688868
0.000423186007731658
0.000223551716902575
3.8642223941223e-05
3.99165563191458e-05
0.000145885568512661
5.64333094383343e-05
0.0003636842522656
0.000207608466382544
7.74569890412774e-05
0.000596001962990091
0.000441808006923979
0.000269701972597332
0.000100425470878997
0.00081556708337288
0.000671979558312984
0.000509148690534882
0.000324049211235547
0.000120781008843906
0.00102433560251845
0.000888572625244047
0.000735330479605938
0.000563317961173557
0.000366408427153115
0.000136462358764321
0.00122394903614156
0.00109452888935829
0.000948254143970384
0.000785126693342927
0.000603653120699967
0.000396330408730224
0.000147590243273928
0.00141489568484487
0.00129147834950209
0.00115067274636677
0.000993769620854557
0.000821117974407593
0.000631000048358806
0.000415711562828815
0.000154171813239523
0.00159768629206419
0.00148010729441901
0.00134423142559906
0.00119186343399338
0.00102498188208718
0.000843942404032794
0.000646793858830928
0.000425849831363672
0.000156447299990821
0.00177258442182425
0.00166079669550146
0.00152979179893459
0.00138121220967289
0.00121805410225242
0.00104247752140992
0.000854431558624993
0.000651824441958877
0.000427106363985632
0.000155132637931758
0.00193987124191287
0.00183359380146489
0.00170745887242722
0.00156272265527832
0.00140243739976327
0.00122996402663933
0.00104699445195015
0.000853105416597842
0.000646431815412651
0.000420008224927725
0.000149091571856713
0.00209940495779036
0.00199854317485259
0.00187725474722895
0.00173645571407564
0.00157901331727894
0.0014086406793325
0.00122822811196653
0.00103891251244961
0.000840268042514753
0.0006310874524425
0.000404988064615544
0.000138306388851931
0.00225068185033202
0.00215530453482637
0.00203896137311857
0.00190230302255599
0.00174796799748109
0.00157965420084165
0.00140069858211156
0.00121336854260869
0.00101862608242463
0.000816409286330811
0.000606201732576943
0.000382283313128075
0.000123418912641144
0.00239306049670737
0.00230332985385697
0.00219212754560894
0.00205988280534514
0.00190902310717268
0.00174312181607062
0.00156558152748963
0.00137911400136893
0.00118571117904653
0.000986481015064199
0.000781844112137674
0.000572008185443974
0.000352103640261807
0.000104972324898477
0.00252592881772698
0.00244202840557797
0.00233620350960831
0.00220868445839651
0.00206171654204844
0.00189872089578003
0.00172299852962811
0.00153736216146074
0.00134421640811145
0.00114558271491429
0.000942839261122391
0.000736926469170445
0.000528680093737601
0.000314703041767719
8.38512509559167e-05
0.00264879229817825
0.00257087429859071
0.00247064918702297
0.00234815956939798
0.00220549094514694
0.00204593479383332
0.00187265638124905
0.00168826846652307
0.00149537105494439
0.00129635514237476
0.00109337250695727
0.000888092058740322
0.00068190777154699
0.000476401734566988
0.000270457218273501
6.09064640475458e-05
0.00276123610820397
0.00268937990427311
0.00259493547772251
0.00247775279130552
0.00233974666790318
0.00218409055403037
0.0020138749001606
0.00183163371220369
0.00163932496766805
0.00143996961556386
0.0012359383966919
0.00102950229980785
0.000822585612342277
0.000617022664440835
0.000415480244969407
0.000219676007525479
3.81382460088733e-05
0.00157627073922819
0.00137150825178545
0.00116337245515608
0.000954334347748785
0.000746568929348682
0.000542512923530541
0.000346454564729268
0.000164082224553759
1.83187601100375e-05
2.71257853212419e-05
9.95395608667644e-05
3.94177906016606e-05
0.000283716407964544
0.00015264662064413
5.60190203697248e-05
0.000512338944697411
0.00036652213003814
0.000211986969381483
7.62827698875665e-05
0.000733587026836178
0.000596123394947908
0.000441269455261208
0.000269728299762691
9.65154023332409e-05
0.000944397156190501
0.000814041322427153
0.000667170876353419
0.00050332589733467
0.000318525937299069
0.000114028445194219
0.00114630814109125
0.0010214134488512
0.000880554231918863
0.000724042526720219
0.000551009187787831
0.000355311561063902
0.000127700255407933
0.00133945997974985
0.00121992473730397
0.00108370934952045
0.000932315015973697
0.000766429546878346
0.000584903462227757
0.000380779988564809
0.000136962744859005
0.00152410524424761
0.00141013153304983
0.00127832053327226
0.00113067738341013
0.000969381916399964
0.000795131065096276
0.000606482078516521
0.0003961132835505
0.000141651297452758
0.00170082054930035
0.0015924569343633
0.00146515454872283
0.00132082378791524
0.0011625020448636
0.000992539669275149
0.000811172466672105
0.000616803779885224
0.000402067310131839
0.000142190210265048
0.00186998471749594
0.00176705142745458
0.00164447579763991
0.00150360986773391
0.00134760976154034
0.00117998623199652
0.00100257731440576
0.000815195995278096
0.000616381037726083
0.000398866276252024
0.00013836823027223
0.00203179782650135
0.00193408078623869
0.00181616013706664
0.00167898658414558
0.00152548503445717
0.00135944124717134
0.00118383326474535
0.000999926672417128
0.000807497098752141
0.000605489089708593
0.000387199863607245
0.000129668683145521
0.00218588741928553
0.00209337125565627
0.00198013359544519
0.00184682777733703
0.00169611022632193
0.00153171108227909
0.00135701398977767
0.00117435121680739
0.00098478101987532
0.000788367912585991
0.000584603554219796
0.000367506917037774
0.000116767212642639
0.00233160329436728
0.00224440784572314
0.00213599774297245
0.00200679311858182
0.00185921996072672
0.00169686308037283
0.00152313871733341
0.0013407867660252
0.00115184306235106
0.000957482256584914
0.000758186752121971
0.000554062682045968
0.000340181983195214
0.000100217006854892
0.00246824568775843
0.00238654949470047
0.00228318579078265
0.00215837021741112
0.00201433582453162
0.00185450940484591
0.00168221419768417
0.00150024565110338
0.00131101712961061
0.00111657790386919
0.000918345517763595
0.000717268425220693
0.000514102532761816
0.000305487517513756
8.07842501897488e-05
0.00259520624152248
0.00251918565029698
0.00242110399474329
0.00230098465722551
0.00216089411771119
0.0020041149214994
0.00183383564729779
0.00165274578606535
0.00146333229580384
0.00126798707599059
0.00106888744891847
0.000867723379670524
0.000665880097238111
0.000464907388004261
0.000263749200326063
5.92318394001391e-05
0.00271202815671753
0.00264181610680775
0.00254922340586511
0.00243408902756001
0.00229832247121601
0.00214507975473668
0.00197742980136788
0.00179791994727729
0.00160883160138587
0.00141271909067018
0.00121205506767519
0.00100914872946546
0.000805930455755544
0.000604230825411159
0.000406732956317604
0.000215275202657571
3.72654571229295e-05
0.00281834731101486
0.00275399881237911
0.00266705177121612
0.00255716020301267
0.00242606226613058
0.0022767849557699
0.00211229194888387
0.00193504560568009
0.00174723710180676
0.00155079790787509
0.00134877170398958
0.00114361071932548
0.000937707400769144
0.000733199184268813
0.000532520377007022
0.000340000213305715
0.000161160681633161
1.81815712863213e-05
0.00147875909783661
0.00127181348874117
0.00106296880262797
0.000854759088059029
0.000649632866103026
0.000451120814465721
0.00026596239847379
0.000104275944663297
7.31040336265932e-06
1.47649070962558e-05
6.4833351252891e-05
2.55435144788588e-05
0.000206309197392498
0.000108502953398276
3.84587720457597e-05
0.000422432216305394
0.000288901804241702
0.000159236844216715
5.5020643617662e-05
0.000644266414715632
0.000513385132962592
0.000368189019365068
0.000214571738853879
7.32327982739265e-05
0.000857066428822597
0.000732607020475452
0.000592506905367797
0.000437560192024838
0.000266820995793607
9.08914867429872e-05
0.00106180351665253
0.000941836895481687
0.000806787546438357
0.000657223437506662
0.000492928329716781
0.000309622057672085
0.000106186249111316
0.00125803148127157
0.00114248418494579
0.00101111367409497
0.000865540195210666
0.000706705073124198
0.00053393638752366
0.000341356733522442
0.000117820589292378
0.00144518981205717
0.00133478375415393
0.0012071162996236
0.0010643987759928
0.000908975482734606
0.000741829042054213
0.000561887563508277
0.000362377934674412
0.000125042949400694
0.00162387324920808
0.00151891778394515
0.00139543777723507
0.00125545423119364
0.00110217246820409
0.000938122427261079
0.00076382229366584
0.000577962960006422
0.000373434224044466
0.000127679738634422
0.00179478981848782
0.00169532818426162
0.00157637406354487
0.00143944852084462
0.00128795669089058
0.00112545555464864
0.00095393609611314
0.000773479281704359
0.000582837079502026
0.000374769088604479
0.000126282814014613
0.00195860388851314
0.00186425089363404
0.00174986758400741
0.0016164653974713
0.00146706791480121
0.0013055699489687
0.00113505749377767
0.000956946791801112
0.000771199148619759
0.000576839719520745
0.00036699926019195
0.000119985838946996
0.00211523252498304
0.00202583653602109
0.00191593945962738
0.00178619799277437
0.00163930607003987
0.00147905475704836
0.00130889700324556
0.00113124464506577
0.000947265343165258
0.000757146986121255
0.000560341752060066
0.000350753173461051
0.000109262169559919
0.00226409399109807
0.00217969703902675
0.00207434347667989
0.00194843490616581
0.00180439661831676
0.00164583678018716
0.00147620888399883
0.00129829820239336
0.00111419484922055
0.000925143483137811
0.000731676182570685
0.000533794806148168
0.000326581271468744
9.47458067540526e-05
0.00240443027378365
0.00232518253048451
0.00222454325888687
0.00210270529588309
0.00196188340439734
0.00180550594691961
0.00163691569625745
0.00145892548963748
0.00127397202979363
0.00108413529896644
0.000890867604896745
0.000695104919530023
0.000497518439656618
0.000294839144891151
7.71190209601452e-05
0.00253551286905444
0.0024615976726135
0.0023658983330077
0.00224841664242311
0.00211119329428856
0.0019574986979702
0.00179053448778812
0.00161301724102028
0.00142741630994082
0.00123612484640665
0.00104133359453327
0.000844739566597169
0.000647701741206415
0.000451728442412656
0.000255833019584403
5.70502037662121e-05
0.00265675414914105
0.00258833652549282
0.00249780245872531
0.00238497048670265
0.00225172555921894
0.00210120262300021
0.00193646577755537
0.00176008985065982
0.0015744296527233
0.00138192665860394
0.00118504679126386
0.000986110272726984
0.000787045860926306
0.00058967160642417