/*--------------------------------*- C++ -*----------------------------------*\
  =========                 |
  \\      /  F ield         | OpenFOAM: The Open Source CFD Toolbox
   \\    /   O peration     | Website:  https://openfoam.org
    \\  /    A nd           | Version:  12
     \\/     M anipulation  |
\*---------------------------------------------------------------------------*/
/*   Windows 32 and 64 bit porting by blueCAPE: http://www.bluecape.com.pt   *\
|  Based on Windows porting (2.0.x v4) by Symscape: http://www.symscape.com   |
\*---------------------------------------------------------------------------*/
FoamFile
{
    format      ascii;
    class       volScalarField;
    location    "200";
    object      omega;
}
// * * * * * * * * * * * * * * * * * * * * * * * * * * * * * * * * * * * * * //

dimensions      [0 0 -1 0 0 0 0];

internalField   nonuniform List<scalar> 
10142
(
3.11786318338239
3.09866539885527
1.0571940054526
3.06859083567481
3.0760615934171
1.05049861594569
3.05038222116589
0.644433708541023
1.04178362338174
3.0128194539133
3.04803010097828
1.04280994918375
3.02915147988194
0.640341543062542
1.03519317970399
2.99534129763952
0.490024643928686
0.638608985961698
1.02065153860221
2.95606903248493
3.01382037704429
1.03389685129082
3.00211270902615
0.635703426528378
1.02766297922423
2.97502167498599
0.487046390462297
0.634549588910744
1.01415200412962
2.93913722379699
0.415015776497801
0.487566452299299
0.629318471531507
1.00035751458522
2.90676858970545
2.97396947485178
1.0236022679425
2.9687932154168
0.630469653587407
1.01890762404507
2.94868134035201
0.483712540718384
0.629945336889517
1.00676233158439
2.91948173729047
0.412651130651028
0.484601369806281
0.625285232509465
0.993918339858323
2.89032843009969
0.373439445952245
0.413932843161477
0.482967265225721
0.61912331195573
0.983383235670107
2.86014154253364
2.9327845979517
1.01194334018789
2.92919335425347
0.624601431823698
1.00876127976286
2.91594202730334
0.480018879295435
0.624747667742136
0.998158489722087
2.8938106512666
0.410036692987884
0.48127601487249
0.620714050854648
0.986620583949286
2.87116648580356
0.371464285478205
0.411573764948299
0.480006092287991
0.615095894880269
0.976954868356773
2.84398993916468
0.348599664818959
0.372932122018932
0.41139605458079
0.477129534411819
0.609385226064117
0.967871798805666
2.80735365578242
2.90219151429885
0.999385022647217
2.8846410821696
0.618105400150487
0.997185684870938
2.87660385191735
0.475973578544453
0.618918359395744
0.988165592550321
2.86179533880925
0.407185801067808
0.477589660624775
0.615553138454841
0.978123942284171
2.84593611734624
0.369305405014388
0.408958905984034
0.476682503097448
0.610534061849922
0.969680071203075
2.82516199849588
0.34689765486957
0.370959125624584
0.409031647900848
0.474156367497831
0.605335102384956
0.961411207069054
2.79146820581778
0.333100488677159
0.348305270451069
0.371341129460464
0.407704960573109
0.470753532786113
0.5998207806808
0.950857055382467
2.74432068945513
2.46685600848344
0.987962139571679
2.8389996179983
0.611096628636879
0.984409130841153
2.83055310408002
0.471616513835318
0.612465797580601
0.976727047018049
2.82314229585376
0.404128391346732
0.473552000625419
0.609763754819144
0.968244772467867
2.81432920553329
0.36698631655388
0.406104999737148
0.472995420991339
0.605382213121523
0.961203175925192
2.80026141300147
0.345055867727341
0.368796165124421
0.406407201861708
0.470817347909282
0.600748020753935
0.954100566480741
2.77286292502237
0.331607741516852
0.346604082806661
0.369358987639092
0.405321166857968
0.467749374963558
0.59572529722864
0.944351898019089
2.72883518509307
0.323219896754851
0.33287370401863
0.347134045338098
0.368757194444975
0.403224629362409
0.463992129289843
0.589514243626935
0.930740930500686
2.67130928186436
2.46710977771731
0.95600665899275
2.8045467500127
0.60401732399451
0.972600496516329
2.77859814749268
0.467049136820807
0.605524051775127
0.963965493827039
2.77734376628841
0.400924566332085
0.469206074098784
0.603358894135293
0.95691077930964
2.77605508884249
0.364549327592844
0.403042712126568
0.468954356695379
0.599596514385449
0.951324603575098
2.76901677322994
0.343106355079267
0.366469875680744
0.403539023514017
0.467108421723136
0.595559945108553
0.9455684652831
2.74823534006884
0.330000490692855
0.344756889062676
0.367181970838465
0.402672173988574
0.46437268821156
0.591081669233088
0.936966501737751
2.71064852405725
0.321910230888033
0.331381363341725
0.345422275018783
0.366752771353189
0.400807390488209
0.460942628716359
0.58535919143039
0.924206299972458
2.65675622778383
0.323018076049177
0.331889215365765
0.345129323173268
0.36540662541327
0.398200636502498
0.456673428133338
0.577826502030693
0.907047175956185
2.59370103488741
2.4684579407777
0.936078343924305
2.38279746884582
0.595353753181214
0.959979921291452
2.72336454544237
0.462514375748321
0.598673470962516
0.951607793426647
2.72476562637207
0.397683222430682
0.464667543162051
0.596491244769089
0.944192065555208
2.73053288646943
0.362066838185417
0.399832790866308
0.464604075281183
0.593183402318446
0.939945122916052
2.73126985027349
0.341101419976586
0.364022920196199
0.400457001427131
0.463035260472222
0.589716352877803
0.935591490377631
2.71749581607987
0.328324395476424
0.342798727055947
0.364836278161863
0.399771332958005
0.460613198487433
0.585814687419685
0.928325803418891
2.68681152753965
0.320475676613119
0.329768355869462
0.343559474180599
0.364547759637011
0.398116828835788
0.457508607127607
0.580633751535942
0.916735704970642
2.64067358153482
0.315798607433477
0.321707802370882
0.330385921396488
0.343394241149221
0.363367774773721
0.395739065722568
0.453568407534303
0.573603754605916
0.900440340304837
2.58301327350141
0.322133052919876
0.330207184240208
0.342477186079906
0.361543742247583
0.392734390472609
0.448628522566255
0.564454647878604
0.876923780307806
2.19480573107997
2.47049254982686
0.929232943770279
2.38444982034606
0.587268782187213
0.923500232616958
2.28846146597185
0.458032034591072
0.591365178993176
0.940051022721453
2.66801373772644
0.394604953124487
0.460195185783531
0.58976753757454
0.931149022928481
2.67841992809221
0.359655896699645
0.396586599739782
0.460067672405724
0.586269493716467
0.927038968339691
2.68696118569187
0.33912390930687
0.361527383897584
0.397221070357924
0.458637524771991
0.583203672980842
0.924029414839994
2.68065895035746
0.32664228456846
0.340782072211618
0.362363614683085
0.39664520168262
0.456468567664375
0.579850664919688
0.918092638033316
2.65761981189472
0.319007282742453
0.328083320968365
0.341580236261181
0.362165669394747
0.395161647670734
0.453671848829525
0.575246186481248
0.907881781846363
2.6215238858293
0.314465303731201
0.32026787588313
0.328756854998113
0.341502319252873
0.361120009388188
0.392992573030912
0.450061628747514
0.568768193086337
0.89287974030321
2.57524239450838
0.311950667478408
0.315608857250115
0.320810948031872
0.328680266064869
0.340707255885308
0.359461154665826
0.390221234652141
0.445461597037962
0.560129512492396
0.870797755775332
2.19480014114704
0.320658468924607
0.32801594056717
0.339425553443842
0.357365676105795
0.386881171683287
0.439802523883141
0.548747818916858
0.822725416480328
2.19513095048833
2.47707958883524
0.934870401501514
2.3873006038256
0.583011615129477
0.912319759218868
2.29017031273842
0.454120091535622
0.582466899431589
0.908310310169688
2.62145602515482
0.391884329623889
0.455828361364209
0.582955116548917
0.920972900759032
2.62256955728733
0.357503001467112
0.393511818850612
0.455620158589594
0.579459511288794
0.912912507345161
2.63777188050834
0.337301789266557
0.359100273883512
0.393942976313588
0.454026271091087
0.576101964913469
0.910909227453629
2.63888767950185
0.325047050126953
0.338789086643431
0.359834374482381
0.393349299680945
0.451965636632705
0.573142925114205
0.906254063125275
2.62463526119127
0.317576784081666
0.326389168084149
0.339536088436212
0.359645251246589
0.391962344068919
0.449417850951894
0.569070659726886
0.897385929017509
2.60409485557169
0.31315605156159
0.318790773891671
0.32705048088293
0.339485679299139
0.358682938904883
0.389964051490036
0.446124413411399
0.563177908632972
0.884143960682912
2.57771877928316
0.310751156949753
0.314274533412183
0.319355029944636
0.32702171208275
0.338772218868545
0.357158458141678
0.387408644886821
0.441868732657775
0.555126810622463
0.86335396792136
2.19479726429068
0.309694140480966
0.311780283218417
0.314779546896094
0.31931193079693
0.326453762170929
0.337611817000947
0.355233242107599
0.3843129734461
0.436566474615803
0.544415254890898
0.818671241312234
2.19512542090208
0.318799308660939
0.325558873105436
0.336198437145902
0.353030915937959
0.3807443279726
0.430206607370281
0.529741019836575
0.795730415016772
2.19485568691378
2.47707765247967
0.954543202853418
2.39185417680148
0.58399873310596
0.915835746642574
2.29303147667512
0.451961549159727
0.577423334411289
0.892647716480997
2.21929747849747
0.389901028527217
0.451849448739974
0.574638165134677
0.910777975203948
2.57747893829327
0.355875877543148
0.390781556302973
0.451305621711712
0.57288304920977
0.902517491692029
2.59149707237211
0.335831661865776
0.356932368100552
0.390830225858742
0.449487719314944
0.568873527823887
0.895762708449588
2.5963693080673
0.323679565171014
0.336946514483798
0.357363298394139
0.389989098598555
0.447193139626404
0.565743402182244
0.892518358064802
2.59075035892992
0.31628464206056
0.324777926323475
0.337507203764439
0.357052770729688
0.388565719332648
0.444754436634876
0.562083623875077
0.884849270856396
2.61430582647816
0.311927174916842
0.317348390666291
0.325328649532918
0.33739313153492
0.35609042447991
0.386665846677924
0.441722359599936
0.556733414402537
0.873213102579327
2.579272913527
0.309584778460732
0.31295751362076
0.317856815933079
0.325277804178515
0.336700710129084
0.354650615571986
0.384292810730889
0.437802837921175
0.549352527232508
0.85550719246437
2.19479197779223
0.308602615380854
0.310579649795825
0.3134312444523
0.31782627738423
0.324751723603831
0.335621994501858
0.352867284578226
0.381428563449668
0.432873702415114
0.539289436650812
0.810487106047274
2.19512262939621
0.308538577255331
0.309544262006763
0.311011813281081
0.313433546745482
0.317416468813925
0.323952104776955
0.334334741383065
0.350845903187625
0.378122214788082
0.426929721940614
0.525665092325461
0.791272931559289
2.19485236171608
0.316799353467399
0.323064031624796
0.332999083418486
0.348732928296342
0.374538212789042
0.420145897845817
0.513507795821699
0.77407608089415
2.19192995822876
2.49612145387186
0.993040438157067
2.39533601503348
0.591953446733748
0.93386064009878
2.29674769691033
0.452649282368573
0.577753689148721
0.892666025628832
2.22204871723377
0.389327242120151
0.449498577936729
0.568522386559432
0.876701902173058
2.19037351229288
0.355144829183794
0.388752419573953
0.447298523595679
0.566083273178677
0.893077018519531
2.57963044582482
0.335018277789009
0.355270502190904
0.388042533371694
0.445091970293719
0.561941226390414
0.882366246061967
2.192515777959
0.322755809076671
0.335449139081278
0.35513681085574
0.386762788271132
0.442394937853826
0.55779493619148
0.873842846780154
2.19505560520556
0.31528374613375
0.323388830176467
0.335617178452144
0.354496734156312
0.385063779952626
0.43974625640339
0.554205113335201
0.869636263255666
2.58275694481514
0.310880812824673
0.316040308184652
0.323681269539241
0.335300891643018
0.353401906894946
0.38313300793859
0.436857559061034
0.549312841209364
0.858863977761631
2.19481853346539
0.308524011340446
0.3117170566377
0.316387008641395
0.323507746098343
0.334537240361667
0.351965296824057
0.380876282335294
0.433231818671236
0.542552732965488
0.843499012142892
2.19479967643484
0.307555888625269
0.30940563519498
0.312093863460345
0.316290529538042
0.322952884740377
0.333480651972967
0.350277707953627
0.37821614845034
0.428685583596626
0.533466830657646
0.803345209429629
2.19511741636928
0.307530947162259
0.308451378763928
0.309796952487562
0.312055839058285
0.315886668476537
0.322194568782577
0.332281817725102
0.348412632765643
0.375166251380872
0.423170104921052
0.520507481220171
0.785603389747465
2.1948499727696
0.308137134884013
0.308408342893388
0.308831279937108
0.309792730778745
0.311794414830889
0.315370286776475
0.321405820655111
0.331082063830824
0.346496832190803
0.371876897785507
0.416908945768698
0.509666185039548
0.769661587644147
2.19192893783902
0.314886112233246
0.320753467696307
0.330071337627622
0.344773998147325
0.368706905426428
0.411057251599696
0.499674016147814
0.75218231599218
2.18619365483965
2.47684900258225
1.06363751589733
2.40111560495267
0.610204917103672
0.971195102480774
2.30018086900016
0.457502574834895
0.585004159491663
0.907649749196249
2.22558050497906
0.391053302518623
0.449940962900268
0.567689551789395
0.871382503702163
2.19317081553601
0.355934419840719
0.388082630497239
0.444591005096208
0.558245070413771
0.859148446772442
2.18937730661276
0.335300986706374
0.354486149776005
0.385901500064788
0.441018197684282
0.554944725563976
0.870252534692766
2.19338245433317
0.322612390050414
0.33459811706747
0.353392210029155
0.383829587201593
0.437709545954759
0.549840942532579
0.841131389065655
2.19542324772009
0.314810666771188
0.322435024103319
0.334055501261144
0.352152040382367
0.381632019937571
0.434548897611777
0.545049435795603
0.833653851716056
2.19532073189423
0.310178837593139
0.315017592648842
0.32224396420585
0.333326503560274
0.350715713520191
0.379441320898538
0.431555587961466
0.540840733208899
0.843286370543371
2.19486220185125
0.307678595584851
0.310654943445901
0.315043014409648
0.321797476363281
0.332352024328194
0.349153463102253
0.377185361798798
0.428139257044392
0.534500367093366
0.812494783059475
2.19481329607905
0.306633518354059
0.308333400882747
0.310826292160595
0.314772633910422
0.321112373708721
0.3312269668172
0.347485453227661
0.374674280253507
0.423953140439842
0.526479833881232
0.795599509407334
2.19512516206178
0.306580579837567
0.307396946597572
0.308602552717043
0.310681026500819
0.314295501322642
0.32032548555124
0.330059832403725
0.345735817951275
0.371863614779332
0.418925551417597
0.515050844336873
0.77968176397881
2.19484701083643
0.307194432067438
0.307399162691063
0.30772367297289
0.308547749229572
0.310371890439799
0.31378361714688
0.319583649279755
0.328961233295063
0.343997512564722
0.368869099541073
0.41316900760365
0.50515900164868
0.764625394832937
2.19192716018351
0.308241324731842
0.308024660052165
0.307745071179746
0.307721007675324
0.308363410574656
0.310111009903537
0.313403015976853
0.319039229411125
0.328100726404554
0.342494878326471
0.366039686865548
0.407934004937143
0.496013621407257
0.74771799605074
2.1861928472248
0.313290421388728
0.318899796687712
0.327768095409207
0.341650382457015
0.364102306110802
0.403955378734739
0.48779744730909
0.729883190905536
2.1872188611848
2.51405902630846
1.16692259077828
2.4006579023158
0.6451912100885
1.03658325637696
2.30188323223664
0.468598588955776
0.602181115443781
0.940514927390867
2.22846110581968
0.396310292401096
0.454467695609022
0.573635515309198
0.883286623577839
2.19682452498093
0.359189962134191
0.389664311470426
0.444536737037779
0.555946381895588
0.852886312559574
2.19233033276058
0.337396439285316
0.355189534876998
0.385011764366015
0.437811612781947
0.546680579252743
0.840363311290992
2.19516235530522
0.323787314687879
0.334819047521163
0.352480701046133
0.381479165183964
0.433310847948539
0.541968915334697
0.825957659547342
2.19629485099363
0.315239505965219
0.322248446707643
0.333113056638428
0.350251912155879
0.378448268512764
0.429393792774364
0.535022092217166
0.813507507274094
2.19568357678908
0.31007427220017
0.314513425996105
0.3212235195884
0.331649567857163
0.348188534658557
0.375728634254485
0.425872332808643
0.530032855355749
0.809073436137788
2.19499428600931
0.307217787758006
0.30993124091078
0.313972007930122
0.320276264249032
0.330253757893076
0.346302076223375
0.373280207012698
0.42255475546882
0.525846234870036
0.798456004976975
2.19485693466437
0.30595033730954
0.307472393840328
0.309728478125413
0.313365947950837
0.319310315370404
0.328923864238851
0.34453348271042
0.37082181771353
0.418655303720596
0.517617497492487
0.785909328717284
2.1951392112067
0.305769471885876
0.306463126174383
0.307503200699453
0.309365290904975
0.312706829800526
0.318394947279786
0.327702192162156
0.342831152276295
0.368209881415274
0.414145207436833
0.509070591188477
0.773204733269992
2.19485081982205
0.306319870740843
0.306440977300147
0.306648538818664
0.307315413877631
0.308940867685163
0.312120834404671
0.317632502590012
0.326652254688105
0.341236289536714
0.365507742927787
0.409028138213077
0.50023677620602
0.759059373362272
2.19192655109092
0.307348343575548
0.307080237009295
0.306720681404274
0.306582349999399
0.307072152193299
0.308630030464388
0.311749208339404
0.31714606570654
0.325910950643356
0.339939322881447
0.363020613874798
0.404369947781045
0.49183199107939
0.742719486641341
2.18619160885243
0.308670826283759
0.308144374675986
0.307404998922936
0.306728599057388
0.306467445648287
0.306977818405396
0.308612524730953
0.311747311106406
0.317127129152923
0.325747196593726
0.339343379087568
0.361465490345782
0.40093395243451
0.484198027451761
0.725045415576737
2.18721824195948
0.312302394261419
0.317889088272585
0.326628137658857
0.340165779699765
0.361883879465438
0.400064124179627
0.479395029920288
0.710888350426273
2.21610854576862
2.46568095716546
1.32034563316222
2.4173727128663
0.704850800699372
1.13079620135942
2.30585691214659
0.489584254163232
0.634704334726661
0.996727300072093
2.22937133566249
0.406998873728833
0.465035532308875
0.588728457383837
0.912155774569419
2.19977407716397
0.366385380276119
0.394702448844934
0.448382354006537
0.560263419292263
0.862367723351695
2.19629238638525
0.342486461776399
0.35830763472519
0.386259187743142
0.437059235460512
0.543508352114984
0.835373113621761
2.1982771750453
0.32714872898002
0.336815503914032
0.352981912417177
0.380235081540332
0.429645640866234
0.534030918654298
0.817541663175851
2.19811323304673
0.317182614313554
0.323353935146104
0.333195807381193
0.349115732866231
0.375775203171823
0.424531137388003
0.526582745873733
0.803037816909911
2.19655537518424
0.310970788006661
0.314895386449104
0.320939670567843
0.33054449302887
0.346055419033071
0.372222257047917
0.420164903686011
0.520231252977318
0.793327863287815
2.19535425673861
0.307404245602606
0.309795338181722
0.313399987584422
0.319140011004478
0.328408166062012
0.343551069958106
0.369274852246823
0.41647082704035
0.515390553623751
0.786058240075044
2.1949890283453
0.305679218430862
0.306990116675054
0.308956562757351
0.312210928008024
0.317667073991498
0.326669832870064
0.341497916844751
0.366713846396967
0.412935121648702
0.509458532473247
0.776868750151939
2.19518412950551
0.305214372377105
0.305764511942446
0.306606582507213
0.308204650715705
0.311208143021726
0.316476059377551
0.325264310377975
0.339734817106028
0.364221803264812
0.408810928697744
0.50237918771975
0.765906412818759
2.19486760023708
0.305596097114964
0.305618410858894
0.305687421733341
0.30616746106673
0.307553469373312
0.310440803667275
0.315596942126267
0.324183027032348
0.338224933140514
0.361790679384766
0.404462263415479
0.494831723331178
0.752816497369883
2.19192682148663
0.306532161647882
0.306197742561469
0.305741402900932
0.305468501673815
0.305782284992649
0.307125448981209
0.310001571315089
0.315104494461493
0.323513559586251
0.337107099849267
0.359657278164106
0.400405086527591
0.487175373889395
0.737183673150367
2.18619129940061
0.307815116910545
0.307249518438711
0.306444910723663
0.305672225535815
0.305280904937129
0.305625649097162
0.307061631155603
0.310018286794518
0.315159187291494
0.32349162707023
0.336748868986406
0.358480488697214
0.397495984368602
0.480105720987367
0.719826166295289
2.18721736146907
0.309293936471018
0.308587189079031
0.307562369700301
0.306469065686217
0.305623634461778
0.30532968812035
0.305865940057665
0.307536451394921
0.310694814454051
0.31605764456533
0.324563218794877
0.337846761899845
0.359281795192058
0.397096008176445
0.475743667106106
0.705790910837924
2.21610814409181
0.312331002871055
0.31829531686145
0.327489989531674
0.341576046980217
0.363878053267571
0.402202608043181
0.479715735679803
0.702932252727773
2.28699453242711
2.49631298205334
1.46336524885162
2.42906369191476
0.801830238735139
1.24383205975187
2.32324422011512
0.526755572227757
0.689056171580895
1.07521667309922
2.23283063618936
0.426379430632324
0.485002684214751
0.617114299023861
0.960119686040051
2.20045047515796
0.379986119459392
0.405025567623379
0.457863459483106
0.572839101151193
0.886336860485068
2.1996185112741
0.35260193516306
0.365269337369593
0.390786039295563
0.439907864506147
0.546180920588168
0.843029043258208
2.20253541884279
0.334232082687837
0.341734106601798
0.355777312965287
0.38095196877586
0.428167231403216
0.530485466837794
0.816248310357522
2.20133141014048
0.321691246475636
0.32659637922476
0.334970201929115
0.349276458671284
0.374084153985609
0.420502289955567
0.520218169188089
0.797527380998633
2.19839046315416
0.313537779801426
0.316762513519867
0.321893594662158
0.330390027560956
0.344600997507005
0.369162190701061
0.414921287456416
0.512379235644885
0.783245227465592
2.19622484771915
0.308655587359859
0.310643604534422
0.313680389432187
0.318688089218185
0.327067549866451
0.341123513286471
0.365409063236895
0.410470035028021
0.506330678878504
0.775367647745636
2.19534906699734
0.306084389351614
0.307145622438843
0.308752301039552
0.311521551416037
0.316363980316895
0.324615377466656
0.338504094494346
0.362451620572917
0.406803943651554
0.501197524090286
0.767605664619406
2.19531857703927
0.305087848043553
0.305472361073543
0.306076360474078
0.307348370975873
0.309930572450746
0.314678874469863
0.322834482811909
0.336514786521964
0.359965582646083
0.403180764486592
0.495371541355447
0.757892622034716
2.19491497029936
0.305139656213272
0.305048070180544
0.304953263478497
0.305207710051067
0.306299855965366
0.308823940487615
0.31354259966476
0.321601846864808
0.334994540588345
0.357735626247778
0.399452174715624
0.488853544782108
0.745761322498672
2.19194619497417
0.305875321670643
0.305462507593673
0.304891315352348
0.304458181305927
0.304561392104581
0.305644521667188
0.308213434770535
0.312953405872519
0.320931384640265
0.334007426384884
0.355948648891804
0.396024304816733
0.481991835305784
0.730949470840901
2.18619374460913
0.307042766739403
0.306425298570599
0.305540936047253
0.304653396789453
0.304107995798191
0.304259757174046
0.305468718029802
0.308175258286056
0.313021956390853
0.321009280797534
0.333866451876052
0.35514734767085
0.393646964786968
0.475540186236003
0.714226104559505
2.18721720707518
0.308465229903655
0.307729464320084
0.30665142845488
0.305476107704377
0.304517794618813
0.304079697987258
0.304440126548541
0.305905908270269
0.308884233332371
0.314013356915522
0.322247799789934
0.33522920672239
0.356326917757645
0.393710153231536
0.47160772121872
0.699947384964473
2.21610744847733
0.310014450198083
0.309221584514572
0.308037357443967
0.306695177547289
0.305489967637759
0.304693626925707
0.304539076027485
0.305268785470969
0.30718552394758
0.310655681000017
0.316406005862046
0.325387017559752
0.339249100282889
0.361293546610579
0.399234451337096
0.475960669489648
0.698352552750698
2.28699433563476
0.313977703452115
0.32099913802374
0.331696078547539
0.348005355008274
0.373681533040193
0.417227215157224
0.503117546466834
0.736717711301921
2.38167841478807
2.9257182698255
1.62169291865391
2.45521496417358
0.938389694809016
1.34349202570858
2.36164640503656
0.592154408365274
0.770837654470016
1.16070714077021
2.25286416828756
0.460765606774752
0.520069151160308
0.663408345422988
1.02395138999898
2.20328040595438
0.404598646656182
0.423740406428635
0.475886035691518
0.596610639317345
0.925126050675087
2.20047594530486
0.371557749028963
0.378426729543448
0.400275069533449
0.447825152490029
0.555809258170476
0.8618221232972
2.20624860229321
0.347922288155537
0.351518623344969
0.362195227165895
0.384674827462934
0.429843840276088
0.531599850688718
0.822055543204635
2.20577739641055
0.330679214535735
0.333454290763802
0.33950509227641
0.351543549964053
0.374142125800247
0.418360554966416
0.516603698188758
0.795979207419724
2.20165618848028
0.318946819621981
0.321132468741398
0.324877305821008
0.331793922340721
0.344307553582862
0.366995743269385
0.410662478687274
0.506312890360474
0.777032006588824
2.19806457113579
0.311662940400367
0.3131296843365
0.315382227519332
0.319385469657162
0.326585082442229
0.339293609769642
0.36196779324781
0.405048223194199
0.498622125239013
0.765187652831236
2.19621981469697
0.307580102787089
0.308349213691438
0.309496558435505
0.311628181051705
0.315675047230654
0.322987891652522
0.335755307133024
0.358271962208749
0.40076727646067
0.493116043086508
0.757857425470199
2.19568149105559
0.305648780960006
0.305847589359298
0.306164010167106
0.307025458252367
0.309072118416627
0.313168629365885
0.320548884844674
0.333284890984235
0.355538105276206
0.397296568696283
0.487983138407471
0.749046656047531
2.19505380550317
0.305120054839891
0.304901124788274
0.304613748127853
0.304593035187486
0.305319692436782
0.307390581714089
0.311568976893933
0.318987637841181
0.331607559723431
0.353408593219106
0.394063186316951
0.482302960266575
0.737818615900044
2.19199683827929
0.305493053450744
0.304991056636273
0.304285560059683
0.303660642246507
0.303507483740883
0.304270298840819
0.306457596481577
0.310750957219774
0.318206080302291
0.330666603536449
0.351902604291733
0.39120282840964
0.476207804093133
0.723871823256528
2.18621249781237
0.306435885686274
0.305757007009885
0.304777975255495
0.303753504842795
0.303023360373039
0.30294276956007
0.303875672979567
0.306265721659839
0.310748642312349
0.318318194666508
0.330701739166653
0.351460539243445
0.389364568300713
0.470434788052043
0.70798646076438
2.18722116427642
0.307724679489555
0.306948984962497
0.305805374710939
0.304531785323555
0.303438380694551
0.302828167747547
0.302981935553134
0.304212044466557
0.306937328910996
0.31177767298271
0.319686419290774
0.332309880811596
0.353014263110344
0.389912441645688
0.467060843598017
0.69424790712709
2.21610681721688
0.309204295000683
0.308390737322919
0.307163169471241
0.305750548177511
0.304446045611975
0.30352187983454
0.303211704436323
0.303757966101386
0.30546672211012
0.30875835075092
0.314284738935063
0.323016015107492
0.336608489248356
0.358342832070856
0.395838287759397
0.471677827287728
0.693436449809811
2.28699422060006
0.310762430855018
0.309951577311889
0.308699046309332
0.307228511158607
0.305822529005583
0.304734558303219
0.304171233090405
0.304339438829914
0.305496891628945
0.307985632790194
0.312231742143218
0.319052012291795
0.329555100371337
0.345660676596387
0.371080609927643
0.414207795028087
0.499627768975774
0.732298078789905
2.38167751245985
0.318158686829627
0.327412290157155
0.34154964253794
0.363513423222034
0.399252598146597
0.4633422778626
0.604442620278388
1.01239360761689
3.68516580399512
2.94890112223629
2.93624876935594
1.19232610108136
1.48824283167408
2.41074114632021
0.710836225290137
0.88347732025082
1.24488030278579
2.30196937991196
0.523929660719623
0.58036456385574
0.730138560705115
1.09343329231125
2.2231212117153
0.450060912930307
0.456787830487276
0.507284753873663
0.634811997204501
0.975724960872009
2.20294350372899
0.407661765718635
0.402075243784156
0.4175476372033
0.463251695041082
0.57445987911708
0.891585794298313
2.20741119446383
0.374433216625365
0.369728755222016
0.374366077387008
0.392903614673453
0.435891561700105
0.538151669522513
0.835509762002556
2.20974604523943
0.348055098976518
0.346652678863605
0.348564163507863
0.357107021866139
0.376869416557884
0.418842419607054
0.51616401887819
0.798807828907377
2.20619056007993
0.329405715968684
0.329837271147983
0.331247590978024
0.335712524415657
0.345895804995504
0.366361065820921
0.407910762143198
0.502027150082108
0.773432296700559
2.20134560439283
0.317634366885547
0.318387674975407
0.319454646580866
0.321945167852614
0.327496356895195
0.338491651861636
0.359341300994051
0.400474056824298
0.492114139228397
0.755946274850007
2.19805979278028
0.310841101900731
0.31127613685756
0.311809128743698
0.313052652557122
0.316018663139797
0.322119959847708
0.333537473399142
0.354498901710121
0.39514205840863
0.485206539293495
0.747399864355097
2.19655342292587
0.307294547108597
0.307297800820165
0.307264308339378
0.307591640913128
0.308933923711792
0.3121926370364
0.318613279651452
0.330230998470707
0.351143650867952
0.391330089289527
0.480219891071252
0.739258378605554
2.1954216347598
0.305786594894573
0.305433629971252
0.304922796177119
0.304562203304921
0.304825043011671
0.306321137608503
0.309825658909664
0.316463595534831
0.328167034492162
0.348894156859224
0.38833976203919
0.475151240481343
0.728888968492406
2.19214133690418
0.305550500223517
0.304951761128223
0.304092159724306
0.303237189412588
0.30276789500478
0.303131294341831
0.304843269334019
0.308586459937569
0.315407775079688
0.327138441870887
0.347553772891862
0.385938199175719
0.469766063697358
0.715840440859044
2.1862668380172
0.306107990504117
0.305359980678074
0.304271321781507
0.303084311144387
0.302130671212319
0.301765604996924
0.302357837084923
0.304354698068655
0.308389991754831
0.315453248548911
0.327273099934926
0.347417630166649
0.384615697882611
0.464703159671462
0.700879858938811
2.18723936276593
0.307153847267231
0.3063306718462
0.305109193326609
0.303718500385176
0.302462901618612
0.301644868281798
0.301548494239786
0.302491034900983
0.304895552145338
0.309378028920443
0.316891901876964
0.32908905217893
0.349331695789768
0.385672415548744
0.462001790839904
0.688136117466165
2.21609764042036
0.308485667041495
0.307641980826618
0.306360546996496
0.304863426406839
0.303439719897651
0.302361342253962
0.301863876355677
0.302192919825333
0.303660629122022
0.306700273624511
0.311948457837118
0.320378166727837
0.333649653274953