/*--------------------------------*- C++ -*----------------------------------*\
  =========                 |
  \\      /  F ield         | OpenFOAM: The Open Source CFD Toolbox
   \\    /   O peration     | Website:  https://openfoam.org
    \\  /    A nd           | Version:  12
     \\/     M anipulation  |
\*---------------------------------------------------------------------------*/
/*   Windows 32 and 64 bit porting by blueCAPE: http://www.bluecape.com.pt   *\
|  Based on Windows porting (2.0.x v4) by Symscape: http://www.symscape.com   |
\*---------------------------------------------------------------------------*/
FoamFile
{
    format      ascii;
    class       volScalarField;
    location    "200";
    object      p;
}
// * * * * * * * * * * * * * * * * * * * * * * * * * * * * * * * * * * * * * //

dimensions      [0 2 -2 0 0 0 0];

internalField   nonuniform List<scalar> 
10142
(
83333.3254851609
83333.3253148769
83333.3254829104
83333.3254876118
83333.3251396422
83333.3253124329
83333.325317432
83333.3254801438
83333.3254854995
83333.3254926985
83333.3249597916
83333.325137258
83333.3251422395
83333.3253093544
83333.3253151666
83333.3253230497
83333.3254784713
83333.3254827293
83333.3254905173
83333.325500548
83333.3247748817
83333.324957449
83333.3249627136
83333.3251333539
83333.3251400872
83333.3251484674
83333.3253066557
83333.3253121944
83333.3253207781
83333.3253319556
83333.3254785242
83333.3254810315
83333.3254876831
83333.3254984633
83333.3255116357
83333.3245844497
83333.3247726463
83333.3247783485
83333.3249523347
83333.324960634
83333.3249698683
83333.3251288992
83333.3251363348
83333.3251463443
83333.3251586013
83333.3253046294
83333.3253095583
83333.325317829
83333.3253298605
83333.3253446462
83333.3254815348
83333.3254812257
83333.3254860806
83333.3254957202
83333.3255097211
83333.3255260991
83333.3243882706
83333.3245825009
83333.3245888643
83333.3247660954
83333.32477636
83333.3247867075
83333.3249453435
83333.3249556403
83333.3249677792
83333.3249815593
83333.3251238629
83333.3251319795
83333.3251426026
83333.3251567137
83333.3251731664
83333.3253048115
83333.3253077223
83333.3253153704
83333.3253270555
83333.3253427615
83333.3253612168
83333.3254883768
83333.3254844257
83333.3254865196
83333.3254944368
83333.3255072623
83333.325524334
83333.3255436687
83333.3241908217
83333.3243864918
83333.3243942129
83333.3245742587
83333.3245870061
83333.3245988127
83333.324755758
83333.3247698341
83333.3247846403
83333.3248002849
83333.3249361228
83333.324948659
83333.3249627275
83333.3249797045
83333.3249983867
83333.3251200818
83333.3251271702
83333.3251384666
83333.3251531214
83333.3251715124
83333.3251922229
83333.325308472
83333.3253081704
83333.3253139335
83333.3253250138
83333.3253402962
83333.3253595244
83333.3253813233
83333.3254997277
83333.3254914207
83333.3254901485
83333.3254953257
83333.3255064346
83333.3255222588
83333.3255420223
83333.3255638558
83333.3239915117
83333.3241878945
83333.3241959966
83333.3243762623
83333.3243923656
83333.3244062127
83333.3245595429
83333.3245785743
83333.3245967696
83333.3246146523
83333.3247409675
83333.324759306
83333.3247779492
83333.3247984242
83333.3248197717
83333.3249269478
83333.3249396553
83333.3249559524
83333.3249747671
83333.32499677
83333.3250203894
83333.3251193737
83333.3251237161
83333.325134136
83333.32514948
83333.3251683028
83333.3251907841
83333.325215334
83333.3253168169
83333.3253120424
83333.32531487
83333.3253242387
83333.3253389282
83333.3253575381
83333.3253797874
83333.3254043617
83333.3255160785
83333.3255028877
83333.3254975542
83333.3254996079
83333.3255081697
83333.325522116
83333.3255403453
83333.3255622873
83333.3255860306
83333.3237798026
83333.3239868602
83333.3239956799
83333.3241734337
83333.3241937994
83333.3242090533
83333.3243558143
83333.3243814238
83333.3244041082
83333.3244247174
83333.3245373569
83333.3245633823
83333.3245879937
83333.3246127922
83333.3246372397
83333.3247245165
83333.3247446789
83333.3247676348
83333.3247918032
83333.3248181651
83333.3248451558
83333.3249202667
83333.3249309139
83333.3249475137
83333.3249685552
83333.3249922651
83333.3250190142
83333.3250470859
83333.3251233655
83333.3251233865
83333.3251313276
83333.3251459582
83333.3251655
83333.3251881508
83333.3252140936
83333.3252417695
83333.325330704
83333.3253206642
83333.3253193362
83333.3253259764
83333.3253390872
83333.325357016
83333.3253783087
83333.3254029587
83333.3254295786
83333.3255192813
83333.3255093686
83333.325507698
83333.3255133166
83333.3255248378
83333.3255410289
83333.3255610463
83333.3255845066
83333.325609348
83333.3235582104
83333.323776048
83333.3237875794
83333.3239654119
83333.3239924179
83333.324008312
83333.3241443009
83333.3241789252
83333.324207025
83333.3242304347
83333.3243238516
83333.3243601839
83333.3243925235
83333.3244228492
83333.3244510236
83333.3245113778
83333.3245413682
83333.3245730143
83333.3246040527
83333.3246356864
83333.3246664531
83333.3247098964
83333.3247289249
83333.3247536987
83333.3247821591
83333.3248120539
83333.3248438496
83333.324875937
83333.324918405
83333.3249247353
83333.3249395844
83333.3249611109
83333.32498705
83333.3250151789
83333.3250459246
83333.325077783
83333.3251335279
83333.3251276672
83333.3251316933
83333.325144166
83333.3251631429
83333.3251863804
83333.3252120596
83333.3252406948
83333.3252706785
83333.3253506811
83333.325334748
83333.3253284479
83333.3253313219
83333.3253419537
83333.3253583645
83333.3253787648
83333.3254019981
83333.3254283051
83333.3254555651
83333.3255260141
83333.3255201545
83333.3255223528
83333.3255311374
83333.3255449253
83333.3255626305
83333.3255837524
83333.3256077975
83333.3256339429
83333.3233374759
83333.3235565609
83333.3235687506
83333.3237487018
83333.323784036
83333.3238056468
83333.3239240623
83333.3239710562
83333.3240060759
83333.3240325733
83333.3240991608
83333.3241492692
83333.3241915877
83333.3242287524
83333.3242612974
83333.3242855905
83333.324328525
83333.3243714072
83333.3244112924
83333.3244495459
83333.3244848623
83333.3244862779
83333.3245163252
83333.3245518301
83333.3245898835
83333.3246275654
83333.3246653039
83333.3247016886
83333.3247002258
83333.3247150155
83333.3247389488
83333.3247694695
83333.3248036021
83333.3248385504
83333.3248748534
83333.3249114642
83333.3249233209
83333.3249233373
83333.3249343275
83333.3249544755
83333.3249810439
83333.3250112147
83333.3250427884
83333.3250766853
83333.3251119603
83333.3251508042
83333.3251381929
83333.3251367287
83333.3251456545
83333.3251627741
83333.3251854876
83333.3252114586
83333.3252392641
83333.3252697974
83333.3253005839
83333.3253774814
83333.3253548458
83333.325343008
83333.325341289
83333.3253485183
83333.3253626713
83333.3253815257
83333.3254035154
83333.3254279259
83333.3254545953
83333.3254819173
83333.3255373526
83333.3255357645
83333.3255414385
83333.3255526336
83333.3255678708
83333.3255862985
83333.3256076096
83333.3256320332
83333.3256559076
83333.3231231465
83333.3233368739
83333.3233494366
83333.3235234657
83333.3235671443
83333.323593765
83333.3236932216
83333.3237555168
83333.3238017781
83333.3238352802
83333.3238613568
83333.3239296924
83333.3239849845
83333.3240307935
83333.3240691247
83333.324044624
83333.3241046601
83333.3241622049
83333.3242133619
83333.3242599484
83333.3243013209
83333.3242467054
83333.3242911854
83333.3243407215
83333.324391142
83333.3244387351
83333.3244838477
83333.3245254101
83333.3244663425
83333.3244922486
83333.3245280806
83333.3245702792
83333.3246148591
83333.3246582151
83333.3247007819
83333.324741948
83333.3246982017
83333.3247059945
83333.3247262429
83333.3247563727
83333.3247927138
83333.324831639
83333.3248704154
83333.3249102767
83333.3249514442
83333.324936543
83333.3249286712
83333.3249338409
83333.3249506455
83333.324976189
83333.3250070178
83333.3250402169
83333.3250741635
83333.3251105902
83333.3251470364
83333.3251759224
83333.3251557295
83333.3251478807
83333.3251518185
83333.3251657816
83333.3251869001
83333.3252122864
83333.3252399184
83333.3252689995
83333.325299986
83333.3253306645
83333.3254117578
83333.3253817234
83333.3253634363
83333.3253566194
83333.3253597009
83333.3253707923
83333.3253875451
83333.3254078773
83333.3254305537
83333.3254550694
83333.3254812201
83333.3255077086
83333.3255538387
83333.3255561122
83333.3255644584
83333.325577194
83333.3255930447
83333.3256113249
83333.3256322291
83333.3256549238
83333.3256778875
83333.3229234043
83333.3231236018
83333.3231384967
83333.3232938053
83333.3233496293
83333.3233774652
83333.3234510922
83333.3235317626
83333.3235899286
83333.3236308834
83333.3236081006
83333.323699869
83333.3237723059
83333.3238310782
83333.3238774832
83333.3237851996
83333.3238678933
83333.323944525
83333.324010004
83333.3240672032
83333.3241170219
83333.3239876249
83333.3240510885
83333.3241189489
83333.324185294
83333.3242454017
83333.3243001037
83333.3243490848
83333.3242133095
83333.3242537768
83333.3243051549
83333.3243624778
83333.3244203993
83333.3244743165
83333.324524487
83333.3245710056
83333.3244552338
83333.3244732174
83333.3245055834
83333.3245486774
83333.3245975522
83333.3246474657
83333.3246948557
83333.3247408601
83333.3247869498
83333.3247059587
83333.3247045045
83333.3247183968
83333.3247455064
83333.3247818837
83333.3248230236
83333.3248652265
83333.324906495
83333.3249493458
83333.3249910743
83333.3249591402
83333.3249422282
83333.324939977
83333.3249515725
83333.3249743058
83333.3250043862
83333.3250381286
83333.3250730425
83333.3251084063
83333.3251454381
83333.3251790558
83333.3252096314
83333.325181015
83333.3251659397
83333.3251639844
83333.3251734971
83333.3251918489
83333.3252158021
83333.3252426771
83333.3252709171
83333.325300061
83333.3253302256
83333.3253595724
83333.3254536834
83333.3254160567
83333.3253905436
83333.3253776758
83333.3253761457
83333.3253835356
83333.3253975247
83333.3254158417
83333.3254366735
83333.3254590166
83333.3254826365
83333.3255073656
83333.3255324839
83333.3255753594
83333.325580652
83333.3255907512
83333.3256041441
83333.3256197424
83333.3256371373
83333.3256564407
83333.3256775167
83333.3256988846
83333.3227471001
83333.3229233171
83333.3229433439
83333.3230650094
83333.3231389558
83333.3231708865
83333.3231988825
83333.3233038468
83333.3233755286
83333.3234207191
83333.3233371531
83333.3234590126
83333.3235520313
83333.3236252543
83333.3236803851
83333.3235035046
83333.3236159817
83333.3237174415
83333.3238017726
83333.3238728635
83333.3239311537
83333.3237044104
83333.3237929907
83333.3238847737
83333.323971578
83333.3240473978
83333.3241144153
83333.3241729154
83333.3239365551
83333.3239961348
83333.3240678542
83333.3241447598
83333.3242196724
83333.3242869613
83333.3243473183
83333.3244018989
83333.3241903602
83333.3242216403
83333.3242698334
83333.3243297523
83333.3243947006
83333.3244584855
83333.3245165054
83333.3245697483
83333.3246204938
83333.3244558791
83333.3244628279
83333.3244881037
83333.3245285816
83333.3245788818
83333.3246330775
83333.3246863808
83333.3247360133
83333.3247847268
83333.3248307884
83333.3247250774
83333.3247126733
83333.3247179392
83333.3247394754
83333.3247735094
83333.3248150083
83333.3248592525
83333.3249031008
83333.32494569
83333.3249885786
83333.3250271904
83333.3249919599
83333.3249650556
83333.3249542133
83333.3249590081
83333.3249771813
83333.3250049429
83333.3250381039
83333.3250732969
83333.3251086592
83333.3251438896
83333.3251783043
83333.3252113448
83333.3252522578
83333.3252148264
83333.3251915908
83333.3251828948
83333.3251870923
83333.3252015162
83333.3252230464
83333.3252485639
83333.3252757567
83333.3253034139
83333.325331273
83333.3253593333
83333.3253866348
83333.3255031156
83333.3254580199
83333.3254250351
83333.3254052616
83333.3253981537
83333.3254014265
83333.3254121247
83333.3254279194
83333.3254467578
83333.3254670736
83333.3254881109
83333.3255098341
83333.3255325384
83333.3255555836
83333.325601312
83333.3256086598
83333.3256195829
83333.3256327436
83333.3256472901
83333.3256629332
83333.3256801789
83333.3256989327
83333.3257176681
83333.3226019181
83333.3227427492
83333.3227717954
83333.3228416352
83333.3229408091
83333.3229801645
83333.3229389414
83333.3230767926
83333.3231681996
83333.3232205079
83333.3230468286
83333.3232083476
83333.3233274864
83333.3234165255
83333.3234789222
83333.3231951207
83333.3233467238
83333.3234800237
83333.3235870526
83333.3236739568
83333.3237412761
83333.3233912962
83333.3235131407
83333.3236362729
83333.3237495471
83333.3238452819
83333.3239262013
83333.3239938861
83333.3236300883
83333.3237148716
83333.3238133363
83333.3239156262
83333.3240120954
83333.3240960738
83333.3241693368
83333.324232543
83333.323898161
83333.3239468245
83333.3240157355
83333.324097513
83333.3241830679
83333.3242643839
83333.3243360032
83333.3243994509
83333.3244562352
83333.3241818239
83333.3241996737
83333.3242397746
83333.3242976068
83333.324365815
83333.3244365725
83333.3245037083
83333.3245635169
83333.3246185459
83333.3246711764
83333.3244704603
83333.324464007
83333.3244790633
83333.3245134663
83333.3245620164
83333.3246180298
83333.3246754023
83333.324730043
83333.3247804816
83333.3248285968
83333.3248737758
83333.3247566205
83333.3247320794
83333.3247269474
83333.3247406643
83333.3247699672
83333.3248097319
83333.3248545153
83333.324900054
83333.3249439989
83333.3249859031
83333.3250257644
83333.3250633053
83333.3250353974
83333.3249980143
83333.3249775263
83333.3249743365
83333.3249864274
83333.3250102728
83333.3250415218
83333.3250761904
83333.3251114132
83333.3251457753
83333.3251787272
83333.3252108723
83333.3252415796
83333.325303712
83333.3252574991
83333.3252256313
83333.325209187
83333.3252072174
83333.3252169253
83333.3252350142
83333.3252583822
83333.325284208
83333.3253105191
83333.325336376
83333.3253616445
83333.3253869981
83333.3254118556
83333.3255596855
83333.3255074477
83333.3254670843
83333.3254400774
83333.3254264865
83333.3254246832
83333.3254317361
83333.3254446005
83333.3254611009
83333.3254794136
83333.3254982417
83333.3255170398
83333.3255361119
83333.3255560729
83333.3255758072
83333.3256309041
83333.3256393316
83333.3256501503
83333.3256622374
83333.3256749228
83333.3256882301
83333.3257027106
83333.325718233
83333.3257335636
83333.3224881392
83333.3225860429
83333.3226280839
83333.3226279542
83333.3227604494
83333.3228111766
83333.3226734172
83333.3228545911
83333.32297269
83333.3230359315
83333.3227359086
83333.3229502018
83333.3231038961
83333.3232149089
83333.3232874724
83333.3228550522
83333.3230585447
83333.3232334159
83333.3233685734
83333.3234733897
83333.3235511286
83333.3230411804
83333.3232071852
83333.3233714367
83333.323518423
83333.3236381544
83333.3237352133
83333.3238123393
83333.323286236
83333.3234044602
83333.3235382292
83333.3236735661
83333.3237974727
83333.3239015658
83333.3239888565
83333.3240613846
83333.323571519
83333.3236429925
83333.3237391718
83333.3238494819
83333.3239614692
83333.3240647834
83333.324153287
83333.324228844
83333.3242943719
83333.3238778014
83333.3239097848
83333.3239692555
83333.3240496808
83333.3241409515
83333.3242327309
83333.3243172675
83333.3243902995
83333.3244540941
83333.3245140608
83333.3241906444
83333.3241918467
83333.3242196017
83333.3242706755
83333.3243379132
83333.3244124033
83333.3244862389
83333.3245541724
83333.3246139873
83333.3246692044
83333.3247214542
83333.3245003673
83333.324478948
83333.3244813152
83333.3245065513
83333.3245501189
83333.3246051505
83333.3246645486
83333.3247228592
83333.3247769834
83333.3248261122
83333.3248722441
83333.3249155484
83333.3248010463
83333.3247637894
83333.3247469595
83333.3247510463
83333.3247734498
83333.3248093047
83333.3248528453
83333.3248989632
83333.3249440717
83333.3249863862
83333.3250254208
83333.3250625165
83333.3250973581
83333.3250893583
83333.3250415043
83333.3250107827
83333.3249984689
83333.3250032945
83333.3250218014
83333.325049727
83333.3250827961
83333.3251174454
83333.3251512646
83333.3251830726
83333.3252128429
83333.3252418701
83333.3252695731
83333.3253635667
83333.3253089372
83333.3252684052
83333.3252436435
83333.3252344504
83333.3252386059
83333.3252525558
83333.3252729123
83333.3252967892
83333.3253216806
83333.3253459421
83333.3253688886
83333.3253907743
83333.3254128594
83333.3254338726
83333.3256228356
83333.3255639646
83333.3255165029
83333.3254822929
83333.325461813
83333.3254540026
83333.3254564779
83333.3254661289
83333.3254800047
83333.3254961166
83333.3255129066
83333.3255293296
83333.3255451358
83333.3255608393
83333.3255769979
83333.3255921683
83333.3256632569
83333.3256717867
83333.3256816051
83333.325691812
83333.3257019922
83333.325712321
83333.3257232912
83333.3257346657
83333.3257439561
83333.3224012156
83333.3224529332
83333.3225101589
83333.3224284203
83333.3226001423
83333.3226677486
83333.3224050968
83333.3226412896
83333.3227930509
83333.322871466
83333.3224033707
83333.322686801
83333.3228847984
83333.3230246029
83333.3231106048
83333.3224776829
83333.3227504269
83333.3229799576
83333.3231515791
83333.3232800413
83333.3233705347
83333.3226453744
83333.3228704039
83333.3230889663
83333.3232793464
83333.323428666
83333.3235451573
83333.3236346342
83333.3228953186
83333.3230581599
83333.3232386585
83333.3234169732
83333.3235754934
83333.3237038811
83333.3238071329
83333.3238915067
83333.3232012294
83333.3233028159
83333.3234351264
83333.323582848
83333.3237288414
83333.3238595697
83333.323967876
83333.324057203
83333.3241334465
83333.3235359367
83333.32358631
83333.3236712134
83333.3237812112
83333.3239022877
83333.324020716
83333.3241268731
83333.3242160128
83333.324291571
83333.32435981
83333.3238794238
83333.3238903808
83333.3239346391
83333.3240074095
83333.3240987844
83333.3241968328
83333.3242913619
83333.3243759468
83333.3244478937
83333.3245120461
83333.3245715055
83333.3242186404
83333.3242011241
83333.3242131755
83333.3242532921
83333.3243152007
83333.3243896947
83333.3244674935
83333.3245416418
83333.324608183
83333.3246664143
83333.3247199003
83333.3247695222
83333.3245461313
83333.3245090481
83333.3244970129
83333.3245105512
83333.3245461484
83333.3245972512
83333.3246562716
83333.3247166371
83333.3247738198
83333.3248255313
83333.3248716816
83333.3249146926
83333.3249545065
83333.3248581927
83333.3248082639
83333.3247790284
83333.324772078
83333.324785771
83333.3248156746
83333.3248560436
83333.3249012825
83333.3249468803
83333.3249898702
83333.3250288571
83333.3250640893
83333.3250975132
83333.3251288318
83333.3251533042
83333.3250954313
83333.325054386
83333.3250322423
83333.3250286045
83333.3250406205
83333.3250639242
83333.3250941853
83333.325127454
83333.325160604
83333.3251916282
83333.3252197736
83333.3252455169
83333.3252707362
83333.3252940526
83333.325431128
83333.3253687126
83333.3253198109
83333.3252866058
83333.3252695313
83333.3252670538
83333.3252760659
83333.3252928147
83333.3253140427
83333.325337126
83333.3253599031
83333.325381065
83333.3254002495
83333.3254181117
83333.3254358018
83333.3254514422
83333.3256918593
83333.3256270154
83333.3255729089
83333.3255317046
83333.3255042885
83333.3254900069
83333.3254869692
83333.3254925171
83333.3255035606
83333.3255172953
83333.3255319658
83333.3255463043
83333.3255595542
83333.3255716787
83333.3255831574
83333.3255943228
83333.3256029719
83333.3256974079
83333.3257050794
83333.3257130381
83333.3257206377
83333.3257277044
83333.3257344119
83333.3257411432
83333.3257465843
83333.3257497919
83333.3223416175
83333.322336084
83333.32241521
83333.3222479557
83333.3224575156
83333.3225469574
83333.3221384669
83333.3224414475
83333.322630911
83333.3227295922
83333.3220504216
83333.3224210377
83333.3226740626
83333.322848637
83333.322951738
83333.3220571412
83333.3224217345
83333.3227217044
83333.3229392421
83333.3230973423
83333.3232031361
83333.322193667
83333.3224979415
83333.3227882346
83333.3230346963
83333.3232214841
83333.3233622975
83333.3234661149
83333.322445122
83333.3226679702
83333.3229106045
83333.3231450086
83333.3233474787
83333.3235057986
83333.3236288
83333.3237267353
83333.3227755394
83333.3229171902
83333.3230976084
83333.3232944761
83333.323484172
83333.3236491059
83333.323781047
83333.3238868793
83333.3239752886
83333.3231460202
83333.3232204595
83333.3233390008
83333.3234879613
83333.3236477016
83333.3237999029
83333.3239325129
83333.3240406436
83333.3241299999
83333.3242081894
83333.3235286642
83333.3235520371
83333.323617862
83333.3237190258
83333.323841713
83333.323969843
83333.3240902804
83333.3241953238
83333.3242824292
83333.3243573389
83333.3244247232
83333.3239054005
83333.3238925883
83333.3239170963
83333.3239765163
83333.3240621256
83333.3241615088
83333.3242625092
83333.3243563591
83333.3244383184
83333.3245079187
83333.3245698645
83333.3246262854
83333.3242663983
83333.3242293374
83333.3242234082
83333.3242491257
83333.3243016487
83333.3243721758
83333.3244507209
83333.3245288276
83333.3246008343
83333.3246640575
83333.3247188502
83333.3247686458
83333.3248140352
83333.3246074577
83333.3245548442
83333.3245275329
83333.324527517
83333.3245526079
83333.3245969653
83333.3246529876
83333.3247134045
83333.3247724987
83333.324826622
83333.3248742281
83333.3249160126
83333.3249545928
83333.3249901707
83333.3249273239
83333.3248653438
83333.3248236127
83333.3248047667
83333.3248082634
83333.3248304478
83333.3248657714
83333.324908468
83333.3249534271
83333.3249967556
83333.3250360473
83333.3250705214
83333.3251009869
83333.3251299628
83333.3251564516
83333.3252263402
83333.3251592618
83333.3251082448
83333.3250760522
83333.3250631361
83333.3250674344
83333.3250850227
83333.3251113214
83333.3251422092
83333.3251741215
83333.3252043864
83333.3252314628
83333.3252550245
83333.3252760602
83333.3252962612
83333.3253141291
83333.3255055019
83333.3254361366
83333.3253794226
83333.3253379692
83333.3253127841
83333.3253029492
83333.3253059433
83333.325318341
83333.3253364318
83333.3253571567
83333.3253782063
83333.325397803
83333.325414988
83333.3254297157
83333.3254426348
83333.3254547299
83333.3254642846
83333.3257659448
83333.3256958994
83333.3256357531
83333.3255879302
83333.3255537004
83333.325532827
83333.3255237771
83333.3255243007
83333.3255316744
83333.3255428955
83333.325555363
83333.3255675981
83333.325578645
83333.3255880422
83333.3255957625
83333.3256021392
83333.3256068437
83333.3256086175
83333.3257323176
83333.3257381958
83333.3257434876
83333.325747808
83333.3257511267
83333.3257535933
83333.3257549581
83333.3257546328
83333.325746874
83333.3223156663
83333.3222410752
83333.3223502021
83333.3220899512
83333.3223296996
83333.3224499972
83333.3218821521
83333.3222600396
83333.3224839011
83333.3226090113
83333.3216839272
83333.3221576815
83333.3224759337
83333.3226881189
83333.3228132005
83333.3215931397
83333.3220739207
83333.3224611981
83333.3227350091
83333.3229278247
83333.323052023
83333.3216756557
83333.3220854694
83333.3224688795
83333.3227864462
83333.3230195329
83333.3231895976
83333.3233096428
83333.3219210154
83333.3222248449
83333.3225501229
83333.3228576341
83333.3231158356
83333.3233110942
83333.3234578131
83333.3235704627
83333.3222795198
83333.3224749635
83333.3227197955
83333.3229813499
83333.3232272399
83333.3234349726
83333.3235957357
83333.3237209163
83333.323822725
83333.3226949004
83333.3228011912
83333.322964579
83333.3231650669
83333.3233749863
83333.3235699742
83333.3237350746
83333.3238658679
83333.3239710122
83333.3240605579
83333.3231278165
83333.3231670911
83333.3232613106
83333.3233998989
83333.3235634188
83333.3237300319
83333.3238827748
83333.3240126006
83333.3241175489
83333.3242050719
83333.3242817947
83333.3235528157
83333.3235455209
83333.3235861066
83333.323670735
83333.3237871282
83333.3239184268
83333.3240486627
83333.3241668779
83333.3242677091
83333.3243510248
83333.324422726
83333.3244867225
83333.323956296
83333.3239187973
83333.3239205187
83333.3239619403
83333.3240362917
83333.3241316757
83333.324234901
83333.3243351106
83333.3244253516
83333.324502643
83333.3245677911
83333.3246252708
83333.3246768421
83333.324333393
83333.3242770902
83333.3242521014
83333.3242609465
83333.3243006377
83333.3243633767
83333.324439135
83333.3245184856
83333.3245942095
83333.32466191
83333.3247199693
83333.3247695423
83333.3248140307
83333.324854375
83333.3246832935
83333.3246160483
83333.3245734113
83333.3245587642
83333.3245713861
83333.3246065207
83333.3246569561
83333.324715151
83333.3247745553
83333.3248303357
83333.3248796594
83333.3249217834
83333.324957899
83333.3249912064
83333.3250213936
83333.325007243
83333.3249343033
83333.3248805607
83333.324849556
83333.3248418565
83333.3248547987
83333.324883395
83333.3249218713
83333.3249647982
83333.3250076256
83333.3250470869
83333.3250814027
83333.3251103388
83333.3251352828
83333.3251585901
83333.3251795624
83333.3253073119
83333.3252321106
83333.3251718366
83333.325129811
83333.3251072614
83333.3251029442
83333.3251135948
83333.3251349191
83333.3251624261
83333.3251922924
83333.3252213935
83333.3252475655
83333.3252697251
83333.3252879711
83333.3253033229
83333.3253175393
83333.3253306558
83333.3255856643
83333.3255103241
83333.3254465626
83333.3253973159
83333.3253641013
83333.3253465864
83333.3253427985
83333.3253497878
83333.3253640645
83333.3253820472
83333.3254009437
83333.3254188143
83333.3254342779
83333.3254467522
83333.3254562509
83333.3254633703
83333.3254687251
83333.3254729549
83333.3258442213
83333.3257698121
83333.3257043467
83333.3256504328
83333.3256096729
83333.3255822437
83333.3255670021
83333.3255619877
83333.3255647995
83333.3255727257
83333.3255829185
83333.3255930352
83333.3256019068
83333.3256089009
83333.3256137328
83333.3256163079
83333.3256164971
83333.3256147307
83333.3256104506
83333.3257668745
83333.3257700557
83333.3257718989
83333.3257722499
83333.325771151
83333.325768479
83333.3257646787
83333.3257582587
83333.3257499037
83333.322181382
83333.3223288299
83333.3219786757
83333.3222356004
83333.3223888027
83333.3216516906
83333.3221004015
83333.3223560945
83333.3225135321
83333.3213184422
83333.3219054468
83333.3222949844
83333.3225430662
83333.3226959513
83333.3210947618
83333.3217137456
83333.3222030808
83333.3225428894
83333.322773011
83333.3229198768
83333.3210862879
83333.3216314348
83333.3221322159
83333.3225371646
83333.3228259726
83333.3230295968
83333.3231683224
83333.3213075401
83333.3217200362
83333.3221536902
83333.3225550085
83333.3228826663
83333.3231225476
83333.3232969109
83333.3234255876
83333.3216955048
83333.3219633024
83333.3222942918
83333.322640831
83333.3229586879
83333.3232195995
83333.3234150244
83333.3235624272
83333.3236785808
83333.322165734
83333.3223149515
83333.3225384955
83333.3228073399
83333.3230822934
83333.3233313597
83333.3235363885
83333.3236940522
83333.3238171991
83333.3239192237
83333.3226632732
83333.3227232336
83333.3228552715
83333.323043524
83333.3232603809
83333.3234761829
83333.3236691668
83333.3238289741
83333.3239547792
83333.3240566586
83333.3241440265
83333.3231508341
83333.3231498874
83333.3232114329
83333.3233292272
83333.3234858256
83333.3236581683
83333.3238252075
83333.3239733579
83333.3240967821
83333.3241962113
83333.3242792595
83333.324351785
83333.3236087437
83333.3235698928
83333.3235811538
83333.3236429447
83333.3237456215
83333.3238729416
83333.3240073931
83333.3241350747
83333.3242476032
83333.3243418188
83333.3244191429
83333.3244854136
83333.324543843
83333.3240311945
83333.3239696141
83333.3239472583
83333.323967373
83333.3240258172
83333.3241120462
83333.3242127666
83333.3243157494
83333.3244119364
83333.3244961325
83333.3245667426
83333.3246254553
83333.3246766951
83333.3247222897
83333.324418079
83333.3243438699
83333.3242998697
83333.324290478
83333.3243147182
83333.3243663066
83333.3244357698
83333.3245132921
83333.3245905194
83333.3246614976
83333.3247229623
83333.3247742714
83333.324817068
83333.3248553007
83333.3248894259
83333.3247719941
83333.3246916248
83333.3246343743
83333.3246048117
83333.3246036959
83333.3246275965
83333.3246700887
83333.3247237388
83333.3247815321
83333.3248377332
83333.3248883853
83333.3249314764
83333.3249669113
83333.3249964896
83333.3250233364
83333.3250474217
83333.3250964272
83333.325013961
83333.3249491669
83333.3249063036
83333.3248869635
83333.324889555
83333.3249099096
83333.3249426046
83333.3249820312
83333.3250232137
83333.3250622182
83333.3250964497
83333.3251247205
83333.3251473183
83333.3251657306
83333.3251825464
83333.3251995025
83333.325394907
83333.3253128362
83333.325244296
83333.3251930153
83333.3251608953
83333.325147486
83333.3251502516
83333.3251654139
83333.3251886258
83333.325215597
83333.3252428837
83333.3252678631
83333.3252888823
83333.3253053376
83333.3253174556
83333.3253263487
83333.3253339637
83333.325343135
83333.3256705259
83333.3255902611
83333.3255203638
83333.3254639892
83333.3254230801
83333.3253978545
83333.3253868892
83333.3253876921
83333.3253971391
83333.3254117739
83333.3254282281
83333.3254440434
83333.3254576814
83333.3254681745
83333.3254751742
83333.3254786838
83333.3254789876
83333.3254776018
83333.3254799839
83333.3259258033
83333.3258478916
83333.3257779009
83333.3257185447
83333.3256716899
83333.3256378942
83333.3256164207
83333.3256056468
83333.3256033866
83333.3256071663
83333.3256143615
83333.325622345
83333.3256290725
83333.3256336939
83333.3256358483
83333.3256353065
83333.3256317998
83333.3256259433
83333.3256189763
83333.3256141141
83333.3257999001
83333.3257994924
83333.3257970956
83333.3257926892
83333.325786274
83333.3257782415
83333.3257700796
83333.3257610018
83333.3219045062
83333.3221870475
83333.3223718389
83333.3214963189
83333.3219847204
83333.3222698357
83333.3224567919
83333.3209920167
83333.3216803153
83333.3221376336
83333.3224209602
83333.3226050425
83333.3205814991
83333.3213556642
83333.3219569573
83333.3223680958
83333.3226351005
83333.3228092723
83333.3204328051
83333.3211429411
83333.3217841283
83333.3222915678
83333.3226447367
83333.3228844084
83333.3230451745
83333.3205925187
83333.321148409
83333.3217205494
83333.3222388445
83333.3226506487
83333.3229432104