/*--------------------------------*- C++ -*----------------------------------*\
  =========                 |
  \\      /  F ield         | OpenFOAM: The Open Source CFD Toolbox
   \\    /   O peration     | Website:  https://openfoam.org
    \\  /    A nd           | Version:  12
     \\/     M anipulation  |
\*---------------------------------------------------------------------------*/
/*   Windows 32 and 64 bit porting by blueCAPE: http://www.bluecape.com.pt   *\
|  Based on Windows porting (2.0.x v4) by Symscape: http://www.symscape.com   |
\*---------------------------------------------------------------------------*/
FoamFile
{
    format      ascii;
    class       surfaceScalarField;
    location    "200";
    object      phi;
}
// * * * * * * * * * * * * * * * * * * * * * * * * * * * * * * * * * * * * * //

dimensions      [0 3 -1 0 0 0 0];

internalField   nonuniform List<scalar> 
28893
(
2.89407348647972e-05
-3.7795221728094e-07
-7.97283812281067e-07
3.02256862088829e-05
-3.95648736956555e-07
-8.89305361610822e-07
9.30183496420761e-06
-5.12268579425822e-07
-3.3399973439944e-07
3.27116945108695e-05
-4.15118931169447e-07
-1.616434539144e-06
3.16128389720666e-05
-3.98783730433424e-07
-9.88367432048558e-07
9.80401197307872e-06
-5.26721060510987e-07
-3.71104763222922e-07
3.41029262057212e-05
-4.45270075294487e-07
-1.83527166016906e-06
6.2647621011838e-06
-6.2610646405789e-07
-2.44798165331845e-07
1.19195042633194e-05
-5.6057268467678e-07
-7.21123007116939e-07
3.58827571735105e-05
-4.52380004637738e-07
-2.43010173244391e-06
3.31264611304039e-05
-3.81554725167996e-07
-1.13206867362732e-06
1.03376731572351e-05
-5.21944004332074e-07
-4.10499909581793e-07
3.56640823910603e-05
-4.53809229972433e-07
-2.09571597248954e-06
6.64497883536815e-06
-6.30109945472868e-07
-2.76828012358122e-07
1.24961830043693e-05
-5.77115036972757e-07
-8.15939255608055e-07
3.73378017470182e-05
-4.98713244123313e-07
-2.79160596928086e-06
5.47874630600025e-06
-7.46482888215628e-07
-2.07020948842684e-07
7.91865202500558e-06
-6.96803767225323e-07
-5.23974240633608e-07
1.36443671647993e-05
-6.33938371236763e-07
-1.11287758189985e-06
3.94872873425148e-05
-5.05278641617377e-07
-3.27811142816909e-06
3.479001986848e-05
-3.31857825917709e-07
-1.33169731558393e-06
1.09076155029745e-05
-4.84559881743284e-07
-4.6693443741419e-07
3.74030777077474e-05
-4.31873108317541e-07
-2.43918345232637e-06
7.04580124376559e-06
-6.1310321019109e-07
-3.09662955285131e-07
1.31211063300532e-05
-5.63598068069343e-07
-9.25636665241795e-07
3.89859830794297e-05
-5.1131809402853e-07
-3.23257969837859e-06
5.82942142971132e-06
-7.43519029679267e-07
-2.37266086969622e-07
8.35719387257879e-06
-6.94742088162323e-07
-5.97743663223863e-07
1.426388676833e-05
-6.59878684294284e-07
-1.2742955941525e-06
4.10511936834627e-05
-5.68247917323964e-07
-3.78727407208067e-06
5.15394238522855e-06
-8.7220746314374e-07
-1.83753156675508e-07
6.75067643606624e-06
-8.40565885343021e-07
-4.42339457857371e-07
9.21003622309094e-06
-8.05969030396566e-07
-8.15415474152017e-07
1.54091304764142e-05
-7.09674860918126e-07
-1.52232131386374e-06
4.19154929801002e-05
-5.6070870328263e-07
-4.1017474590942e-06
3.66380836512385e-05
-2.43827599495253e-07
-1.60422939661679e-06
1.15203482051751e-05
-4.04514460514293e-07
-5.40071872878455e-07
3.93248161749046e-05
-3.76044504151077e-07
-2.87738051236889e-06
7.47434862098548e-06
-5.61411472727321e-07
-3.51695283887888e-07
1.37952892629202e-05
-5.07475787188286e-07
-1.06551153735309e-06
4.08198553578946e-05
-4.86979036627067e-07
-3.78607589216894e-06
6.20303093598902e-06
-7.18279836634167e-07
-2.68433090571083e-07
8.82756426166655e-06
-6.64376168900008e-07
-6.792546637545e-07
1.49401050022112e-05
-6.45659245698925e-07
-1.46751644566775e-06
4.28180727325146e-05
-5.8586742489423e-07
-4.41359237187974e-06
5.49015336778722e-06
-8.67825992856431e-07
-2.11904170763877e-07
7.15562761379426e-06
-8.28756540838284e-07
-5.0820326438326e-07
9.69357707036097e-06
-8.05223123005798e-07
-9.35940153727683e-07
1.60652820747667e-05
-7.4646143368155e-07
-1.75224007756884e-06
4.35158016634945e-05
-6.43306584453397e-07
-4.74428107179112e-06
4.95606470512075e-06
-9.99531247453538e-07
-1.67873697740744e-07
6.19003205697112e-06
-9.88567226724244e-07
-3.90554845842005e-07
7.83332406366304e-06
-9.80441503241772e-07
-6.94521108104389e-07
1.03488991569266e-05
-9.12211775287587e-07
-1.11632292134462e-06
1.64787211949713e-05
-7.7640543664717e-07
-1.92670609427615e-06
4.27262763530856e-05
-6.01420809657301e-07
-4.83064063580007e-06
3.86429534059854e-05
-1.03624583812327e-07
-1.90123667063316e-06
1.21770807217895e-05
-2.70549776120352e-07
-6.30005159969398e-07
4.14207436270334e-05
-2.79166276269044e-07
-3.4209735532847e-06
7.9372374009246e-06
-4.64431941140519e-07
-4.02970265543637e-07
1.45187686342332e-05
-4.01651487701307e-07
-1.23794167160041e-06
4.28313886647316e-05
-4.23786765864763e-07
-4.46512472843596e-06
6.6062094179448e-06
-6.58818509904843e-07
-3.05771284860933e-07
9.33730531318309e-06
-5.90651438781301e-07
-7.78260393803578e-07
1.56715738595586e-05
-5.80598604455881e-07
-1.70335995814903e-06
4.4773323453189e-05
-5.59351664132374e-07
-5.18198134121159e-06
5.85371528510099e-06
-8.40599190187733e-07
-2.41242501381204e-07
7.59184268625259e-06
-7.88608944522051e-07
-5.80415272278432e-07
1.02153322746922e-05
-7.70311274259488e-07
-1.07635805305182e-06
1.67787968735489e-05
-7.34606728494706e-07
-2.03229568342134e-06
4.53144452755709e-05
-6.71774275692217e-07
-5.54047063752055e-06
5.28053175067995e-06
-9.98576022072353e-07
-1.93717063440129e-07
6.57564463719448e-06
-9.75199172879153e-07
-4.5107414684944e-07
8.28496132550358e-06
-9.6543929776459e-07
-7.99625081096503e-07
1.08681212546162e-05
-9.15439660382288e-07
-1.2861854978072e-06
1.71329727437155e-05
-8.27295883827531e-07
-2.22250896312849e-06
4.42626905929076e-05
-6.98797875481283e-07
-5.58190865801556e-06
4.80590707161002e-06
-1.12515079311759e-06
-1.56360961276527e-07
5.8550958797955e-06
-1.13575185589811e-06
-3.57670279224533e-07
7.11098044390971e-06
-1.15086457609032e-06
-6.16562048243472e-07
8.71397087675029e-06
-1.11054986589028e-06
-9.55079055195884e-07
1.08653466666823e-05
-9.90739944950845e-07
-1.40630438514224e-06
1.68499058688714e-05
-8.23753847965002e-07
-2.29651890657824e-06
4.2297636191634e-05
-6.21442288420017e-07
-5.41430211395805e-06
4.05636591891762e-05
1.80773069554758e-07
-2.10147148654726e-06
1.28853244671569e-05
-7.33016247898828e-08
-7.3855948104206e-07
4.36361326258384e-05
-1.08238420900783e-07
-4.0083677846818e-06
8.43966908187494e-06
-3.09437974614284e-07
-4.63542209820505e-07
1.52860680335927e-05
-2.31636068495506e-07
-1.44482715083986e-06
4.50016379389691e-05
-3.08958063007402e-07
-5.28225045373109e-06
7.04621332445385e-06
-5.54015198045108e-07
-3.50420258864278e-07
9.89110159347719e-06
-4.61858344934323e-07
-8.96558390461107e-07
1.64546337303064e-05
-4.59596428958125e-07
-1.98518912640191e-06
4.69091973731814e-05
-4.90992152562462e-07
-6.11000630523179e-06
6.25087087681045e-06
-7.80336852052507e-07
-2.75637020478895e-07
8.06706257405337e-06
-7.06144164708461e-07
-6.6549836159112e-07
1.07840174803326e-05
-6.84766269174525e-07
-1.24277746350879e-06
1.75490793334599e-05
-6.64914221292096e-07
-2.36808139396345e-06
4.72884699974519e-05
-6.49478068771404e-07
-6.50653738300639e-06
5.63608872214426e-06
-9.75098364578652e-07
-2.21057739944289e-07
6.99612923245132e-06
-9.33526148046124e-07
-5.16809884443745e-07
8.77314869508475e-06
-9.19133810725608e-07
-9.19780336010829e-07
1.14236539975047e-05
-8.7954029095126e-07
-1.48695827561072e-06
1.78376719093949e-05
-8.23445357210231e-07
-2.58532644379273e-06
4.59814926790919e-05
-7.39185321851731e-07
-6.52009608521274e-06
5.11873027610126e-06
-1.13113397041386e-06
-1.80265238986349e-07
6.2259291686914e-06
-1.12726132352039e-06
-4.12488042395253e-07
7.54098299016402e-06
-1.13521048460246e-06
-7.11305850097378e-07
9.19501054638781e-06
-1.09403349164416e-06
-1.1020722057057e-06
1.13795785100276e-05
-1.00380087297382e-06
-1.62391553548779e-06
1.74660324439902e-05
-8.87237911657115e-07
-2.65020271486301e-06
4.36874503060916e-05
-7.28586871827706e-07
-6.24315034230903e-06
4.68889593313187e-06
-1.24683690213337e-06
-1.47706974283876e-07
5.6353778195646e-06
-1.27940057735882e-06
-3.35169777666701e-07
6.68131567113122e-06
-1.31751567116567e-06
-5.67011249666781e-07
7.83213234800669e-06
-1.29485220309281e-06
-8.55402131003667e-07
9.04220502912148e-06
-1.19263045481891e-06
-1.20895189208058e-06
1.08768381196936e-05
-1.04004801734142e-06
-1.66726278809111e-06
1.67960545347069e-05
-8.54688897815902e-07
-2.60723949026219e-06
4.12148970000451e-05
-6.29655904479416e-07
-5.81920272081648e-06
4.21331496926295e-05
6.5115750368733e-07
-2.22063939280759e-06
1.36476338365762e-05
2.390821357479e-07
-8.20609974786463e-07
4.58949162070274e-05
1.83940196104305e-07
-4.5441740008496e-06
8.98303217238107e-06
-8.08632222725639e-08
-5.35799695653163e-07
1.61009411708207e-05
2.09462863064817e-08
-1.68260538425876e-06
4.73357053236791e-05
-1.16793035833072e-07
-6.22561763050509e-06
7.5305339114718e-06
-3.90666379314588e-07
-4.03091580275213e-07
1.04938978108883e-05
-2.6233125847915e-07
-1.03563987395663e-06
1.72834153531616e-05
-2.65745032382363e-07
-2.31681702313658e-06
4.92192433980134e-05
-3.68022186850238e-07
-7.22426722333102e-06
6.68970505823398e-06
-6.76285617579988e-07
-3.16563281487011e-07
8.58878864066673e-06
-5.68025392247388e-07
-7.65977980296499e-07
1.14024076507071e-05
-5.36405054429387e-07
-1.43813842382365e-06
1.83703530581985e-05
-5.34082847884208e-07
-2.76337088042781e-06
4.94251150648692e-05
-5.8389374553632e-07
-7.662755551543e-06
6.02909194108767e-06
-9.20379973249752e-07
-2.52960059790947e-07
7.45897266414493e-06
-8.51291553007425e-07
-5.93332229595247e-07
9.30685551586249e-06
-8.23953984196458e-07
-1.06001652915713e-06
1.20273284532772e-05
-7.87461065466911e-07
-1.72390565720345e-06
1.85941528776067e-05
-7.57675197975775e-07
-3.01636626854845e-06
4.78568938243712e-05
-7.25791238841129e-07
-7.65615558386292e-06
5.46521697448416e-06
-1.11563750367829e-06
-2.05947495474231e-07
6.6353625736739e-06
-1.09126799299571e-06
-4.72748884077577e-07
8.01055280841728e-06
-1.08715738604607e-06
-8.18356285816363e-07
9.71353549765203e-06
-1.04578633933332e-06
-1.27206018414246e-06
1.19281240815614e-05
-9.75760325421734e-07
-1.88318966034751e-06
1.81206160148921e-05
-8.94374545044156e-07
-3.08472693658272e-06
4.52370633828277e-05
-7.82766513737718e-07
-7.28695236005524e-06
4.99015951680243e-06
-1.26222268248299e-06
-1.70174721966977e-07
5.99368519640189e-06
-1.2800494754466e-06
-3.85784335210303e-07
7.09391909592489e-06
-1.30753405738583e-06
-6.52768445865507e-07
8.29028586164514e-06
-1.27921222197882e-06
-9.84281806956939e-07
9.51791901862231e-06
-1.1870628414458e-06
-1.39452599368262e-06
1.13554396183435e-05
-1.06342700651738e-06
-1.92632997619651e-06
1.7351601219701e-05
-9.27254923429305e-07
-3.00708869616323e-06
4.2398550970883e-05
-7.43322386839366e-07
-6.68348791285082e-06
4.60135851985882e-06
-1.40641609777262e-07
5.48228321802135e-06
-1.41775157138614e-06
-3.18617008277538e-07
6.42231785181714e-06
-1.47889378463325e-06
-5.34178236829599e-07
7.32159495213738e-06
-1.4740782542415e-06
-7.89275293179299e-07
8.07082147582983e-06
-1.38453621827919e-06
-1.08572813094528e-06
8.95338193068019e-06
-1.24134926189022e-06
-1.43717937163036e-06
1.06401283879528e-05
-1.07200161860552e-06
-1.88572422887924e-06
1.65571878558876e-05
-8.77730077787339e-07
-2.84396723761465e-06
3.98966772168919e-05
-6.25838309236706e-07
-6.00959973761751e-06
4.41484027658527e-05
9.64708019120385e-07
-2.97995425093228e-06
1.4492024702799e-05
7.00537056223621e-07
-8.93763838016096e-07
4.81904235518981e-05
6.60467882231078e-07
-5.17658713131433e-06
9.57755303035491e-06
2.52722311021633e-07
-6.08158875964012e-07
1.69836725742261e-05
3.98163189416913e-07
-1.91755471158908e-06
4.99289727649175e-05
1.76846428683113e-07
-7.31426789455519e-06
8.06543221603904e-06
-1.51466896296493e-07
-4.64293749568803e-07
1.11494237510956e-05
2.73511968283816e-08
-1.19772569126194e-06
1.81613671384079e-05
2.39889627809732e-08
-2.70132951828743e-06
5.17308325761695e-05
-1.69915058693065e-07
-8.56728219496187e-06
7.18023759541832e-06
-5.15749243100964e-07
-3.65449053629154e-07
9.16520216915697e-06
-3.58001035040874e-07
-8.83833206465495e-07
1.20746203140909e-05
-3.07344319827032e-07
-1.66625049595088e-06
1.92351413126255e-05
-3.24061554816659e-07
-3.22555861560093e-06
5.17123702028213e-05
-4.64114699453646e-07
-9.0474031926558e-06
6.46849691749403e-06
-8.24733224090619e-07
-2.90956844610061e-07
7.97331343894933e-06
-7.15406283965463e-07
-6.83522200030471e-07
9.89338857246901e-06
-6.65112241928539e-07
-1.22380361384073e-06
1.26826237402782e-05
-6.27112625016662e-07
-2.00040291334652e-06
1.93940839244939e-05
-6.29675995069458e-07
-3.5175205220261e-06
4.98753338278906e-05
-6.69813007837986e-07
-9.01138872949478e-06
5.85203469102117e-06
-1.0717371860938e-06
-2.35460288565336e-07
7.09101755155749e-06
-1.01696855091861e-06
-5.42937387802078e-07
8.52850984214265e-06
-9.92798571068058e-07
-9.42444343098114e-07
1.02799017050103e-05
-9.43966817386171e-07
-1.46987763952583e-06
1.25232327871655e-05
-8.89492247369814e-07
-2.1871980286418e-06
1.88187060590013e-05
-8.39515421057576e-07
-3.6007328985735e-06
4.69255508471386e-05
-7.73699642704657e-07
-8.57094981667046e-06
5.32621162973612e-06
-1.25802318054036e-06
-1.93666234436717e-07
6.39375550158847e-06
-1.25582987311819e-06
-4.41455556390069e-07
7.55009635402061e-06
-1.2658993869064e-06
-7.50184004926493e-07
8.78864621460738e-06
-1.22863652137165e-06
-1.1338673216369e-06
1.00264102182438e-05
-1.14488606458192e-06
-1.61142729735664e-06
1.18601897279246e-05
-1.04708217074392e-06
-2.23523602739361e-06
1.79310803548121e-05
-9.47719406167621e-07
-3.49926143460503e-06
4.37217647795779e-05
-8.12669335135412e-07
-7.79750862609098e-06
4.89016514901998e-06
-1.3887803309635e-06
-1.62248758498056e-07
5.82880177876199e-06
-1.43061273812034e-06
-3.66129726011614e-07
6.82198283762012e-06
-1.47946789253404e-06
-6.13515629196613e-07
7.76091529809351e-06
-1.46438994761096e-06
-9.06911617931565e-07
8.52306364823126e-06
-1.37426363967138e-06
-1.24932458798745e-06
9.3968593680621e-06
-1.24437875773001e-06
-1.65705350442386e-06
1.10688362157397e-05
-1.10512555009795e-06
-2.17717050772953e-06
1.70406410498564e-05
-9.59868276010546e-07
-3.27400513672545e-06
4.08229272178214e-05
-7.49669485626545e-07
-6.86007849952648e-06
5.37229659498019e-06
-3.04992034020995e-07
6.25652242255147e-06
-1.63399283796246e-06
-5.10161281199594e-07
7.03235148553552e-06
-1.64732926191437e-06
-7.46559296841009e-07
7.52719434267494e-06
-1.56683431326762e-06
-1.00671025864056e-06
7.95188845887013e-06
-1.43003874466591e-06
-1.29513794119284e-06
8.67873157033533e-06
-1.27131271790011e-06
-1.62964159249093e-06
1.03226732914257e-05
-1.09885228507186e-06
-2.0530954798197e-06
1.62689320740641e-05
-8.96532585084564e-07
-2.99212393729488e-06
3.84449318084038e-05
-6.25418650337228e-07
-5.8985628882107e-06
4.70315143203229e-05
1.32662269291818e-06
-4.20973138049239e-06
1.5350903620933e-05
1.23418006757563e-06
-1.12834655249282e-06
5.10699665051429e-05
1.10753478672005e-06
-6.96701595441207e-06
1.02467879250167e-05
7.18640787578558e-07
-6.87336677957298e-07
1.79707524694699e-05
9.54386202331207e-07
-2.17475261615493e-06
5.29058959807314e-05
6.15496742231792e-07
-8.7689867251435e-06
8.66052044722726e-06
1.87134612558131e-07
-5.29498995199321e-07
1.18741117479777e-05
4.4043736585756e-07
-1.37511556219987e-06
1.91100395620002e-05
4.46156497106419e-07
-3.13552531079335e-06
5.45127752052394e-05
1.32548024627356e-07
-1.02287428338629e-05
7.73098342054511e-06
-2.83420181138613e-07
-4.18791753642606e-07
9.80540959263888e-06
-5.58567374060998e-08
-1.0212901080594e-06
1.28070190012799e-05
2.57432338237339e-08
-1.93187425378701e-06
2.01409587923568e-05
-9.20294270542294e-09
-3.76785180972297e-06
5.41550286698952e-05
-2.69645572946086e-07
-1.07402875786751e-05
6.96531508725135e-06
-6.76404801861239e-07
-3.36162039433359e-07
8.54957053963293e-06
-5.09905063448858e-07
-7.89800815731695e-07
1.05413450769257e-05
-4.2416987445242e-07
-1.41496258897344e-06
1.33930367328473e-05
-3.79146375040991e-07
-2.3215770141518e-06
2.02238571438781e-05
-4.22136613652402e-07
-4.09730817433141e-06
5.19848083520163e-05
-5.60531745855945e-07
-1.05963420395316e-05
6.2890704385584e-06
-9.90792801026776e-07
-2.70975836940216e-07
7.60349239909498e-06
-8.92992262496238e-07
-6.25844656623167e-07
9.10451809106173e-06
-8.37292142322831e-07
-1.0873497590033e-06
1.09014127318357e-05
-7.73091993620775e-07
-1.69933379694406e-06
1.31655951027735e-05
-7.34135181810325e-07
-2.53830695331425e-06
1.95490934532593e-05
-7.24127726838112e-07
-4.19359380999188e-06
4.87389680853995e-05
-7.20186269045791e-07
-1.01046263336554e-05
5.70460448376565e-06
-1.22847631028483e-06
-2.21653360445125e-07
6.84278886227192e-06
-1.19444740068728e-06
-5.07013999172287e-07
8.05858480609559e-06
-1.18106380202891e-06
-8.63159977077997e-07
9.33743569900179e-06
-1.12791434666998e-06
-1.30728691151405e-06
1.0579020226697e-05
-1.04887849862068e-06
-1.86310273991713e-06
1.24042773808558e-05
-9.74242165543423e-07
-2.59656062237617e-06
1.85472987423687e-05
-9.03302053404023e-07
-4.08734982054303e-06
4.51990150582256e-05
-8.04317105118098e-07
-9.24389165326949e-06
5.21491643495296e-06
-1.39802946145522e-06
-1.84744759875613e-07
6.21783890559223e-06
-1.41959341741941e-06
-4.1893908002661e-07
7.26819662715297e-06
-1.44964204859479e-06
-7.03926480177704e-07
8.24520461638456e-06
-1.42038157223513e-06
-1.04272882014915e-06
9.01251105264119e-06
-1.328875857423e-06
-1.43932624459965e-06
9.86613431447895e-06
-1.21337003245759e-06
-1.91441745751358e-06
1.15133909978903e-05
-1.10200708257627e-06
-2.52550730825048e-06
1.75302229388883e-05
-9.93019993838702e-07
-3.80849732734097e-06
4.18528115594741e-05
-8.31319305018107e-07
-7.99608268620374e-06
4.81019106414214e-06
-1.51045508508762e-06
-1.55114554325715e-07
5.70514925825985e-06
-1.57549505814114e-06
-3.50218585825402e-07
6.64385409021303e-06
-1.64857365147542e-06
-5.84355312043195e-07
7.45910214563715e-06
-1.64893794167558e-06
-8.55718593992843e-07
7.96239082677355e-06
-1.56114844581972e-06
-1.15522374975348e-06
8.37451396628308e-06
-1.4274566451385e-06
-1.48887422248726e-06
9.07758996373658e-06
-1.28397393141361e-06
-1.87706676029564e-06
1.0695215794937e-05
-1.14246570899235e-06
-2.36711896276606e-06
1.66699632877585e-05
-9.8920314861834e-07
-3.43551121946791e-06
3.91265945107234e-05
-7.70427990859797e-07
-6.77132648884544e-06
6.14249397365213e-06
-4.90214643638101e-07
6.85703574536672e-06
-1.81409624309889e-06
-7.15201974765205e-07
7.23359497736243e-06
-1.74279182973568e-06
-9.55355325849959e-07
7.40869897534677e-06
-1.60904934954621e-06
-1.20506493171101e-06
7.67714715954249e-06
-1.45594575995326e-06
-1.47398867555462e-06
8.35171210574322e-06
-1.29769850733902e-06
-1.78057268720964e-06
9.99432222743126e-06
-1.12522135411663e-06
-2.1632991310673e-06
1.59874213767449e-05
-9.21223480678588e-07
-3.03806721539601e-06
3.61462457457092e-05
-5.93204108786835e-07
-5.39368596022509e-06
5.02441394327827e-05
2.0363451868179e-06
-5.2489738440196e-06
1.61671344412725e-05
1.93567000211888e-06
-1.4252794408343e-06
5.44999188369249e-05
1.56508582529114e-06
-9.20477032482929e-06
1.0956032017569e-05
1.3333465712972e-06
-8.08408509537185e-07
1.9020832673061e-05
1.63359219839939e-06
-2.70447421482036e-06
5.56728550291147e-05
1.31904670894656e-06
-1.1053008987751e-05
9.32982425174248e-06
6.54592880451938e-07
-6.05254257963069e-07
1.27025695541145e-05
1.01658021447024e-06
-1.57798371319131e-06
2.0156155570605e-05
1.04694494240881e-06
-3.65230375811035e-06
5.75201373091798e-05
5.99013737980945e-07
-1.23753441262012e-05
8.35668879200626e-06
4.32373789877647e-08
-4.81807137477518e-07
1.05256224151003e-05
3.69468849110937e-07
-1.17873953537507e-06
1.36165957437956e-05
4.97341385028165e-07
-2.23587210649068e-06
2.10961072958825e-05
4.46399777744352e-07
-4.40451516906963e-06
5.67753505181443e-05
3.70366568411073e-08
-1.28860843627078e-05
7.53307277312016e-06
-4.60667519821083e-07
-3.90509512881622e-07
9.20278261466066e-06
-2.13785104296586e-07
-9.14072934508413e-07
1.12616574043231e-05
-7.76323732219078e-08
-1.63822393307561e-06
1.41656007762001e-05
-1.80006979318213e-08
-2.69563639256882e-06
2.10722492208976e-05
-1.08428475292216e-07
-4.77745212503283e-06
5.41038204648829e-05
-3.74921121311979e-07
-1.24843711655591e-05
6.78881476847963e-06
-8.62679974012936e-07
-3.13468539886065e-07
8.18624022342442e-06
-7.04618028995397e-07
-7.2419495474709e-07
9.75040569501698e-06
-6.02644593716477e-07
-1.25721242880704e-06
1.15864404930895e-05
-5.13522237459134e-07
-1.96561411110596e-06
1.38554831411959e-05
-4.9136470494468e-07
-2.9422354622938e-06
2.02874311307266e-05
-5.33859604586855e-07
-4.86231150964258e-06
5.04906649199338e-05
-6.19575937393306e-07
-1.17284552407248e-05
6.13562492362346e-06
-1.16672169727883e-06
-2.55091094409066e-07
7.35321512567155e-06
-1.08990438244862e-06
-5.84488771797682e-07
8.6306283210492e-06
-1.03968022726065e-06
-9.95499878391333e-07
9.94671961850403e-06
-9.61200066110855e-07
-1.5085250673061e-06
1.11824172369594e-05
-8.83977270122451e-07
-2.15288894031006e-06
1.29871607264566e-05
-8.35799630792594e-07
-3.00951940587397e-06
1.91909982372622e-05
-8.01883127888506e-07
-4.75559726973862e-06
4.66851877909939e-05
-7.35686865107193e-07
-1.08551162194458e-05
5.58256180925514e-06
-1.38543683035236e-06
-2.10684547153301e-07
6.65924120363062e-06
-1.3776041155488e-06
-4.79897958503168e-07
7.77013657222793e-06
-1.38088308751804e-06
-8.09134053578566e-07
8.78406639040461e-06
-1.32979612053171e-06
-1.20014009441388e-06
9.54879707772403e-06
-1.23343256687511e-06
-1.65901984647451e-06
1.03722005463521e-05
-1.13135503544529e-06
-2.21205847505336e-06
1.19901040320768e-05
-1.04472702255688e-06
-2.93185200670049e-06
1.80505773276548e-05
-9.56614724825584e-07
-4.45541322029941e-06
4.27543299000348e-05
-7.90853401591488e-07
-9.35456839717919e-06
5.12205817661398e-06
-1.53316733284904e-06
-1.76728986673769e-07
6.08198636458974e-06
-1.58135051365254e-06
-3.99823926579886e-07
7.0800404325747e-06
-1.6353041682768e-06
-6.69462724835116e-07
7.93420458269852e-06
-1.61741607591857e-06
-9.81994320819189e-07
8.43955551394958e-06
-1.52131482191127e-06
-1.3274552899801e-06
8.82803676639896e-06
-1.3922711457103e-06
-1.71394941380008e-06
9.49401856844908e-06
-1.26619117220864e-06
-2.16666539871371e-06
1.1072948399561e-05
-1.1531413893564e-06
-2.74312134183085e-06
1.70495333399741e-05
-1.03283169472603e-06
-3.98656606176976e-06
3.97185399228919e-05
-8.32728555528354e-07
-7.7553119085548e-06
4.73729466232335e-06
-1.62576285448534e-06
-1.48181461878474e-07
5.60479821197861e-06
-1.71580803701002e-06
-3.35649105562945e-07
6.51535474738608e-06
-1.81136489883939e-06
-5.60287596220299e-07
7.27178256847347e-06
-1.83080677214083e-06
-8.17233230525042e-07
7.65787920133069e-06
-1.74788980139751e-06
-1.09326210867367e-06
7.81688078808216e-06
-1.60986811114114e-06
-1.38099562685372e-06
8.05892083082317e-06
-1.4623412986356e-06
-1.69228249706541e-06
8.70127898771963e-06
-1.3208344811459e-06
-2.04826792445907e-06
1.03073608697196e-05
-1.18001585190452e-06
-2.48934934878705e-06
1.62952521036596e-05
-1.02325641470132e-06
-3.49052394820324e-06
3.64972049321698e-05
-7.9000176347595e-07
-6.33229843581208e-06
6.73889420690831e-06
-6.88730809090477e-07
7.06123302636521e-06
-1.91238772014604e-06
-9.1730934969416e-07
7.12422840796824e-06
-1.78167396504873e-06
-1.14674622188909e-06
7.14609465037108e-06
-1.62986369845098e-06
-1.37635482056021e-06
7.35820100813925e-06
-1.47857146851936e-06
-1.61815268656786e-06
8.02062591881365e-06
-1.32584466234015e-06
-1.88815666862743e-06
9.68768751047067e-06
-1.15558823495375e-06
-2.21692738250158e-06
1.56534272273229e-05
-9.34600900773018e-07
-2.95030327602571e-06
3.46460246161587e-05
-6.52981470788267e-07
-5.15292898031407e-06
5.38479586239254e-05
3.18280894190406e-06
-6.78664206889078e-06
1.69217151553121e-05
2.95514405232475e-06
-1.67339088026268e-06
5.81660085059526e-05
2.37501829985639e-06
-1.12901128724184e-05
1.16757102972331e-05
2.16171311369755e-06
-9.45720834445152e-07
1.99934921422435e-05
2.48771185377965e-06
-3.32056433764011e-06
5.78684348344976e-05
1.95559449337427e-06
-1.3355937338841e-05
1.00754633574063e-05
1.28854739668421e-06
-7.00838751662427e-07
1.36078242993359e-05
1.78198888760016e-06
-1.86205558657852e-06
2.12601826517361e-05
1.87160979837884e-06
-4.36105359020049e-06
5.97493978836019e-05
1.45490847538387e-06
-1.47371611680792e-05
9.0747893415037e-06
4.93464828780276e-07
-5.56971305753465e-07
1.13454193903007e-05
9.55163154393645e-07
-1.36363048947462e-06
1.45287521520002e-05
1.14803447780974e-06
-2.59122526294275e-06
2.21077302011238e-05
1.08817376557979e-06
-5.15307505676124e-06
5.932882488141e-05
5.58479053523517e-07
-1.54872774946242e-05
8.19047684737434e-06
-1.58011569596521e-07
-4.56154108772149e-07
9.95110846577652e-06
2.00241323781845e-07
-1.06090260515003e-06
1.20710370385756e-05
4.07287234371295e-07
-1.89806129836511e-06
1.50156244157776e-05
4.90543331867684e-07
-3.13003403434861e-06
2.19442598851634e-05
3.4611385312848e-07
-5.58558918628064e-06
5.60670473510579e-05
-5.11443244159879e-08
-1.47981511615012e-05
7.36746627032033e-06
-6.74663539250473e-07
-3.6465472072634e-07
8.85670937441976e-06
-4.3320726689063e-07
-8.4155457711631e-07
1.0481714366274e-05
-2.65945131885535e-07
-1.45706683237817e-06
1.2346173953978e-05
-1.40250965345379e-07
-2.27570469135265e-06
1.45974694077913e-05
-1.36161935640956e-07
-3.40988545270711e-06
2.10090230853065e-05
-2.42743920655727e-07
-5.63121553969499e-06
5.20734973679906e-05
-4.5479693997732e-07
-1.36123963927554e-05
6.63295506797801e-06
-1.06467513130186e-06
-2.95334338980908e-07
7.940353398002e-06
-9.28179614807345e-07
-6.77043527849115e-07
9.28078185312772e-06
-8.25325251073042e-07
-1.15166631038673e-06
1.0628501477373e-05
-7.09476874434238e-07
-1.74303891230861e-06
1.18433512845004e-05
-6.31413231988486e-07
-2.48650004416198e-06
1.36045311663813e-05
-6.16205122386834e-07
-3.47726034842401e-06
1.98160544067705e-05
-6.37701983427149e-07
-5.46924182857335e-06
4.78638774616188e-05
-6.61948865935624e-07
-1.22451962140869e-05
6.00402135049848e-06
-1.34607092183951e-06
-2.4210977956833e-07
7.16483256552383e-06
-1.29757973348401e-06
-5.5300582467233e-07
8.34049662816527e-06
-1.26160251159033e-06
-9.32925283645666e-07
9.3891040703779e-06
-1.17832849606991e-06
-1.3834087716625e-06
1.01411572815182e-05
-1.07249646216723e-06
-1.91236721332369e-06
1.09203637257395e-05
-9.84727218402132e-07
-2.55212661254189e-06
1.24974665096705e-05
-9.27490810914879e-07
-3.39127672905922e-06
1.85956520322642e-05
-8.67016281813292e-07
-5.16934354816352e-06
4.29945982612759e-05
-6.76530187475428e-07
-1.04188612125683e-05
5.47660151470219e-06
-1.5387890327433e-06
-2.01190685786114e-07
6.51232590351927e-06
-1.56104603615032e-06
-4.57581045750202e-07
7.57472995128552e-06
-1.58683514693905e-06
-7.6863477141958e-07
8.4677056598102e-06
-1.54364096701502e-06
-1.12879024579014e-06
8.96781524358689e-06
-1.43512039841771e-06
-1.52671263776204e-06
9.32106110594678e-06
-1.31009266742555e-06
-1.97330850547228e-06
9.93889779380157e-06
-1.20144177405327e-06
-2.50022550970404e-06
1.14766250977739e-05
-1.11187966034774e-06
-3.18026682594381e-06
1.74190943033336e-05
-9.95328940367592e-07
-4.62050596354927e-06
3.97799130860696e-05
-7.61820243272479e-07
-8.65413070893174e-06
5.03492922140886e-06
-1.66190999952562e-06
-1.68891512077505e-07
5.96757936556427e-06
-1.73790281554469e-06
-3.82957151004182e-07
6.93818353213386e-06
-1.81749793847334e-06
-6.40458396717782e-07
7.73811144935643e-06
-1.81702084115196e-06
-9.3618701830805e-07
8.12789013786248e-06
-1.71978130072549e-06
-1.25353886106567e-06
8.26107882891759e-06
-1.57886630251155e-06
-1.58505889964122e-06
8.46403503966111e-06
-1.43970772253169e-06
-1.94554939862632e-06
9.05999056349672e-06
-1.31742955651132e-06
-2.36109180088336e-06
1.06144768474222e-05
-1.2046810811017e-06
-2.87839200503787e-06
1.65566503200976e-05
-1.07105617166324e-06
-4.00964465368825e-06
3.66983049929244e-05
-8.40444230056481e-07
-7.11598078922959e-06
4.66276227972248e-06
-1.73229033206534e-06
-1.41399814763577e-07
5.51015418047687e-06
-1.84987839677748e-06
-3.21107141455541e-07
6.40898340157165e-06
-1.9699933377466e-06
-5.38046721131508e-07
7.13925960878205e-06
-2.00644224410703e-06
-7.85017414287969e-07
7.47470496496726e-06
-1.93235107803943e-06
-1.04624418935868e-06
7.52356097275164e-06
-1.79216786794971e-06
-1.3102955997537e-06
7.51634618621123e-06
-1.63862745907323e-06
-1.57496237908017e-06
7.69489328386446e-06
-1.49494219844232e-06
-1.85486958333868e-06
8.32025787842726e-06
-1.36023886095637e-06
-2.16768019992686e-06
9.94044832458443e-06
-1.22176756254922e-06
-2.54360428730525e-06
1.58450256598679e-05
-1.06124786086393e-06
-3.41088852228849e-06
3.50272351221132e-05
-8.16471747942637e-07
-5.89705584288108e-06
6.94566554394405e-06
-8.84685324436532e-07
6.96059410721978e-06
-1.94787688506719e-06
-1.10331360182669e-06
6.87327847165683e-06
-1.79675601716986e-06
-1.31349159162469e-06
6.84062438099684e-06
-1.64702844270842e-06
-1.51719629509322e-06
7.03533571885706e-06
-1.50287262524359e-06
-1.72640176874355e-06
7.70381359890397e-06
-1.35625251527648e-06
-1.95256007441155e-06
9.42919337223495e-06
-1.18424242624582e-06
-2.20883971122033e-06
1.54976836052921e-05
-9.73914241391213e-07
-2.89802180162845e-06
3.38720080093808e-05
-6.74265297596555e-07
-4.70848107152865e-06
5.80720323157333e-05
5.00044330288409e-06
-9.22455302281324e-06
1.76048056118111e-05
4.47539345657758e-06
-1.97570327977502e-06
6.1887920510232e-05
3.73916307458041e-06
-1.42477944125642e-05
1.24066846801765e-05
3.3120059073957e-06
-1.08783836912494e-06
2.08437989898774e-05
3.72498379544878e-06
-3.87367517365538e-06
6.01494480192305e-05
2.78219224290139e-06
-1.635332964332e-05
1.09001198503126e-05
2.15023428990738e-06
-8.1317780198493e-07