/*--------------------------------*- C++ -*----------------------------------*\
  =========                 |
  \\      /  F ield         | OpenFOAM: The Open Source CFD Toolbox
   \\    /   O peration     | Website:  https://openfoam.org
    \\  /    A nd           | Version:  12
     \\/     M anipulation  |
\*---------------------------------------------------------------------------*/
/*   Windows 32 and 64 bit porting by blueCAPE: http://www.bluecape.com.pt   *\
|  Based on Windows porting (2.0.x v4) by Symscape: http://www.symscape.com   |
\*---------------------------------------------------------------------------*/
FoamFile
{
    format      ascii;
    class       surfaceScalarField;
    location    "0";
    object      phi;
}
// * * * * * * * * * * * * * * * * * * * * * * * * * * * * * * * * * * * * * //

dimensions      [0 3 -1 0 0 0 0];

internalField   nonuniform List<scalar> 
28915
(
-5.00240652140521e-07
7.53865587862197e-08
1.57920268104132e-08
-5.9396232325634e-07
7.96965300870253e-08
1.40248127445384e-08
-5.02089844609474e-07
1.497226839113e-07
1.85900653369231e-08
-5.37898302998668e-07
8.14964424144426e-08
3.20710921668145e-08
-6.89495379566215e-07
8.31364194453691e-08
1.23963368949098e-08
-5.97542863603163e-07
1.58440797793989e-07
1.67084899410083e-08
-6.38399024000082e-07
8.60633141219735e-08
2.84618989656897e-08
-5.07414247975504e-07
2.29259439275572e-07
1.74629370299111e-08
-5.5514340053543e-07
1.64672322124692e-07
3.79624239309828e-08
-5.97798800564145e-07
9.10173084245281e-08
4.90512897773128e-08
-7.8617782563032e-07
8.57689328625704e-08
1.09132048940119e-08
-6.94775179901429e-07
1.65448576903237e-07
1.49198735327493e-08
-7.40840288086794e-07
8.96712092395856e-08
2.5166054426819e-08
-6.06991680305759e-07
2.42263548391271e-07
1.57544288235179e-08
-6.60445584708049e-07
1.73725747432097e-07
3.43479433964339e-08
-7.0881705575329e-07
9.60612524290211e-08
4.3418593945981e-08
-5.07233743798519e-07
3.11036230928878e-07
2.09085230097191e-08
-5.69595334444804e-07
2.51319717033651e-07
3.98209736559965e-08
-6.29860435383406e-07
1.88351285929664e-07
5.63138172941113e-08
-6.6155478278459e-07
1.01061254696603e-07
6.62840384249274e-08
-8.83420433157348e-07
8.76670102535713e-08
9.57531193762142e-09
-7.93109144888863e-07
1.70832037911642e-07
1.32706097017911e-08
-8.44515466192836e-07
9.24118643624316e-08
2.21762251759695e-08
-7.08314168750094e-07
2.52491687060611e-07
1.42791539296407e-08
-7.67685606175869e-07
1.80820876050751e-07
3.10099666986018e-08
-8.21988797121292e-07
1.0003446987768e-07
3.83030280708823e-08
-6.12180826403261e-07
3.28126710364495e-07
1.90836377493446e-08
-6.81204099117222e-07
2.6516479420515e-07
3.59238813516291e-08
-7.48667261983956e-07
1.98659417016166e-07
5.05563380747318e-08
-7.83180172063089e-07
1.06473912913616e-07
5.85697818998752e-08
-4.95413049310785e-07
3.96410135698357e-07
2.29191259400916e-08
-5.67706971814223e-07
3.45996281955875e-07
4.07890013990961e-08
-6.5566645236684e-07
2.92596373111702e-07
6.03335737753059e-08
-7.00208722652721e-07
2.11143355644137e-07
7.35314306330829e-08
-7.12511357763979e-07
1.09047569888876e-07
8.27636485080354e-08
-9.80702983883541e-07
8.8903327890412e-08
8.37889166012995e-09
-8.91949262166207e-07
1.7473441674654e-07
1.1772408062148e-08
-9.48794272527229e-07
9.43703705863923e-08
1.94834067934441e-08
-8.10634753384485e-07
2.60259069746355e-07
1.28932554527669e-08
-8.76134647739927e-07
1.86192250238101e-07
2.79389585569585e-08
-9.36532828992096e-07
1.03034007926734e-07
3.36859645957442e-08
-7.1858907664689e-07
3.41545009852048e-07
1.73545565601502e-08
-7.94603276140422e-07
2.7615254073849e-07
3.23463366392966e-08
-8.6967183591636e-07
2.06744087020234e-07
4.5304659873763e-08
-9.07187998270777e-07
1.10727079074701e-07
5.15835245033751e-08
-6.05612567912758e-07
4.17323600555903e-07
2.10022337548778e-08
-6.84738222212064e-07
3.64993430337657e-07
3.62858902502211e-08
-7.83517971161825e-07
3.08373862462033e-07
5.40606713625619e-08
-8.30970814774001e-07
2.22343880980033e-07
6.54482510650763e-08
-8.41609461664696e-07
1.1456129743242e-07
7.31063072118595e-08
-4.72164838174497e-07
4.87197056803644e-07
2.30668078133425e-08
-5.49591700977435e-07
4.46595507654596e-07
4.1772664040278e-08
-6.5344213935196e-07
4.0319044240759e-07
6.16163378809413e-08
-7.31216068292245e-07
3.29858972120595e-07
7.93286536288155e-08
-7.5065881592751e-07
2.27211985404974e-07
8.97693442697469e-08
-7.4602950482894e-07
1.14182067080723e-07
9.75035398582828e-08
-1.07757266078759e-06
8.95513916242528e-08
7.31797903962942e-09
-9.90769033237092e-07
1.77297715988998e-07
1.0425111333126e-08
-1.05311970473293e-06
9.56264296414074e-08
1.70775779359491e-08
-9.13343620944784e-07
2.65813358729967e-07
1.16296765934177e-08
-9.85142014970412e-07
1.90016605949195e-07
2.5133263991545e-08
-1.05175235584543e-06
1.05157034234855e-07
2.95456002673788e-08
-8.25767765724273e-07
3.51577283489033e-07
1.58601200415018e-08
-9.0909024408568e-07
2.84592991371298e-07
2.89791718583927e-08
-9.9204510190132e-07
2.12807133950555e-07
4.05388210757536e-08
-1.03272191792161e-06
1.13922912517846e-07
4.52967044223213e-08
-7.16985862013964e-07
4.33496317496899e-07
1.94214905915372e-08
-8.0327384147884e-07
3.8012384613606e-07
3.1918439593229e-08
-9.13490876270684e-07
3.206979970019e-07
4.83649813442443e-08
-9.6417747958945e-07
2.31116105193413e-07
5.81220490227281e-08
-9.7327447243565e-07
1.18878742881567e-07
6.43695289139228e-08
-5.87384257854363e-07
5.11756361949117e-07
2.07861534989e-08
-6.71162653929366e-07
4.69980472242323e-07
3.75855486326245e-08
-7.87738523199194e-07
4.24271860582122e-07
5.4683661504064e-08
-8.72390771540078e-07
3.47072176684962e-07
7.05066160532434e-08
-8.88758284105652e-07
2.38628778346287e-07
7.94799978211697e-08
-8.78667177765885e-07
1.19575573199012e-07
8.61681628822717e-08
-4.41368847234383e-07
5.84630330434487e-07
2.23831000166007e-08
-5.22124681167881e-07
5.51484529512963e-07
4.32516128455007e-08
-6.29296984488364e-07
5.18492990359924e-07
6.32233302126197e-08
-7.26764063401945e-07
4.53789737237309e-07
8.23522902014025e-08
-7.80547174005944e-07
3.54067689438198e-07
9.71300152890533e-08
-7.81738743535999e-07
2.36473646027161e-07
1.0466954141409e-07
-7.67281664953267e-07
1.1738245910151e-07
1.09695263547494e-07
-1.1736413541792e-06
8.96837270279019e-08
6.38464948176454e-09
-1.08911188920398e-06
1.78669189622683e-07
9.22474641808773e-09
-1.15700663064163e-06
9.62596050597591e-08
1.49449488635432e-08
-1.0158953297169e-06
2.69365796808234e-07
1.04833153266718e-08
-1.09412864178323e-06
1.92439941887461e-07
2.25979005677959e-08
-1.16703344902573e-06
1.06500781975937e-07
2.58575898941025e-08
-9.33133465761835e-07
3.58549725908835e-07
1.46289343974351e-08
-1.02401690083135e-06
2.90749230255408e-07
2.58233520447681e-08
-1.11504715817407e-06
2.1705281285546e-07
3.62392698291741e-08
-1.15901795213874e-06
1.16166796309391e-07
3.96746038438992e-08
-8.28789106365783e-07
4.45415853364992e-07
1.79641848103203e-08
-9.22645066576848e-07
3.914020435952e-07
2.84218401590277e-08
-1.04470614626641e-06
3.29785716590923e-07
4.32155275354564e-08
-1.0989130302295e-06
2.37675709295703e-07
5.15213715975183e-08
-1.10659831617304e-06
1.22103714978507e-07
5.65165933879481e-08
-7.0325562522986e-07
5.30425202142672e-07
1.89419275259918e-08
-7.9422162443066e-07
4.88121368366754e-07
3.44822949172692e-08
-9.23975231551543e-07
4.40418541712767e-07
4.84339914672241e-08
-1.01593779651797e-06
3.60482124394309e-07
6.2545574668055e-08
-1.02948271142746e-06
2.47545356442262e-07
7.01796335477793e-08
-1.01399491183762e-06
1.23781556357739e-07
7.59154554123426e-08
-5.61855405628271e-07
6.12649463867171e-07
1.95929168683162e-08
-6.48652389387817e-07
5.7897120229004e-07
3.83225803454468e-08
-7.68418557057553e-07
5.45146015967929e-07
5.58322275845449e-08
-8.74618533196793e-07
4.76896440342017e-07
7.27130319677437e-08
-9.28895063283142e-07
3.71606566977476e-07
8.58761924499846e-08
-9.2276124339956e-07
2.47585490728697e-07
9.24923940985004e-08
-9.00650265741298e-07
1.22528694964086e-07
9.70078220514939e-08
-4.06924292419844e-07
6.89461535938885e-07
2.18534966436893e-08
-4.89514647198645e-07
6.60501052312044e-07
4.53819744198592e-08
-5.96067383707206e-07
6.37851459181031e-07
6.63978661827673e-08
-6.96826103344629e-07
5.80974884902851e-07
8.55767026583969e-08
-7.72493483336447e-07
4.85353250822663e-07
1.02175612656997e-07
-8.0870237758606e-07
3.66971175982591e-07
1.13330579740241e-07
-8.01897463730478e-07
2.42119786418199e-07
1.17341658946588e-07
-7.82959459780208e-07
1.19829870518421e-07
1.18711175849453e-07
-1.26858117174793e-06
8.93688541788563e-08
5.57069150126305e-09
-1.18658796000748e-06
1.78995548522005e-07
8.16398908558187e-09
-1.26003959407626e-06
9.63481745467568e-08
1.30691265002775e-08
-1.11782158592892e-06
2.71142151403607e-07
9.45304426070623e-09
-1.20259214162319e-06
1.93620368848223e-07
2.03271936086615e-08
-1.28184109338057e-06
1.07157293170604e-07
2.2594991952522e-08
-1.04010863215715e-06
3.62831690287986e-07
1.3508919659245e-08
-1.13876835651176e-06
2.94716623843305e-07
2.2957764462942e-08
-1.23803073875489e-06
2.19697824625739e-07
3.23841485254299e-08
-1.28540325859902e-06
1.17564376584824e-07
3.46782525683952e-08
-9.4039017213094e-07
4.53533382415541e-07
1.66169067295615e-08
-1.04236202075124e-06
3.99153170357618e-07
2.5941499247869e-08
-1.17636886131719e-06
3.35950633351553e-07
3.85878805388234e-08
-1.23436234527051e-06
2.42246393838126e-07
4.56087462821208e-08
-1.24076965861021e-06
1.24343803479687e-07
4.95019108455868e-08
-8.19066284575462e-07
5.43942064904156e-07
1.72838600163551e-08
-9.17768412604827e-07
5.01512859248298e-07
3.13994779608406e-08
-1.06114941261099e-06
4.5242696397612e-07
4.29541021256301e-08
-1.16087785583778e-06
3.70426575421783e-07
5.54042536929648e-08
-1.17186559921023e-06
2.54182371068444e-07
6.182539957584e-08
-1.1510812587206e-06
1.26901385416055e-07
6.67013538153129e-08
-6.82191458130638e-07
6.33643655296576e-07
1.71170508243492e-08
-7.76121828155028e-07
5.99683177605752e-07
3.48489681951436e-08
-9.08626038230392e-07
5.65650289640409e-07
4.94572110904719e-08
-1.0245309671747e-06
4.94739654633463e-07
6.40879428813304e-08
-1.07978620891166e-06
3.85239037743236e-07
7.57424873009364e-08
-1.06652473482874e-06
2.56230297860952e-07
8.14942371322171e-08
-1.03678756484321e-06
1.26523070593353e-07
8.5529447497131e-08
-5.33470208234394e-07
7.2023905271813e-07
1.89558399961082e-08
-6.22184994842756e-07
6.92135089966956e-07
3.90987017964957e-08
-7.40358627878559e-07
6.6961872238244e-07
5.81404212594389e-08
-8.49012192299688e-07
6.09788884854351e-07
7.51247939145278e-08
-9.26988811565504e-07
5.08870233955201e-07
8.99435092143821e-08
-9.59214373828878e-07
3.83987253280837e-07
9.99859584251923e-08
-9.43212842567041e-07
2.52664833867317e-07
1.03671512605457e-07
-9.15644473114877e-07
1.24654413573242e-07
1.05038188658714e-07
-3.71439424568099e-07
8.00257364206156e-07
2.42975571829472e-08
-4.53306137359201e-07
7.74212889384339e-07
4.83395844747084e-08
-5.5942966755283e-07
7.61909962673869e-07
7.11446773681964e-08
-6.59687886459028e-07
7.11945287842637e-07
9.08271781716109e-08
-7.39049004611487e-07
6.19231453667765e-07
1.07157755203799e-07
-7.97912133209454e-07
5.01618006464926e-07
1.19968453076303e-07
-8.27282755956283e-07
3.74752634478208e-07
1.26976001034645e-07
-8.18116098371821e-07
2.46784699872478e-07
1.26879093744956e-07
-7.97063271604326e-07
1.22125025762801e-07
1.2416422155313e-07
-1.36211943798001e-06
8.86703366323247e-08
4.86768541893538e-09
-1.28287022340323e-06
1.78416511884084e-07
7.23437236783818e-09
-1.36186653521056e-06
9.59650648525825e-08
1.14322831043631e-08
-1.21872893575678e-06
2.71367192431287e-07
8.53545633913104e-09
-1.3101034735122e-06
1.93714858077938e-07
1.83083577506646e-08
-1.3957155375857e-06
1.07214018274474e-07
1.97292726915184e-08
-1.14621370838323e-06
3.64759000062447e-07
1.24878692509711e-08
-1.25282229418227e-06
2.96730004082347e-07
2.0397017848437e-08
-1.36043276916655e-06
2.20937181003332e-07
2.89490718501923e-08
-1.41129137215239e-06
1.18216134749162e-07
3.02667323309395e-08
-1.05123588499208e-06
4.58302951238179e-07
1.5373987674098e-08
-1.16165387913535e-06
4.03901172570999e-07
2.36157981281788e-08
-1.307816429593e-06
3.39659360309336e-07
3.44434757023935e-08
-1.36981252499704e-06
2.45056688001363e-07
4.03418225223108e-08
-1.37507257457593e-06
1.25706266371911e-07
4.32746821269636e-08
-9.34180355450199e-07
5.52886645437005e-07
1.57602516185819e-08
-1.04109649210778e-06
5.10625613509541e-07
2.84719027802488e-08
-1.19828379371854e-06
4.60800144756436e-07
3.82257639905812e-08
-1.30634148469134e-06
3.77264106963838e-07
4.90334048773207e-08
-1.31504616010213e-06
2.58767299466905e-07
5.4365626651021e-08
-1.28909234638294e-06
1.29040053268883e-07
5.84727437051269e-08
-8.01847939123702e-07
6.48416765769907e-07
1.51811730237401e-08
-9.03570580496834e-07
6.14859238060591e-07
3.13856089536149e-08
-1.04923270009987e-06
5.80648532799461e-07
4.37837484812333e-08
-1.17548215878842e-06
5.07900000124615e-07
5.64309861869129e-08
-1.23219348123193e-06
3.9532098671349e-07
6.66724200803648e-08
-1.21204406210408e-06
2.62622361101012e-07
7.16236267703727e-08
-1.17476036644195e-06
1.29461936237365e-07
7.52120149938462e-08
-6.59018651237706e-07
7.42877653756263e-07
1.6313874747359e-08
-7.54490046285808e-07
7.1577143684116e-07
3.33330575675754e-08
-8.85045537964726e-07
6.94082751227845e-07
5.11025696557761e-08
-1.0026312650805e-06
6.31921111858332e-07
6.58936274722464e-08
-1.08368384324395e-06
5.27022541205154e-07
7.89982746249367e-08
-1.11238083232824e-06
3.9716395231683e-07
8.79748382509383e-08
-1.08734867961018e-06
2.60828889440444e-07
9.13241486812019e-08
-1.05115661731427e-06
1.28376591297968e-07
9.2664766628591e-08
-5.05232324635915e-07
8.33994545827383e-07
2.00369892078684e-08
-5.93242880922851e-07
8.09514236941691e-07
4.15129566661788e-08
-7.10208949012374e-07
7.97871947960218e-07
6.16239580255307e-08
-8.17041835472232e-07
7.46014190547181e-07
7.92680319241411e-08
-8.97343064530256e-07
6.48392416256265e-07
9.38952258818708e-08
-9.53857338118762e-07
5.24381068879249e-07
1.05493754742046e-07
-9.77451053181174e-07
3.90841686315025e-07
1.11977060545232e-07
-9.58566040210356e-07
2.56636353038678e-07
1.12139433991296e-07
-9.28515374840878e-07
1.26582003607719e-07
1.0990807752282e-07
-3.349250778834e-07
9.17816112310398e-07
2.76632477147076e-08
-4.14667056166331e-07
8.95394464736039e-07
5.30384337109053e-08
-5.20254075197751e-07
8.92174751322488e-07
7.72900939347283e-08
-6.21329548820767e-07
8.48472629717553e-07
9.81595170794004e-08
-7.0071668999459e-07
7.57042093134497e-07
1.14274935482071e-07
-7.63245532292468e-07
6.38804196335649e-07
1.26279918491883e-07
-8.15531404594013e-07
5.115582025945e-07
1.34631688988154e-07
-8.43668677343826e-07
3.8155256134375e-07
1.37181827548444e-07
-8.33489570435912e-07
2.51427449794435e-07
1.32711449397267e-07
-8.11193165148118e-07
1.24429894795403e-07
1.25902217682868e-07
-1.45403252473363e-06
8.76465584293994e-08
4.26630185257211e-09
-1.37768751753812e-06
1.77060529902717e-07
6.42691246277103e-09
-1.46219346664316e-06
9.51771892549111e-08
1.0017178083569e-08
-1.31829203055076e-06
2.70254027472695e-07
7.72540565956591e-09
-1.41630215859825e-06
1.92872176625403e-07
1.65257219024438e-08
-1.50826729191716e-06
1.06751935383041e-07
1.7231852394103e-08
-1.25105709950649e-06
3.64644119668718e-07
1.15661707080653e-08
-1.3657397215153e-06
2.97037305076709e-07
1.8130166028889e-08
-1.48177005423759e-06
2.20952443714467e-07
2.59069746957597e-08
-1.53617698840149e-06
1.1821639163197e-07
2.63982609873026e-08
-1.16086514504519e-06
4.6014835625848e-07
1.42394437836906e-08
-1.27997411227848e-06
4.06031286686336e-07
2.15064146543905e-08
-1.43846686046342e-06
3.41231922682899e-07
3.07523839936489e-08
-1.50464437942117e-06
2.46319572938609e-07
3.56772783602928e-08
-1.50888178650763e-06
1.26294035395791e-07
3.77816923895385e-08
-1.04807821166052e-06
5.57828370849846e-07
1.43718791354823e-08
-1.16358529819465e-06
5.15975169742161e-07
2.57881576516947e-08
-1.33485928462626e-06
4.65827681224163e-07
3.4022344230086e-08
-1.45158838746548e-06
3.81374103821053e-07
4.33725420955088e-08
-1.45826848237968e-06
2.61527138134251e-07
4.77431022111102e-08
-1.42728991058914e-06
1.30302393994806e-07
5.11696777851519e-08
-9.20199870207454e-07
6.57780504498524e-07
1.34575247868258e-08
-1.03025121022033e-06
6.2490874107155e-07
2.81571799250014e-08
-1.1894877116745e-06
5.9078863393813e-07
3.87376411666606e-08
-1.32656523782782e-06
5.16899494529373e-07
4.96725660972404e-08
-1.38520881255548e-06
4.02215877877925e-07
5.85996812831735e-08
-1.35843951687761e-06
2.66982272297138e-07
6.28187789050642e-08
-1.31372909108317e-06
1.31445034177704e-07
6.5996246909711e-08
-7.83040870536015e-07
7.58553617325301e-07
1.38848283843527e-08
-8.86337092839403e-07
7.32094581919637e-07
2.97921359628967e-08
-1.02944864335267e-06
7.11524204251959e-07
4.49123008974519e-08
-1.15673324886979e-06
6.48046173849273e-07
5.77384559744201e-08
-1.24152963712242e-06
5.40334555257439e-07
6.92620490112138e-08
-1.26716166570934e-06
4.06845431030291e-07
7.72297827017404e-08
-1.23331988873642e-06
2.66814243101567e-07
8.02424700345332e-08
-1.18857077029668e-06
1.31086588938278e-07
8.15393746337929e-08
-6.3682619553846e-07
8.58287967803519e-07
1.6183034928354e-08
-7.32113448900189e-07
8.35568302072274e-07
3.53869979722225e-08
-8.61092462613116e-07
8.24996407080141e-07
5.33020204578636e-08
-9.75123856876554e-07
7.71970767987603e-07
6.91339406552805e-08
-1.0572643398057e-06
6.70719820486443e-07
8.21162255942826e-08
-1.11211532959136e-06
5.41885392849299e-07
9.25336719543411e-08
-1.13035843552424e-06
4.03236815020322e-07
9.84739608322486e-08
-1.1019021249994e-06
2.6421546263464e-07
9.88212889255799e-08
-1.06284563805556e-06
1.29993113105292e-07
9.70016970136317e-08
-4.77536212374003e-07
9.53292845023618e-07
2.3312364707182e-08
-5.63195770998337e-07
9.33032795960848e-07
4.50464383196634e-08
-6.79271918865987e-07
9.31897569850402e-07
6.65043587084019e-08
-7.85940220691544e-07
8.87134513329962e-07
8.51130488541417e-08
-8.64098436306782e-07
7.9138706170525e-07
9.96538432279958e-08
-9.22521118953766e-07
6.66950114884004e-07
1.10600412014777e-07
-9.70594490906207e-07
5.3302579377091e-07
1.18371758167418e-07
-9.9259556518658e-07
3.96538875823003e-07
1.21001152474673e-07
-9.72625885261518e-07
2.6051239066282e-07
1.17345298824904e-07
-9.41266205856638e-07
1.2849622621818e-07
1.11484705608772e-07
-2.9807604187678e-07
1.04411721537844e-06
3.07619077768773e-08
-3.75009580833614e-07
1.02566826875284e-06
5.87742869265321e-08
-4.78442776874676e-07
1.03087757954802e-06
8.48263659492099e-08
-5.80714130714137e-07
9.92539332995955e-07
1.07159887460917e-07
-6.6280002603279e-07
9.01114118978287e-07
1.23815077385955e-07
-7.25540832924743e-07
7.80168492730533e-07
1.34801248811142e-07
-7.8115592019925e-07
6.509838902869e-07
1.41807071916545e-07
-8.3229986849071e-07
5.205585119584e-07
1.4541581896423e-07
-8.60203521121147e-07
3.88578128976255e-07
1.43399472191245e-07
-8.48929363401735e-07
2.56162618894821e-07
1.34604741646513e-07
-8.25643862832994e-07
1.26740819102078e-07
1.2393552643098e-07
-1.54414331956272e-06
8.63502692273397e-08
3.76030854609393e-09
-1.47081897803215e-06
1.75044932585178e-07
5.73292522715731e-09
-1.56078062726018e-06
9.40470842884076e-08
8.80615389369521e-09
-1.41624265825089e-06
2.67995556039236e-07
7.0154790946945e-09
-1.52088841661639e-06
1.91227013013183e-07
1.49631696230011e-08
-1.6191697705384e-06
1.05845014358045e-07
1.50744294552851e-08
-1.35432606963216e-06
3.62777356024672e-07
1.07454160481281e-08
-1.47715861478937e-06
2.95876342125556e-07
1.61399298377422e-08
-1.60163539947537e-06
2.19913523348991e-07
2.32292963812337e-08
-1.65962924702223e-06
1.1765211175322e-07
2.30318020464057e-08
-1.26890458024131e-06
4.59462605241262e-07
1.3220559282014e-08
-1.39688475890952e-06
4.05896461506751e-07
1.96173255788928e-08
-1.56782104317827e-06
3.40956404850437e-07
2.74801439006636e-08
-1.63832486831361e-06
2.46231939078498e-07
3.15717629602449e-08
-1.64165749653465e-06
1.26204202315818e-07
3.29695745569275e-08
-1.1603328443265e-06
5.59283195989663e-07
1.31192647418799e-08
-1.28472193327735e-06
5.18036734040912e-07
2.33700455291913e-08
-1.47031574703062e-06
4.67909298968656e-07
3.02849563487006e-08
-1.59597790041793e-06
3.83094273942091e-07
3.83668537503252e-08
-1.60087492568789e-06
2.62678447993404e-07
4.18991671628226e-08
-1.56502752198713e-06
1.30789723421897e-07
4.4729411997502e-08
-1.0367909596148e-06
6.6248393884535e-07
1.19349387128418e-08
-1.15559117481155e-06
6.30466580893334e-07
2.52198520056274e-08
-1.32876117657888e-06
5.96633540775832e-07
3.42550046768839e-08
-1.47706954187443e-06
5.2219539517983e-07
4.37045424884436e-08
-1.53804501986221e-06
4.06283942523839e-07
5.14515239440472e-08
-1.504935387481e-06
2.69529453779742e-07
5.5011846023748e-08
-1.45294816764026e-06
1.32572381617656e-07
5.78162048351202e-08
-9.04980356182399e-07
7.68003672946975e-07
1.17157567297796e-08
-1.01675451584604e-06
7.42338254505678e-07
2.64446760954167e-08
-1.17291494209712e-06
7.22978268031139e-07
3.9433065669536e-08
-1.31048779768578e-06
6.58841372464092e-07
5.05492120339815e-08
-1.39960943516186e-06
5.49321365878416e-07
6.06457816851638e-08
-1.42263518419247e-06
4.13382258264757e-07
6.7672854034095e-08
-1.38024383340439e-06
2.70829784777645e-07
7.03579367213297e-08
-1.32705136665028e-06
1.32877643304205e-07
7.1599003384033e-08
-7.66146800718731e-07
8.7415514553302e-07
1.37186181310132e-08
-8.69251203252448e-07
8.53312313818247e-07
2.98043190595721e-08
-1.0106249600367e-06
8.44493594710807e-07
4.63543840545966e-08
-1.1329893369946e-06
7.90572705627084e-07
6.02502273414059e-08
-1.21778580764235e-06
6.86892320801054e-07
7.1700787289659e-08
-1.27162986132775e-06
5.54624265898117e-07
8.09966743773387e-08
-1.28496850471999e-06
4.12261566730568e-07
8.63922538769684e-08
-1.24714781191128e-06
2.69710061270668e-07
8.68646496793107e-08
-1.19914165056376e-06
1.32441840261378e-07
8.53933487533136e-08
-6.1692124273255e-07
9.78150645768689e-07
1.95218973377378e-08
-7.09711364455434e-07
9.60195318584875e-07
3.80709395492245e-08
-8.37166160518303e-07
9.61211767851704e-07
5.70651923323859e-08
-9.50508320812267e-07
9.16144788829744e-07
7.3694937276453e-08
-1.02839776959569e-06
8.17398539076415e-07
8.67532301661853e-08
-1.08356395770193e-06
6.8839508467286e-07
9.66480247039032e-08
-1.12807056984483e-06
5.49441673690789e-07
1.03803936978295e-07
-1.1443404732533e-06
4.08006335286574e-07
1.06427741871268e-07
-1.11471021009499e-06
2.67443823118272e-07
1.03454853802591e-07
-1.07426803799186e-06
1.31576302852352e-07
9.84270266262468e-08
-4.5093440755623e-07
1.08019661018651e-06
2.59541363676302e-08
-5.33532846499343e-07
1.06502430293101e-06
4.98436603221097e-08
-6.47414402898799e-07
1.07340105831714e-06
7.25137969383474e-08
-7.5455755226253e-07
1.03512588482495e-06
9.23555362835803e-08
-8.33757441599064e-07
9.40059853252831e-07
1.07396241474175e-07
-8.89711434332239e-07
8.13239171240957e-07
1.17534112051381e-07
-9.39192901720983e-07
6.77460218984903e-07
1.24201835670235e-07
-9.85769412160452e-07
5.40502301058346e-07
1.27877049031016e-07
-1.00758572097132e-06
4.02366029724834e-07
1.26529485822381e-07
-9.86597899663429e-07
2.6444211447581e-07
1.1906791852025e-07
-9.54353846966891e-07
1.30411334822693e-07
1.0978320398402e-07
-2.61410205668429e-07
1.18073411750921e-06
3.39157811061862e-08
-3.34610835656539e-07
1.16616676333153e-06
6.49080070001123e-08
-4.34700423132977e-07
1.17989935567052e-06
9.34519540267866e-08
-5.37072129217523e-07
1.14613988446367e-06
1.17594801169215e-07
-6.22854638513153e-07
1.05350514885576e-06
1.35299130530781e-07
-6.89322512157646e-07
9.28143307666074e-07
1.46101912761868e-07
-7.44883199416282e-07
7.94677878896588e-07
1.51333118930051e-07
-7.9895645419953e-07
6.62210122032986e-07
1.53107294070152e-07
-8.49914959067439e-07
5.29997583651454e-07
1.51898191385412e-07
-8.77137917321883e-07
3.95833328080319e-07
1.4537922807928e-07
-8.6448809069523e-07
2.60900845691018e-07
1.32543433070513e-07
-8.40007647576388e-07
1.28967511511134e-07
1.18406141081393e-07
-1.63231568462905e-06
8.48291307473257e-08
3.34301169562962e-09
-1.56209067721594e-06
1.72476470450421e-07
5.14533806513065e-09
-1.6574369930002e-06
9.26309198721677e-08
7.78553210778389e-09
-1.51236399895684e-06
2.64766906828311e-07
6.39927107609728e-09
-1.62361743844165e-06
1.88903129921545e-07
1.36057458589209e-08
-1.72815756892155e-06
1.04562672135372e-07
1.32310872709035e-08
-1.45576352348581e-06
3.59416540591835e-07
1.00163124015759e-08
-1.58677751356214e-06
2.93455865197244e-07
1.44053799574826e-08
-1.71968919161562e-06
2.17971848522177e-07
2.08899849807333e-08
-1.78128901793458e-06
1.16604744184763e-07
2.01292849376462e-08
-1.37507409580916e-06
4.5660813345744e-07
1.23384228758129e-08
-1.51204684938927e-06
4.03833454907793e-07
1.79501415006911e-08
-1.69546676801409e-06
3.39111333424629e-07
2.45876617624994e-08
-1.7704016246381e-06
2.44974930926302e-07
2.79831137819799e-08
-1.77293919066402e-06
1.25527321604306e-07
2.8785998103342e-08
-1.27060277519447e-06
5.57727353163146e-07
1.20047072900286e-08
-1.40408159895248e-06
5.1725052883842e-07
2.12256321212727e-08
-1.60415355565197e-06
4.67455878844713e-07
2.69551716124322e-08
-1.73896104952701e-06
3.82729846045737e-07
3.39650732546155e-08
-1.74229878998612e-06
2.62423876607434e-07
3.67758244184943e-08
-1.70174510832374e-06
1.30598600144432e-07
3.90883947055672e-08
-1.15123899679305e-06
6.63144408596478e-07
1.05863064733942e-08
-1.27911798119387e-06
6.32094168213196e-07
2.25881204560163e-08
-1.4664844715603e-06
5.98726344494547e-07
3.02756014821122e-08
-1.62637675194155e-06
5.24234930649371e-07
3.84507348635556e-08
-1.69002210602731e-06
4.0786517115141e-07
4.51568208611168e-08
-1.65085468888883e-06
2.70475683336652e-07
4.81324602152251e-08
-1.59176283245862e-06
1.32941718155665e-07
5.06021985067211e-08
-1.02452627235704e-06
7.72005051404683e-07
1.00242799786729e-08
-1.14525224958265e-06
7.47552149330501e-07
2.33464038210424e-08
-1.31484246871413e-06
7.29182522981349e-07
3.45977262230216e-08
-1.4631994099578e-06
6.64933986956904e-07
4.42270334775836e-08
-1.5571469023344e-06
5.54472466397014e-07
5.30524527177521e-08
-1.57799532221692e-06
4.17120211833425e-07
5.92205932087093e-08
-1.52733903642173e-06
2.7308407812229e-07
6.15953501085631e-08
-1.46585285381758e-06
1.33843604758331e-07
6.27739108541627e-08
-8.92596019030837e-07
8.82905454695849e-07
1.15469297675871e-08
-1.00388699410167e-06
8.63956343443698e-07
2.47329136521189e-08
-1.15846928424924e-06
8.56974042651518e-07
4.02923980328103e-08
-1.28986802472613e-06
8.02687814357712e-07
5.24644340589626e-08
-1.37802817953213e-06
6.97583130553659e-07
6.25285817120172e-08
-1.43147609306399e-06
5.63091548354039e-07
7.07817168145938e-08
-1.440359112073e-06
4.18246911570369e-07
7.56461022863319e-08
-1.39342473126152e-06
2.7331549704033e-07
7.61969867111563e-08
-1.33657600088039e-06
1.34014303739923e-07
7.50188519529746e-08
-7.52707239559493e-07
9.93808010644323e-07
1.61326401737853e-08
-8.53268534027154e-07
9.78376428289049e-07
3.2210960729229e-08
-9.93093161483092e-07
9.81360326668522e-07
4.88638278994926e-08
-1.11398487185258e-06
9.36610084417808e-07
6.37923882353402e-08
-1.19260524478853e-06
8.35930342338599e-07
7.54184948716677e-08
-1.24533173956963e-06
7.03794181906969e-07
8.42974170515171e-08
-1.28690865740116e-06
5.61267215464588e-07
9.0828236181063e-08
-1.2978767166912e-06
4.16254989827073e-07
9.33833740924335e-08
-1.258777972347e-06
2.7239458492998e-07
9.09796513955725e-08
-1.2092962867274e-06
1.33746345715392e-07
8.66750665992995e-08
-5.99140858895544e-07
1.104520592465e-06
2.18360906173047e-08
-6.88541247402508e-07
1.09259081434214e-06
4.21343691421012e-08
-8.1401206228097e-07
1.10404533708383e-06
6.18342245175263e-08
-9.27245018381456e-07
1.06644952845652e-06
7.94469019830738e-08
-1.00476977110862e-06
9.69113164171788e-07
9.29911558013316e-08
-1.0549630201953e-06
8.38132493761948e-07
1.02266185926091e-07
-1.099126879653e-06
6.97502840980626e-07
1.08519748232195e-07
-1.14175334333568e-06
5.55639583062322e-07
1.12153825448318e-07
-1.15786525176994e-06
4.12823333291109e-07
1.11327560292626e-07
-1.12727532704403e-06
2.70691822126619e-07
1.05016735356272e-07
-1.08604339231107e-06
1.33155387301363e-07
9.69610055955403e-08
-4.25835125146441e-07
1.21609480060871e-06
2.85263136807523e-08
-5.04623452166311e-07
1.20611386491658e-06
5.48765792715908e-08
-6.1523476034263e-07
1.22427074281034e-06
7.95077480569006e-08
-7.21923600914197e-07
1.19173516063418e-06
1.0075489155957e-07
-8.03471951281663e-07
1.096335232259e-06
1.16696154423566e-07
-8.61006796651707e-07
9.65573184320644e-07
1.26745062299925e-07
-9.07547609737458e-07
8.25701852185296e-07
1.31955876978936e-07
-9.55112338932007e-07
6.86735690014686e-07
1.34123416890912e-07
-1.00158335739248e-06
5.482965762297e-07
1.33614185386207e-07
-1.02286154714855e-06
4.08372123090797e-07
1.28322930044914e-07
-1.00066851108888e-06
2.68365895317761e-07
1.17293771773774e-07
-9.67410766270525e-07
1.32250413932459e-07
1.04935785155916e-07
-2.25828337913335e-07
1.32908403812478e-06
3.71425862299708e-08
-2.94194733688684e-07
1.31837659057796e-06
7.13506250021445e-08
-3.89706066075862e-07
1.3408232924144e-06
1.02846460684358e-07
-4.90906397743026e-07
1.31113899512068e-06
1.29290546791247e-07
-5.79632806361824e-07
1.21603717296657e-06
1.48428024973128e-07
-6.51373708935751e-07
1.08470199733977e-06
1.59669894255938e-07
-7.10814963903126e-07
9.45054450167843e-07
1.63977372169947e-07
-7.64434141808373e-07
8.08106092254753e-07
1.63310746739918e-07
-8.17924456021379e-07
6.74038582675428e-07
1.59830217008239e-07
-8.68206442988029e-07
5.39789218266482e-07
1.53875176160391e-07
-8.9420451364033e-07
4.03117267406088e-07
1.43076608583564e-07
-8.79702898516054e-07
2.65477026408337e-07
1.26632557714166e-07
-8.53080669845372e-07
1.30922015845048e-07
1.09569584612746e-07
-1.71844981485672e-06
8.3124659361466e-08
3.0092442986775e-09
-1.65136415321972e-06
1.69446339300037e-07
4.65611042681662e-09
-1.75201719177452e-06