/*--------------------------------*- C++ -*----------------------------------*\
  =========                 |
  \\      /  F ield         | OpenFOAM: The Open Source CFD Toolbox
   \\    /   O peration     | Website:  https://openfoam.org
    \\  /    A nd           | Version:  12
     \\/     M anipulation  |
\*---------------------------------------------------------------------------*/
/*   Windows 32 and 64 bit porting by blueCAPE: http://www.bluecape.com.pt   *\
|  Based on Windows porting (2.0.x v4) by Symscape: http://www.symscape.com   |
\*---------------------------------------------------------------------------*/
FoamFile
{
    format      ascii;
    class       volVectorField;
    location    "0";
    object      U;
}
// * * * * * * * * * * * * * * * * * * * * * * * * * * * * * * * * * * * * * //

dimensions      [0 1 -1 0 0 0 0];

internalField   nonuniform List<vector> 
10116
(
(3.15528675402499e-06 0.000284681111547087 2.10106124352684e-05)
(2.73382693427851e-06 0.000342569106288895 2.21977733091209e-05)
(2.8006931938098e-06 0.000282241001264527 6.48447335495636e-05)
(9.83452721109283e-06 0.00028530458715806 2.1496731947677e-05)
(2.34827058860635e-06 0.000401820295194297 2.31441594842194e-05)
(2.32513908987152e-06 0.000340587596710436 6.85648533622671e-05)
(8.59433687495986e-06 0.000343145093234838 2.26821276730513e-05)
(2.32254465090858e-06 0.000276906521776158 0.000112493505867641)
(9.46378817183576e-06 0.000282808889334574 6.58339362369832e-05)
(1.69015629252969e-05 0.000286652261917523 2.20982714078434e-05)
(1.9998074224843e-06 0.000461998438705067 2.38671735320237e-05)
(1.8833875912074e-06 0.000400267796150506 7.1545118549588e-05)
(7.4640351852483e-06 0.000402346515296256 2.36170653234526e-05)
(1.90496855773774e-06 0.000336213259000912 0.000118896670175173)
(8.16939725679892e-06 0.000341139610822135 6.94184945476768e-05)
(1.4835062288629e-05 0.000344377164516012 2.32963185792898e-05)
(3.41220637946276e-06 0.000268224638860596 0.000163303843607123)
(8.98437996414014e-06 0.000277500336760724 0.000112804824929742)
(1.68106282558699e-05 0.000284090900600023 6.73017906851747e-05)
(2.43544505272436e-05 0.000288877831540486 2.26136792536177e-05)
(1.68803141946662e-06 0.000522711806768055 2.43870537455424e-05)
(1.48473648328314e-06 0.000460840307378387 7.38286997632547e-05)
(6.44261100092401e-06 0.000462473977747751 2.43255310719503e-05)
(1.54996580096975e-06 0.000396824045971898 0.000123975564416591)
(6.9820560529764e-06 0.000400786917533093 7.22300681432087e-05)
(1.2959861623627e-05 0.000403465589437726 2.42378957125606e-05)
(3.01942864507646e-06 0.000329304989739524 0.00017234246588884)
(7.73159487671207e-06 0.000336927141669321 0.000118921589711299)
(1.47137644865694e-05 0.000342321037012222 7.09172832507869e-05)
(2.14527862793592e-05 0.00034640315543209 2.3804488127123e-05)
(4.28146757775238e-06 0.000256382477066796 0.000215392649589804)
(1.05532523581781e-05 0.000269103380447862 0.000163107877982812)
(1.70617854083423e-05 0.000278669374914828 0.000115306246576183)
(2.4564309504226e-05 0.000286308594385511 6.87932354381073e-05)
(3.17609852234276e-05 0.000292086233702602 2.29605305849862e-05)
(1.41170695393927e-06 0.000583613057871113 2.47239668190765e-05)
(1.13054777754185e-06 0.000521910818115212 7.54777615583049e-05)
(5.52723671306698e-06 0.000523137507379559 2.48298130152439e-05)
(1.22640081095256e-06 0.000458262396474823 0.00012784655171624)
(5.90620749728708e-06 0.00046131731245925 7.43554922612822e-05)
(1.12694150924523e-05 0.00046348326427485 2.49462689967578e-05)
(2.653262349681e-06 0.000391480518485477 0.000179438780226486)
(6.6171673623422e-06 0.00039753740897124 0.000123745212964291)
(1.28118384312423e-05 0.00040187194591091 7.37500224499057e-05)
(1.88250129173742e-05 0.000405298262098407 2.47385557866709e-05)
(3.90819409941422e-06 0.000319856018768997 0.000226908465861653)
(9.24875239544917e-06 0.000330151318874299 0.000171950520883656)
(1.49121464417304e-05 0.00033799529079023 0.000121434210765162)
(2.16119921559901e-05 0.000344343720387546 7.23869601127427e-05)
(2.804090334979e-05 0.000349318180829904 2.41154354642919e-05)
(4.63570692029596e-06 0.000241536060834228 0.000269371820759392)
(1.20735265838829e-05 0.00025736187512831 0.000216629361902075)
(1.8403576454225e-05 0.000270148190192334 0.000166240289071041)
(2.53136192536768e-05 0.000280879504645626 0.00011768810123552)
(3.2219400314393e-05 0.000289595578717581 7.00040364651217e-05)
(3.85786317141022e-05 0.000296263577736355 2.32324251113508e-05)
(1.16911106949051e-06 0.000644397576735217 2.48982396227445e-05)
(8.19637920731542e-07 0.000583131808245581 7.65539381792577e-05)
(4.71406237159972e-06 0.000583990769399111 2.51508068094435e-05)
(9.39598381317279e-07 0.000520119030228844 0.000130625827029825)
(4.94134233865827e-06 0.000522343673782148 7.5864371690072e-05)
(9.75613621587739e-06 0.000524040696758418 2.54447991520562e-05)
(2.34016598098766e-06 0.00045431255949483 0.000184776922857757)
(5.58750861525207e-06 0.000458922946795081 0.000127420088903471)
(1.10957715982967e-05 0.000462308416266761 7.58712281742013e-05)
(1.64604400069469e-05 0.000465130479991494 2.54385015797391e-05)
(3.60033323650109e-06 0.0003842244859487 0.000235873360757846)
(8.0050005996587e-06 0.000392247985775675 0.000178968923774875)
(1.29709029101e-05 0.000398545942952669 0.000126217967177378)
(1.89429273968989e-05 0.000403707141074263 7.51990431216131e-05)
(2.46745614489463e-05 0.000407929533853009 2.50193756795001e-05)
(4.20910428397853e-06 0.000308159508198974 0.000283190825610465)
(1.08731928576861e-05 0.000320675552701341 0.000228092560813673)
(1.61180961369332e-05 0.000331216389802744 0.000174895659986478)
(2.2248687254759e-05 0.000340011540156777 0.00012376628338329)
(2.84170312612152e-05 0.000347328165629369 7.35031927746198e-05)
(3.41005922741773e-05 0.000353110994552541 2.43319737154116e-05)
(4.65278054937558e-06 0.000223973578248648 0.000326407460964039)
(1.30739319415042e-05 0.000242695596459253 0.000272370469454595)
(2.0116880230222e-05 0.000258604997914895 0.000219556309835536)
(2.68929275396504e-05 0.000272403527685475 0.000169217129409889)
(3.33466967725152e-05 0.000284298269492468 0.000119734865989903)
(3.92141170173841e-05 0.000293903503627529 7.1028639341799e-05)
(4.43822808273478e-05 0.000301282882055131 2.35473566952835e-05)
(9.58011765902602e-07 0.00070480205075106 2.49301017361003e-05)
(5.49950892841384e-07 0.000644198738842211 7.71205667568436e-05)
(3.99786145585136e-06 0.000644729849031297 2.53093357517266e-05)
(6.87372768304494e-07 0.000582045413103856 0.000132417850667504)
(4.08624358708512e-06 0.000583520920976645 7.68167498909028e-05)
(8.41162963016645e-06 0.000584792406592656 2.57568855095402e-05)
(2.08498620816253e-06 0.000517426291720405 0.000188530383260152)
(4.64677482256825e-06 0.000520719920278558 0.000130065125617352)
(9.55817333601693e-06 0.000523240861215199 7.73527715018241e-05)
(1.43463735746357e-05 0.000525511377901192 2.5927709683619e-05)
(3.3172750412748e-06 0.000449058983004593 0.00024251893676507)
(6.99097591608329e-06 0.000454961479794709 0.000184262774740446)
(1.12081839532375e-05 0.00045988652885369 0.000129756071847671)
(1.65444263287682e-05 0.000463964070669665 7.72988970465957e-05)
(2.16478717361344e-05 0.000467490661838418 2.5693973758328e-05)
(3.862931101152e-06 0.000375370108192178 0.000293777482500061)
(9.95134126926302e-06 0.000384936490947083 0.000237092764754741)
(1.40078144551487e-05 0.000393391163200686 0.000181565215747369)
(1.94891454018158e-05 0.000400380949201554 0.000128502845838187)
(2.49827815838216e-05 0.000406400050694043 7.62362337710645e-05)
(3.00494595228553e-05 0.000411350493727101 2.51896757461596e-05)
(4.12797176313867e-06 0.000294520640348939 0.000342390871319469)
(1.16838309670701e-05 0.000309127555325411 0.000286146902831434)
(1.78523438264312e-05 0.000322199373431426 0.000230788411086836)
(2.3635516229974e-05 0.000333284028468548 0.000177806262207316)
(2.93694884204484e-05 0.000343108587951306 0.000125652862734182)
(3.46273426499478e-05 0.000351233092641479 7.43728311216771e-05)
(3.92548843222857e-05 0.000357667920734738 2.45822573325106e-05)
(4.57277538488344e-06 0.000204013293781937 0.000387422477894788)
(1.37141473462851e-05 0.000225347822123512 0.00033019620631399)
(2.18063301023777e-05 0.00024414000903514 0.000274839319694543)
(2.90050619175399e-05 0.000261016482447437 0.00022264090374126)
(3.52771323131956e-05 0.000276044259637179 0.000171914078754629)
(4.06303013031464e-05 0.000288842952518882 0.000121592393889208)
(4.513456239772e-05 0.000299066554325372 7.20985459881876e-05)
(4.88983810097958e-05 0.00030695951029066 2.39412983714338e-05)
(7.76155127856224e-07 0.000764602211520224 2.48383991659141e-05)
(3.18796459268309e-07 0.000704849495196822 7.7240504606721e-05)
(3.3727975754874e-06 0.000705091976458011 2.53254665371625e-05)
(4.68285545084635e-07 0.000643735676294836 0.00013333302307253)
(3.33648402171267e-06 0.000644545569472055 7.72757531151041e-05)
(7.22616241480299e-06 0.000645435599359122 2.590472926754e-05)
(1.85724769289211e-06 0.000580480186374878 0.000190871230981016)
(3.80845536989444e-06 0.000582588146577909 0.000131746241088312)
(8.19242463226881e-06 0.000584324854881469 7.82695857543115e-05)
(1.24686744878756e-05 0.000586096423508205 2.62296473916922e-05)
(3.05637544722315e-06 0.000513959688244506 0.000247081212123728)
(6.23901046644849e-06 0.000517986367692972 0.000187994175347623)
(9.61645406535202e-06 0.000521623914196598 0.000132171600746394)
(1.44025729276556e-05 0.000524725286108764 7.8758360776551e-05)
(1.89435231182991e-05 0.000527615174184519 2.616185567777e-05)
(3.55005980676547e-06 0.000442752835233573 0.000301502277346714)
(9.06188198688512e-06 0.000449716492858224 0.000243752722984824)
(1.22296508596114e-05 0.000456227295577851 0.000186497347538422)
(1.70187541466294e-05 0.000461548680546399 0.000132017201480502)
(2.19004421313891e-05 0.000466379357275975 7.82704690691782e-05)
(2.64079250182979e-05 0.000470556787902106 2.58261345538492e-05)
(3.65982374257846e-06 0.000365219901245088 0.000354445026870222)
(1.0657776638736e-05 0.000376192030052072 0.00029667025169846)
(1.59993794432443e-05 0.000386589955505732 0.000239407774327198)
(2.07178167762571e-05 0.000395256133637559 0.00018445400058339)
(2.57916079204201e-05 0.00040317003523349 0.000130257520854374)
(3.04852052851267e-05 0.000409916773491124 7.697667809548e-05)
(3.46159034559924e-05 0.000415460188045538 2.53857076931732e-05)
(4.01785485901919e-06 0.000279195714318351 0.000405287118012035)
(1.1960074023607e-05 0.00029576764087283 0.000346220386794033)
(1.92326200467419e-05 0.000310847934509876 0.000288608767259216)
(2.5510370130135e-05 0.000324318984282912 0.000233705667880188)
(3.10156871537574e-05 0.000336566578620685 0.000180266482805835)
(3.58140751960283e-05 0.000347214397614748 0.000127252324245011)
(3.98799503161291e-05 0.000355912061842137 7.52506356324352e-05)
(4.32662569019827e-05 0.000362822652590372 2.49062134777234e-05)
(5.015705868524e-06 0.000182109076803461 0.000452430877723037)
(1.43119081476873e-05 0.000205432603154327 0.000390464010056063)
(2.34887253123741e-05 0.000226979304305116 0.000332270354288894)
(3.13774053665062e-05 0.000246927306179572 0.000277765276381915)
(3.78523979908122e-05 0.000265013683859052 0.000225715271223092)
(4.29080483109029e-05 0.000280946593459222 0.000174538414564515)
(4.67635717509575e-05 0.000294296872518795 0.000123528570911922)
(4.97245807254522e-05 0.00030488945789084 7.33175987572578e-05)
(5.19599833555176e-05 0.000313095460180091 2.4388249149172e-05)
(6.21345188393521e-07 0.000823609971213907 2.46407594436977e-05)
(1.23169477224886e-07 0.000764862095999513 7.69735704168199e-05)
(2.83139816619152e-06 0.00076485283265585 2.52194925791749e-05)
(2.80453254785267e-07 0.000704929821791722 0.00013348128278606)
(2.68554811201018e-06 0.000705156231463269 7.7303666834655e-05)
(6.18875335349366e-06 0.000705708225697608 2.59087180804726e-05)
(1.65385594635452e-06 0.000643163255603444 0.000191968501264524)
(3.0729471450254e-06 0.000644221317544973 0.000132569538093411)
(6.98944564638364e-06 0.000645259860777846 7.86901232966009e-05)
(1.08122419546734e-05 0.000646583590013638 2.63666744977033e-05)
(2.81639616573049e-06 0.000578582236283918 0.000249810319947369)
(5.55079242962884e-06 0.000580990345386205 0.000190318158070369)
(8.19972282917165e-06 0.000583415834340511 0.000133627555066329)
(1.25019353648496e-05 0.000585647193473897 7.96504155744443e-05)
(1.65421943595644e-05 0.00058795976040319 2.64455414221991e-05)
(3.26093269595052e-06 0.000509915371090392 0.00030667859605552)
(8.22782870114681e-06 0.000514567187913959 0.000248290686677096)
(1.0806522076617e-05 0.000519269688616673 0.000189887262776781)
(1.48208550115827e-05 0.000523122730726296 0.000134434973181543)
(1.91507337515722e-05 0.000526878966490868 7.96753498330181e-05)
(2.31550117824318e-05 0.000530346329622372 2.62625985497445e-05)
(3.29219148456486e-06 0.000435675590521256 0.00036304121236379)
(9.66820323396395e-06 0.000443499757482485 0.0003043956586884)
(1.42895448929251e-05 0.000451322878372043 0.000245744565065905)
(1.81466111377082e-05 0.00045787272200732 0.000189358114147006)
(2.25928590079984e-05 0.000464046227586517 0.000133667168004216)
(2.67682324079784e-05 0.000469527031205891 7.89041172191749e-05)
(3.04459765182374e-05 0.000474239734883396 2.59771541829669e-05)
(3.50944581677729e-06 0.000354040610263643 0.000418542582570359)
(1.03632924133597e-05 0.000366264394809708 0.000358230996147552)
(1.71806802171081e-05 0.000378063276317135 0.000299205408022531)
(2.24542617865117e-05 0.00038847737149048 0.000242216926846383)
(2.72053979396186e-05 0.000398194953492856 0.000186728005790258)
(3.14806458998998e-05 0.000406856120405324 0.000131642587779669)
(3.51339216619592e-05 0.000414129349001157 7.76935416356227e-05)
(3.81696488251284e-05 0.000420109778140927 2.56505594626835e-05)
(4.18325288769586e-06 0.000262675896525963 0.000472017051596388)
(1.24153090642768e-05 0.000280521270912197 0.000408630395535909)
(2.03857077103083e-05 0.000297389595075021 0.000348261456412661)
(2.74696808258648e-05 0.000313275429490833 0.000291192780020963)
(3.31957632880626e-05 0.000327879989645018 0.000236428995073977)
(3.77249256811096e-05 0.000340972286391846 0.00018251805627731)
(4.12381276210231e-05 0.000352139605861475 0.000128864429975903)
(4.39530133490119e-05 0.000361190483586685 7.62548203190624e-05)
(4.59900085269235e-05 0.00036839623636204 2.52786531681104e-05)
(5.63401520395147e-06 0.000158130203957926 0.000521347237816287)
(1.57208153693058e-05 0.000183202627347319 0.000454150839198995)
(2.53688433249896e-05 0.000207437908997936 0.000392434679468184)
(3.40129720942723e-05 0.000230309774045159 0.000335075841005893)
(4.09155833347483e-05 0.000251452686226981 0.000281064747850675)
(4.59442907370992e-05 0.000270418343733523 0.000228970259472639)
(4.93364922524484e-05 0.000286845034193738 0.000177338908928275)
(5.15016806237496e-05 0.000300438660608096 0.000125662621558305)
(5.28287486048949e-05 0.000311177636928413 7.46600810582629e-05)
(5.34751034276769e-05 0.000319494846311171 2.4853830627933e-05)
(4.91348672554926e-07 0.000881670141343161 2.43533668207385e-05)
(-3.99220477200986e-08 0.000824051144373843 7.63747657809292e-05)
(2.36814076396152e-06 0.000823824075924596 2.50076522613629e-05)
(1.21682486353469e-07 0.000765410987650669 0.000132967042049156)
(2.12607311894802e-06 0.000765131263129514 7.69595677245624e-05)
(5.28927142367825e-06 0.000765386110182195 2.57896863311961e-05)
(1.47423620818778e-06 0.00070521920069786 0.000191984150971262)
(2.43502301960847e-06 0.000705360481935028 0.000132644072213922)
(5.93823970857432e-06 0.000705786111254494 7.86783122449673e-05)
(9.36145219464911e-06 0.000706711060883886 2.63596665794969e-05)
(2.59799737788588e-06 0.000642631991170031 0.000250937123963966)
(4.93441386202017e-06 0.000643626175834457 0.000191403819883711)
(6.95208050066084e-06 0.000644970037061914 0.000134246408392817)
(1.08265114467538e-05 0.000646430194763512 8.0043520223625e-05)
(1.44236421528361e-05 0.00064822290258599 2.65667536007634e-05)
(2.99599436292984e-06 0.000576521592272924 0.000309618295442202)
(7.46448182351602e-06 0.000579139974515629 0.000250990695461042)
(9.52643341786211e-06 0.000582174469736276 0.000191904674767119)
(1.28737108269393e-05 0.000584761804809188 0.000135887206958055)
(1.67122493066145e-05 0.000587556397709627 8.05202048565174e-05)
(2.02670400947538e-05 0.000590377385799211 2.65205705405245e-05)
(2.96252810576204e-06 0.000505548910627998 0.000368600693982904)
(8.74856063008793e-06 0.00051059922786479 0.000309564437482117)
(1.27342352260212e-05 0.000516066725033329 0.000250072402617128)
(1.59037995969384e-05 0.000520732909825004 0.000192707537782083)
(1.97495214632831e-05 0.000525348731424664 0.000136003037514792)
(2.34529927289966e-05 0.000529679613868064 8.02210614187915e-05)
(2.67209105892633e-05 0.000533626460155473 2.63765000026302e-05)
(3.03995415195417e-06 0.000428136217556558 0.000427790556709912)
(9.30133142602614e-06 0.000436542148901299 0.000366764052421675)
(1.52936585298479e-05 0.0004453046548381 0.00030683687276188)
(1.97467824251588e-05 0.000453037716609871 0.000248442076355654)
(2.38217710758512e-05 0.000460486855063435 0.000191478377840532)
(2.76054807637953e-05 0.000467336218754759 0.000134875646437455)
(3.08744780974898e-05 0.000473296163888133 7.94871663123238e-05)
(3.35874932294206e-05 0.000478407106560674 2.61924890262155e-05)
(3.42831331786215e-06 0.000342193963137217 0.000486263072386603)
(1.0701642394669e-05 0.000355253998317829 0.000422110373154142)
(1.76165147187813e-05 0.000368048629690034 0.000360433389545122)
(2.40820572255593e-05 0.000380192478913294 0.000301455228374857)
(2.9070093514562e-05 0.000391640059984295 0.000244657524208125)
(3.30863393810328e-05 0.000402130225988507 0.000188671387962485)
(3.62645876961673e-05 0.000411275756607729 0.000132983467366473)
(3.8738499710594e-05 0.000418882791442234 7.85168308867333e-05)
(4.0585844648688e-05 0.000425138577986709 2.59597813534241e-05)
(4.7744507281377e-06 0.000244887856595407 0.000542349231649955)
(1.33053709939344e-05 0.000263680113584954 0.000473960127420679)
(2.18893491540155e-05 0.000282343628403411 0.000410336891354565)
(2.95372972588916e-05 0.000300345948080002 0.000350638497294686)
(3.57201250659687e-05 0.000317275735309792 0.00029399680439114)
(4.02539212534313e-05 0.00033270215047256 0.00023917798768707)
(4.33803973393583e-05 0.000346271834220376 0.000184852763088133)
(4.54302996300778e-05 0.000357687958835523 0.00013063148117074)
(4.67114294416909e-05 0.000366892947744929 7.73669584830368e-05)
(4.73450151672105e-05 0.000374211275520326 2.56662978327411e-05)
(6.21042161046104e-06 0.000132778605056467 0.000595058738044918)
(1.74739529985388e-05 0.000159358053946466 0.000522415204628647)
(2.77821728932374e-05 0.000185737479853725 0.000456192770287643)
(3.7051292302353e-05 0.000211360863693016 0.000395316704561329)
(4.44632361991804e-05 0.000235512403395144 0.000338624926593904)
(4.96391127123379e-05 0.000257518735124909 0.000284866429487079)
(5.27736786987205e-05 0.000276924011926936 0.000232570600154994)
(5.42975048439351e-05 0.000293487547309409 0.000180407369997102)
(5.4696210668157e-05 0.00030706482627012 0.000127965424062351)
(5.43590736467431e-05 0.00031773580010947 7.60635043167707e-05)
(5.34101738199245e-05 0.000325965178666529 2.5314867397352e-05)
(3.84294339617383e-07 0.000938657493088599 2.3990961811586e-05)
(-1.73264070065012e-07 0.000882264171626014 7.54943968344176e-05)
(1.97638455494924e-06 0.000881850318113138 2.47072099627922e-05)
(-1.05854115679441e-08 0.000825000066047315 0.000131885324180701)
(1.65075231962594e-06 0.00082428525014332 7.62968837482181e-05)
(4.51642933649759e-06 0.000824280679903384 2.55640185176141e-05)
(1.3180814373797e-06 0.000766440793873946 0.000191070018146665)
(1.8879275842043e-06 0.000765789823036986 0.000132073931743885)
(5.02717924839881e-06 0.000765682459985854 7.82941588914656e-05)
(8.10090537963696e-06 0.000766254629410598 2.62280394987133e-05)
(2.40248374900886e-06 0.000705866546630369 0.000250676022706847)
(4.38932929479026e-06 0.000705634333985245 0.000191414482744766)
(5.86196202708255e-06 0.000706032639391516 0.000134139612571893)
(9.3598450627657e-06 0.000706815210446927 8.00011993479808e-05)
(1.25675765402274e-05 0.000708142748394551 2.65457224783957e-05)
(2.75558788075756e-06 0.000642296188459084 0.000310607531434292)
(6.7763663491809e-06 0.000643137143984486 0.000252087312262375)
(8.38847219457761e-06 0.000644693648825407 0.000192720617616282)
(1.11586189633285e-05 0.000646173128549536 0.000136492649952912)
(1.45631346231895e-05 0.000648112178355023 8.08713405004192e-05)
(1.77194560912618e-05 0.000650348928152613 2.66207058949693e-05)
(2.6692447552149e-06 0.000574522376369093 0.000371525015531564)
(7.91010937441674e-06 0.000577141918429234 0.000312490371093057)
(1.13381003834753e-05 0.00058050322560853 0.000252593788554841)
(1.39235185529564e-05 0.000583500061112768 0.000194680451493824)
(1.72344190681227e-05 0.000586737296584129 0.000137385563912799)
(2.05136741248578e-05 0.00059003341430561 8.09932012970277e-05)
(2.34138961926069e-05 0.000593280477419814 2.66040931640389e-05)
(2.61866091540717e-06 0.000501160493455008 0.000433502162409925)
(8.31455197827451e-06 0.000506317744832058 0.000372251047540689)
(1.35895070580745e-05 0.000512262104620386 0.000311902805365962)
(1.73517792451577e-05 0.000517626458681885 0.00025263766062495)
(2.08335617653524e-05 0.000523052977249316 0.000194696889643505)
(2.41600487795625e-05 0.000528269397289649 0.000137066506961482)
(2.70750672747269e-05 0.000533031629218525 8.06934902563752e-05)
(2.94935878755627e-05 0.000537338414203188 2.65509329061929e-05)
(2.94501758522693e-06 0.000420370669210555 0.000495837723722122)
(9.13214238904233e-06 0.000429236429915739 0.000431344258214501)
(1.55545228875769e-05 0.000438415648578168 0.000369147171843136)
(2.11066586104705e-05 0.000447218052754743 0.000308858209248448)
(2.54234265719512e-05 0.000455846436996704 0.000250645975856253)
(2.89593240432127e-05 0.000463982921918194 0.000193166559948564)
(3.18152728797717e-05 0.000471278592821929 0.000135991005172355)
(3.40573888109692e-05 0.000477550081887529 8.01591832400155e-05)
(3.57258414927798e-05 0.000482915382034422 2.64485774779045e-05)
(4.0244178575625e-06 0.000329885960867209 0.00055726034014375)
(1.11677615535638e-05 0.000343238716991601 0.000488408923381116)
(1.88114170603191e-05 0.000356938225692547 0.000423681023592313)
(2.56203964405076e-05 0.000370600815383171 0.000362395216816991)
(3.11479952007101e-05 0.000383715071520456 0.00030383705994871)
(3.51946043843898e-05 0.000395920055527701 0.000246986440567892)
(3.80457489524353e-05 0.000406863044669643 0.0001906168234315)
(3.99629184882047e-05 0.000416256190314596 0.000134441906609099)
(4.11825108089276e-05 0.000424019963703227 7.94343704272968e-05)
(4.17939229337491e-05 0.000430386989790594 2.62813661296039e-05)
(5.25427622339052e-06 0.000226498111914055 0.000616763442899745)
(1.48383252574178e-05 0.000245965541601032 0.000543337983017084)
(2.3749848915892e-05 0.000265914826892737 0.000475671809369235)
(3.19581859555362e-05 0.000285799248934455 0.000412729811075827)
(3.85876746841462e-05 0.00030492837732315 0.000353568886192079)
(4.32946762867447e-05 0.000322650547947669 0.000297146137586697)
(4.62271662457077e-05 0.000338510901415089 0.00024216029820272)
(4.77500728270505e-05 0.00035224293944285 0.000187393112160831)
(4.82610093597957e-05 0.000363676875643693 0.000132538936801698)
(4.80780938817451e-05 0.000372842771246035 7.85308442761345e-05)
(4.73017754494619e-05 0.000380093105891195 2.60483504595553e-05)
(6.8126595659845e-06 0.000106695529848483 0.000674637468086697)
(1.92505629646821e-05 0.000134199698572497 0.0005959770786986)
(3.05948087663311e-05 0.000162310376557721 0.000524462184888488)
(4.06052407906726e-05 0.00019033184328843 0.00045927918119054)
(4.85632993961432e-05 0.000217347954892001 0.000399215397675292)
(5.39854975273577e-05 0.000242396051559427 0.00034297212787524)
(5.69953644874668e-05 0.000264799387200171 0.000289217795113455)
(5.80426962639222e-05 0.000284249775836758 0.000236541909063108)
(5.76339223731517e-05 0.000300651641766295 0.00018369545490978)
(5.62603600286736e-05 0.00031397296455764 0.000130358843605842)
(5.42827855218939e-05 0.000324367000946312 7.74717302962233e-05)
(5.17819488405583e-05 0.000332316363098788 2.57552949226902e-05)
(2.9846914095015e-07 0.000994473845632471 2.35663604481156e-05)
(-2.79263004652966e-07 0.000939378815555712 7.437817559707e-05)
(1.65151324746643e-06 0.000938806184054676 2.43317743959089e-05)
(-1.1858985446931e-07 0.000883550680837863 0.000130322593294907)
(1.25281562404092e-06 0.000882465437006208 7.53648701324604e-05)
(3.86089254254401e-06 0.000882236038934504 2.52492739130923e-05)
(1.18301275437122e-06 0.000826660381905354 0.000189361847506393)
(1.42397571997509e-06 0.000825330558670531 0.000130951476226651)
(4.24538048493539e-06 0.000824763323208068 7.75912561253144e-05)
(7.01598901275529e-06 0.000825025304955457 2.59894585401953e-05)
(2.2337748978838e-06 0.000768096025154311 0.000249225731446901)
(3.91481246574323e-06 0.000766809974740319 0.000190506348047749)
(4.91576313241092e-06 0.000766389580565367 0.000133413540092646)
(8.08568687520917e-06 0.000766580744942588 7.95821130317772e-05)
(1.0954071651614e-05 0.000767494533213636 2.64017255553987e-05)
(2.54041919835131e-06 0.000707015981822438 0.000309911086700828)
(6.16606168076702e-06 0.000706312371731632 0.000251796634556269)
(7.38072271491049e-06 0.00070658368160017 0.000192500690743695)
(9.65687977599349e-06 0.000707104489197427 0.000136359561773268)
(1.26817933481418e-05 0.000708286928783255 8.07909213103198e-05)
(1.54873889230779e-05 0.000709998855834687 2.6582489616088e-05)
(2.40751530929454e-06 0.000642350082458386 0.000372159262293934)
(7.15594887272014e-06 0.000642851922821172 0.000313455758809066)
(1.00934003384573e-05 0.000644356135869847 0.000253532097466281)
(1.21786418285943e-05 0.000645897612934978 0.000195444959949392)
(1.50218720122799e-05 0.000647917456383727 0.000137928904421642)
(1.79237530941339e-05 0.00065028905997505 8.12839837574951e-05)
(2.04968361121994e-05 0.000652901470408757 2.66792089870398e-05)
(2.28836410094181e-06 0.000572856424887226 0.000436142811245351)
(7.41273604247158e-06 0.000575202300163014 0.000375150704002552)
(1.20664271226604e-05 0.000578643723892685 0.00031471148659049)
(1.52373269042872e-05 0.000581923474042686 0.000255035668868593)
(1.82005176780536e-05 0.000585558015753893 0.000196556831181805)
(2.11134747847373e-05 0.000589316325950602 0.000138328964808771)
(2.37064862430202e-05 0.000592996312485017 8.13744880506786e-05)
(2.58588447886486e-05 0.000596565932924908 2.67446448204451e-05)
(2.51769052181395e-06 0.000497005886938786 0.00050136224307851)
(7.71035087213676e-06 0.000502083823127739 0.000436996880824009)
(1.3701666649551e-05 0.000508070791282666 0.000374782792135149)
(1.84866551244242e-05 0.000513988330949582 0.000313732248686991)
(2.22105285000954e-05 0.00052011714282318 0.00025463649785595)
(2.53068890646111e-05 0.000526144755326993 0.000196173110626272)
(2.7858199654382e-05 0.000531765956884218 0.000137995194690998)
(2.9880996771721e-05 0.000536815285139106 8.12397809599391e-05)
(3.1382838338626e-05 0.000541354732143706 2.67627668191153e-05)
(3.35275165642322e-06 0.000412826455739071 0.000566822893456015)
(9.52339817363923e-06 0.000421456616923291 0.00049816085370806)
(1.60827178091766e-05 0.000430805312302981 0.000433048073962602)
(2.22752436253815e-05 0.000440613643037457 0.000370746081780436)
(2.71339491414511e-05 0.00045032183461747 0.000310897909252798)
(3.07181382718194e-05 0.000459629826987048 0.000252626024333478)
(3.32954372142818e-05 0.000468186119919892 0.000194788144549048)
(3.50698486914035e-05 0.000475722314487955 0.000137191514543657)
(3.6217565691676e-05 0.000482148858770634 8.09133693498418e-05)
(3.68002036884048e-05 0.000487621784424531 2.67145577690045e-05)
(4.43453412861125e-06 0.000317539276456922 0.000631677671232676)
(1.25544999296207e-05 0.000330846600269268 0.000558207926572873)
(2.02416462965979e-05 0.00034517255551117 0.000489868741301591)
(2.75087733663406e-05 0.0003599701422406 0.000425657229706785)
(3.34374939297016e-05 0.00037460581857716 0.000364794393432008)
(3.76899526587669e-05 0.000388453428881241 0.000306440406677338)
(4.03984112097234e-05 0.0004010776520724 0.000249452527272498)
(4.18819581528629e-05 0.000412198202831269 0.000192713867725148)
(4.24633136981782e-05 0.000421634573878039 0.000136015900777689)
(4.23989955421652e-05 0.000429382025725274 8.03954369965354e-05)
(4.17683012156219e-05 0.000435697587915638 2.65962745463331e-05)
(5.73732365333687e-06 0.000208142913908784 0.000696302741352885)
(1.62936108697733e-05 0.000227720247558096 0.000617533638355606)
(2.60365972297526e-05 0.000248527518395755 0.000545059638928449)
(3.47899824714784e-05 0.000269918973895017 0.000478197656242164)
(4.18912278606859e-05 0.00029103988681357 0.000415904423333171)
(4.68374491435448e-05 0.000310989203657597 0.000357120445550394)
(4.96998943198777e-05 0.000329108487533298 0.000300720022963811)
(5.08454981918861e-05 0.000345057079675239 0.000245435208234078)
(5.0694346366035e-05 0.000358686914063821 0.000190112114130475)
(4.96535977724141e-05 0.000369923834930075 0.000134521168494493)
(4.80241800799686e-05 0.000378861482627104 7.96972601614363e-05)
(4.58754770232484e-05 0.000385868911453896 2.64111661026158e-05)
(7.44193183227816e-06 8.06647396706436e-05 0.000760963660056508)
(2.11170660900232e-05 0.000108320596219465 0.00067552992796498)
(3.36435271751169e-05 0.000137590675254525 0.000598023084087387)
(4.46274546429163e-05 0.000167597363655835 0.000527753099355539)
(5.32521289400737e-05 0.000197208928586634 0.00046358606203508)
(5.90122619707602e-05 0.000225197434058761 0.000404137906169005)
(6.19912983144568e-05 0.000250624248516689 0.000348059196833599)
(6.26620596141024e-05 0.000272990096758368 0.000294059144833171)