/*--------------------------------*- C++ -*----------------------------------*\
  =========                 |
  \\      /  F ield         | OpenFOAM: The Open Source CFD Toolbox
   \\    /   O peration     | Website:  https://openfoam.org
    \\  /    A nd           | Version:  12
     \\/     M anipulation  |
\*---------------------------------------------------------------------------*/
/*   Windows 32 and 64 bit porting by blueCAPE: http://www.bluecape.com.pt   *\
|  Based on Windows porting (2.0.x v4) by Symscape: http://www.symscape.com   |
\*---------------------------------------------------------------------------*/
FoamFile
{
    format      ascii;
    class       volScalarField;
    location    "100";
    object      k;
}
// * * * * * * * * * * * * * * * * * * * * * * * * * * * * * * * * * * * * * //

dimensions      [0 2 -2 0 0 0 0];

internalField   nonuniform List<scalar> 
10142
(
0.000483504687036341
0.000481434386107178
0.00136170362326117
0.000485453453617335
0.000478413529772403
0.00135467743902141
0.000483454904879932
0.00198569806677296
0.00136291782246184
0.000487776332984644
0.000474141466986193
0.00134508630755752
0.000480467843860858
0.00197507730788119
0.00135591171842545
0.000485764195266973
0.0024844326252433
0.00198522831076284
0.00136117190708614
0.000485215289033982
0.000468312042985046
0.00133228352003304
0.000476205247235769
0.00196084988428925
0.00134630164996313
0.000482736994859204
0.00247096344497159
0.00197463112123762
0.00135409587557576
0.000483180106209211
0.0029099522536574
0.00248259016430789
0.0019762170350384
0.00135034367427926
0.000476351399637086
0.000460584799517403
0.00131552084292079
0.000470397604901149
0.00194221310204968
0.00133346561397294
0.000478410510524001
0.00245313324605973
0.0019603834033372
0.00134438629436046
0.000480105783870111
0.00289412204595364
0.00246915933589887
0.00196554392748326
0.00134316311783966
0.000474319611623708
0.00328226937097813
0.00290619268658414
0.0024677718442939
0.00195528941862428
0.00132693321242821
0.000462901732881209
0.000450551479765119
0.00129395081971826
0.000462687491255985
0.00191818631052863
0.00131666260264124
0.000472523995757369
0.00243003058769791
0.00194170873838572
0.00133143350610116
0.00047571822675255
0.0028733274875902
0.00245131129941732
0.00195119739923107
0.00133334529606818
0.000471245924346019
0.00326444331327464
0.00289041900993047
0.00245426725602614
0.00194447663261007
0.00131966381965987
0.000460861822441067
0.00361084599631432
0.00327622044313852
0.00288613303274184
0.0024379700520192
0.00192021684561513
0.00129228285955264
0.000446807660844855
0.000438012406433708
0.00126659377800027
0.000452656099878217
0.00188768606397947
0.00129504182189614
0.000464733943233744
0.00240054117879166
0.00191763698698917
0.00131450635335234
0.000469769924006611
0.00284658118221046
0.00242817224527864
0.00193241223987334
0.00132027979284215
0.000466852266941897
0.00324113996896803
0.00286961721547311
0.00243631948984604
0.00192999578117297
0.0013097789646732
0.00045780199007244
0.00359133114687991
0.00325846910452234
0.00287028999863785
0.00242430680352847
0.00190926016912278
0.00128495331608126
0.000444758766329003
0.0039013349542556
0.00360292670460552
0.00325121857773007
0.00284844774116966
0.00239255202820897
0.00187184084881651
0.00124933458577829
0.000428750728981747
0.000423297986751663
0.00123228475727771
0.000440102264914017
0.00184952356241715
0.00126762179055977
0.000454598686114409
0.00236345339522044
0.00188708658864022
0.00129276074570002
0.000461932276681504
0.00281267981308054
0.00239864020629936
0.00190823173584467
0.00130324861246422
0.000460910184576406
0.00321131502920087
0.00284284382229984
0.0024130699632004
0.00191108501637156
0.00129667683750699
0.000453449207323185
0.00356585050485796
0.00323517035978769
0.00284938918125674
0.00240620785416458
0.00189466471198238
0.00127505588316526
0.000441724985723178
0.00388045755853693
0.00358349926416264
0.00323340175114206
0.00283243195507871
0.00237870800581054
0.00186077097242044
0.00124197961781116
0.000426706524405317
0.00415780873685863
0.00389226510263761
0.00357390612744594
0.00320658359232999
0.00279372201914329
0.00233269169401328
0.00181216730409316
0.00119966141942984
0.000408469080244704
0.000405496610915852
0.00119004648580529
0.000425358621761306
0.00180239447757327
0.00123328851478795
0.000441856876201451
0.0023174844399802
0.00184886917115416
0.00126521518117616
0.000451770527427224
0.00277032972624145
0.00236150766019893
0.00187758548083412
0.00128143231985062
0.000453104589972051
0.00317370585280264
0.00280890947285714
0.00238343332774565
0.00188680324963835
0.00127966012257316
0.000447592779996418
0.00353334102762364
0.00320532890054606
0.00282250463748051
0.00238281902539545
0.00187567874593882
0.00126200471755384
0.000437451642367491
0.00385300267272694
0.00355802945195719
0.00321000393615546
0.00281136584598962
0.00236045960382686
0.00184611562380682
0.0012321246823047
0.000423716602299714
0.004136075953416
0.00387147885114294
0.00355441238098232
0.00318858131747178
0.00277749749527079
0.00231869379502241
0.00180103349029206
0.00119232282813691
0.000406447151450744
0.00414812116157443
0.00386043150157548
0.00352366986228286
0.00314375497896514
0.00272367754547042
0.00225985678360126
0.00174230732380948
0.00114328031246551
0.0003855629725279
0.000384073519944943
0.00113885038623593
0.000407516594833175
0.00174514350694337
0.00119095529517878
0.000426953291650672
0.00226130235049656
0.00180166123399419
0.00123075270504528
0.000438896490543562
0.00271818668818791
0.00231549294630957
0.00183929565824916
0.00125387046738187
0.000443037053832961
0.00312696339910867
0.00276652525641704
0.00234621549600827
0.00185610137135446
0.00125793434159265
0.000439925004890356
0.003492512507802
0.0031676975512472
0.0027884657054692
0.00235307202427256
0.001851381782211
0.00124512743722608
0.000431710797096518
0.00381805304021951
0.00352550854993008
0.00318004933354218
0.00278432676090025
0.00233696208382751
0.00182714012803533
0.00121920133875731
0.000419519644786803
0.00410662795917807
0.00384403663489911
0.00352883771828126
0.00316500328594759
0.00275625345700607
0.00230034513811463
0.00178638963656053
0.00118256411856538
0.000403506085477702
0.00436155483601003
0.00412645478056778
0.00383956967991018
0.00350397547931398
0.00312551947110853
0.00270726724461834
0.00224576208819713
0.00173117180707308
0.00113600607952227
0.000383574151516866
0.00411443928275194
0.00380603531855115
0.00345419871128487
0.00306486877831527
0.00263958471731637
0.00217465187502562
0.00166231127497133
0.00107963574167897
0.000359768474132034
0.000358782423302311
0.00107771071841599
0.000386090201848398
0.00167669935970427
0.00113963784390278
0.000408948792808784
0.00219353998067452
0.00174438516152745
0.00118829740132712
0.000423952484265168
0.00265488415382722
0.00225926064979569
0.00179205087588755
0.00121945575976842
0.000430208565620777
0.00306970092592907
0.00271434740802414
0.00230014711662701
0.0018178275096422
0.00123058405287528
0.000430079690796671
0.00344197799923926
0.0031209318997953
0.00274599751893032
0.00231579314996515
0.00182075324817804
0.0012236614918311
0.000424219191823965
0.00377433176886733
0.00348466276520682
0.00314231061414126
0.00275016164454778
0.00230716698202154
0.00180295043984729
0.00120256101834043
0.000413905669381331
0.00406933319859812
0.00380907533336876
0.00349619544426428
0.00313487642786834
0.00272907484575448
0.00227681717583378
0.00176752316239811
0.00116983572605331
0.000399401214098801
0.0043296582244717
0.00409703192354086
0.0038120112644199
0.00347820134348918
0.00310173635488681
0.00268588852337122
0.00222739300750404
0.00171662352473916
0.00112640524633365
0.000380708959172174
0.00455701319183447
0.00435146796149013
0.00409266142829686
0.00378495246740575
0.00343424677945263
0.00304641930241412
0.00262305020734999
0.00216053843962926
0.00165125165785517
0.00107248740338814
0.000357836283694773
0.00405703946799617
0.00373135505242499
0.00336789509230232
0.00297112072916558
0.00254171500011676
0.00207695477226407
0.00157177304589353
0.00100821086634458
0.000330973012147859
0.000329234756686785
0.00100582338303483
0.000360750916207611
0.00159591941078681
0.00107837196300977
0.000387356402753052
0.00211323315488489
0.0016758926980626
0.00113688147612586
0.000405954047289453
0.00257904280922869
0.00219146311938337
0.00173477534437007
0.00117711512790849
0.000415320589493375
0.00300054077559834
0.00265100855775874
0.00224390628690396
0.00177071775884336
0.00119654806440103
0.00041761627718522
0.00338031983253757
0.00306364583249907
0.00269376798585085
0.00226973537904807
0.00178268110044405
0.00119674730358743
0.000414649353062326
0.00372041568594137
0.00343410930398294
0.00309545716570169
0.00270761496456012
0.00226992651385583
0.00177256123746272
0.00118148518644465
0.000406617647777709
0.00402292295736213
0.00376533537479817
0.00345523223878868
0.00309699097446571
0.00269482706528422
0.00224708663750313
0.00174357131112653
0.00115352353226609
0.000393946723745465
0.0042900652425762
0.00405972875358719
0.00377691503588215
0.00344536413187477
0.00307143882666799
0.00265864150339264
0.00220394408918711
0.00169797606014395
0.00111395380006539
0.000376732494740164
0.00452386701988644
0.00431968278255865
0.00406311877984323
0.00375717147331054
0.00340823923163642
0.00302246956713371
0.00260162164102224
0.00214225324670634
0.00163689995017925
0.00106312594628534
0.000355089091447123
0.0047259685835809
0.00454668538060833
0.00431633714752971
0.00403500530421388
0.00370998860369467
0.00334770234536121
0.0029525220431683
0.00252514529944064
0.00206292108437236
0.00156088500459862
0.00100126631855126
0.000329146277367244
0.00397833237019043
0.00363897986328248
0.00326596219520332
0.00286257708007968
0.00242975547062694
0.00196638902044449
0.00147025696466601
0.000928686748507727
0.000299133419358758
0.000296312920961402
0.000922495320457227
0.000331282340034949
0.0015017831308571
0.00100629705796079
0.000361853842533962
0.00201918566221509
0.0015950642211449
0.00107555745398217
0.000384417435569441
0.00248956295188385
0.00211112059709767
0.00166634726699218
0.00112593286892058
0.00039755525512034
0.00291815451968782
0.00257511648613261
0.00217614449463061
0.00171361293693114
0.001154742067464
0.000402714992939948
0.00330615399584553
0.00299445931446484
0.00263042022246356
0.00221360075622113
0.00173597026437428
0.00116340100649147
0.000402615340053886
0.00365485178942725
0.00337242988045988
0.00303811316779469
0.00265537424724482
0.00222402437301512
0.00173490736349482
0.0011551782424548
0.000397359151571546
0.00396589693020878
0.00371139734713829
0.00340457826648951
0.00305003404542535
0.00265227756344768
0.00221003711342924
0.00171359114736229
0.00113295647085079
0.000386906333528121
0.00424112528717627
0.00401329724398278
0.00373304130924599
0.00340422718164132
0.00303343366206195
0.00262441449191218
0.00217442269526365
0.00167440408690309
0.00109807718316645
0.000371482408539514
0.00448240274993251
0.00428009773061351
0.00402567174359443
0.00372185419699605
0.00337519773960069
0.00299206650072284
0.00257442151339799
0.00211901919412932
0.00161860135474059
0.00105105635381247
0.000351305286326128
0.00469158056108355
0.0045136441532858
0.00428447400940837
0.00400522127409287
0.00368194487434475
0.00332149694817478
0.00292849396018931
0.00250378458155595
0.00204484829383889
0.00154685358275015
0.000992245985147071
0.00032657077002647
0.00487056140706006
0.00471544902111449
0.00451066440999419
0.00425642854834267
0.00395598315485003
0.00361734606632029
0.00324559618448971
0.00284392630142643
0.0024132643291928
0.00195255448283689
0.00145965420516732
0.000922041597865321
0.000297467248698392
0.0038810455796397
0.00353018305344773
0.00314836847921123
0.00273876861697431
0.00230326807375649
0.0018425924604508
0.00135744380431244
0.000840890063442676
0.000264242607558609
0.000258977185635962
0.000827530035560782
0.000298032004938845
0.00139321002653964
0.000922785012274619
0.000332291640923386
0.00191027756115244
0.00150086750579544
0.00100354012758699
0.000359042806154685
0.00238540595056386
0.0020170393495144
0.00158566181644087
0.00106502370585173
0.000376369862385378
0.00282127918200338
0.00248561634017071
0.00209590457908026
0.00164551748363726
0.00110434117413059
0.000385323064213116
0.00321819244855374
0.00291203964807268
0.00255457376557969
0.00214604624830446
0.00167936850618933
0.00112253675588658
0.000387825923194652
0.00357624525209794
0.00329823678786786
0.00296890574475806
0.00259210279677054
0.0021681971433613
0.00168885024640035
0.00112273958727175
0.000385787802299289
0.00389674316025153
0.00364580676631359
0.00334282351509242
0.00299264607591277
0.00260013895672005
0.00216448926355463
0.00167657097072812
0.00110740105275016
0.000378012231341568
0.00418117931593896
0.00395624385972963
0.00367898263112246
0.00335343658271609
0.00298642802326048
0.00258200196389061
0.00213774964985889
0.00164501243959819
0.00107815189897091
0.000364750947362581
0.00443115295599094
0.00423113703868713
0.00397909063472961
0.00367777595762998
0.00333390081860378
0.00295403721164836
0.00254036633670487
0.00208988027579312
0.00159557257292378
0.00103574450864947
0.000346332642112884
0.0046483967046954
0.00447218906989077
0.00424475086527109
0.003967531976093
0.00364638956877957
0.00328831276723874
0.00289810419822704
0.0024767834114411
0.00202199277445986
0.00152905977139933
0.000980686857145723
0.000323040451163745
0.00483488475191291
0.00468116286643317
0.00447753055181306
0.00422432497238888
0.00392591114988942
0.00358907481101136
0.00321928446698684
0.00281994716077045
0.00239211905179971
0.00193484754102383
0.00144608738472937
0.000913480026842388
0.000295118766392326
0.00499279938656626
0.00485987835073463
0.00467878415128063
0.00444911082492035
0.00417425145788682
0.00385840143198577
0.00350835247568745
0.00312793277685819
0.00272019105527223
0.00228699330546816
0.00182909698461431
0.00134725735277123
0.000834655362597652
0.000262783769686856
0.00376654352415475
0.00340491399576753
0.0030145387631604
0.00259917180497318
0.00216189646902214
0.00170530883736294
0.0012331415957674
0.000744665494197021
0.000226184163214537
0.000221642182898778
0.000720718940273245
0.00026124794493344
0.00126930612289026
0.000827700886933696
0.0002988790781321
0.00178538067441396
0.00139232233729951
0.000920296819659039
0.000329705105625253
0.00226545474656254
0.00190812215422856
0.00149172033620955
0.000993669097445769
0.000351465230814041
0.00270907981280967
0.00238142816763184
0.00200200800035113
0.00156534218882802
0.00104449824643425
0.000364704840045048
0.00311528791717844
0.00281512071786842
0.00246516269384138
0.00206613373752056
0.00161201486658542
0.00107338512228164
0.000370894251185256
0.00348333937263659
0.00321023516790369
0.00288650626509887
0.00251644989699614
0.00210112109554412
0.0016331664284652
0.0010831193082974
0.000371495819939739
0.00381403821687476
0.00356716355637899
0.00326858388237609
0.00292346768361156
0.00253710235548503
0.00210922307521444
0.00163143700640185
0.00107604174721256
0.000366974911271355
0.00410863144348078
0.003887055438541
0.00361329097370534
0.00329159499609583
0.00292908196089035
0.00253014599891821
0.00209278827322774
0.00160884584037299
0.00105350312361267
0.000356303524930758
0.0043684437546603
0.00417115981193759
0.00392189567184707
0.00362354317357133
0.00328301144894137
0.00290711186102568
0.00249828290172678
0.00205380031975427
0.00156697115894142
0.00101661573004576
0.00033999114431708
0.00459497387766239
0.00442091807783139
0.0041956306326974
0.00392071880611773
0.00360211108956157
0.003246946231568
0.00286020552693452
0.00244309282131105
0.0019934409530341
0.00150676747306484
0.000966093671684412
0.00031841586800239
0.00479003556813768
0.00463798856383503
0.00443593043896985
0.00418435018623833
0.00388795573966474
0.0035533418728929
0.00318607988627256
0.00278973422287403
0.00236550379184766
0.0019125628045222
0.00142897667285595
0.000902572705722223
0.000291892058398911
0.00495583089943928
0.00482430402137644
0.00464439468759376
0.00441571805862866
0.00414184549745598
0.00382807758284704
0.00347994926133942
0.00310164986327762
0.00269642263885439
0.00226623962386258
0.00181193230072934
0.00133431797279027
0.000826681675850684
0.000260722877860547
0.00509477843514321
0.00498198063880649
0.00482274981575954
0.00461601189259928
0.00436450574810271
0.00407269070180759
0.00374367862796586
0.00338299547398255
0.00299416775852634
0.00258081951355358
0.0021459984105572
0.00169231107026924
0.00122351724296942
0.000738964298911152
0.000224994781274737
0.00363479211399361
0.00326253634896089
0.0028638705590846
0.00244339659511325
0.00200542979613693
0.00155441095335781
0.00109722645319274
0.000639711446593918
0.000184745988259283
0.000183606247236948
0.000604727426263536
0.000222819111674994
0.00112940976704232
0.000721435721437833
0.000262211544877254
0.00164328722552636
0.00126861934126596
0.000825789873886349
0.000296590563993768
0.0021286156696546
0.00178328379544975
0.00138363626185488
0.000911424310229857
0.000322740702711846
0.00258057449304113
0.00226147659659782
0.00189339032137937
0.00147213689586852
0.00097456414939986
0.000340513942341579
0.0029964307445843
0.00270288276762022
0.00236114175977993
0.00197272028758121
0.00153284940394506
0.00101517949053227
0.000350937776961498
0.00337508079485765
0.00310726534049175
0.00278964992990327
0.00242729733677878
0.00202184870205479
0.0015669832784204
0.00103554614775669
0.000354877205990832
0.00371653453952847
0.00347420181046754
0.0031805625129097
0.00284118060887146
0.00246186391785465
0.00204298945063209
0.00157707026816811
0.00103795856704971
0.000353456760346549
0.00402200829950029
0.00380430233846522
0.00353456636628632
0.00321732531050077
0.00286005337941192
0.00246756925092799
0.00203836721113379
0.0015648961605973
0.00102339605781846
0.000345884885034281
0.00429262463448936
0.00409857132932224
0.00385258000795921
0.00355771724826672
0.00322114675978066
0.00284997343996723
0.00244694779040351
0.00200969027246514
0.00153189962251255
0.000993053309921776
0.000332071405405524
0.0045296110139457
0.00435817612030081
0.00413549567143157
0.00386331541431955
0.00354772980291986
0.00319607954238247
0.00281355599184235
0.00240157799356326
0.00195820533585612
0.00147918629214754
0.000947940478647444
0.000312535156320491
0.00473452118963261
0.00458454556319519
0.004384491169001
0.00413497864736283
0.00384090800092993
0.00350895105327246
0.00314480183347784
0.00275217228361767
0.00233241062496333
0.00188483485152931
0.00140763591596719
0.000888865470692865
0.000287677129060193
0.0049093570848541
0.00477946634572705
0.00460106923667149
0.00437385355183094
0.0041015866144775
0.00378991621954929
0.00344416509535874
0.00306859756980285
0.00266659063958458
0.0022402302548726
0.00179043608197784
0.00131808762607092
0.000816572811841606
0.000257860693893421
0.00505654689091712
0.00494511637400665
0.00478706783963805
0.00458135105884664
0.00433079264570736
0.00404001906352536
0.00371320350653831
0.00335460259708195
0.00296808677833356
0.00255745560649762
0.00212583838506119
0.00167588616870681
0.00121138309592733
0.00073172369088405
0.00022330739738344
0.00517868278181594
0.0050838523099699
0.0049445384930194
0.00475909151656967
0.00452954740865575
0.00425978084800904
0.00395323720037927
0.00361181900837773
0.00324067119708998
0.00284372750135822
0.00242544620754065
0.00199008833827348
0.00154208442963923
0.00108832128537196
0.000634697331668534
0.000183841733824747
0.00348511938819027
0.00310238158838071
0.00269592047140177
0.00227122466692983
0.00183378585816632
0.00138985203730171
0.000949656633603595
0.000525920852760929
0.00014150392356267
0.000135348054062035
0.00048317268193614
0.000188456349888425
0.000973783410057921
0.000606111357915996
0.000223680075982136
0.0014828494775627
0.00112912387717091
0.000720581625064036
0.000260338901671774
0.00197360353922358
0.00164139198889699
0.00126068827244335
0.000818338058287939
0.00029038397134015
0.00243476931154651
0.00212469818344991
0.00176903408644398
0.00136510127275833
0.000894191457526234
0.000312645441892255
0.0028610738292157
0.00257435369101812
0.00224146225614643
0.00186477782285779
0.00144097813442494
0.000947313939997631
0.000327591087007897
0.00325064550957137
0.00298833753514217
0.00267752012787567
0.00232366833939425
0.00192929719507495
0.00148933443893898
0.000979351391189464
0.00033563897604455
0.00360323885910819
0.00336585521241156
0.00307759556747438
0.0027445254145763
0.00237321200030201
0.00196469710260799
0.00151240926810083
0.000992180654254219
0.000337181024892701
0.00392003862592658
0.00370672567322009
0.00344153423777834
0.00312932943913701
0.00277803904970717
0.00239300560044736
0.0019733069237997
0.00151211875242578
0.000987017196259479
0.000333205255682471
0.00420216181478793
0.00401189195024094
0.00376971183957421
0.00347889935082626
0.0031469380189286
0.00278130065777244
0.00238511944498279
0.00195643002579701
0.0014894162540219
0.000964391861615913
0.000322335188153035
0.00445059946092013
0.00428231456104405
0.00406276022878656
0.00379382288222868
0.00348181710992545
0.00313434683178747
0.00275686641710549
0.00235105595337368
0.00191524941851029
0.00144547996949354
0.000925664035856256
0.000305207800824377
0.00466658514007766
0.00451915163124201
0.00432158155755072
0.00407461005142614
0.00378331375945855
0.00345453860796703
0.00309415641184843
0.00270605364725407
0.00229174978057535
0.00185072972487023
0.00138133126251216
0.000871879589211604
0.000282325871885701
0.00485181720173061
0.00472393498495762
0.00454745352745162
0.00432214945913709
0.0040519565148922
0.00374272119241723
0.00339982395559811
0.00302762459684586
0.00262961885209554
0.00220800501412055
0.00176379655544367
0.00129793394614876
0.000803923643431688
0.000254122003070567
0.00500849990173932
0.00489865751826774
0.00474207720921856
0.00453775298737091
0.00428862986522019
0.00399953576860593
0.00367496713750122
0.0033189480937739
0.00293540454912956
0.0025282460424395
0.00210068417350379
0.0016554187329546
0.00119624411151187
0.000722573031704951
0.000220912607855146
0.00513923783694589
0.00504572754849933
0.0049075664596601
0.00472313368324754
0.00449455648848218
0.00422578747733595
0.00392040734396804
0.00358134231726538
0.0032124715292651
0.00281805648430614
0.00240270928502293
0.00197074611598462
0.00152661287176302
0.00107718319651444
0.000628357197205379
0.000182603500266193
0.00524672846209032
0.00516767613324647
0.00504622344541565
0.00488026828936461
0.00467123093002951
0.00442232864585699
0.00413647862762894
0.0038159135524571
0.00346218349713117
0.00308074144645102
0.00267619503334288
0.00225387387065131
0.00181919703902749
0.00137838098986691
0.000941637998624218
0.000521702377569723
0.000140626416913333
0.00331679976922946
0.00292394196952696
0.00251042146351497
0.00208256214360638
0.00164692116523589
0.0012116786950954
0.00079094634609778
0.000404542001067451
7.81069284414141e-05
8.46093843264723e-05
0.000355396883505182
0.000139218911763992
0.000804445392295109
0.000487264334881395
0.000191087135149826
0.00130333425678222
0.000974071200264436
0.000606906682008251
0.000222108276042162
0.00179898547254723
0.00148130750667482
0.00112238373369075
0.000715210017970345
0.000254990587720946
0.00227047624234639
0.00196986677982526
0.00162789751252837
0.0012436363248256
0.000803523638706745
0.000281318484433064
0.00270840152046765
0.00242858484580417
0.00210511267974547
0.00174135773009271
0.00133568399458079
0.000869509103187339
0.000300758111720899
0.00310938161272801
0.00285289596736528
0.00254916925971799
0.00220453187040292
0.00182247605268369
0.00139937745650152
0.000913997617994303
0.000313252450899461
0.00347346007154694
0.00324128372682675
0.00295867389832786
0.00263264293288998
0.00227026048521533
0.00187343676583454
0.00143672550578853
0.000938296821177781
0.00031872087984916
0.0038017358984488
0.00359331585400808
0.00333310942915333
0.00302643360291638
0.00268179382431604
0.00230521426116406
0.00189643718396807
0.00144943591654132
0.000943473334621216
0.000317924830848562
0.00409572469892327
0.00390983787661861
0.00367201846624083
0.00338580290165758
0.00305908587665272
0.00269980923024548
0.00231157045625772
0.00189289550325508
0.00143855044104092
0.000929908117083457
0.000310522727793059
0.00435632867157847
0.00419179360338672
0.00397594218347079
0.00371080655787519
0.00340297489995449
0.00306039050983597
0.00268884135194668
0.00229032632110616
0.00186350847208935
0.00140477330732725
0.000898655456206047
0.000296225022553388
0.00458444618170737
0.00444010054094165
0.00424556326816381
0.00400166776996337
0.00371368133173531
0.00338868792522929
0.00303279970259258
0.00265012356358607
0.00224238532227856
0.00180926866269549
0.00134928850021213
0.000851102637004726
0.000275703925533776
0.00478138501042622
0.00465597266610524
0.00448188958586752
0.00425899214923765
0.00399136779913363
0.00368505208642734
0.00334558264632417
0.00297746755622927
0.00258434119684247
0.00216852602502493
0.00173113893359521
0.00127318318375794
0.000788307354014573
0.000249441632504081
0.00494900785101865
0.00484110576969312
0.00468637419481855
0.00448386704695487
0.00423665325471789
0.0039497350550063
0.0036277912114068
0.00327488229188666
0.00289500624670059
0.00249216098130614
0.00206963012174268
0.00163015616830209
0.00117752660310449
0.000711161952162773
0.000217795043246272
0.00508968551404714
0.00499770006467483
0.00486095705198146
0.0046778693623486
0.00445065414094324
0.00418338867431003
0.0038798351996298
0.0035432196192501
0.00317717608845575
0.00278600323525608
0.00237439653753827
0.00194672064271068
0.00150743092665446
0.00106335819420126
0.000620350484992388
0.000180838111254233
0.00520613514353738
0.00512834089785479
0.00500799367250717
0.00484302232303598
0.00463494239580327
0.00438705245028467
0.00410231684547535
0.00378308456181043
0.00343189749234672
0.00305295512536632
0.00265117325139025
0.00223201053784816
0.00180091446214176
0.0013640877887614
0.000931698006216551
0.000516476952659698
0.000139408686933095
0.00530109440541152
0.00523566497231441
0.00512996429174987
0.0049815683972654
0.00479139642765941
0.00456208027552393
0.00429592150400462
0.00399463260410337
0.00366005267168903
0.00329407747221163
0.00290272637940755
0.00249132608379726
0.00206602536228782
0.00163329121505185
0.00120125439425509
0.000783998606781369
0.000401187143324111
7.78111114892324e-05
0.00312925474869104
0.00272687185430495
0.00230720161435395
0.00187727673258228
0.00144475480911957
0.00102047394678571
0.000623186944224733
0.000275725817202326
2.40091442581233e-05
4.07403540780757e-05
0.000225908741256721
8.75259256883155e-05
0.000621440490366537
0.000361956770221523
0.000141064683440676
0.00110464452074974
0.000805593777021699
0.000490265782511451
0.000187856644425347
0.00160324800754627
0.00130215336146091
0.000968977629259627
0.00060399081495962
0.000217621319193342
0.00208608472854666
0.00179554712445843
0.0014688785779086
0.00110738301029566
0.000703358948200943
0.000247096395472829
0.00253743796299371
0.00226443119414945
0.001950948233765
0.0016015190050878
0.0012164618867691
0.000781965085500638
0.000270638965757511
0.00295102329326029
0.00270017007440102
0.00240368529631104
0.00206892118202152
0.00170049443915641
0.00129645919229725
0.000839246961368826
0.000287588110901203
0.00332679292647686
0.0030998543021897
0.00282324571452136
0.00250462584876723
0.00215198940146495
0.00176823211119038
0.00134919667708534
0.00087578398784775
0.00029738429927754
0.00366645747656121
0.0034633631907462
0.00320842669775535
0.00290759808067065
0.00257035951889479
0.00220331979553649
0.00180693775199753
0.00137615788561519
0.000892126785003362
0.000299971822391321
0.00397226891870157
0.00379140376542631
0.00355846118665871
0.00327731318808027
0.00295640286042577
0.00260428266587719
0.0022251055265789
0.00181797937496728
0.00137833945238955
0.000888831941801703
0.000296360564637871
0.00424537381374438
0.0040852700206985
0.00387374138886984
0.00361297356517522
0.00330990186365404
0.00297291316209604
0.00260821987315847
0.0022182048511219
0.00180191648028599
0.00135616688754858
0.000866265194054095
0.000285357560897057
0.00448640039923577
0.00434577649950299
0.00415489496832925
0.00391466565722439
0.00363057143698424
0.00331000383829211
0.0029593910424568
0.00258311939895434
0.00218316438567879
0.0017594465752606
0.00131069794954105
0.000825981110643123
0.00026760091340293
0.00469619682069843
0.00457380136925612
0.00440268306976806
0.00418275378988199
0.00391825081656516
0.00361542591704629
0.00328004163087739
0.00291681168966299
0.00252954506056605
0.00212071131236395
0.00169154702481143
0.00124312584004115
0.000769268251905312
0.000243659590783047
0.00487617170285771
0.0047706546403389
0.00461824704468159
0.00441805379682117
0.00417326218337363
0.00388904322606075
0.00357025386034022
0.00322108939059119
0.00284566684296842
0.00244808380885639
0.00203169730334003
0.00159928861683263
0.00115462239780376
0.000697131080969912
0.00021409209593366
0.00502833176027669
0.00493820269275563
0.00480323978206
0.0046218997194569
0.00439649348120006
0.0041312306157595
0.00383003487482746
0.0034962965954498
0.00313366862205039
0.00274649709465455
0.00233953206891431
0.00191716760448428
0.00148385075701617
0.00104633505604273
0.000610393746136699
0.000178851568728914
0.00515516190168652
0.00507881333937629
0.00495982141671274
0.00479614498940659
0.00458937741177503
0.00434291280913258
0.00405982236863732
0.00374261968766372
0.00339412833063487
0.00301829243399079
0.00262004412654223
0.00220489608122451
0.00177830999548802
0.00134645875292282
0.000919418016544032
0.000509841633803068
0.000137539756467877
0.0052594298531169
0.00519518447864911
0.00509052884293084
0.00494307151458689
0.00475382703036312
0.00452551147416259
0.00426047689305619
0.00396046612180755
0.00362742794928618
0.00326421370697581
0.00287560714330446
0.00246721930030067
0.0020453008505574
0.00161632128491625
0.00118837042279576
0.00077546994548377
0.000397070411608763
7.73654125963045e-05