/*--------------------------------*- C++ -*----------------------------------*\
  =========                 |
  \\      /  F ield         | OpenFOAM: The Open Source CFD Toolbox
   \\    /   O peration     | Website:  https://openfoam.org
    \\  /    A nd           | Version:  12
     \\/     M anipulation  |
\*---------------------------------------------------------------------------*/
/*   Windows 32 and 64 bit porting by blueCAPE: http://www.bluecape.com.pt   *\
|  Based on Windows porting (2.0.x v4) by Symscape: http://www.symscape.com   |
\*---------------------------------------------------------------------------*/
FoamFile
{
    format      ascii;
    class       volScalarField;
    location    "100";
    object      nut;
}
// * * * * * * * * * * * * * * * * * * * * * * * * * * * * * * * * * * * * * //

dimensions      [0 2 -1 0 0 0 0];

internalField   nonuniform List<scalar> 
10142
(
0.000108502180612002
0.000108266489090573
0.000896468639119432
0.00011065628453969
0.000107914007955121
0.000893887445896614
0.000110433133482682
0.00210686423205978
0.000910127302462091
0.000113187432925399
0.000107425114472855
0.000890279955992754
0.000110075859994467
0.00210046458645517
0.000907532937189678
0.000112962611921524
0.00340812579915222
0.00212445788486066
0.000927079153756386
0.000114669243776886
0.000106758768397214
0.000885403751973094
0.000109573560912893
0.00209151041726147
0.00090386312324254
0.000112589419520445
0.00339704859197188
0.00211802541571947
0.0009244279651655
0.000114436896168687
0.0046447133604743
0.00342120770948205
0.00214452533044475
0.000937445130884342
0.000114356208937001
0.000105868272007448
0.000878932318818279
0.000108892743856763
0.0020794219013174
0.000898896801908683
0.000112067699367697
0.00338164756666657
0.00210899957129376
0.00092064802965515
0.000114045068370355
0.00462852377419322
0.00341010517106255
0.00213799038972391
0.000934721391047496
0.000114118112764602
0.00575266945347288
0.00464925404642106
0.00343141722534814
0.00215468655145456
0.000935855030282929
0.000112748993924241
0.000104698894808453
0.000870445154601351
0.000107983840627787
0.00206340057417678
0.000892306933972198
0.000111361778145474
0.003360947379995
0.00209680181753062
0.000915539578551141
0.000113502162586475
0.00460618223942057
0.00339464077850131
0.00212881201167018
0.000930837530302161
0.000113718358943057
0.005731239284601
0.00463306192304228
0.00342020096797704
0.00214802136834424
0.000933075724996607
0.000112505377546321
0.0067156955116242
0.00574853477897795
0.00464429957688193
0.00342888415199492
0.00214698803784519
0.000924347865537816
0.000110616157549441
0.000103250905209643
0.00085933493850692
0.000106789144801359
0.00204243179444762
0.000883663152546226
0.000110421214081454
0.00333363524997193
0.0020806331463626
0.000908774450408337
0.000112774479398331
0.0045763352776245
0.00337384742286178
0.0021164164092185
0.000925602298032911
0.00011316241593989
0.00570188045049033
0.0046106912859361
0.00340458165088299
0.00213868492330388
0.00092913201184488
0.00011210136911566
0.00668911052645698
0.00572713182345908
0.00462800345152969
0.00341750877391484
0.00214022264274118
0.000921542026457757
0.000110366476362623
0.00753980188085399
0.00670558262110807
0.00572863017431091
0.00462297925153741
0.00340668931044038
0.00212245884209195
0.00090747866009579
0.000108273619681555
0.000101650385707319
0.000844221139524988
0.000105303714338139
0.00201511103778314
0.000872340438762281
0.00010918630657709
0.00329807984490007
0.00205946492343117
0.000899909598602261
0.000111808970411551
0.00453718357554625
0.00334641312741209
0.00210000468223524
0.000918692167158997
0.000112421770823454
0.00566288454245341
0.0045807983850356
0.00338359810897471
0.00212610598218378
0.000923837440922652
0.000111541236700595
0.00665289453144576
0.00569778715638142
0.00460550145614285
0.00340171539064745
0.00213078791377648
0.000917584098294296
0.000109958406459075
0.00750830334415009
0.0066790469026334
0.00570714145799411
0.00460651447657643
0.00339517743803641
0.00211564037998183
0.00090466493708741
0.000108020234504142
0.00823944686838796
0.0075265762731797
0.00667448918762497
0.00568843761381421
0.00458065916492259
0.00336450202742397
0.00208596593022891
0.000887692243365593
0.000105663284564015
9.97261119050501e-05
0.00082330300546158
0.000103659134669301
0.00197913696917544
0.000856974132537037
0.000107641016831055
0.00325221033649894
0.00203186296128117
0.000888307768742299
0.000110542432343428
0.00448653887353604
0.00331070002568694
0.00207853938515234
0.000909664054378155
0.000111444260615206
0.00561201389383549
0.00454158886262276
0.00335594498238982
0.0021094932964824
0.000916879782463117
0.00011079833032526
0.00660502741231683
0.0056588017251445
0.00457546004380491
0.00338054823180971
0.00211812346815764
0.000912294569168044
0.000109400156628815
0.0074654936406334
0.00664287614130829
0.00567769789030371
0.00458384845085397
0.00337926589471458
0.00210618362039368
0.000900720178472336
0.000107609068912659
0.00820331808154281
0.00749513094448999
0.00664788030520091
0.00566678305165281
0.00456403763290047
0.00335290973556625
0.00207913683783917
0.000884886555304823
0.000105404287601865
0.00822473601265808
0.00748848821875754
0.00661905490215888
0.0056251363537198
0.00451646007496035
0.00330508486140401
0.00204050075585931
0.000865104606048986
0.000102654247838317
9.7368718816172e-05
0.000796376247209191
0.00010167260293506
0.00193188581701516
0.000835608560090068
0.000105937391166201
0.00319329819976024
0.00199538704399706
0.00087259748386419
0.000108930978702225
0.00442175224319169
0.00326462161551862
0.00205057534198772
0.000897894992961415
0.00011016709464332
0.00554658116574973
0.00449087553223873
0.00331998773199612
0.00208782119776758
0.000907829766726416
0.000109823074317902
0.00654287727228085
0.00560794670766148
0.00453609941112533
0.0033527171309082
0.00210145707559033
0.000905373164636384
0.000108661405947012
0.00740916301912154
0.00659506120140818
0.00563861559785063
0.00455365615899883
0.00335801619368468
0.00209354472829054
0.000895475198756153
0.000107051022955999
0.00815423924605513
0.00745238519123356
0.00661163233696214
0.00563719628643316
0.00454125574574183
0.00333697269028748
0.00206971952774248
0.000880970726392526
0.000104992341193902
0.00878951309445048
0.00818863825781029
0.00745696327683655
0.00659228286475844
0.00560331992137216
0.00449974469149907
0.00329347646167528
0.00203369675241467
0.000862309836633983
0.000102391647377832
0.00818241561794247
0.00742204234855666
0.00653723120100255
0.00553765666441602
0.00443094325660667
0.00323000610468201
0.00198634526443456
0.000838977432972817
9.91546753989991e-05
9.45363194471987e-05
0.000762446463511251
9.92395427198376e-05
0.00187223773356655
0.000808083434024905
0.000103880553808641
0.00311778832442197
0.00194776387920385
0.00085068879027193
0.00010717449034805
0.00433958665812276
0.00320540999470445
0.00201367684509085
0.000882141455209484
0.000108514493393814
0.00546339820192803
0.00442600333360019
0.0032736427619951
0.00205968762780245
0.000896110148164863
0.00010855783447087
0.00646329406584928
0.00554253970623273
0.00448524526379424
0.00331661096551479
0.00207980109445977
0.000896414077892326
0.000107694570536833
0.00733632051205448
0.0065329806441967
0.00558768567576707
0.00451418092979343
0.00333016599145362
0.0020769794277694
0.000888641469542433
0.000106315710441943
0.00808992441460862
0.0073961283902326
0.00656375718989096
0.00559800739409163
0.00451101050194881
0.00331577722306571
0.00205719192800079
0.000875791546762775
0.000104434864149307
0.00873477385409335
0.00813964446168197
0.00741414695716339
0.00655590755298859
0.00557363516749011
0.0044769501222157
0.00327760678108684
0.00202436738799855
0.000858440592618543
0.000101979763343718
0.00928143900176795
0.00877392076642972
0.00814620462006801
0.00739034660025776
0.00651030146161156
0.00551575057739034
0.00441421881700066
0.00321844380060833
0.00197959604841117
0.000836208978819209
9.88900534238999e-05
0.00810805459344995
0.0073250661985274
0.00642780668848576
0.0054249821274147
0.0043237065062317
0.00313875528336193
0.00192234170624066
0.00080851869542937
9.50949966686577e-05
9.10459586077755e-05
0.000720513985350935
9.62840205580739e-05
0.00179805278597903
0.000773401653447922
0.000101367403162802
0.00302379072647096
0.00188760810985211
0.000822464739229367
0.000105064578234533
0.00423603837519557
0.00312960427745145
0.0019654959408054
0.00085998498462755
0.000106701586961802
0.00535869919789757
0.00434372579747495
0.00321415769374396
0.00202284070643407
0.000880731677667793
0.000106933226113557
0.00636257053394328
0.00545939391640204
0.00442025448148082
0.00327018738934576
0.00205184682018028
0.000884895972536486
0.000106445958644048
0.00724337152168926
0.00645349050572849
0.00552224344641381
0.00446327812203231
0.00329415187083436
0.00205555112178966
0.000879837302124225
0.000105357936136775
0.00800705091084185
0.00732338280256531
0.0065016568336421
0.0055470361661303
0.00447157949614816
0.00328810179301367
0.00204084149611395
0.000869073089416059
0.000103704466373279
0.00866307615810233
0.00807541965120983
0.00735784534774746
0.00650796222319608
0.00553443996662022
0.00444680722162812
0.00325659645394576
0.0020120159298801
0.00085334703324783
0.000101425908246521
0.00922144220726891
0.00871928275706552
0.00809715032090074
0.00734741009665686
0.00647385321682375
0.00548608673338333
0.00439153594161182
0.00320273028227159
0.001970399726311
0.000832401691811073
9.84821125834368e-05
0.00969174131499474
0.00926510193404819
0.00872858358295894
0.00807165568532579
0.00729322034593972
0.00640080892974974
0.00540309559603919
0.00430706537566993
0.00312729881484176
0.00191567889415674
0.000805792406356234
9.48363846990335e-05
0.00799883085475748
0.00719617314845998
0.00628890321829922
0.00528500825702416
0.00419280906179772
0.00302932523678811
0.0018467091562508
0.000772962650938201
9.04123475201892e-05
8.71078358289381e-05
0.000669534737010448
9.27153332983833e-05
0.00170696328784528
0.000730422579175454
9.83109206459544e-05
0.00290793888035296
0.00181281644203797
0.000786934407711629
0.000102491236456412
0.00410752457044005
0.00303529831939584
0.00190470859963023
0.000831459711671152
0.000104561282938121
0.00522802895432641
0.00423999394827679
0.00313803994630551
0.00197446514951338
0.000859065065122536
0.000105027841710069
0.00623636710658873
0.00535473918724339
0.00433789478884378
0.00321076244740135
0.002015654217935
0.000869992188870889
0.000104851933013165
0.00712610055241381
0.00635288531507234
0.0054391180895288
0.00439834364175618
0.00324801369801429
0.00202805580037009
0.000868593887923019
0.000104127925494122
0.00790159037678554
0.00723056025582476
0.00642220664703747
0.00548164951718933
0.00442086743545612
0.00325244684433124
0.00201978614435948
0.00086045626776902
0.000102758660007726
0.00857089466375054
0.00799265662362799
0.00728510634065927
0.00644588007111249
0.00548359140850819
0.00440764172313127
0.00322927190804245
0.00199596388645337
0.000846768056179868
0.000100704452024734
0.00914296690069112
0.00864768817570901
0.00803289043103998
0.00729106149474531
0.00642595229456965
0.0054470641069423
0.00436167119213678
0.00318202606515646
0.00195828432277277
0.000827416371419662
9.79375016671579e-05
0.00962685289378339
0.00920519477154368
0.00867390721661972
0.00802249161836281
0.00725023869750622
0.00636443322518563
0.00537361292700209
0.00428462798636528
0.00311182891801151
0.00190666040791728
0.000802067562499494
9.44377583497401e-05
0.0100313788530047
0.00967466663813299
0.00921754872994111
0.00864801187918871
0.00796229723852918
0.0071642966323022
0.00626197791034692
0.00526326902472645
0.00417634682023178
0.00301803293542502
0.00184016435670843
0.000770300967704096
9.01655672483994e-05
0.00785311082863131
0.00703312265412007
0.00611727267524934
0.00511430524216101
0.00403490545212713
0.00289855833835086
0.0017571175976656
0.000731418183027991
8.50393224509841e-05
8.19040196990366e-05
0.000609062828045064
8.85194673149285e-05
0.00159622878052101
0.000678199052603083
9.46418127061211e-05
0.00276633667995864
0.00172096776407034
0.000743078468108679
9.93634814443294e-05
0.00394987266616911
0.00291911058722258
0.00182924014341151
0.000795728983513727
0.000101961189412941
0.00506605847915972
0.00411141921773408
0.00304343926289825
0.00191357737647787
0.000831065874835303
0.000102863519763885
0.00607959241324357
0.00522411277576271
0.00423415126830878
0.00313481528262917
0.00196798590412333
0.000849595085632633
0.000102872088913938
0.00697958926112681
0.00622682267873853
0.00533455205311281
0.00431619900944688
0.00318920727834656
0.00199278352568212
0.000854238055883114
0.000102567098267754
0.00776883782989913
0.00711344662043547
0.0063217170739294
0.00539871183826505
0.00435633911705826
0.0032069579957398
0.00199292790390595
0.000849516940379815
0.000101551240658313
0.00845382086478958
0.00788733747643224
0.00719236189587985
0.00636656876381267
0.00541850481090165
0.0043574238855406
0.00319420564779069
0.00197538262055555
0.000838366493980642
9.97760585438934e-05
0.00904221893079002
0.00855562850186492
0.00795014593357632
0.00721838206992107
0.00636407370743193
0.00539659215121756
0.00432300865180283
0.00315521107184936
0.00194260622080166
0.000821004658806077
9.72327833023952e-05
0.00954214815172848
0.0091268306131317
0.00860228902460433
0.0079582069624384
0.00719398735089352
0.00631679341509934
0.00533498800737463
0.00425522529926609
0.0030915504857105
0.00189484304084415
0.000797216274357428
9.3907965131597e-05
0.00996200263072524
0.00960986833939264
0.0091575902722144
0.00859324291171001
0.00791312343195599
0.00712145458509321
0.00622587921481085
0.00523415202898806
0.00415429516672348
0.00300289471596293
0.00183137101426807
0.000766682535854992
8.97846952552484e-05
0.010310118088475
0.0100135963176567
0.00962525141974183
0.00913217082241838
0.00852865700851749
0.00781660332874876
0.00700139588098316
0.00609058938810475
0.0050928522198995
0.0040187188676428
0.00288748584055573
0.00175072246196704
0.000728841830716122
8.48094424023108e-05
0.00766851028984508
0.0068320221658528
0.00590828067607641
0.00490810770252314
0.00384521872625202
0.0027419992426324
0.00165027875322738
0.00068245484847478
7.876852107982e-05
7.63286056865991e-05
0.000537795106828725
8.3493301933634e-05
0.00146349263937061
0.000616348985123667
9.02924982058854e-05
0.00259457029648366
0.00160948579125482
0.000690096785507542
9.56070041865363e-05
0.00375746155474826
0.00277720991563033
0.0017367304208822
0.000751832245786285
9.88015190459832e-05
0.00486763475936287
0.00395367769928226
0.00292701705730878
0.00183817478829204
0.000796092528858341
0.000100256470236504
0.00588617849786361
0.00506218193672688
0.00410557941736231
0.00304046331855227
0.00190799180785329
0.000822709767228625
0.000100691803783079
0.00679807137091077
0.00607020247216019
0.00520409476975809
0.0042129293744793
0.00311426963995123
0.00194685063036484
0.000835331613109874
0.000100602172238841
0.0076033175035592
0.00696711958174435
0.0061958560844164
0.0052945027498769
0.00427491471335131
0.00314927291142511
0.0019587934757056
0.000835698490314264
0.000100029079904741
0.0083067005825509
0.00775475863835688
0.0070754126910687
0.00626637013905723
0.00533610092031146
0.00429370845020978
0.00314965806838918
0.00194926744746724
0.00082775309539315
9.85984275107051e-05
0.00891445127804573
0.00843870788248215
0.00784492316640628
0.00712583646575661
0.00628517210379867
0.00533215021332527
0.00427359624260119
0.00312093290533387
0.00192258812385874
0.000812848823391252
9.63304933055488e-05
0.00943355670841486
0.00902621722788454
0.00851025924271498
0.00787555760410195
0.00712159306182283
0.00625542141203922
0.00528519670293143
0.00421730987437259
0.00306540117671099
0.00187961906060666
0.000791006027031839
9.32256387006413e-05
0.00987161697292504
0.00952528636086229
0.00907920886174048
0.00852162750961444
0.0078489965328583
0.0070655693033147
0.00617878524060685
0.00519617899545426
0.00412554824493061
0.00298316527731245
0.00181991727762913
0.000761994697089782
8.92767486199319e-05
0.0102366760423479
0.00994431637149218
0.00956040219976675
0.00907213090772682
0.00847391800225274
0.0077676503315609
0.00695895136563184
0.00605501039105109
0.00506430310262823
0.00399719895550272
0.00287276838195101
0.00174220346985
0.000725361298595478
8.44545131995111e-05
0.0105367534996973
0.0102916972348924
0.00996261490076039
0.00953592376005713
0.0090045436947201
0.00836866894677821
0.00763225624986251
0.00680066275762219
0.00588202889873026
0.00488708713248645
0.00382940295573992
0.00273119684891825
0.00164406235175971
0.000680005847457936
7.85913818663338e-05
0.0074407952397933
0.00658740069809248
0.00565596161924138
0.00466013358707174
0.00361721333285634
0.0025532898303612
0.00152099340730316
0.000623027241983533
7.10694754901342e-05
7.30317965153539e-05
0.000458255027030776
7.76758808939941e-05
0.00130619406223612
0.000544774125706572
8.51862441483243e-05
0.00238734400475031
0.00147601997367668
0.000627665711220886
9.11603826473736e-05
0.00352357857879606
0.00260518739642773
0.00162473219457955
0.000699060887786821
9.49986495282481e-05
0.00462542192300646
0.00376127391620722
0.00278500236990489
0.00174599400125803
0.000753287057017619
9.70950871125641e-05
0.00564862326036462
0.00486387430271558
0.00394797141619545
0.00292450466607838
0.00183384341185079
0.000789158846959314
9.80915759143146e-05
0.00657465825324392
0.0058769316638627
0.0050424310100629
0.00408484977664155
0.0030210634193643
0.00188862733711726
0.000809849178837357
9.83535530878081e-05
0.00739861078890854
0.00678580321747292
0.006039528565147
0.00516461277327135
0.00417286093400677
0.00307627724882159
0.00191517353792925
0.000818077206519328
9.8128626628527e-05
0.00812354365692825
0.00758943901804009
0.00692934345818133
0.00614097917473133
0.00523272235197845
0.00421353686696963
0.00309345711988844
0.00191632976055188
0.000814446833954671
9.71235776968178e-05
0.00875410854747147
0.00829177434402685
0.00771253372105652
0.00700925413459239
0.0061856377560826
0.0052507340519988
0.00421109129003637
0.00307756274452139
0.0018973041806343
0.000802588585880395
9.51914066669835e-05
0.00929601604569134
0.00889861873026284
0.00839345203400938
0.00777058545057921
0.00702956784858919
0.00617733536816584
0.00522179749690068
0.00416901620205308
0.0030321048522767
0.00186025841933927
0.000783135565209264
9.23557718097301e-05
0.00975589867280126
0.00941684662265357
0.00897864118432526
0.00842973364198851
0.00776672140495069
0.0069938302023847
0.00611830197874754
0.00514740671225682
0.00408863669231945
0.00295784463555995
0.00180523418356238
0.000756022791748569
8.86244594677839e-05
0.0101411598855551
0.00985406845275307
0.00947581615795723
0.00899378360105473
0.00840253103304441
0.00770401073146793
0.00690378694577492
0.00600879480155404
0.00502726093038564
0.00396931269823686
0.00285371645195873
0.00173118356657802
0.000720875751172824
8.39777624543881e-05
0.0104596653141172
0.0102183598250378
0.00989329358429731
0.00947101624860297
0.00894458940352034
0.00831423708853338
0.00758384089487667
0.00675892337666392
0.00584724170854055
0.00485932244016076
0.00380856477971446
0.00271698860273425
0.00163587252809485
0.000676710138387642
7.8279960553323e-05
0.0107191947733833
0.0105177867253215
0.0102394465421607
0.00987005556809844
0.00940144789297038
0.00883245241834102
0.00816563816305389
0.00740506446766807
0.00655665391941578
0.00563034591911852
0.0046396955015519
0.0036018594631273
0.00254280352534837
0.00151500141572198
0.000620845874379902
7.09526305004829e-05
0.00716395869112793
0.0062924150566418
0.0053528601363995
0.00436222050198849
0.00334198296912246
0.00232309595446668
0.00136054143862453
0.000547282309071511
6.38524335068579e-05
5.48927685346732e-05
0.000377885629733152
7.79591615663479e-05
0.00112283161125393
0.000465597093944316
7.90447770122425e-05
0.00213813113509977
0.00131809284409557
0.000555933495215375
8.59440207935321e-05
0.00323936908442958
0.00239777529904536
0.00149088842023588
0.000637173004244277
9.05034919507e-05
0.00432999503710953
0.00352749877514051
0.00261304232003707
0.00163469608909705
0.000701964215498112
9.32937594991777e-05
0.00535854133502654
0.0046218799610957
0.00375588687790832
0.00278324118303909
0.00174343332829111
0.0007482062915726
9.49434749965595e-05
0.00630080951348593
0.0056396046796924
0.00484450811510362
0.00392799911283867
0.00290663134190098
0.00181671856850844
0.000778019265753841
9.57485865233543e-05
0.00714703357551465
0.00656259762622605
0.00584666163472295
0.00500376487172037
0.00404606350954482
0.00298500004990307
0.00185915259099135
0.00079436357099442
9.57933420105143e-05
0.00789733508215835
0.00738494865299613
0.00674837648792183
0.00598532262949937
0.00510403046866159
0.00411333197507064
0.00302283349325558
0.00187476377855129
0.000797764021742433
9.52940559275227e-05
0.00855474055363395
0.00810883169891624
0.00754750133859678
0.00686374053483651
0.0060612108507393
0.00514876970836828
0.00413266751748393
0.00302309738229353
0.00186561057408853
0.000789794590037801
9.37704872134588e-05
0.00912361051250078
0.00873848202077851
0.00824673251971658
0.00763863109995406
0.00691378612575918
0.00607899199859827
0.00514187718946903
0.00410811102066801
0.00299013734518529
0.001835903496096
0.000773268064534747
9.12627495930974e-05
0.00960950102362371
0.00927949715665899
0.00885118168521071
0.00831323558328039
0.00766239030513382
0.00690281504835037
0.0060415295527121
0.00508548789220774
0.00404179011149176
0.00292573512940015
0.00178663881234008
0.000748485212890738
8.77965257843036e-05
0.0100190230898201
0.00973852271759995
0.00936744657636375
0.00889340221442173
0.00831111333840506
0.00762255892370454
0.00683317535370907
0.00594964189555811
0.00497987915212552
0.0039336797614852
0.00282939954514748
0.00171713912641301
0.000715196757604663
8.33652423013268e-05
0.0103595595612885
0.0101229982187738
0.00980306190192968
0.00938650532253137
0.00886655342766187
0.00824347296057789
0.0075211196071883
0.0067048976107568
0.00580227731384524
0.00482351281847667
0.00378175479030602
0.00269874738021833
0.00162536788014245
0.000672481832208197
7.78467592417904e-05
0.0106388670828748
0.0104408123350341
0.0101660822383257
0.00980070862374173
0.00933669239577508
0.00877291760738605
0.00811188978332002
0.00735756269525276
0.00651596705633944
0.0055966467921582
0.00461294248601266
0.00358185488823395
0.00252919625737499
0.00150721600803642
0.000617835947475655
7.07510771300761e-05
0.0108645097856988
0.0106997800923127
0.0104645578436909
0.0101443059884281
0.00972996776049782
0.00921922734416831
0.00861339040314101
0.00791518225593299
0.00712905452292781
0.00626254870648841
0.00532809609532288
0.00434251679037435
0.00332718164482216
0.00231298463737342
0.0013548622590485
0.000545339788512616
6.34564776490018e-05
0.00683057784980922
0.00593881380993994
0.00498975370505508
0.00400387853726974
0.00300748362264812
0.00203796965527282
0.00115540924869266
0.00044694746452227
3.41526520216565e-05
3.38937404623345e-05
0.000268669442771064
5.73138169358788e-05
0.00091158991033488
0.000390085906800794
8.22501282884317e-05
0.0018384699037758
0.00113423166326985
0.000477077120919804
7.97443650652993e-05
0.00289334526932235
0.00214840537081974
0.00133284564256822
0.000566416897452245
8.52448806146218e-05
0.00396892351554928
0.00324359448838756
0.00240589237515793
0.00150199187852343
0.000641937101645233
8.87950555068919e-05
0.00500373936815306
0.00432691390474031
0.00352268536657516
0.00261236997651391
0.00163451939888814
0.00069922813360039
9.11577412019264e-05
0.00596538712270862
0.00534986363629957
0.00460312794104012
0.00373696682612987
0.00276737062282735
0.00172919624875118
0.000739270208865235
9.26160171299389e-05
0.00683901806640542
0.0062889656020567
0.00560985185195329
0.00480678699979322
0.00389088587023822
0.00287307461363468
0.00179005160405695
0.000764433008488072
9.31765402918924e-05
0.00761967967628749
0.00713359409788477
0.0065256128555129
0.00579335759557486
0.0049448239148969
0.00398881624056413
0.0029343243751818
0.00182171516049787
0.000776405373535109
9.30324251185857e-05
0.00830881014530357
0.00788285240836431
0.00734339038297866
0.00668352953987687
0.00590685739797079
0.00502200758281909
0.00403490568309093
0.00295501906808162
0.00182600371923379
0.000773911865810339
9.2013590545692e-05
0.00890948563778499
0.00853935070983877
0.00806410913143984
0.007474236772338
0.00676939067879484
0.00595619516170479
0.00504196062157744
0.00403190384699203
0.00293764700215084
0.00180551906492379
0.000761008277412849
8.99034275959725e-05
0.00942619025310597
0.00910732501661861
0.00869129597755208
0.00816703022818775
0.00753138975578425
0.00678846263281945
0.0059450106898476
0.00500761569343881
0.00398289056555481
0.00288541277622903
0.00176333339917275
0.000739063662715109
8.67670469149108e-05
0.00986467021459717
0.00959234306753952
0.00923027313140932
0.00876632437399091
0.00819539403178728
0.00751945803920504
0.00674378239387739
0.00587475477987879
0.00491992145877964
0.00388863537788952
0.00279870359432749
0.00169943899771542
0.000708077530470802
8.26055031831481e-05
0.0102316952487494
0.0100010569415562
0.00968761863582156
0.0092783840661919
0.00876676453373627
0.00815306529152158
0.00744106094510701
0.00663596538365026
0.00574495012221364
0.00477792650805549
0.00374769546487963
0.00267562361197772
0.00161208633726708
0.0006672017955647
7.72858950619104e-05
0.0105346938160555
0.0103408785024085
0.0100707619313335
0.00971060178307124
0.0092525867763251
0.00869565632338429
0.00804225744913531
0.00729626572245812
0.00646355138769875
0.00555334143126954
0.00457868620240757
0.00355634546880025
0.00251190887245981
0.00149733417629676
0.000613953371104528
7.03618527058042e-05
0.01078133050836
0.0106195754487862
0.010387573603872
0.0100709545125701
0.00966084690419527
0.00915501266711953
0.00855471381619849
0.00786256021208296
0.00708289040777538
0.00622329498056058
0.00529579990226225
0.0043170105104423
0.00330816852342011
0.00230008979862422
0.00134760617817256
0.000542840752082176
6.29070070717379e-05
0.0109789550954245
0.0108447395920638
0.0106458397482101
0.0103674257454031
0.00999970467209844
0.00953938768964663
0.00898663875033314
0.00834285104408345
0.00761099767721684
0.00679683212669546
0.00591011366322387
0.00496606588586631
0.00398506842992772
0.00299334751786455
0.00202834492679747
0.00115015389200399
0.000444886306936115
3.40233074812735e-05
0.00643192781723942
0.00551681297793192
0.00455545820821392
0.00357203685684795
0.0025985259503013
0.00168155488759282
0.000889991111693026
0.000295108211182422
1.0080766617797e-05
1.39249067479439e-05
0.000149393770215925
3.56489867345593e-05
0.000648600114081925
0.000280086900533865
5.97315005073725e-05
0.00147536809718239
0.000923789788624702
0.000405024144156043
8.33856950053673e-05
0.00247069945114296
0.00184826591145539
0.00114899634957274
0.000488713250864256
7.90191331686838e-05
0.00352613484219409
0.0028981439663982
0.00215678394753081
0.00134541775338713
0.000573522139498449
8.3527445250603e-05
0.00456825150294539
0.00396675601137068
0.00323975282405818
0.002406617134253
0.00150479370149595
0.000642076378265388
8.66759734063855e-05
0.00555436770742728
0.00499576887715863
0.00430917870552108
0.00350514642190052
0.00259898758463787
0.00162390797764502
0.000693086243818882
8.88522198524069e-05
0.00646202375089944
0.00595394666953134
0.00532089781233022
0.00456668035826725
0.00370193075111496
0.00273691497615093
0.00170603549503336
0.000728022180155212
9.0066798712643e-05
0.0072801201176534
0.00682583250020495
0.00625256940166561
0.00555770341920959
0.00474961589738226
0.00383627991194514
0.0028256505067017
0.00175583247391337
0.000748415983052569
9.0313866032352e-05
0.00800733194913825
0.00760543245817485
0.00709250536476065
0.00646173905396117
0.00571657278043637
0.00486537625658873
0.00391366015283818
0.00287012719620635
0.00177638491766477
0.000754121087963532
8.98502390549577e-05
0.00864566212258024
0.00829367464542713
0.00783854780736186
0.0072709753032059
0.00659064325899132
0.0058039663508426
0.00491789582981863
0.00393713501393351
0.00287233759367338
0.0017678031145068
0.000745872371733769
8.8224584148536e-05
0.00919876298468134
0.00889346992758207
0.00849253372711635
0.00798514607497194
0.00736829861030865
0.00664597280620126
0.00582463263962404
0.00491042873957453
0.00390938567677803
0.00283515877095111
0.00173436610686058
0.000727384889907062
8.54851879607443e-05
0.0096715922510087
0.00940929919766874
0.0090584040056118
0.00860705142430179
0.00805032043652322
0.00739016245295188
0.00663163489706831
0.0057807847716527
0.00484470467508759
0.00383218513211035
0.0027603039388716
0.00167733847834412
0.000699181821345868
8.16588460891605e-05
0.0100702634162712
0.00984695142108592
0.00954166155052561
0.00914167962114589
0.00864062164780618
0.00803882069116429
0.00733992509763831
0.00654890724644548
0.00567259088716938
0.0047204582758838
0.0037048421043082
0.00264659750007202
0.00159546918618549
0.000660592649113181
7.66438379424669e-05
0.0104017670115692
0.010213233190011
0.00994896056761813
0.00959547844033151
0.00914518685357258
0.00859708030213603
0.00795352895892388
0.00721826465784578
0.00639692153787064
0.0054983845044124
0.00453533105557203
0.00352417431508201
0.0024901916587794
0.00148501595585818
0.000609086051925755
6.97602752610809e-05
0.0106735870457931
0.0105155910991518
0.0102877085455192
0.00997581434274417
0.00957124708471869
0.00907184365176001
0.00847881385460224
0.00779465249286074
0.00702358786549272
0.00617300668655854
0.00525458911943626
0.00428464274026993
0.00328419520891571
0.00228392343001797
0.00133850347152161
0.000539296207312866
6.20636854682878e-05
0.0108932898002308
0.0107616922218725
0.0105656433181357
0.0102904957090015
0.0099266576893077
0.00947093355227147
0.00892346326543973
0.00828554152655132
0.00755999875076678
0.00675247023393269
0.00587269946003117
0.00493550129910297
0.00396105526984099
0.00297551065740186
0.00201632990793474
0.00114361389205327
0.000442302014013889