/*--------------------------------*- C++ -*----------------------------------*\
  =========                 |
  \\      /  F ield         | OpenFOAM: The Open Source CFD Toolbox
   \\    /   O peration     | Website:  https://openfoam.org
    \\  /    A nd           | Version:  12
     \\/     M anipulation  |
\*---------------------------------------------------------------------------*/
/*   Windows 32 and 64 bit porting by blueCAPE: http://www.bluecape.com.pt   *\
|  Based on Windows porting (2.0.x v4) by Symscape: http://www.symscape.com   |
\*---------------------------------------------------------------------------*/
FoamFile
{
    format      ascii;
    class       volScalarField;
    location    "100";
    object      omega;
}
// * * * * * * * * * * * * * * * * * * * * * * * * * * * * * * * * * * * * * //

dimensions      [0 0 -1 0 0 0 0];

internalField   nonuniform List<scalar> 
10142
(
4.45617483730885
4.44675347054456
1.51896403715664
4.38703916037606
4.43328478700714
1.51548994813614
4.37780663858231
0.942489808577573
1.49750240298786
4.30945662762873
4.41369291820491
1.51085767853508
4.36487931036841
0.940304978535445
1.49406336989184
4.30022099351277
0.728973274948158
0.934463481206197
1.46823699095257
4.23143358281906
4.3866377442892
1.50471862928533
4.34598678064624
0.937528146217268
1.48949726495465
4.28758756298184
0.727385369408942
0.932298123800776
1.46479328471346
4.22224057437712
0.626508468406378
0.725647307945458
0.921517226671582
1.44045089124887
4.16550534566523
4.35054611531771
1.49672598760449
4.31982507043728
0.934015892022298
1.48344683298629
4.26894201650666
0.72542546131674
0.92953238588598
1.46026087175142
4.20978996050047
0.625279719224972
0.724071315117098
0.919341797292679
1.43696627754977
4.15639200590455
0.570564569635863
0.625087951221185
0.719169859632423
0.907458867882349
1.41788329334197
4.10559524098497
4.30330693164818
1.48653917237424
4.28478454337291
0.9296238134924
1.47557141215969
4.24314341622762
0.723019527815851
0.926033505957396
1.45426100333988
4.19127015654973
0.623798047545694
0.722112134792519
0.916566323627721
1.43241462947392
4.14397401374731
0.569587684472662
0.623867985781742
0.717579837853146
0.90524082360919
1.41431588488134
4.09635372541476
0.537672678885501
0.569922696670369
0.621435586780025
0.711009746596657
0.894377058356756
1.39804818914224
4.03926217239241
4.24221371758784
1.47392328793352
4.23878382695371
0.924234566417919
1.46553787850557
4.20873785078042
0.720097130845937
0.921660308229553
1.44646050817306
4.16556943124812
0.622021991292576
0.719704225159954
0.9130586171305
1.4264007291771
4.12550636237637
0.568433518926078
0.622383290815033
0.715600252740062
0.902421745317902
1.40968016167316
4.08382157759469
0.536892182103341
0.568953047522885
0.62020048789919
0.709378370008211
0.892084837808004
1.3943512929306
4.02983569818511
0.517432024860277
0.537302559402385
0.567538570094754
0.616149799985016
0.702310017199569
0.881920917237471
1.37670960289734
3.95988173520707
4.16425362094012
1.4596705763268
4.17936126641089
0.917827121056241
1.45312739640768
4.16351372590338
0.716614971852522
0.916299455829644
1.43654512376347
4.13144200309872
0.619917569180988
0.716779463554855
0.908679752948721
1.41859118761668
4.09983031934459
0.567081141267554
0.620600075215436
0.713166837633564
0.898866299415907
1.403576841627
4.0653055384383
0.535984824049669
0.567794175351804
0.618692493833913
0.707351314804326
0.889185028567388
1.38957931543874
4.01720068476605
0.516822160836149
0.536528537140493
0.566553637217625
0.614875296600344
0.700613752660379
0.879530845613951
1.37286145057168
3.95024623269964
0.50462231303545
0.517136206605301
0.535457624842998
0.563701988142208
0.609895195987694
0.693324502407659
0.868742522508168
1.35143843871097
3.86576171590839
4.06610268032838
1.4454538340208
4.10343596942331
0.910697190565945
1.43911988467709
4.10491176328217
0.712587502097115
0.909937927107239
1.42429822826777
4.08685169893569
0.617475921713797
0.713295569479733
0.903319655257102
1.40868743101717
4.06575078403118
0.565519956443584
0.618486075649527
0.710212277094117
0.894434342495714
1.3956683821029
4.03970690426888
0.534947216272681
0.566432445636573
0.616878873481176
0.704861715320022
0.885537965154742
1.38333029725772
3.99863817244544
0.516108225148797
0.535615805002266
0.565370683360496
0.613319981262876
0.698512540110795
0.876521688769827
1.36793280727255
3.93755476728105
0.504195486789916
0.516532516885384
0.534668528583699
0.562679264127075
0.608561479697019
0.691546739366911
0.866240959957139
1.34743015473456
3.85607797081259
0.504347027696739
0.515515467047899
0.532352415015258
0.558876226508932
0.603055822539143
0.683751515729998
0.853862621126914
1.32155152622176
3.75593782670513
3.94452679068375
1.43004062492685
4.00812591660965
0.903336776725077
1.42525502018602
4.03024170173155
0.708140051144096
0.902913166352522
1.41044723117358
4.02912464179114
0.614730663024639
0.709268398917261
0.896965656705029
1.39645557354806
4.02150075090342
0.563764110839619
0.616032494456133
0.706694025823289
0.889013567511968
1.38565002789971
4.00576115377099
0.533788479053117
0.564858711463778
0.614727644334723
0.70184030814289
0.880999095206794
1.37526435050253
3.97299108486632
0.515315026861454
0.534567980836525
0.563976968877675
0.611448617041039
0.695935322832142
0.872749506301335
1.36151323950772
3.91887562773911
0.503618772427456
0.515812929184196
0.533731692634116
0.561449899050826
0.606936409514155
0.68935090323333
0.863107108289697
1.342342126858
3.84319542634541
0.496222576739073
0.503924419500639
0.514897222551301
0.531526870311622
0.557797790411214
0.601649077942781
0.681881930637751
0.851243827290181
1.31739895715055
3.74614689127378
0.502839195033037
0.512801617103586
0.52838864116587
0.553459516190225
0.595716208592983
0.673265561905094
0.836869251652748
1.28684717758547
3.62835612828465
3.79518078766226
1.41349034980485
3.89048751401814
0.895559003882597
1.41029724891955
3.93672133826041
0.703556416416177
0.895583484298146
1.39686500505933
3.95572195294216
0.611782725633064
0.704827355479686
0.889939654546055
1.38238119585802
3.96452632423477
0.561866591537438
0.613272788887902
0.702626182468731
0.882574369581324
1.37325088371712
3.96175635681161
0.532542379191126
0.563086971895885
0.612229066066138
0.69824081691948
0.875445855388869
1.36506277847421
3.93909544101741
0.514472038491999
0.533395544084808
0.562363525165522
0.609227163757839
0.692808402927225
0.868063696607529
1.35325782056923
3.8931750318064
0.503012511618749
0.515009357922865
0.532651550494415
0.559998622219938
0.604980822938782
0.686661685228864
0.859192153313481
1.33574676574285
3.82440497579228
0.495680632011177
0.50334286010009
0.514153723475473
0.530544598955426
0.556501504256793
0.599937111213993
0.679579082017107
0.847980230721043
1.31215282224449
3.73318143413426
0.490981322073704
0.495954782055871
0.502401009939607
0.51214816735033
0.527509639868892
0.552312737798863
0.594227498928628
0.671299104002031
0.834135660747794
1.28255906185386
3.61852654847783
0.500371503575424
0.509395403576711
0.523957121849243
0.547673828112957
0.587855580958934
0.661712871746866
0.817634575991852
1.24698522377292
3.48044611959006
3.61613806610707
1.39598037440582
3.74673714409363
0.887582068352817
1.39432332243182
3.8213112960084
0.698868852392847
0.887839318614658
1.38228597762269
3.86385263340848
0.608833674484741
0.700236491614189
0.882614564779623
1.36876241905349
3.89235625560148
0.559938273224138
0.61030752891902
0.698131983776498
0.875361936909424
1.35858411221172
3.90539304165139
0.531282099664611
0.561169587579079
0.609414683506731
0.694068904565789
0.868817829338457
1.35241581013986
3.89539779944957
0.513630382592016
0.532132076576951
0.560543408804604
0.606642671715746
0.689077675487041
0.862328948510629
1.34284507327906
3.85939268257723
0.502422552592358
0.51415247247204
0.531438728188476
0.558314545229695
0.602656637907379
0.683399352866018
0.854339405802233
1.32730324562363
3.79874404181854
0.495212689382145
0.502726660524568
0.513318078510364
0.529407518623047
0.554968315709036
0.59787649225307
0.676763031697331
0.843917801508227
1.30539365189528
3.71436155961744
0.490581290670611
0.495417215258705
0.501796140471213
0.511359979078898
0.526462234698086
0.550933609697003
0.592417248910723
0.668883439409362
0.830745116496675
1.27717898310883
3.60562016931026
0.487628428161722
0.490732364627289
0.494506022255044
0.499898095448929
0.508690047430158
0.523012385169276
0.546450084157809
0.586279770375642
0.659649495143221
0.814794697253112
1.24258594478316
3.47067508332167
0.497364232652105
0.505682643845394
0.51932142725621
0.541640985380697
0.579505394787795
0.649117828803813
0.796149712958013
1.20146393539263
3.30854609534346
3.4016792879954
1.37781547313927
3.57311275545752
0.879798143024399
1.37769160846145
3.68070851291385
0.694370048785209
0.879881814924257
1.36676887354544
3.75073468581804
0.606098127762907
0.695523264915153
0.874856798208224
1.3541640720722
3.80212679061724
0.558174896348446
0.607339660750974
0.69347252803223
0.867887152808681
1.34418464252098
3.83436416842352
0.53014101629017
0.559216650849876
0.606381747484629
0.689431495628934
0.861244080918178
1.33725454248201
3.83984661497214
0.512882433042465
0.530850111910367
0.55856723788431
0.603721415042635
0.684733680271977
0.855453465914608
1.32994056084951
3.81606710866411
0.501911228132046
0.513293191097948
0.530125929233376
0.556408073128547
0.599945056523513
0.679499840952408
0.848402268798467
1.3166926818818
3.76519442253364
0.494828772673353
0.50212306532957
0.512420977084621
0.528124498762787
0.553183750590053
0.595423733771116
0.673347663864503
0.838894981150356
1.29678626295889
3.68883799147504
0.490256915355746
0.494941265647866
0.501148593791195
0.510468084747112
0.525244755155271
0.549298932779118
0.590237411302153
0.665933952374816
0.826540526274953
1.27028711313639
3.58703540876553
0.487343123744331
0.490336626796749
0.493949716363009
0.499249044389808
0.507837745481564
0.521884169517373
0.544976722360072
0.584364521149466
0.657121052511322
0.811289507206918
1.23711022803979
3.45805296242897
0.485532595112901
0.487401705659646
0.489356177238567
0.492185788803747
0.496839421631638
0.504912938698056
0.51830208138021
0.540334588269357
0.577840977550536
0.646962615920529
0.793219475122457
1.19698875702246
3.29912246743696
0.494204865349661
0.501936796364516
0.51466865159528
0.535511371983942
0.570835698899029
0.635692729061698
0.772540099829322
1.14967071226133
3.10729906992046
3.16195940794598
1.35869404182314
3.36685267070719
0.872813498629501
1.36064037354927
3.51104476364172
0.690544131880939
0.872106693181555
1.35051703239532
3.61342820255193
0.603919708854162
0.690977367676068
0.866841798848583
1.33842517731209
3.69130513828245
0.55689826590224
0.60456407107534
0.688663185965585
0.859916878128021
1.32882507580935
3.74596421644519
0.529343454265675
0.557422814756814
0.603326051362367
0.684584594249066
0.85334376769199
1.32126088635589
3.76998199695455
0.512386204732135
0.529682144174376
0.55654265160383
0.600552196758582
0.67985457015682
0.847483043007525
1.31431698639446
3.76132121133213
0.501586369232028
0.512523247990635
0.528784106596314
0.554325951368891
0.596863303533602
0.674935333244148
0.841260221928853
1.30356559135248
3.72237925298674
0.494590479596474
0.501594343027806
0.511512446729073
0.52672588754195
0.551153524354541
0.592552396028892
0.669258615624042
0.832756359441672
1.28601501456928
3.6556960926866
0.490051500622513
0.494544268461966
0.500505357760099
0.509501425943528
0.523862697364814
0.547389376271816
0.587638503949201
0.662358310808089
0.82135666808754
1.26155740718411
3.56189168251808
0.487143631683541
0.490004609426648
0.493444344072865
0.498545965795962
0.506866274699062
0.520566773543445
0.543226000549758
0.582056938763801
0.654038413348169
0.806958538749541
1.23013903339615
3.43996859809555
0.485332611437077
0.487120395525526
0.488942005343764
0.491586821854226
0.496126615949803
0.503980579827623
0.517081099056408
0.538759123761188
0.57581826899565
0.644327465341518
0.789620111633862
1.19147102499692
3.28696071811943
0.484262095130354
0.485327967751738
0.4860947467496
0.487190933178596
0.48943830824924
0.493616123232827
0.501093287013902
0.51356815860337
0.534119377083733
0.569085168878609
0.633456607448601
0.769543649572821
1.14518037717122
3.09852019118682
0.491170172796474
0.498375724362498
0.510222673639516
0.529566986404354
0.562229777531892
0.62192170254788
0.747232304455111
1.0911571598638
2.87150450603654
2.9037892269227
1.34013666379969
3.12896889790149
0.867312953098372
1.34290946673275
3.31012081923566
0.688121912454494
0.865072773468846
1.33357644751554
3.44854551641399
0.602921603735297
0.68706443236052
0.858924516017751
1.32166331387737
3.55728569973166
0.556549524920448
0.602332397520455
0.68397551539787
0.85157418043062
1.31203121317084
3.63771873460848
0.529254747933508
0.556108167002908
0.600442091904573
0.679545687959281
0.844875150904929
1.30469475997282
3.68346019487619
0.512401118285098
0.528851415191967
0.554660588018662
0.59731594653356
0.674675393739195
0.838876081704915
1.29663392513666
3.6927216547349
0.501628166269442
0.511999760378145
0.527543544885931
0.552170396677862
0.593486075303728
0.669749219752433
0.832878517636563
1.28759565762517
3.6686822634061
0.494616533080703
0.501247765380433
0.510682716538415
0.525279375946829
0.548918021722757
0.589268234734148
0.664449355386075
0.825359209924437
1.2727262869519
3.61368364512784
0.490040678714437
0.494288920771445
0.499927862728026
0.508507764805488
0.522342331239771
0.545204419365508
0.584585618272202
0.658072564214436
0.815032163933492
1.2506824157097
3.52942388905524
0.487088170420771
0.489786359691624
0.493008557440712
0.497833804691574
0.505801308540309
0.519061149952089
0.541172956788555
0.579301235642427
0.650303447450542
0.801634493203383
1.22134805383161
3.41553967814435
0.485233126576462
0.486913294585211
0.488581164561896
0.49102711677052
0.49534430591077
0.502909492548026
0.515648264538101
0.536881855939634
0.573379258079055
0.641118619564129
0.785187706288237
1.18448685951403
3.26951936434817
0.484125010788422
0.485131791985871
0.485794905961913
0.486734385067984
0.488775734713847
0.492823108590908
0.500068053144594
0.512245175972226
0.532437056829206
0.566956923858587
0.630726901658108
0.765879528930768
1.13968263464206
3.08713966824518
0.483524496923039
0.484077652606787
0.484084737169902
0.484065519895854
0.48470037972739
0.486659315562423
0.490507460101762
0.497450850682294
0.509036560356356
0.528089523184032
0.560400259612415
0.619622518581741
0.744203674307022
1.08670285950278
2.86284292159924
0.488495113338797
0.495269150684218
0.506345472596881
0.524319002762449
0.554412917236856
0.608787508129429
0.72138804016134
1.02677925375665
2.59951247684289
2.51405902630846
1.31963075273132
2.86857527858719
0.864656944703028
1.32428411592076
3.0780972620497
0.688332817665391
0.859486567858502
1.31565235940655
3.25350284170086
0.604106201139953
0.684512675708094
0.851608816807458
1.30378387083758
3.39731884942089
0.557911156213787
0.601252832678094
0.67985231963879
0.843151176239899
1.29374869821647
3.50701515872595
0.530470984958357
0.555705719226986
0.598064552872396
0.674548517724381
0.835867116046755
1.28640703255603
3.57765459154261
0.513346955059207
0.528722387499986
0.553235120983534
0.59421948651792
0.669250664880195
0.829694269284589
1.27869012504692
3.60817880848702
0.502328700017581
0.511980925341563
0.526624301648996
0.550124614099927
0.589970276217851
0.664110964450517
0.823460765792167
1.26877825073004
3.60197398547709
0.495105149840622
0.501262653197739
0.510086761843669
0.523910799720555
0.54657082624125
0.58562896892431
0.65892854891336
0.816611103585127
1.25655354671735
3.56128648919832
0.490355426964546
0.494293640814614
0.499521966100584
0.507574298199363
0.520746103603168
0.542776193146239
0.58107213115828
0.653013582271473
0.807408552697341
1.23731302362399
3.48845990444535
0.487263682816592
0.489758720134768
0.492704986538909
0.497171730352902
0.504686757327746
0.517388056807322
0.538809862602351
0.576053888296375
0.645823753220729
0.795150972988433
1.21044238157431
3.38403491407523
0.485298315247176
0.486845092301537
0.488324578183986
0.490523048885732
0.494534025448839
0.50172093856039
0.513999120082922
0.534671619606879
0.570461696766746
0.637232540502415
0.779752526727257
1.17571253194239
3.24602407493123
0.484102128381479
0.485024674695835
0.485559149731687
0.486319634299185
0.488137038512241
0.491940672417412
0.498880559671175
0.510684367023021
0.530426145869462
0.564387445682397
0.627405039049667
0.761379469813442
1.13275111628195
3.0705830490956
0.483432953069005
0.483944239455116
0.483869987163437
0.483723281492883
0.484180150740389
0.485915787643003
0.489620438773551
0.496322033870684
0.507604598249861
0.526298807702297
0.558173093545379
0.616817518859031
0.740511913442375
1.08129559374932
2.85267641686312
0.483122369851424
0.483357615317543
0.482891186809791
0.482174743975282
0.481792534535299
0.482287437989861
0.484130832329312
0.487749839876159
0.494256862863174
0.505071543064876
0.522759781698903
0.552516931503371
0.606450484383358
0.718363213445132
1.02231062146055
2.59104888047098
0.486479548312633
0.493035116160379
0.503641119458639
0.520657923159664
0.548711909997506
0.598275777042015
0.697999051439162
0.960968122015814
2.21610854576862
2.46568095716546
1.27862147676094
2.4173727128663
0.867256853385559
1.3017936877168
2.82978944892833
0.693525973790894
0.856634555167227
1.29616515512323
3.02916828032982
0.609255533341338
0.684547876337904
0.845595321106517
1.28432631771419
3.20853886497917
0.562303025911048
0.602324286665493
0.677001697553404
0.835079548952959
1.27384193921013
3.35119351573576
0.53392773337663
0.556992763266794
0.596786412639436
0.670002238477081
0.826517487673224
1.26611330413507
3.45038020801079
0.515909186369443
0.529884221477943
0.552691844921886
0.591565393128359
0.663757101653339
0.819793700992303
1.25877524413299
3.5054196435859
0.504158658419164
0.512884592978948
0.526385099694624
0.548492082449247
0.586548380840665
0.658189973119693
0.813493887177044
1.24902587490532
3.51987954294038
0.496374863817381
0.501929782777331
0.509979584562
0.522833877611499
0.544283398534579
0.581768166282339
0.652800403397164
0.806564949528874
1.23722951820225
3.49660062675782
0.491208563070087
0.494755853765856
0.49946487856802
0.506851815445137
0.519192962664343
0.540187426377218
0.577137994985599
0.647160768705616
0.798353244084488
1.221066684655
3.43749081114693
0.487811207506295
0.490052454289141
0.492650903745595
0.496662665415469
0.50360497802398
0.515603052695283
0.536159522197801
0.572296109220384
0.640522222697968
0.787339842517495
1.19708038946779
3.34427575527991
0.485622003536445
0.487003935121533
0.488249107435177
0.490135280133407
0.493751115356747
0.500453595202814
0.512147856739264
0.532112887615058
0.567013555221328
0.632569129813769
0.773145222734159
1.16485880308083
3.21568387090068
0.484260507060844
0.48507716436501
0.485452838228712
0.485995050592472
0.487534744132101
0.491005872159042
0.497546715781658
0.508875097021591
0.528048728044568
0.561307769823869
0.623381932208425
0.755869996894225
1.12405940726604
3.04829682077854
0.483466490260363
0.483913699518672
0.483734292066962
0.483433698852595
0.483686237297181
0.485176064473383
0.488619690875395
0.495003546131599
0.505905593675293
0.524150372889018
0.555478683834442
0.613402627118319
0.735983604774465
1.07448706730451
2.83778811098605
0.483062510031582
0.483269633299357
0.482739205193399
0.481917569899587
0.481386373028204
0.481685531137121
0.483291495408299
0.486756615689612
0.493015311693398
0.503525877004547
0.520862614764526
0.550202668024976
0.603596050449428
0.714684020585599
1.01702919646018
2.58092890841047
0.482923626153543
0.482970312348683
0.48222041683854
0.481084491628274
0.480086989495894
0.479685388022714
0.480238144798418
0.482100528967201
0.48564413219122
0.491930935923767
0.502279798536686
0.519024791256366
0.546768175960147
0.595931753110204
0.695006442415423
0.95665562748069
2.21610814409181
0.48558113854483
0.492344441685154
0.503115306266858
0.520136193998154
0.547607691969991
0.594551882536836
0.684559472751955
0.90512204046141
2.28699453242711
2.49631298205334
1.32280351587292
2.42906369191476
0.882464124684738
1.24912058186769
2.32324422011512
0.708923357464526
0.858793870606921
1.27213537475479
2.78525355190033
0.621766607539574
0.689491623319495
0.842095812031214
1.26269188152291
2.99127156824486
0.572063491133354
0.607309818436802
0.676629399277062
0.827991377721822
1.25171708668556
3.16817735883085
0.541275498421363
0.56127413192658
0.597587482469975
0.666581589035285
0.817172311010428
1.2435270570567
3.29931509661566
0.521237188596098
0.533265174836978
0.553790659822933
0.589925459061677
0.658558719114288
0.809264684394349
1.23635121101021
3.38227080592305
0.507888711189294
0.515392185603105
0.527406779431738
0.547692862821513
0.58348164426533
0.652066868345089
0.802616808662024
1.22744152955088
3.42061294453206
0.498936446144821
0.503717453600782
0.510773394461715
0.522397168306694
0.542343644682029
0.577919393157615
0.646294322470933
0.795643549535587
1.21518135600404
3.41735508284679
0.492937571962493
0.495992779526098
0.500044022547439
0.506589053202562
0.517887206436307
0.537595610066752
0.572893306018234
0.640569640886933
0.787813532846772
1.20156849657523
3.37474851216528
0.488954003484033
0.490879663550657
0.493041713432379
0.49647966353017
0.502700325837942
0.513816358723884
0.533292810824343
0.568050828596728
0.634354117674778
0.778044017711078
1.18087474588469
3.29492468167764
0.486351968145007
0.487530700050736
0.48848448828912
0.48997832237133
0.493093765182333
0.499183409929424
0.510142009966735
0.529218639333359
0.56300450272758
0.627039804356879
0.765191937523066
1.15159583665366
3.17751883159223
0.484697907422288
0.485384293839641
0.485564134675093
0.485835564318586
0.487025734656858
0.490068841027394
0.496098843486051
0.506824142928856
0.525280986392718
0.557657330732267
0.618550294895088
0.74917851448007
1.11330655202464
3.01967330131788
0.483693828901283
0.484059414718202
0.483748831471329
0.483259478694459
0.483263037168889
0.484447862709213
0.487536822795722
0.493505029419734
0.503921911437777
0.521598851950611
0.552240741313582
0.60926214023696
0.730436438721211
1.06588734756157
2.81804387555848
0.483135590166861
0.483295501780707
0.48268016711401
0.481728060407508
0.481017281819099
0.481089467974959
0.482431111434633
0.485620967496285
0.491552692611443
0.501680523291573
0.518575947897405
0.547393570109884
0.600113699657541
0.710167583853044
1.01041954354995
2.57011582697162
0.482884291461103
0.482913928394468
0.482113904891172
0.480890100038795
0.479765639779523
0.479196764635933
0.479538758819441
0.481151744440277
0.484533473591416
0.490568924484971
0.500618093643933
0.517026894525554
0.544384135630401
0.593058492575949
0.69137261412677
0.951433639937027
2.21610744847733
0.482841432480289
0.482783835228824
0.481875024712106
0.480501960621634
0.479153793514377
0.47823617447431
0.478034293282944
0.478809052564383
0.480889999828173
0.484648938035957
0.491145609850109
0.501669961908422
0.518441627444098
0.545640359264746
0.592233785479343
0.68164670156909
0.901774536705895
2.28699433563476
0.486518946979432
0.49428390362567
0.50646971367092
0.525547973835532
0.555990140853531
0.606863299149598
0.700217042661525
0.934321061747362
2.38167841478807
2.9257182698255
1.51216975734802
2.45521496417358
0.958125780236977
1.29230167327215
2.36164640503656
0.748724689695647
0.872053130421621
1.21046063447163
2.25286416828756
0.648904506294604
0.70452706690649
0.843325246089727
1.23587975953487
2.75403323811186
0.591606623656121
0.619550700474663
0.681050403583654
0.823077447512336
1.22638499852166
2.95826592961725
0.55545058352363
0.570852149126003
0.602190457024189
0.665464806301604
0.808391133987194
1.21786926286429
3.12242199448518
0.531297790982436
0.540491391975033
0.557805897729735
0.590252426858599
0.654291097505703
0.798357548669332
1.21088388184507
3.23670147328809
0.51482214469017
0.520638573746866
0.530595740436697
0.548456570697575
0.581315412455193
0.646067607725667
0.79083740110516
1.20296333232737
3.30181935550237
0.50362595909242
0.507390591644639
0.513137318699839
0.523165390693727
0.541172080948996
0.574337599473894
0.639476732069996
0.783763773629291
1.19201995308096
3.32143706796768
0.496078961623299
0.498512581142055
0.501721324644892
0.507187486327108
0.517163512820717
0.535268503098903
0.568548478836431
0.633414218495345
0.775923865758502
1.17863292246866
3.29838370776732
0.491040912026455
0.492576595460131
0.494191205318883
0.496903567198502
0.502212262685966
0.512220950706311
0.530352810107136
0.563405837816503
0.627334504222242
0.767148149259217
1.16141209526299
3.23444495262937
0.487717794958622
0.488648023200154
0.489240914647513
0.490243462107003
0.492728597061046
0.498046551620493
0.508082007150896
0.52604762963695
0.558441802927479
0.620581320978493
0.755721611692226
1.13554889866994
3.13037755179078
0.485566047328829
0.486093732718089
0.486032977447301
0.485968258313422
0.486719857608224
0.48922143999719
0.494605279359909
0.504570193300777
0.52212574970224
0.553394796768623
0.61281187226901
0.741129984252419
1.1002406361546
2.98387256803756
0.484214910900836
0.484480367205142
0.484008683417113
0.483286877238799
0.482981705886081
0.483782805397726
0.486415571391727
0.491851429463974
0.501652049225852
0.518611470704725
0.54838971436258
0.604281012427883
0.723688309245429
1.05531159316681
2.79333735993713
0.483411304510474
0.483510226476118
0.48278810127096
0.481674754229057
0.480743975119826
0.480538795797109
0.481551635080193
0.484368024889411
0.489871355072694
0.49950982737757
0.515845930594195
0.544004760570325
0.59587813322911
0.7045951606884
1.0021469777658
2.56380250879966
0.48298307584594
0.482979348615595
0.482111385131823
0.480777290416899
0.479496284146959
0.478724388982389
0.478819613009157
0.480152218600079
0.483247080500042
0.488950131961301
0.49862017124249
0.514604417423518
0.541475120193948
0.589537606745523
0.686899986519152
0.945383310488015
2.21610681721688
0.482813727493548
0.482747914690426
0.481800179094921
0.480353100022477
0.478895029843086
0.477831614928521
0.477446566016231
0.477997256922326
0.479818591096759
0.483410306730772
0.48965678609564
0.499892341381632
0.516352514980057
0.543208030828424
0.589373007918615
0.678087203095682
0.89773593388226
2.28699422060006
0.482820187671454
0.482711624426404
0.481723622852599
0.480230901898768
0.478703318382729
0.477517221827387
0.476916028849865
0.477103042700329
0.478337092910209
0.480985973080013
0.485484205496995
0.49298942492405
0.504946786604603
0.523808660243379
0.554025817877881
0.604602346739667
0.697656341265833
0.931362403152709
2.38167751245985
0.490438248151072
0.500656434817851
0.516700020119341
0.542233686618688
0.584208836073625
0.657524435048049
0.80561919825502
1.2113655668609
3.68516580399512
2.94890112223629
2.93624876935594
1.2293838510336
1.47067789011379
2.41074114632021
0.859950665521302
0.946203716946154
1.24828255597243
2.30196937991196
0.708562889878782
0.743589433549215
0.854380189388799
1.17376293924644
2.2231212117153
0.630055115749752
0.646221082314123
0.695411777501366
0.822670192845015
1.19508837371333
2.73174872700986
0.581990551609616
0.590049887432324
0.613883098607765
0.668963454374376
0.801299826015622
1.18811117020832
2.91907562998246
0.549682946690734
0.554436792144023
0.566973346778509
0.594230187848981
0.652104315074927
0.787547056378555
1.1815286106628
3.06590200291631
0.527256708740186
0.530556311427152
0.537528796579737
0.552018502773198
0.58097426738175
0.6407897204801
0.778310868302202
1.17485517011606
3.16135168340815
0.51186355387762
0.514236047270329
0.518177385712112
0.526016150028854
0.541458564725698
0.571532550173253
0.632622006375684
0.770771863871776
1.16580289265676
3.20718654632471
0.501505427965398
0.503144715994461
0.505246960710074
0.509294935176519
0.517563873448898
0.533633446454961
0.564397791063391
0.625890457261918
0.763069849148487
1.15308282373995
3.2063173158582
0.494619992877337
0.495677218578613
0.496600641584468
0.49838421732179
0.502527311956368
0.511135772146955
0.527590069643827
0.558543563683442
0.61957388852437
0.754638491664762
1.13834755574184
3.16115240222507
0.490073321355043
0.490703681711566
0.490851312701862
0.491237672314
0.492926686652161
0.497271329417158
0.506148811362992
0.522728689925797
0.553393086941211
0.613178292687568
0.744584923824734
1.1163213681292
3.07264085854879
0.487097604394971
0.48743456023589
0.487080266321698
0.486599324803416
0.486801915193218
0.488622050776276
0.493192872032886
0.50220324100595
0.518629607026105
0.548513210450969
0.606089246267789
0.731547885502107
1.08451164665206
2.93967375603453
0.485183468452523
0.485328228403037
0.484660688060022
0.48365330504263
0.48296472756292
0.483284384265309
0.485340180287046
0.490102448763996
0.499125026675835
0.515180391729919
0.543873308607121
0.598352632855951
0.715584511701202
1.04262986527089
2.76193444948237
0.483990710271725
0.484014990796577
0.483162089493382
0.481850892313443
0.480648976075139
0.480099377413878
0.480698152661977
0.483033971880696
0.487987750220184
0.497002905052582
0.512629723570266
0.53995641665784
0.59076339573983
0.697810052454967
0.991947025600063
2.58251114919273
0.483290150185243
0.483242521215726
0.482288542229373
0.480817509637114
0.479343508360251
0.478322128507419
0.47811444665122
0.479097037195948
0.481802424396351
0.487068364437147
0.496251005195631
0.511693449568113
0.537945286570149
0.585224537177521
0.681359873835364
0.938224635331592
2.21609764042036
0.482927098541011
0.482839071047184
0.481837361222776
0.480296919840165
0.478702135993135
0.477457969081256
0.476848842582436
0.477134846842957
0.478661607059189
0.481957573029382
0.487870583211782
0.497737335356196
0.513799382459294
0.540216741454055
0.585842050030681
0.6737751924184
0.893126995456507
2.28700500471907
0.482797197642795
0.482687297134472
0.481669339952281
0.480113820927638