/*--------------------------------*- C++ -*----------------------------------*\
  =========                 |
  \\      /  F ield         | OpenFOAM: The Open Source CFD Toolbox
   \\    /   O peration     | Website:  https://openfoam.org
    \\  /    A nd           | Version:  12
     \\/     M anipulation  |
\*---------------------------------------------------------------------------*/
/*   Windows 32 and 64 bit porting by blueCAPE: http://www.bluecape.com.pt   *\
|  Based on Windows porting (2.0.x v4) by Symscape: http://www.symscape.com   |
\*---------------------------------------------------------------------------*/
FoamFile
{
    format      ascii;
    class       volScalarField;
    location    "100";
    object      p;
}
// * * * * * * * * * * * * * * * * * * * * * * * * * * * * * * * * * * * * * //

dimensions      [0 2 -2 0 0 0 0];

internalField   nonuniform List<scalar> 
10142
(
83333.3294968845
83333.3294144351
83333.3294938615
83333.3294980548
83333.3293293434
83333.3294112383
83333.3294156726
83333.3294901721
83333.329495396
83333.3295006517
83333.3292416239
83333.3293260796
83333.3293306521
83333.3294072501
83333.3294129235
83333.3294185578
83333.3294892488
83333.3294918738
83333.3294981212
83333.3295048243
83333.329150963
83333.32923833
83333.3292431543
83333.3293216485
83333.329327924
83333.3293339014
83333.329405821
83333.3294092207
83333.329416009
83333.3294233044
83333.3294910246
83333.3294910364
83333.3294947228
83333.3295024494
83333.3295108304
83333.3290572192
83333.3291477215
83333.3291527991
83333.3292333165
83333.329240423
83333.3292469315
83333.3293193669
83333.3293238133
83333.3293314305
83333.3293393264
83333.3294066358
83333.3294078718
83333.3294125042
83333.3294209507
83333.3294301907
83333.3294956164
83333.3294929228
83333.3294940634
83333.3294992623
83333.3295086294
83333.3295187521
83333.3289603358
83333.3290541751
83333.3290594231
83333.3291419917
83333.3291500908
83333.3291572244
83333.3292297447
83333.3292357112
83333.3292445082
83333.3292532198
83333.3293186229
83333.3293216025
83333.3293275363
83333.3293370821
83333.3293472317
83333.3294098975
83333.3294088367
83333.3294113749
83333.3294176935
83333.3294279942
83333.3294392766
83333.3295032478
83333.3294975756
83333.3294961987
83333.3294988906
83333.3295057322
83333.329516693
83333.3295284319
83333.3288603524
83333.3289576652
83333.3289629716
83333.3290475586
83333.3290568782
83333.3290646066
83333.3291366462
83333.3291446324
83333.3291548338
83333.3291645558
83333.3292268038
83333.3292321257
83333.3292399741
83333.3292510604
83333.3292623545
83333.3293199547
83333.3293210021
83333.3293255462
83333.3293334721
83333.3293451621
83333.3293576798
83333.3294161591
83333.3294121361
83333.3294126342
83333.3294169614
83333.3294251003
83333.3294372317
83333.3294503668
83333.3295139532
83333.3295052081
83333.3295011368
83333.3295014309
83333.3295057903
83333.3295141973
83333.3295264978
83333.3295395584
83333.3287575303
83333.3288582445
83333.3288635224
83333.3289499017
83333.3289607832
83333.3289690456
83333.3290397079
83333.3290504767
83333.3290623656
83333.3290731649
83333.3291306373
83333.3291391239
83333.3291495174
83333.3291624965
83333.3291751505
83333.3292253091
83333.3292292857
83333.3292365868
83333.3292468118
83333.3292603581
83333.3292744039
83333.3293241303
83333.3293224615
83333.3293253168
83333.3293319159
83333.3293419569
83333.3293557478
83333.3293704162
83333.3294256379
83333.3294184702
83333.3294162816
83333.3294186732
83333.3294248895
83333.3294347925
83333.3294484529
83333.3294630935
83333.3295276929
83333.3295159166
83333.3295089503
83333.3295067312
83333.3295088291
83333.329514751
83333.3295244914
83333.3295378152
83333.3295517834
83333.3286523671
83333.3287562148
83333.3287613549
83333.328848891
83333.3288618857
83333.3288706627
83333.3289384247
83333.3289531466
83333.3289671464
83333.3289790349
83333.3290294364
83333.3290422767
83333.3290560528
83333.3290712974
83333.3290854866
83333.3291252014
83333.3291331887
83333.3291442342
83333.3291574444
83333.3291732451
83333.3291890755
83333.3292265356
83333.3292280616
83333.3292341801
83333.3292438905
83333.3292565639
83333.3292725163
83333.3292890689
83333.3293316815
83333.3293267328
83333.3293271528
83333.3293322566
83333.3293410068
83333.3293530469
83333.3293686086
83333.3293850213
83333.3294385469
83333.3294280265
83333.3294228859
83333.3294228674
83333.3294272033
83333.329435152
83333.3294465326
83333.3294613414
83333.3294770479
83333.3295296468
83333.3295197955
83333.329514915
83333.329514665
83333.3295183977
83333.3295255866
83333.3295362781
83333.3295502444
83333.3295647393
83333.3285455874
83333.3286519873
83333.3286569668
83333.3287444619
83333.3287604918
83333.3287697623
83333.3288322097
83333.3288525268
83333.3288693273
83333.3288823302
83333.3289221365
83333.3289412274
83333.3289595253
83333.3289775013
83333.3289933716
83333.329018649
83333.3290320633
83333.3290481586
83333.329065232
83333.3290837908
83333.3291016081
83333.3291223336
83333.3291282308
83333.3291388267
83333.3291526574
83333.3291687127
83333.3291872461
83333.3292059801
83333.3292313602
83333.3292294931
83333.3292334411
83333.3292421834
83333.3292543465
83333.3292692582
83333.3292872452
83333.3293058394
83333.3293430695
83333.3293344196
83333.3293318188
83333.329334776
83333.3293421054
83333.3293527862
83333.329366419
83333.3293833131
83333.3294009887
83333.3294548737
83333.3294410087
83333.3294326727
83333.3294298998
83333.3294320839
83333.3294382192
83333.3294475244
83333.3294599131
83333.3294754697
83333.3294917809
83333.3295336096
83333.3295260642
83333.3295233702
83333.3295249029
83333.3295299201
83333.3295379873
83333.3295491912
83333.3295633789
83333.3295780447
83333.3284381416
83333.3285462461
83333.3285510907
83333.3286365275
83333.3286569833
83333.3286668535
83333.3287203793
83333.3287485107
83333.3287691783
83333.3287834036
83333.3288076908
83333.3288354233
83333.3288598938
83333.3288813353
83333.3288989807
83333.3289042306
83333.3289251731
83333.3289479881
83333.328970139
83333.3289920329
83333.3290120614
83333.3290101639
83333.3290219363
83333.3290386199
83333.3290579161
83333.3290782925
83333.3290999458
83333.3291211079
83333.3291234447
83333.329125723
83333.3291344602
83333.3291481028
83333.3291647452
83333.3291832802
83333.3292041655
83333.3292252404
83333.3292405552
83333.3292345032
83333.329235366
83333.3292422383
83333.3292535875
83333.3292678926
83333.3292845255
83333.3293040616
83333.3293241178
83333.3293585614
83333.3293459568
83333.3293398304
83333.329339976
83333.3293454566
83333.3293547996
83333.3293669382
83333.3293816481
83333.3293994353
83333.3294177915
83333.3294747867
83333.329457385
83333.3294458408
83333.3294400942
83333.3294397706
83333.3294439086
83333.3294514164
83333.329461631
83333.3294745351
83333.3294903742
83333.3295068493
83333.3295401185
83333.3295349869
83333.3295342708
83333.3295372008
83333.3295430933
83333.3295516144
83333.3295628868
83333.3295768762
83333.3295913288
83333.3283312502
83333.3284398559
83333.3284447872
83333.3285251087
83333.3285519862
83333.3285626877
83333.3286019793
83333.3286410362
83333.328667116
83333.3286827748
83333.3286844339
83333.3287240859
83333.3287570421
83333.3287831185
83333.3288027487
83333.3287799964
83333.3288112499
83333.3288432125
83333.328872169
83333.3288981563
83333.3289206188
83333.3288881525
83333.3289078633
83333.3289327724
83333.328959334
83333.3289852772
83333.3290107048
83333.3290345729
83333.3290062534
83333.3290141135
83333.329029273
83333.3290494581
83333.3290719587
83333.3290950948
83333.3291194032
83333.3291432441
83333.3291296648
83333.3291271437
83333.329132621
83333.329144747
83333.3291613679
83333.3291803689
83333.3292007982
83333.3292234279
83333.3292461694
83333.3292546197
83333.3292438969
83333.329240838
83333.32924493
83333.3292547024
83333.3292682562
83333.3292841222
83333.3293019244
83333.3293224486
83333.3293432882
83333.3293782581
83333.3293615661
83333.3293516498
83333.3293485432
83333.3293515273
83333.3293591542
83333.3293699642
83333.3293830363
83333.329398283
83333.3294163918
83333.329434911
83333.3294983969
83333.3294773273
83333.3294623404
83333.3294535976
83333.3294505532
83333.3294524105
83333.3294580434
83333.3294664443
83333.3294770855
83333.3294900313
83333.3295056298
83333.3295218209
83333.3295494357
83333.3295464949
83333.3295473457
83333.3295512425
83333.3295575876
83333.3295661127
83333.3295770282
83333.3295903779
83333.329604218
83333.3282272014
83333.3283337599
83333.3283394599
83333.3284101622
83333.3284463924
83333.328458362
83333.3284758495
83333.3285301049
83333.3285637422
83333.3285812163
83333.3285501714
83333.3286062899
83333.3286509163
83333.3286832748
83333.3287052175
83333.3286431761
83333.3286886767
83333.3287331368
83333.3287712854
83333.3288025185
83333.3288277579
83333.3287537063
83333.3287841577
83333.328820166
83333.3288564757
83333.3288897134
83333.328919681
83333.3289465897
83333.3288775372
83333.3288928413
83333.3289166146
83333.3289455355
83333.3289757173
83333.3290047255
83333.3290330703
83333.3290600238
83333.3290085209
83333.3290106743
83333.3290223216
83333.3290414381
83333.329064996
83333.3290900653
83333.3291152506
83333.3291414691
83333.329167211
83333.3291417825
83333.3291336241
83333.3291346506
83333.3291439207
83333.3291593658
83333.3291784075
83333.3291990508
83333.3292207128
83333.3292443832
83333.3292680412
83333.3292738087
83333.3292581221
83333.3292505836
83333.329251106
83333.3292584516
83333.3292706471
83333.329285747
83333.3293025467
83333.3293208888
83333.3293417436
83333.3293627491
83333.3294022817
83333.3293813348
83333.3293674726
83333.3293608267
83333.3293608296
83333.329366256
83333.3293754851
83333.3293871817
83333.3294006301
83333.3294158685
83333.3294336722
83333.3294518424
83333.3295255707
83333.3295009451
83333.3294823527
83333.3294703486
83333.3294645503
83333.3294639405
83333.3294674907
83333.3294741132
83333.3294829195
83333.3294934842
83333.3295059822
83333.3295208175
83333.3295362558
83333.3295614645
83333.3295602859
83333.3295622542
83333.3295666841
83333.3295730505
83333.3295811448
83333.3295912366
83333.3296035605
83333.3296163172
83333.3281288345
83333.3282294246
83333.3282372064
83333.3282915363
83333.3283412408
83333.3283552983
83333.3283404656
83333.3284157702
83333.3284598607
83333.3284797958
83333.3284019953
83333.3284808817
83333.328541553
83333.3285823541
83333.3286071487
83333.3284902286
83333.3285553124
83333.3286168991
83333.3286675067
83333.3287056068
83333.3287340661
83333.328603204
83333.3286482703
83333.3286992917
83333.3287487629
83333.3287916553
83333.3288272532
83333.3288576176
83333.3287341808
83333.3287593923
83333.328794737
83333.3288353631
83333.328875691
83333.3289122209
83333.3289453623
83333.3289758297
83333.3288746255
83333.3288829194
83333.3289027632
83333.3289311777
83333.3289638821
83333.3289968063
83333.3290279339
83333.3290583342
83333.3290874595
83333.3290180973
83333.3290133132
83333.3290197009
83333.329035829
83333.3290587373
83333.3290849147
83333.3291116504
83333.329138063
83333.3291653535
83333.3291921579
83333.329160223
83333.3291459397
83333.3291415924
83333.3291468619
83333.3291599008
83333.3291780336
83333.3291986683
83333.3292201909
83333.3292423431
83333.3292663312
83333.3292901563
83333.3292982325
83333.3292774115
83333.3292650914
83333.3292614454
83333.3292655952
83333.3292756917
83333.3292895873
83333.3293055411
83333.3293226212
83333.329340858
83333.3293613242
83333.3293819178
83333.32943052
83333.3294053844
83333.3293873685
83333.3293769954
83333.3293737524
83333.3293765002
83333.3293837592
83333.3293939779
83333.3294059924
83333.3294192382
83333.3294339002
83333.3294507964
83333.3294680783
83333.3295560621
83333.3295281086
83333.3295059935
83333.3294905213
83333.3294816844
83333.3294785698
83333.3294798913
83333.3294846067
83333.3294917141
83333.3295004309
83333.3295104169
83333.3295219497
83333.329535538
83333.3295496949
83333.329575869
83333.3295759874
83333.3295786251
83333.3295831512
83333.3295891118
83333.3295963512
83333.329605194
83333.329616077
83333.3296272024
83333.3280441484
83333.3281289005
83333.3281414524
83333.3281695887
83333.3282378159
83333.3282554772
83333.3281938819
83333.3282980089
83333.3283564662
83333.3283799375
83333.3282360509
83333.3283463916
83333.3284289729
83333.3284811393
83333.3285095943
83333.3283162719
83333.3284083342
83333.3284934467
83333.3285608858
83333.3286079982
83333.3286402902
83333.3284316795
83333.3284966299
83333.3285681737
83333.328635491
83333.3286912059
83333.3287339592
83333.3287683085
83333.3285718642
83333.3286102875
83333.3286612411
83333.3287176291
83333.3287714594
83333.328817705
83333.3288566567
83333.3288910838
83333.3287245671
83333.3287408681
83333.3287716016
83333.3288124228
83333.3288572425
83333.3289003767
83333.3289389633
83333.3289742725
83333.3290072106
83333.328880975
83333.3288805312
83333.3288939641
83333.3289191343
83333.3289518684
83333.3289873391
83333.3290218357
83333.3290540871
83333.3290855669
83333.3291158888
83333.3290355811
83333.3290231462
83333.329022983
83333.3290344254
83333.329054907
83333.3290807611
83333.3291085081
83333.3291359696
83333.3291627437
83333.3291903
83333.3292172756
83333.3291851084
83333.3291645011
83333.3291542683
83333.3291545852
83333.3291640883
83333.3291802216
83333.3292001254
83333.3292215069
83333.3292431361
83333.3292650289
83333.3292885305
83333.3293118536
83333.3293277502
83333.3293018735
83333.3292845527
83333.329276403
83333.3292767551
83333.3292840341
83333.3292961097
83333.3293109581
83333.3293270835
83333.3293437711
83333.3293612397
83333.3293806511
83333.3294002167
83333.3294627
83333.3294336091
83333.329411463
83333.3293971102
83333.3293904081
83333.3293902217
83333.3293950914
83333.3294035412
83333.3294141501
83333.3294259065
83333.3294383695
83333.3294518787
83333.3294673081
83333.3294830896
83333.3295895392
83333.3295585602
83333.3295331328
83333.3295142256
83333.3295021102
83333.3294961967
83333.329495257
83333.3294979652
83333.3295033217
83333.3295104074
83333.3295185444
83333.3295274736
83333.3295375191
83333.3295494113
83333.3295616447
83333.3295922439
83333.3295931956
83333.3295960493
83333.3296002393
83333.3296053788
83333.3296113912
83333.3296186287
83333.3296275399
83333.3296366121
83333.3279693196
83333.3280356014
83333.3280570488
83333.3280453828
83333.3281380282
83333.3281622312
83333.3280342863
83333.3281769197
83333.3282548026
83333.3282834923
83333.3280475239
83333.3282010305
83333.3283131955
83333.328380613
83333.3284138959
83333.3281146826
83333.3282440583
83333.3283614488
83333.3284514921
83333.3285104386
83333.328547454
83333.3282323553
83333.328324516
83333.3284242571
83333.3285157994
83333.3285884948
83333.3286404069
83333.3286794081
83333.3283846732
83333.3284407625
83333.3285129058
83333.3285906604
83333.3286625302
83333.3287213913
83333.3287675485
83333.328806472
83333.3285536662
83333.3285803792
83333.328625627
83333.3286830789
83333.3287440363
83333.3288005168
83333.3288485313
83333.3288896527
83333.3289268585
83333.3287269378
83333.3287319864
83333.328754634
83333.3287917679
83333.3288374919
83333.3288851081
83333.328929524
83333.3289689733
83333.3290052965
83333.3290395642
83333.3288973642
83333.3288872209
83333.3288924475
83333.3289119662
83333.3289421919
83333.3289780997
83333.3290149819
83333.3290498974
83333.3290822644
83333.3291138886
83333.3291443764
83333.3290611055
83333.3290407745
83333.3290332687
83333.3290387029
83333.3290551296
83333.3290790742
83333.3291067035
83333.3291349724
83333.3291622482
83333.329188526
83333.3292154542
83333.3292418047
83333.3292162399
83333.3291894262
83333.3291730402
83333.3291678185
83333.3291728639
83333.3291859427
83333.3292041894
83333.3292249398
83333.3292462514
83333.329267212
83333.3292880863
83333.3293103497
83333.3293324778
83333.3293620189
83333.3293313704
83333.3293090743
83333.3292961445
83333.3292923364
83333.3292962117
83333.3293058261
83333.329319088
83333.329334168
83333.32934979
83333.3293654146
83333.3293814726
83333.3293992208
83333.3294170654
83333.3294984206
83333.329465734
83333.3294396553
83333.3294212891
83333.3294108393
83333.3294074876
83333.3294097321
83333.3294160623
83333.3294250754
83333.3294354799
83333.329446412
83333.3294575553
83333.3294693335
83333.3294827722
83333.3294963236
83333.3296256003
83333.3295919666
83333.3295635033
83333.3295413343
83333.3295259234
83333.3295169488
83333.3295134556
83333.3295141353
83333.3295176873
83333.3295231564
83333.3295297216
83333.3295368042
83333.3295442414
83333.3295523704
83333.329561965
83333.3295717572
83333.3296101514
83333.3296114624
83333.3296140767
83333.3296175038
83333.3296214522
83333.3296259031
83333.3296311453
83333.3296376499
83333.3296442468
83333.3279112539
83333.3279435973
83333.3279832388
83333.3279209429
83333.3280434751
83333.3280793194
83333.3278612562
83333.3280534106
83333.3281566157
83333.3281934879
83333.3278314779
83333.3280431551
83333.3281943552
83333.3282818772
83333.3283217959
83333.3278765155
83333.3280580184
83333.3282193706
83333.3283394295
83333.3284138058
83333.3284568122
83333.3279959228
83333.3281256588
83333.3282642917
83333.3283886463
83333.3284837041
83333.3285473431
83333.3285919032
83333.3281645754
83333.3282443957
83333.3283455123
83333.3284523514
83333.3285483128
83333.3286235613
83333.3286786924
83333.3287227963
83333.3283556059
83333.3283958247
83333.3284605117
83333.3285404129
83333.3286229795
83333.3286969685
83333.3287569814
83333.328805091
83333.3288470537
83333.3285512876
83333.3285632001
83333.3285979027
83333.3286509407
83333.3287139239
83333.3287774795
83333.328834624
83333.3288829985
83333.3289249254
83333.3289635943
83333.3287422485
83333.3287348081
83333.3287469338
83333.328777011
83333.3288200423
83333.3288690885
83333.328917731
83333.328962013
83333.3290011349
83333.3290374102
83333.3290718099
83333.3289239025
83333.3289037817
83333.3288997228
83333.3289117542
83333.3289371685
83333.3289712439
83333.3290088114
83333.329045803
83333.3290800627
83333.3291115521
83333.3291423534
83333.3291720536
83333.3290943693
83333.3290663313
83333.3290511487
83333.3290497027
83333.3290607565
83333.3290812755
83333.3291074274
83333.3291356805
83333.3291634932
83333.3291896961
83333.3292146106
83333.3292400801
83333.3292650136
83333.329253155
83333.3292205185
83333.3291980267
83333.3291869306
83333.3291868813
83333.3291960137
83333.3292116566
83333.3292310292
83333.3292517535
83333.3292722082
83333.3292917353
83333.3293108658
83333.3293312456
83333.32935142
83333.3294005254
83333.329365562
83333.3293385221
83333.3293207675
83333.3293124725
83333.329312565
83333.3293191685
83333.3293302956
83333.3293439828
83333.329358592
83333.3293730574
83333.3293870193
83333.3294010672
83333.3294165401
83333.3294318804
83333.3295371858
83333.3295013601
83333.3294716702
83333.3294494357
83333.3294351479
83333.3294283159
83333.3294276983
83333.3294317006
83333.3294388392
83333.3294477913
83333.3294574128
83333.3294669821
83333.3294763225
83333.3294858558
83333.3294966556
83333.3295073549
83333.3296638061
83333.3296279308
83333.3295967725
83333.3295715781
83333.329552998
83333.3295409047
83333.3295345831
83333.329532952
83333.3295346919
83333.3295385333
83333.329543587
83333.3295491432
83333.3295547449
83333.3295602951
83333.329566067
83333.329572804
83333.3295797295
83333.329629105
83333.3296302883
83333.3296322061
83333.3296344609
83333.3296368624
83333.3296393994
83333.329642294
83333.3296460786
83333.3296496534
83333.3278776893
83333.3278594643
83333.3279257435
83333.3277946566
83333.3279509192
83333.3280074363
83333.3276764757
83333.3279288985
83333.3280629196
83333.3281130775
83333.3275848921
83333.3278724819
83333.3280733569
83333.3281865368
83333.328236134
83333.3275914933
83333.3278457054
83333.3280659087
83333.328224971
83333.3283192486
83333.3283700743
83333.3277094806
83333.3278921926
83333.3280844774
83333.3282529257
83333.3283771002
83333.3284556833
83333.3285069951
83333.3279005367
83333.328012549
83333.3281536123
83333.3283001354
83333.328428156
83333.3285245461
83333.3285908123
83333.3286409582
83333.3281220258
83333.3281796451
83333.3282705346
83333.3283809572
83333.3284925288
83333.328589471
83333.328664739
83333.3287212555
83333.3287686469
83333.3283478078
83333.3283681798
83333.3284186695
83333.3284929784
83333.3285790299
83333.328663587
83333.3287370921
83333.3287965657
83333.3288450356
83333.3288885382
83333.3285658309
83333.3285614169
83333.3285823289
83333.3286262535
83333.3286862049
83333.3287524921
83333.3288163126
83333.3288723772
83333.3289196848
83333.328961308
83333.3290000181
83333.3287705058
83333.3287503155
83333.3287505119
83333.3287710337
83333.3288081505
83333.3288554142
83333.3289057928
83333.3289538337
83333.328996703
83333.329034363
83333.3290695905
83333.3291029793
83333.3289601067
83333.3289303311
83333.3289165788
83333.3289199337
83333.3289387019
83333.3289688022
83333.3290050973
83333.3290428763
83333.3290788059
83333.3291113898
83333.32914104
83333.3291701366
83333.3291981185
83333.3291347256
83333.3290995215
83333.3290767537
83333.3290679885
83333.3290727408
83333.3290885551
83333.3291118652
83333.329138985
83333.3291668023
83333.3291932463
83333.3292175164
83333.3292402731
83333.329263596
83333.3292862373
83333.3292951729
83333.3292573213
83333.3292290352
83333.329212022
83333.3292064725
83333.3292110012
83333.3292232027
83333.329240379
83333.3292599481
83333.3292798174
83333.3292986692
83333.3293160965
83333.329332861
83333.3293506771
83333.3293681667
83333.3294426383
83333.3294039425
83333.3293725618
83333.3293501423
83333.3293372449
83333.3293331907
83333.3293364021
83333.3293448962
83333.3293567397
83333.3293701095
83333.3293835776
83333.3293962806
83333.3294080651
83333.3294195316
83333.329432032
83333.3294442444
83333.3295784477
83333.3295399982
83333.3295071147
83333.3294812796
83333.3294632392
83333.3294527897
83333.3294489797
83333.3294504211
83333.329455509
83333.3294627985
83333.3294710747
83333.3294793556
83333.3294870846
83333.3294941694
83333.3295009623
83333.3295085036
83333.3295158006
83333.3297037038
83333.3296660187
83333.3296325507
83333.3296046312
83333.3295830697
83333.3295679379
83333.3295586997
83333.329554479
83333.3295541395
83333.3295563596
83333.3295599242
83333.3295640364
83333.3295681122
83333.3295718213
83333.3295750698
83333.3295780473
83333.3295815933
83333.3295852462
83333.3296485599
83333.329649115
83333.3296498707
83333.329650543
83333.3296509955
83333.3296512087
83333.329651536
83333.3296521913
83333.3296540529
83333.3278727724
83333.3277962385
83333.3278917371
83333.327677343
83333.3278670536
83333.3279511731
83333.3274847739
83333.327804012
83333.3279722709
83333.3280446427
83333.3273085832
83333.3276908248
83333.3279515234
83333.328095852
83333.3281592571
83333.3272505902
83333.3276044599
83333.3279009864
83333.3281092281
83333.3282284949
83333.3282898319
83333.3273557808
83333.3276150012
83333.327881153
83333.3281078836
83333.3282692723
83333.3283666551
83333.3284262894
83333.3275767746
83333.327733599
83333.3279305255
83333.3281311983
83333.3283014768
83333.3284248551
83333.3285048494
83333.328562109
83333.3278417827
83333.3279216328
83333.3280482205
83333.3282004377
83333.3283509313
83333.3284777729
83333.328572225
83333.3286389353
83333.3286925033
83333.3281085414
83333.3281390712
83333.3282102143
83333.3283131903
83333.3284302457
83333.3285424823
83333.3286369737
83333.3287101154
83333.3287663658
83333.3288151985
83333.3283624394
83333.328361162
83333.3283932078
83333.3284553714
83333.3285378111
83333.3286268163
83333.3287102417
83333.3287811245
83333.3288383376
83333.3288861178
83333.3289295347
83333.3285970515
83333.3285761692
83333.3285815161
83333.3286129674
83333.3286653979
83333.3287299119
83333.3287968445
83333.3288588813
83333.3289123654
83333.328957359
83333.3289976445
83333.3290350482
83333.3288109079
83333.3287785359
83333.3287663501
83333.3287757509
83333.3288044464
83333.3288469344
83333.3288962743
83333.3289461464
83333.3289921828
83333.3290324984
83333.3290677107
83333.3291009113
83333.3291321986
83333.3290050535
83333.3289664022
83333.3289431382
83333.3289372602
83333.3289481133
83333.3289724565
83333.3290055483
83333.3290424888
83333.3290791895
83333.3291130052
83333.3291429745
83333.3291699759
83333.329196549
83333.3292217776
83333.3291812495
83333.3291397088
83333.3291097974
83333.3290936817
83333.3290915965
83333.3291017522
83333.3291210179
83333.3291458164
83333.3291727624
83333.3291991689
83333.3292234047
83333.3292450203
83333.3292649795
83333.3292853391
83333.3293049452
83333.3293414697
83333.3292991657
83333.3292656198
83333.3292429057
83333.3292317205
83333.3292311872
83333.3292392946
83333.3292535114
83333.3292712412
83333.3292901217
83333.3293083647
83333.3293249402
83333.3293397253
83333.3293535326
83333.3293680604
83333.329382363
83333.3294876601
83333.3294458898
83333.3294106995
83333.329383946
83333.3293665276
83333.3293581507
83333.3293575838
83333.3293630747
83333.3293726363
83333.3293844095
83333.3293967458
83333.3294084418
83333.3294188614
83333.3294279753
83333.3294362913
83333.3294452256
83333.3294532714
83333.3296216413
83333.329581108
83333.3295455107
83333.3295164401
83333.3294948523
83333.329480814
83333.3294736385
83333.3294721842
83333.3294749995
83333.3294804838
83333.3294872622
83333.3294942596
83333.3295006694
83333.3295060955
83333.3295104584
83333.3295140524
83333.3295178699
83333.3295215392
83333.3297448474
83333.3297057837
83333.3296704138
83333.3296401161
83333.3296158246
83333.3295977933
83333.3295856782
83333.3295787579
83333.3295760637
83333.3295764137
83333.3295785087
83333.3295812186
83333.3295838549
83333.3295859786
83333.3295873242
83333.329587775
83333.3295877178
83333.3295878061
83333.3295897338
83333.3296679059
83333.3296673067
83333.3296664137
83333.3296650207
83333.3296630176
83333.3296605035
83333.3296578399
83333.3296560898
83333.3296550475
83333.3277752437
83333.327886875
83333.3275942082
83333.3278073409
83333.3279172468
83333.3273054889
83333.3276896242
83333.3278910559
83333.3279917637
83333.3270112393
83333.3275037569
83333.3278310627
83333.3280103007
83333.328094463
83333.3268493054
83333.3273353869
83333.3277265978
83333.327993953
83333.3281427522
83333.3282180431
83333.3269134324
83333.3272852986
83333.3276523295
83333.3279539591
83333.3281615144
83333.3282820152
83333.328352009
83333.3271698897
83333.3273921835
83333.3276688711
83333.3279431478
83333.3281681649
83333.3283252504
83333.3284221626
83333.3284876892
83333.3274990442
83333.327607568
83333.3277838941
83333.3279939439
83333.3281964765
83333.3283618161
83333.3284800666
83333.3285591261
83333.3286197081
83333.3278234196
83333.3278655529
83333.327963732
83333.3281057621
83333.3282646386
83333.3284132029
83333.3285343579
83333.3286242584
83333.3286897748
83333.328744518
83333.3281251327
83333.328126591
83333.3281725907
83333.3282588684
83333.3283713909
83333.3284904046
83333.3285990955
83333.3286884991
83333.3287576502
83333.3288125816
83333.3288610438
83333.3283987294
83333.3283759805
83333.3283874068
83333.3284329577
83333.3285055422
83333.3285927203
83333.3286810598
83333.3287607842
83333.3288273235
83333.3288810343
83333.3289270365
83333.328968813
83333.3286435933
83333.3286072527
83333.3285966019
83333.3286135742
83333.328655092
83333.3287136754
83333.328779838
83333.3288450561
83333.3289036443
83333.3289533205
83333.3289950675
83333.3290328634
83333.3290677561
83333.32886212
83333.3288187033
83333.3287944961
83333.3287921103
83333.3288106983
83333.3288459695
83333.3288915773
83333.3289409677
83333.3289887625
83333.329031605
83333.3290683988
83333.3291003437
83333.3291305173
83333.3291585968
83333.3290574634
83333.32901109
83333.3289789559
83333.3289638552
83333.3289660996
83333.3289833783
83333.3290115904
83333.3290460067
83333.329082183
83333.3291166657
83333.3291474451
83333.3291740551
83333.329197714
83333.329220812
83333.3292422206
83333.329232846
83333.3291859872
83333.3291496627
83333.3291265093
83333.3291174293
83333.3291213161
83333.3291355917
83333.329156972
83333.329182045
83333.3292077628
83333.3292318814
83333.3292531767
83333.329271574
83333.3292880961
83333.3293046836
83333.3293208212
83333.3293911436
83333.3293452416
83333.3293071315
83333.3292791543
83333.3292624454
83333.3292566339
83333.3292601563
83333.3292707863
83333.3292860007
83333.329303339
83333.3293206998
83333.3293366117
83333.3293503533
83333.3293619799
83333.329372193
83333.3293829284
83333.3293919189
83333.3295348759
83333.3294907172
83333.3294523298
83333.3294217043
83333.3294000136
83333.3293873222
83333.3293827539
83333.3293848476
83333.3293917786
83333.3294015798
83333.329412508
83333.3294231251
83333.3294324641
83333.3294401009
83333.3294460337
83333.3294507609
83333.3294553576
83333.3294594363
83333.3296662136
83333.3296241323
83333.3295863313
83333.3295544565
83333.3295296245
83333.3295121405
83333.3295015798
83333.3294970314
83333.3294972441
83333.3295007179
83333.329505889
83333.3295114911
83333.3295166058
83333.3295206178
83333.329523218
83333.3295243388
83333.3295244404
83333.3295244134
83333.3295262281
83333.3297868153
83333.3297467857
83333.3297099256
83333.3296776239
83333.3296509036
83333.3296301737
83333.3296152759
83333.3296056619
83333.3296004898
83333.3295987047
83333.3295991034
83333.3296004413
83333.3296016924
83333.3296022952
83333.3296019082
83333.3296002919
83333.3295974951
83333.3295940678
83333.3295917474
83333.3295911863
83333.3296864548
83333.3296841332
83333.3296810263
83333.3296769646
83333.3296719115
83333.3296662532
83333.329660884
83333.3296577742
83333.3275660698
83333.3277879006
83333.3279126885
83333.3272027289
83333.3276124256
83333.3278352853
83333.3279585107
83333.3267253476
83333.3273327362
83333.3277239029
83333.3279346064
83333.328046544
83333.3263920955
83333.3270480269
83333.3275500867
83333.3278826439
83333.3280635384
83333.3281581929
83333.3263579638
83333.3268968467
83333.3273995668
83333.3277937955
83333.328055771
83333.3282030502
83333.3282864351
83333.3266446186
83333.3269687833
83333.3273618716
83333.3277352766
83333.3280292229