/*--------------------------------*- C++ -*----------------------------------*\
  =========                 |
  \\      /  F ield         | OpenFOAM: The Open Source CFD Toolbox
   \\    /   O peration     | Website:  https://openfoam.org
    \\  /    A nd           | Version:  12
     \\/     M anipulation  |
\*---------------------------------------------------------------------------*/
/*   Windows 32 and 64 bit porting by blueCAPE: http://www.bluecape.com.pt   *\
|  Based on Windows porting (2.0.x v4) by Symscape: http://www.symscape.com   |
\*---------------------------------------------------------------------------*/
FoamFile
{
    format      ascii;
    class       surfaceScalarField;
    location    "100";
    object      phi;
}
// * * * * * * * * * * * * * * * * * * * * * * * * * * * * * * * * * * * * * //

dimensions      [0 3 -1 0 0 0 0];

internalField   nonuniform List<scalar> 
28893
(
1.66595222245686e-05
-2.91215164697604e-07
-4.74400712154395e-07
1.75042237028822e-05
-3.04075532126764e-07
-5.40627761712116e-07
6.14622865488792e-06
-4.32157255039785e-07
-2.44330256030251e-07
1.98236477981031e-05
-3.27920579429299e-07
-1.00820378724478e-06
1.8422052635593e-05
-3.06113157481777e-07
-6.11716029005083e-07
6.56543387485056e-06
-4.47478542704199e-07
-2.75803075612262e-07
2.07887333021266e-05
-3.4773850574107e-07
-1.15797815436286e-06
5.1871591855611e-06
-5.73025440181685e-07
-2.12745370110805e-07
7.46489862916205e-06
-4.86399922215071e-07
-5.14668515844363e-07
2.19981275652952e-05
-3.7126346262826e-07
-1.56710418794647e-06
1.94200445579726e-05
-2.92773450406818e-07
-7.05216405175669e-07
7.01635514368962e-06
-4.48019923993946e-07
-3.09013791056318e-07
2.18560887301795e-05
-3.49100207951994e-07
-1.32996754371313e-06
5.57034344543772e-06
-5.89025710715313e-07
-2.41637655897605e-07
7.9290556279202e-06
-5.02364439221742e-07
-5.85334742701607e-07
2.30466721465402e-05
-3.96647039682208e-07
-1.8098839065505e-06
5.10381173970629e-06
-7.25584896708772e-07
-1.94072983004353e-07
6.15043375543446e-06
-6.50949822309275e-07
-4.44549992479926e-07
8.43707804943458e-06
-5.58955090676209e-07
-7.96606995773822e-07
2.42969009707984e-05
-4.21424113779601e-07
-2.15074994659401e-06
2.05007405885405e-05
-2.5885265540177e-07
-8.21844434143395e-07
7.49919735388385e-06
-4.26790738385572e-07
-3.48824955027581e-07
2.30226025293582e-05
-3.30776681378531e-07
-1.54094970484225e-06
5.98223969287056e-06
-5.89055489531739e-07
-2.708610137447e-07
8.4332113994922e-06
-4.98346651068508e-07
-6.63922069974313e-07
2.42078963605573e-05
-3.97867129989529e-07
-2.09333038336679e-06
5.48178123250477e-06
-7.46340692722552e-07
-2.20654921946372e-07
6.57890645393258e-06
-6.66318584240818e-07
-5.06156630723474e-07
8.94668118586002e-06
-5.79643240237413e-07
-9.11942332703519e-07
2.54290429698978e-05
-4.52573923760185e-07
-2.48945433477448e-06
5.18304325586793e-06
-8.88995257832176e-07
-1.80324537960551e-07
5.93507500716083e-06
-8.27090258213454e-07
-4.05924550874122e-07
7.01975721064673e-06
-7.56245926094077e-07
-6.88506173611818e-07
9.27930561026678e-06
-6.3229348073824e-07
-1.0837574041831e-06
2.57430830534109e-05
-4.69507499699027e-07
-2.71087574675682e-06
2.16596372946993e-05
-1.98128392859263e-07
-9.6076887465571e-07
8.01195789728505e-06
-3.78447983489912e-07
-3.93165668530654e-07
2.4286927448352e-05
-2.92031473441288e-07
-1.79413555246166e-06
6.42388870531108e-06
-5.65393355340545e-07
-3.03046500091014e-07
8.97689227846161e-06
-4.68808653887631e-07
-7.54473084326305e-07
2.54733047946231e-05
-3.75983228632611e-07
-2.43037459826377e-06
5.89067833581838e-06
-7.50497859535569e-07
-2.47454818008707e-07
7.04264436076161e-06
-6.61664619962845e-07
-5.71281022812551e-07
9.49940224127255e-06
-5.74348541294293e-07
-1.04016313508303e-06
2.66766400121045e-05
-4.52795005039538e-07
-2.88813312900945e-06
5.5605565183629e-06
-9.18810806685701e-07
-2.05043473568625e-07
6.35744606692087e-06
-8.47454522945293e-07
-4.61890734959259e-07
7.49467013233848e-06
-7.7516450982606e-07
-7.85548599275929e-07
9.81977266204128e-06
-6.59569781710987e-07
-1.24541705209213e-06
2.69005614434679e-05
-5.08724658056278e-07
-3.13821730287606e-06
5.2838350784656e-06
-1.0591087671133e-06
-1.70131262320133e-07
5.90559977624847e-06
-1.01216567636407e-06
-3.76155209990913e-07
6.75621322529238e-06
-9.632596118742e-07
-6.32664073052513e-07
7.63945639539915e-06
-8.54137128379509e-07
-9.35532310104971e-07
9.61234901372388e-06
-6.89028145398159e-07
-1.36037524833492e-06
2.60643192550736e-05
-5.02807962176239e-07
-3.1986524159234e-06
2.28843964864622e-05
-1.01140917107421e-07
-1.12362192881804e-06
8.54880163558523e-06
-2.94256757943376e-07
-4.40715055924827e-07
2.5643134289106e-05
-2.23457848920194e-07
-2.09351839726606e-06
6.89371304116601e-06
-5.10792894279372e-07
-3.3747930936289e-07
9.5552577544914e-06
-4.0875322681783e-07
-8.54809477269044e-07
2.68404339310445e-05
-3.32284716039393e-07
-2.82898102044439e-06
6.3317278297433e-06
-7.30393201007966e-07
-2.76049601180428e-07
7.54223467227071e-06
-6.29106569655055e-07
-6.42339255787137e-07
1.00936391776634e-05
-5.39440531193539e-07
-1.18525289117976e-06
2.8029850075136e-05
-4.27611147813352e-07
-3.35597241398155e-06
5.97209753294155e-06
-9.32338255117788e-07
-2.29700767638781e-07
6.81595077172045e-06
-8.47381421145746e-07
-5.20243368968955e-07
8.00959264911336e-06
-7.70118250241814e-07
-8.90434283185608e-07
1.04107137905538e-05
-6.56717817519451e-07
-1.42718295459648e-06
2.81686475963555e-05
-5.12990282215436e-07
-3.64323002215089e-06
5.65955267860205e-06
-1.10183451040239e-06
-1.92694174775337e-07
6.32388559523998e-06
-1.04363699860282e-06
-4.27147690203901e-07
7.22686007200283e-06
-9.87607527269064e-07
-7.20095732404976e-07
8.14110686298743e-06
-8.77610788024518e-07
-1.06915915150661e-06
1.01478602490853e-05
-7.2439897682671e-07
-1.56525464958385e-06
2.71733305943377e-05
-5.46983107410647e-07
-3.70024887767764e-06
5.37359343006955e-06
-1.23139890675884e-06
-1.62893250837067e-07
5.94334928949359e-06
-1.2019081747086e-06
-3.55628987716593e-07
6.6561576887523e-06
-1.17424385920627e-06
-5.88395074162691e-07
7.28732542736242e-06
-1.08097534387894e-06
-8.65410641563304e-07
7.73645516321709e-06
-9.16685805802947e-07
-1.17147216890734e-06
9.4562242353873e-06
-7.20058678510766e-07
-1.60917509396133e-06
2.55253973574132e-05
-5.16456936366422e-07
-3.58616483495218e-06
2.41558671954135e-05
4.48643813708926e-08
-1.31633772588319e-06
9.10021578010576e-06
-1.61644975741392e-07
-4.90913012054286e-07
2.70795005491242e-05
-1.13373841945632e-07
-2.44662492159397e-06
7.38774939974556e-06
-4.14964704593197e-07
-3.73328465613768e-07
1.01618762482665e-05
-3.06908051102969e-07
-9.6388493341598e-07
2.83014372014551e-05
-2.56492301867075e-07
-3.2980333476254e-06
6.80494461404496e-06
-6.77610251148601e-07
-3.0639960134129e-07
8.07477621473198e-06
-5.60276437318051e-07
-7.18497640789417e-07
1.07248742084064e-05
-4.71241750883982e-07
-1.34708788065926e-06
2.94844638809878e-05
-3.80721762092934e-07
-3.90287532861865e-06
6.41965730786731e-06
-9.22004547941211e-07
-2.55948550499937e-07
7.31202301847541e-06
-8.18794872398978e-07
-5.82433563971515e-07
8.56521401955975e-06
-7.33054343970629e-07
-1.00434773642628e-06
1.10465707844753e-05
-6.19707030484059e-07
-1.62901466281979e-06
2.9533213691352e-05
-4.88630456852759e-07
-4.2319112531865e-06
6.07242954415174e-06
-1.12909445009643e-06
-2.16120872630946e-07
6.7804956547743e-06
-1.05335467370067e-06
-4.80337857779522e-07
7.73775912377888e-06
-9.88223339462428e-07
-8.13038343992148e-07
8.68355482135092e-06
-8.75073038352213e-07
-1.21452788382482e-06
1.07313138705982e-05
-7.27709812492411e-07
-1.79591979340399e-06
2.83782060905543e-05
-5.55989814855428e-07
-4.29211909980094e-06
5.74568473733213e-06
-1.28961582239882e-06
-1.84310171464298e-07
6.35685130708247e-06
-1.24688816659213e-06
-4.02945672110856e-07
7.11954428385629e-06
-1.21082443938283e-06
-6.67318552803324e-07
7.78433904530274e-06
-1.11031406744995e-06
-9.84407406638731e-07
8.22983485741734e-06
-9.48115619591387e-07
-1.33882417898975e-06
9.95670156990412e-06
-7.62274652021948e-07
-1.85044174250553e-06
2.65312734510101e-05
-5.63931444259501e-07
-4.14219914452037e-06
5.45237004999333e-06
-1.40249455459201e-06
-1.57835326039096e-07
6.01300863776661e-06
-1.39203820137021e-06
-3.42338915025302e-07
6.65035717437288e-06
-1.38634879165644e-06
-5.58423990290837e-07
7.11653290596161e-06
-1.30751340023682e-06
-8.08226328016583e-07
7.29613847983019e-06
-1.14736965125757e-06
-1.08743166228754e-06
7.40785935462608e-06
-9.42636712928538e-07
-1.38160772338535e-06
8.99119854687957e-06
-7.2970400735684e-07
-1.81451615104665e-06
2.45095907488161e-05
-5.1892961716745e-07
-3.85822447729225e-06
2.54421980152533e-05
2.62764554169271e-07
-1.54910155411097e-06
9.65324540627137e-06
3.64787194383756e-08
-5.44649541926323e-07
2.8573741264206e-05
5.50155326271688e-08
-2.86560835004426e-06
7.9000955149055e-06
-2.63537468927569e-07
-4.10454271569657e-07
1.07875647827756e-05
-1.48071040088974e-07
-1.08190923994621e-06
2.98405191638086e-05
-1.33986735173789e-07
-3.85173001664398e-06
7.3094239813481e-06
-5.81131005708697e-07
-3.38313153405198e-07
8.63600141231018e-06
-4.42788609696602e-07
-7.98672799424273e-07
1.13853998913929e-05
-3.57021225830355e-07
-1.52388398215585e-06
3.10287159690888e-05
-2.99593911470217e-07
-4.54269419663401e-06
6.90504595206255e-06
-8.79123365496036e-07
-2.83875747671091e-07
7.84543638792074e-06
-7.51657006796762e-07
-6.48432324919088e-07
9.15719813267762e-06
-6.55006609330195e-07
-1.1267175098015e-06
1.17151775678456e-05
-5.45665358246497e-07
-1.85075122308483e-06
3.09851006242761e-05
-4.40593661304772e-07
-4.91417157719799e-06
6.52518158712435e-06
-1.13408653233951e-06
-2.40670102633547e-07
7.27837506707853e-06
-1.03606577607787e-06
-5.36557129154384e-07
8.29058977005531e-06
-9.56247995751132e-07
-9.12071276296726e-07
9.26821085572966e-06
-8.37149708706951e-07
-1.37156142248052e-06
1.13599722237432e-05
-6.95806043323491e-07
-2.05049689645884e-06
2.9659765273133e-05
-5.359510040609e-07
-4.97752310852064e-06
6.15706336044849e-06
-1.33425616310807e-06
-2.06216967145036e-07
6.81258902059976e-06
-1.27313272795315e-06
-4.52080970275949e-07
7.62512284913886e-06
-1.22280189818827e-06
-7.51338593987486e-07
8.32227793342225e-06
-1.11414333919261e-06
-1.11190809373228e-06
8.76088140224445e-06
-9.51992450922262e-07
-1.52129319400369e-06
1.04992911642439e-05
-7.73153266040654e-07
-2.12134681146683e-06
2.76127768871414e-05
-5.7783876715008e-07
-4.7957850223352e-06
5.81904809653772e-06
-1.47792332828189e-06
-1.7837060198943e-07
6.42292899958968e-06
-1.45427406887864e-06
-3.86844989664462e-07
7.10639171846312e-06
-1.43797161908125e-06
-6.31833972342695e-07
7.60313555849342e-06
-1.34867365110451e-06
-9.15562994252547e-07
7.78326630025243e-06
-1.18379476475925e-06
-1.23585805225274e-06
7.86524771517054e-06
-9.80868250044156e-07
-1.57762168632199e-06
9.4383466089461e-06
-7.78179190309742e-07
-2.08334622341785e-06
2.53837949951293e-05
-5.71531067213793e-07
-4.44487815566956e-06
5.52317714090481e-06
-1.53989177791577e-07
6.09384512621251e-06
-1.57994151006509e-06
-3.33389742253062e-07
6.71391471056543e-06
-1.59720953109762e-06
-5.39880511795453e-07
7.07517870233243e-06
-1.53214847751851e-06
-7.69758796966486e-07
7.0811912350383e-06
-1.37437814952261e-06
-1.01930832938671e-06
6.90880714985622e-06
-1.16622141616473e-06
-1.28511928238382e-06
6.84835938303798e-06
-9.44792243823289e-07
-1.55467644595008e-06
8.37265363097304e-06
-7.29042692326318e-07
-1.96748620786624e-06
2.32774875103376e-05
-5.17528417902173e-07
-4.00475985194171e-06
2.66922683124632e-05
5.79857375657167e-07
-1.82994021218214e-06
1.01942577300685e-05
3.23865247894698e-07
-6.02123170442408e-07
3.00841426794024e-05
3.08695542751404e-07
-3.36823436588998e-06
8.42366289832139e-06
-3.80749172272901e-08
-4.49014591873455e-07
1.14201940328074e-05
8.85965069171251e-08
-1.21086680294347e-06
3.14269865523841e-05
5.59940177252773e-08
-4.50808635031626e-06
7.84283649843214e-06
-4.26322943754006e-07
-3.70627133445922e-07
9.22052663689758e-06
-2.60361298489102e-07
-8.82689553829979e-07
1.2064683493062e-05
-1.78830741953354e-07
-1.71635295843667e-06
3.2640341011855e-05
-1.6866951478893e-07
-5.29469635265885e-06
7.43015925804916e-06
-7.92744535724691e-07
-3.13499919713838e-07
8.41512183766956e-06
-6.32908387119815e-07
-7.17879191820478e-07
9.78009712194318e-06
-5.21989522555124e-07
-1.25660499512808e-06
1.24082609621956e-05
-4.22512493239333e-07
-2.09405272918529e-06
3.25057344946193e-05
-3.57479879234005e-07
-5.70585345650466e-06
7.02129818770519e-06
-1.10841559062823e-06
-2.66824414145092e-07
7.81945301899728e-06
-9.80424865162402e-07
-5.96186323641823e-07
8.88471030529559e-06
-8.80464654181631e-07
-1.01709524002948e-06
9.89016735899503e-06
-7.5466311738734e-07
-1.53967682398779e-06
1.20238396115566e-05
-6.26392402540666e-07
-2.32882105211848e-06
3.10045913974617e-05
-4.93838963793765e-07
-5.76516038012665e-06
6.61153349231135e-06
-1.35913810772566e-06
-2.29418522369528e-07
7.31322562593282e-06
-1.27329343162018e-06
-5.04079463532781e-07
8.17607828374668e-06
-1.20375206846157e-06
-8.40009031486175e-07
8.9031506473202e-06
-1.08234344486666e-06
-1.24775097877742e-06
9.33105514616078e-06
-9.20163459306591e-07
-1.71737948788195e-06
1.10807996217253e-05
-7.50165456757364e-07
-2.41779125728585e-06
2.87474198563109e-05
-5.66998886161735e-07
-5.5451632564919e-06
6.22633994703021e-06
-1.54233451637799e-06
-1.99213541966334e-07
6.87685790577539e-06
-1.50009672328231e-06
-4.3318183763852e-07
7.60851403568309e-06
-1.46799912870863e-06
-7.0900640424024e-07
8.13314565216196e-06
-1.36540228515874e-06
-1.03009097957507e-06
8.30797753946663e-06
-1.19333686222367e-06
-1.39527663589279e-06
8.35477966571447e-06
-9.93272315699656e-07
-1.79070715640347e-06
9.92074853450962e-06
-7.97567305266547e-07
-2.38402104055897e-06
2.63115329609925e-05
-5.91720308473168e-07
-5.13179926879757e-06
5.88237466158683e-06
-1.66315865105345e-06
-1.73962188052455e-07
6.498602889796e-06
-1.66144448802037e-06
-3.75958072332703e-07
7.16579176278453e-06
-1.66778695559392e-06
-6.08907227927361e-07
7.55339740788857e-06
-1.58965364194082e-06
-8.69073912911044e-07
7.55641478968375e-06
-1.42127945571065e-06
-1.1533040982316e-06
7.3591574137673e-06
-1.20828726651128e-06
-1.45879209829672e-06
7.25521302546337e-06
-9.89709383958484e-07
-1.77294847043432e-06
8.75744797875937e-06
-7.84801368248071e-07
-2.25486996344956e-06
2.40070475150354e-05
-5.75335355685833e-07
-4.59911229610153e-06
6.17242019479504e-06
-3.26344919630396e-07
6.80873321734626e-06
-1.8052437753087e-06
-5.27506198350228e-07
7.1365489704716e-06
-1.75491411633058e-06
-7.46421621720113e-07
7.02685765009732e-06
-1.59828158042114e-06
-9.7317083585088e-07
6.67977573450636e-06
-1.38481598267987e-06
-1.20757265213978e-06
6.32155858654687e-06
-1.15864175597703e-06
-1.44898956062918e-06
6.18559324649375e-06
-9.37462678775421e-07
-1.68480987638107e-06
7.69026633635961e-06
-7.24822429548779e-07
-2.06391802467643e-06
2.19844254872935e-05
-5.16398436320286e-07
-4.02465975073744e-06
2.78289605916983e-05
1.03526568675168e-06
-2.17197561869862e-06
1.07055420784842e-05
7.3167604254879e-07
-6.63119512954323e-07
3.15485149874663e-05
6.77345061334698e-07
-3.97171173967412e-06
8.95078887047721e-06
2.86012288102168e-07
-4.89274592091684e-07
1.20477050423827e-05
4.3150362368676e-07
-1.35245390738585e-06
3.3006485252088e-05
3.3980936722481e-07
-5.28756343902011e-06
8.40295346407158e-06
-1.94748427012928e-07
-4.03443957006348e-07
9.82232443624838e-06
9.1889703118254e-09
-9.71407056840482e-07
1.27499215259698e-05
8.76499054232405e-08
-1.92776772308894e-06
3.42789634857265e-05
3.56490341203941e-08
-6.18237449524136e-06
7.99612318281247e-06
-6.49027715206695e-07
-3.43259490867591e-07
9.02045702717669e-06
-4.45577244640404e-07
-7.90747583612254e-07
1.04277275796631e-05
-3.15159907207238e-07
-1.3939921997665e-06
1.31168252894761e-05
-2.31699722699624e-07
-2.36189422830242e-06
3.40648812347148e-05
-2.24999290755386e-07
-6.62885518964516e-06
7.56496334572002e-06
-1.04158062594078e-06
-2.94829192314765e-07
8.40586281123516e-06
-8.73400528727387e-07
-6.5941829874303e-07
9.51890609737981e-06
-7.46072705042008e-07
-1.12799237169098e-06
1.05427139657581e-05
-6.13063854830686e-07
-1.7186010306316e-06
1.2711531235484e-05
-5.06936384689667e-07
-2.63228794705018e-06
3.23877875341553e-05
-4.17617513311974e-07
-6.671435460014e-06
7.11408900808669e-06
-1.35668361875811e-06
-2.5428750154187e-07
7.86298806123581e-06
-1.23754933773338e-06
-5.59462505232475e-07
8.77437710944279e-06
-1.14117170733405e-06
-9.33778820142436e-07
9.5260312811408e-06
-1.00323291074344e-06
-1.39140739508884e-06
9.93455984763744e-06
-8.43630400630616e-07
-1.92594489265032e-06
1.16902809494558e-05
-6.92100985925718e-07
-2.7400414822477e-06
2.99155702837095e-05
-5.33507476770957e-07
-6.39980322360795e-06
6.67883247787376e-06
-1.59030079282687e-06
-2.21329811616023e-07
7.37920892178973e-06
-1.52271131790904e-06
-4.82351697775963e-07
8.15953938085423e-06
-1.46837016472659e-06
-7.90487166016636e-07
8.70908742719681e-06
-1.34719401955227e-06
-1.15110135867105e-06
8.87222851159008e-06
-1.16794667384806e-06
-1.56422025499415e-06
8.87735602343925e-06
-9.71817375788146e-07
-2.01830535787716e-06
1.04337496932692e-05
-7.85927015449182e-07
-2.7118638980941e-06
2.72677925014339e-05
-5.87548475366573e-07
-5.91387423527412e-06
6.28290731047601e-06
-1.74875996457851e-06
-1.94107198198412e-07
6.94899155534205e-06
-1.72942773231112e-06
-4.20271156216316e-07
7.66548166128844e-06
-1.71923707063787e-06
-6.81634120245991e-07
8.07826660280248e-06
-1.62497019103867e-06
-9.7430874212902e-07
8.07213188776042e-06
-1.44343395095107e-06
-1.29571255687525e-06
7.84170796231102e-06
-1.22656878342026e-06
-1.6445333344544e-06
7.68760124140385e-06
-1.01132182899893e-06
-2.0093432125331e-06
9.17028918135545e-06
-8.13124550027481e-07
-2.57545726888408e-06
2.47694191874301e-05
-6.00999845250957e-07
-5.29316935992511e-06
5.93078958287881e-06
-1.84305649711954e-06
-1.70038269035087e-07
6.56946553675791e-06
-1.86491262517405e-06
-3.67539443974622e-07
7.25544590711567e-06
-1.89698822980949e-06
-5.93469622141411e-07
7.6104486201127e-06
-1.83218004932045e-06
-8.40281286797701e-07
7.49400653020224e-06
-1.66061514737155e-06
-1.09688850600499e-06
7.11911875041113e-06
-1.43680501509149e-06
-1.36413177299539e-06
6.72237888016482e-06
-1.20688724280629e-06
-1.64243766017397e-06
6.53565392129764e-06
-9.89378268739834e-07
-1.91843488585648e-06
8.00898975192966e-06
-7.87484448863986e-07
-2.36144417715552e-06
2.25695874409996e-05
-5.78747327945847e-07
-4.60552999852614e-06
6.90631813075463e-06
-5.17416121298358e-07
7.24380212129527e-06
-1.97493457908129e-06
-7.30593773389838e-07
7.09381576283333e-06
-1.82048815792602e-06
-9.45271275518497e-07
6.62919466897589e-06
-1.59997575771691e-06
-1.15498495246339e-06
6.09868326915149e-06
-1.36621669797395e-06
-1.3648383077101e-06
5.64863015050467e-06
-1.14081315356964e-06
-1.57485292105469e-06
5.47184513603834e-06
-9.26504746278407e-07
-1.76990098875007e-06
6.99765545102814e-06
-7.20316461164331e-07
-2.10389569598737e-06
2.06895108047774e-05
-5.15378885070116e-07
-3.91857639034066e-06
2.87417021479767e-05
1.67739129170442e-06
-2.59016170657853e-06
1.11659386305302e-05
1.30162262171188e-06
-7.26777944895204e-07
3.28718405705325e-05
1.20617596515719e-06
-4.70155623560003e-06
9.47236131415576e-06
7.41333733445171e-07
-5.31232876384835e-07
1.26540343750822e-05
9.16782737481457e-07
-1.50890746866823e-06
3.45020397402336e-05
7.52089614770294e-07
-6.21939564102989e-06
8.98843996720073e-06
1.38751578134681e-07
-4.38226674103909e-07
1.04348819444581e-05
3.95468084764385e-07
-1.06580040902054e-06
1.34272844121168e-05
4.72052076138391e-07
-2.1620728074716e-06
3.58753284945637e-05
3.43926120643627e-07
-7.22787813437391e-06
8.60630699023983e-06
-4.29293384585927e-07
-3.75639445581949e-07
9.66137087182418e-06
-1.66869759917159e-07
-8.68300758787892e-07
1.10937142349109e-05
-9.40907658514948e-09
-1.54033743488101e-06
1.38279378606165e-05
5.31889098257391e-08
-2.65642897595192e-06
3.561346389579e-05
-2.22290115308774e-08
-7.70873925980948e-06
8.16172618639965e-06
-9.20241576971132e-07
-3.25549128415697e-07
9.04170889597579e-06
-6.97907585423616e-07
-7.2677620854937e-07
1.01922940031829e-05
-5.33867050242734e-07
-1.24542905828092e-06
1.12182198619683e-05
-3.92508549457414e-07
-1.9086903850792e-06
1.34083142390924e-05
-3.2014314849557e-07
-2.96353893855118e-06
3.37694125440284e-05
-2.94613712338573e-07
-7.7158756017329e-06
7.67110862031151e-06
-1.3173908582364e-06
-2.8120941504982e-07
8.46723719658865e-06
-1.1536053596312e-06
-6.18873581928473e-07
9.42252775541928e-06
-1.02042355113648e-06
-1.03321890170379e-06
1.01891225330487e-05
-8.61205282207601e-07
-1.54294403178206e-06
1.05639688135596e-05
-7.08241413816044e-07
-2.14670675979869e-06
1.23162825230254e-05
-5.86531255955914e-07
-3.08937827626987e-06
3.10854784813183e-05
-4.67464308246426e-07
-7.37388074001486e-06
7.18270464886183e-06
-1.61534412313624e-06
-2.45211635776033e-07
7.93578989881437e-06
-1.51344873760873e-06
-5.3496905209157e-07
8.76394351195532e-06
-1.42797935361172e-06
-8.77059416697031e-07
9.33292728775362e-06
-1.28233474876282e-06
-1.27851801592015e-06
9.47436737410353e-06
-1.09543041511284e-06
-1.74174824348468e-06
9.4264544656848e-06
-9.08425741951742e-07
-2.25871990683788e-06
1.09670332604843e-05
-7.41380379989415e-07
-3.06545076275364e-06
2.82283262419178e-05
-5.62390616064191e-07
-6.79794500164926e-06
6.72954611086889e-06
-1.82167627313206e-06
-2.15263190159339e-07
7.45017036574151e-06
-1.77788534936136e-06
-4.6733450989637e-07
8.21785140240049e-06
-1.74410714174983e-06
-7.58984605569536e-07
8.65241302732248e-06
-1.6261088285596e-06
-1.08571939891085e-06
8.62995499280764e-06
-1.43117434369842e-06
-1.44569860433325e-06
8.35732863452976e-06
-1.21135265320444e-06
-1.84030838811074e-06
8.14571919164305e-06
-1.0020070587438e-06
-2.26034378950134e-06
9.60645363220737e-06
-8.12475308982455e-07
-2.92310265868648e-06
2.55364908681646e-05
-6.03124478347872e-07
-6.07781559017224e-06
6.32125940866981e-06
-1.94958102316219e-06
-1.89648678436337e-07
7.01280834842322e-06
-1.95661853348909e-06
-4.10259134573057e-07
7.75192955488955e-06
-1.97270030895201e-06
-6.63291505792987e-07
8.13243239383511e-06
-1.88853314411073e-06
-9.4005535456721e-07
8.00404133331228e-06
-1.69973472198445e-06
-1.22804378879898e-06
7.59302670856325e-06
-1.46610071970192e-06
-1.53009082876666e-06
7.14871981054061e-06
-1.233815807618e-06
-1.84838294698415e-06
6.90433057138977e-06
-1.02054950600194e-06
-2.17059704421977e-06
8.34903912848766e-06
-8.24537386047297e-07
-2.69196893612934e-06
2.3169389719904e-05
-6.09987223209425e-07
-5.28298239060873e-06
5.95364716105216e-06
-2.01470012633136e-06
-1.65896828165086e-07
6.62266626109452e-06
-2.0630209360939e-06
-3.59587995701062e-07
7.34491895035611e-06
-2.12213597371842e-06
-5.80992755814295e-07
7.71260687697543e-06
-2.07418488109948e-06
-8.20269844643326e-07
7.55691318512711e-06
-1.90175822281783e-06
-1.06223663229809e-06
7.06124677169035e-06
-1.66605082138643e-06
-1.29969644599473e-06
6.49026985187577e-06
-1.42321916741415e-06
-1.53938927964793e-06
5.99473167248676e-06
-1.1954868100184e-06
-1.78243360221128e-06
5.76465071629651e-06
-9.85962622325521e-07
-2.0127639649458e-06
7.25059011895288e-06
-7.90045648857113e-07
-2.40308159396058e-06
2.11341968722994e-05
-5.81576155298895e-07
-4.46864484814351e-06
7.35686647492165e-06
-7.17220159060203e-07
7.2124342241826e-06
-2.04025243633402e-06
-9.26112071412588e-07
6.70473740435484e-06
-1.81344758803211e-06
-1.12326248130905e-06
6.06024380445322e-06
-1.56962039110869e-06
-1.3078434081849e-06
5.4414114009923e-06
-1.33644189582783e-06
-1.48768200455955e-06
4.93758086386939e-06
-1.11862445807754e-06
-1.66139496182506e-06
4.74342439448778e-06
-9.13026996503132e-07
-1.80993738817849e-06
6.33266024457217e-06
-7.15150526102753e-07
-2.08936131338818e-06
1.94196939749474e-05
-5.15388465654374e-07
-3.68888201914391e-06
2.9273390190084e-05
2.5703487441722e-06
-3.10207377755899e-06
1.15497309014995e-05
2.08757989084404e-06
-7.94012827167629e-07
3.39074537340223e-05
1.96029026107382e-06
-5.58617276188488e-06
9.97808387710079e-06
1.37124758929359e-06
-5.75351483551873e-07
1.32223587954316e-05
1.59469199140102e-06
-1.68364762909847e-06
3.5791584845475e-05
1.34685170788626e-06
-7.33801148995857e-06
9.59846875485415e-06
6.07407398840992e-07
-4.76104106664312e-07
1.10507516439187e-05
9.37277251487552e-07
-1.1676033173341e-06
1.40805222547995e-05
1.01374889978856e-06
-2.42382611107489e-06
3.73322618752993e-05
7.89642170315878e-07
-8.46601415299534e-06
9.26588982851934e-06
-1.08844882101511e-07
-4.11987076185996e-07
1.03386664235086e-05
2.32939591230049e-07
-9.52996376587829e-07
1.17707846416834e-05
4.27369155055714e-07
-1.69819183974794e-06
1.45273332846104e-05
4.63432878418158e-07
-2.98099052304285e-06
3.70717153079545e-05
2.7900241244932e-07
-8.96515995114152e-06
8.8199514923403e-06
-7.27129325717376e-07
-3.60389750618019e-07
9.73224361368742e-06
-4.32293461536941e-07
-8.00752005263349e-07
1.09048971421052e-05
-2.18686989123609e-07
-1.37162781191966e-06
1.19091886685468e-05
-6.6666612612795e-08
-2.11145360488969e-06
1.40973814185961e-05
-4.19306711364949e-08
-3.32580293595361e-06
3.50897087377031e-05
-1.0865250030423e-07
-8.92040220046464e-06
8.29133154875241e-06
-1.2293366510032e-06
-3.11128001882312e-07
9.13349941026007e-06
-1.00581338349346e-06
-6.83906291136926e-07
1.01245013761595e-05
-8.22725560818147e-07
-1.13989229637315e-06
1.08906701226987e-05
-6.36111048840396e-07
-1.70337622367289e-06
1.12105867430503e-05
-4.95385961328365e-07
-2.38006743377176e-06
1.29443701301306e-05
-4.18231161715865e-07
-3.46801328193802e-06
3.22104979718536e-05
-3.58396161347104e-07
-8.48250593177652e-06
7.74602776579316e-06
-1.6093520202922e-06
-2.71361914282279e-07
8.55438519707882e-06
-1.46135532178112e-06
-5.92054992286023e-07
9.42743370807277e-06
-1.33308607011127e-06
-9.69701797497701e-07
1.0006823379532e-05
-1.15526009269401e-06
-1.41306185526437e-06
1.01116621125438e-05
-9.60745944002857e-07
-1.92773657641103e-06
9.99416751375659e-06
-7.89983507601112e-07
-2.5109703324335e-06
1.15086698532126e-05
-6.53362633971467e-07
-3.4451163016131e-06
2.91567433151333e-05
-5.07899269103363e-07
-7.79439798816058e-06
7.22916446780712e-06
-1.87667587200997e-06
-2.38286530663735e-07
8.00923957171552e-06
-1.79971353960546e-06
-5.18015801843245e-07
8.82894206808776e-06
-1.73277952655879e-06
-8.4125996622776e-07
9.28053077809125e-06
-1.58444672715319e-06
-1.20306596157057e-06
9.23112256774385e-06
-1.37251659429796e-06
-1.60260131402789e-06
8.90357708141248e-06
-1.15212177745763e-06
-2.04430340788129e-06
8.6228938034584e-06
-9.54352890877486e-07
-2.52292351922695e-06
1.00552759072195e-05
-7.82090468512913e-07
-3.29457312351992e-06
2.62816766018629e-05
-5.87025670324359e-07
-6.95610186432834e-06
6.75746056279243e-06
-2.04782492998511e-06
-2.10052391524639e-07
7.50834430603812e-06
-2.03310328139968e-06
-4.55581001050297e-07
8.30363858190398e-06
-2.02570737831562e-06
-7.37443118173684e-07
8.70824229322589e-06
-1.91575815002189e-06
-1.04514550662839e-06
8.55981320325569e-06
-1.70669289866295e-06
-1.36597384813009e-06
8.10238090914115e-06
-1.4625999278625e-06
-1.70380756890646e-06
7.60072390761373e-06
-1.23046311436021e-06
-2.06385934693335e-06
7.29180154096477e-06
-1.02372867857843e-06
-2.43656294031522e-06
8.70566963756899e-06
-8.34778256994912e-07
-3.04807552068857e-06
2.37533033921462e-05
-6.18425949905541e-07
-6.04329607330288e-06
6.33024329178221e-06
-2.14124754918802e-06
-1.84929544711819e-07
7.0551873135665e-06
-2.17779856088406e-06
-4.00989595047164e-07
7.83405424818565e-06
-2.22385660709617e-06
-6.48238197579042e-07
8.23214088130197e-06
-2.15556885302973e-06
-9.15790035949778e-07
8.06518834533176e-06
-1.96176550143283e-06
-1.18630034799733e-06
7.53014615831477e-06
-1.71041413607659e-06
-1.45263115991724e-06
6.90956719966537e-06
-1.45968730131217e-06
-1.72351916320305e-06
6.359574174477e-06
-1.23156548900399e-06
-2.00221152981582e-06
6.06990304910257e-06
-1.02700259084385e-06
-2.27338630404625e-06
7.51850590272326e-06
-8.35845859497598e-07
-2.7340286435654e-06
2.15784361274138e-05
-6.19435467223309e-07
-5.10778754025778e-06
5.94222138374771e-06
-2.1745801534818e-06
-1.61230828456354e-07
6.64503185071265e-06
-2.25257577263685e-06
-3.50843692699421e-07
7.41322167177033e-06
-2.3419074824822e-06
-5.68791970065999e-07
7.81756812130193e-06
-2.31229953847926e-06
-8.03580138530756e-07
7.67103957168027e-06
-2.14276573331584e-06
-1.03786850885584e-06
7.13340576685691e-06
-1.89683558674851e-06
-1.26012118674965e-06
6.44578718661934e-06
-1.63912657022746e-06
-1.46933352553583e-06
5.78061252072e-06
-1.39870740684212e-06
-1.67537205374418e-06
5.22700407523814e-06
-1.18007393499766e-06
-1.87774856709331e-06
4.97615328738195e-06
-9.80140583868954e-07
-2.05540196207965e-06
6.52163751320458e-06
-7.92114347734572e-07
-2.38152587121401e-06
1.97254173909647e-05
-5.87987390609823e-07
-4.18638845909055e-06
7.33715013828338e-06
-9.09547606985627e-07
6.8324610335026e-06
-2.02445199609748e-06
-1.10137754891107e-06
6.14566822630563e-06
-1.7708503854782e-06
-1.27364716872855e-06
5.41956750021551e-06
-1.52695605045061e-06
-1.42877811619756e-06
4.74953426355459e-06
-1.30148454934307e-06
-1.57518707673695e-06
4.21520434459625e-06
-1.09339787399952e-06
-1.70906976872907e-06
4.03087097936299e-06
-8.97450098691554e-07
-1.80744950272149e-06
5.72804528970043e-06
-7.0994460674463e-07
-2.02395523145929e-06
1.81775745055111e-05
-5.12067925942554e-07
-3.34459290749006e-06
2.9193187407595e-05
3.78698611257822e-06
-3.70683131415751e-06
1.18308252025123e-05
3.15704767694311e-06
-8.67834517944501e-07
3.44197259345922e-05
3.02117643151904e-06
-6.63565677878904e-06
1.0456265915632e-05
2.23289186875613e-06
-6.23499897812184e-07
1.37346741637451e-05
2.53303260990998e-06
-1.87911186051747e-06
3.66927033079641e-05
2.18189991233914e-06
-8.66927136157825e-06
1.02331026411342e-05
1.25594681550226e-06
-5.19335885198978e-07