/*--------------------------------*- C++ -*----------------------------------*\
  =========                 |
  \\      /  F ield         | OpenFOAM: The Open Source CFD Toolbox
   \\    /   O peration     | Website:  https://openfoam.org
    \\  /    A nd           | Version:  12
     \\/     M anipulation  |
\*---------------------------------------------------------------------------*/
/*   Windows 32 and 64 bit porting by blueCAPE: http://www.bluecape.com.pt   *\
|  Based on Windows porting (2.0.x v4) by Symscape: http://www.symscape.com   |
\*---------------------------------------------------------------------------*/
FoamFile
{
    format      ascii;
    class       surfaceScalarField;
    location    "0";
    object      phi;
}
// * * * * * * * * * * * * * * * * * * * * * * * * * * * * * * * * * * * * * //

dimensions      [0 3 -1 0 0 0 0];

internalField   nonuniform List<scalar> 
28973
(
9.58532593364822e-06
-8.87066247954423e-09
-1.34647778472826e-07
9.73546949174651e-06
-1.15570906723386e-08
-1.3858599917925e-07
1.02856740570011e-05
-1.82186258781036e-08
-1.44507186302278e-07
9.68566742543108e-06
-1.12830606126042e-08
-2.6790834542687e-07
9.89323918643475e-06
-1.46238428596364e-08
-1.4314537048339e-07
1.04465980621372e-05
-2.36385890760733e-08
-1.48842028797904e-07
9.83692025089713e-06
-1.43281754718951e-08
-2.75510186541735e-07
1.13807429373344e-05
-2.75609318607888e-08
-1.60544552177311e-07
1.06880121728742e-05
-2.56472204832806e-08
-2.89478705883235e-07
9.93646089624155e-06
-1.17335621602707e-08
-4.03420918087682e-07
1.00597189051795e-05
-1.81603246027745e-08
-1.48318935693014e-07
1.06156557751089e-05
-2.98269015344199e-08
-1.53854165936608e-07
9.99588731483661e-06
-1.77981301133911e-08
-2.84313825269155e-07
1.15583497173894e-05
-3.58352050863254e-08
-1.65409692515456e-07
1.08547073626825e-05
-3.15920016334491e-08
-2.9827291826575e-07
1.0090621354612e-05
-1.4352850041729e-08
-4.15317335408923e-07
1.250377496632e-05
-3.69952173931624e-08
-1.76587542513026e-07
1.20748987515514e-05
-3.62241116894422e-08
-3.2961117648508e-07
1.11265089623577e-05
-2.44844405652575e-08
-4.41362233421794e-07
1.01782624307036e-05
-1.58393819114401e-08
-5.36675680123762e-07
1.02360959785972e-05
-2.22702691064859e-08
-1.54106359694094e-07
1.07940023764314e-05
-3.69680321163542e-08
-1.59538419536372e-07
1.01636587558203e-05
-2.17901672421605e-08
-2.94299748410128e-07
1.17448362483877e-05
-4.52918866481647e-08
-1.7102106459331e-07
1.10298631526626e-05
-3.83645860602138e-08
-3.08443012978218e-07
1.02527180690986e-05
-1.73360814892966e-08
-4.29073981764644e-07
1.26980893942212e-05
-4.81436806437648e-08
-1.82005508805466e-07
1.22627412749578e-05
-4.51145833457645e-08
-3.39729176311785e-07
1.1298833527773e-05
-3.0836058153974e-08
-4.54113809704079e-07
1.03344537818198e-05
-1.84623758558889e-08
-5.53045862740038e-07
1.33284142781031e-05
-4.63731764863928e-08
-1.87932158670152e-07
1.33262053547219e-05
-4.4004734341073e-08
-3.66398435579608e-07
1.27573531943236e-05
-3.73693074679695e-08
-5.05094430470871e-07
1.1356266223113e-05
-2.63164228901168e-08
-5.96965769140296e-07
1.02890604503558e-05
-1.76254540960319e-08
-6.67316760027645e-07
1.04236818869183e-05
-2.70734073776829e-08
-1.60512069189808e-07
1.09829030151309e-05
-4.52749204820791e-08
-1.65895535177027e-07
1.03414308075244e-05
-2.64147938033814e-08
-3.05463184845016e-07
1.19414623041738e-05
-5.62206123169832e-08
-1.77373006685478e-07
1.12146753731396e-05
-4.61580800301235e-08
-3.19982261019042e-07
1.04238563006036e-05
-2.07576013307031e-08
-4.44679921326536e-07
1.29019389359989e-05
-6.09095250244438e-08
-1.88231437703795e-07
1.24600161805444e-05
-5.52516182992106e-08
-3.51408459836952e-07
1.14799776336227e-05
-3.80407341258183e-08
-4.68881972104804e-07
1.04987924647232e-05
-2.14724927985236e-08
-5.71939682538004e-07
1.35342726651843e-05
-6.02327569035295e-08
-1.93768863328299e-07
1.35326377246458e-05
-5.58105029247073e-08
-3.77741526250619e-07
1.29543991927376e-05
-4.6673803683555e-08
-5.20936971208278e-07
1.1530222094089e-05
-3.15215477621323e-08
-6.15010045448198e-07
1.04444923204368e-05
-2.03023560697406e-08
-6.88174924807678e-07
1.37708549505808e-05
-5.51497729478847e-08
-1.93746020531114e-07
1.41350319756461e-05
-5.11935597130695e-08
-3.89274977668859e-07
1.41227966544893e-05
-4.61366940698189e-08
-5.65504444335215e-07
1.30195074973967e-05
-3.48657482786494e-08
-6.86302222598784e-07
1.13763909969936e-05
-2.75849334488628e-08
-7.50643692353785e-07
1.02544084188081e-05
-1.50140564382063e-08
-7.96969414132333e-07
1.06239246184746e-05
-3.27063159988302e-08
-1.67535974890759e-07
1.11837554488396e-05
-5.49949618295157e-08
-1.72930430367465e-07
1.05305329531878e-05
-3.17978185794724e-08
-3.17815969160308e-07
1.21496051567316e-05
-6.89590416101074e-08
-1.84458284164025e-07
1.14104558044143e-05
-5.51845308742091e-08
-3.32905782933597e-07
1.0605248235656e-05
-2.47063085202717e-08
-4.62148377247714e-07
1.31166712585972e-05
-7.5687097462949e-08
-1.9526539406438e-07
1.26680623771057e-05
-6.69425541939721e-08
-3.64634275582236e-07
1.167116581115e-05
-4.62923903859741e-08
-4.85635176001112e-07
1.06723855227237e-05
-2.49261872797954e-08
-5.9334631726286e-07
1.3749955267731e-05
-7.61261473841798e-08
-2.00465531883571e-07
1.37492389677471e-05
-6.9318704364738e-08
-3.90765158740038e-07
1.31614321349201e-05
-5.71983148502523e-08
-5.39283342790533e-07
1.17132180876152e-05
-3.74568012832048e-08
-6.35893159896702e-07
1.06081849553274e-05
-2.34479139469418e-08
-7.1218391188732e-07
1.39818161933291e-05
-7.14044389431086e-08
-1.99789164903306e-07
1.43526306335296e-05
-6.5776051901155e-08
-4.01401585525101e-07
1.4340032984917e-05
-5.83911077231799e-08
-5.83260099411976e-07
1.32181856417474e-05
-4.40995779887645e-08
-7.07036583412342e-07
1.15478687893319e-05
-3.27980857134759e-08
-7.73991622358394e-07
1.04062058642379e-05
-1.76235306584212e-08
-8.22348390085489e-07
1.39411763625609e-05
-6.26090093882048e-08
-1.95924178213966e-07
1.45187948396402e-05
-5.86651717298299e-08
-3.99045694872832e-07
1.49076148565487e-05
-5.37498620503864e-08
-5.99963753623704e-07
1.43688705672249e-05
-4.40207495087797e-08
-7.65425074253351e-07
1.29578755170595e-05
-3.40342500175983e-08
-8.65461079231244e-07
1.1293109156251e-05
-2.46632992132933e-08
-9.00022641419233e-07
1.01315065724168e-05
-1.03741260184145e-08
-9.25859368155846e-07
1.0838445868544e-05
-3.93215512557103e-08
-1.75199252869313e-07
1.13981045166921e-05
-6.64264332983073e-08
-1.80628502026245e-07
1.07324114673842e-05
-3.8059526055986e-08
-3.31354539834508e-07
1.23707776512546e-05
-8.39034258812542e-08
-1.9226358939931e-07
1.16186748267068e-05
-6.56777175996537e-08
-3.47269121478136e-07
1.07982742096431e-05
-2.93036316070905e-08
-4.81537894899002e-07
1.33437544045084e-05
-9.29395480299929e-08
-2.03102201043479e-07
1.28883479044257e-05
-8.0540097391102e-08
-3.79387807961599e-07
1.18737255134076e-05
-5.57615260357102e-08
-5.04409817500414e-07
1.08564199140771e-05
-2.89412278311439e-08
-6.17241088201424e-07
1.39768398431387e-05
-9.45451553981604e-08
-2.08026056672118e-07
1.39774513115186e-05
-8.49422185629257e-08
-4.05477641885231e-07
1.33798717029083e-05
-6.92911605319975e-08
-5.60074610894711e-07
1.19064348574253e-05
-4.4215364315878e-08
-6.59562285464924e-07
1.0781270898619e-05
-2.70664157102473e-08
-7.39365354645724e-07
1.42024707108509e-05
-9.0058036708359e-08
-2.0672215125229e-07
1.45806500561942e-05
-8.24968673592241e-08
-4.15306332952959e-07
1.45680466862514e-05
-7.2392467268755e-08
-6.03584221119778e-07
1.34271236451084e-05
-5.42401939067382e-08
-7.31437429756918e-07
1.17284749163032e-05
-3.9092182069031e-08
-8.00854492470039e-07
1.05662347872875e-05
-2.07066153545748e-08
-8.51505727137119e-07
1.41526202851134e-05
-8.08324110596887e-08
-2.02015545594059e-07
1.47404647850086e-05
-7.5739160464207e-08
-4.11495614242685e-07
1.51354766170781e-05
-6.8889844502463e-08
-6.18764153833693e-07
1.45874360152988e-05
-5.60983553367443e-08
-7.89826244258032e-07
1.31520299762021e-05
-4.1538611296127e-08
-8.92450011005021e-07
1.14599137662935e-05
-2.9795176144455e-08
-9.28624144519521e-07
1.02778034968001e-05
-1.28725216711549e-08
-9.55772370305196e-07
1.39776215641848e-05
-6.81851080122023e-08
-1.96461508608813e-07
1.46524251022456e-05
-6.57358426027118e-08
-4.01851066251988e-07
1.52204691659138e-05
-6.13947814582676e-08
-6.1277325141229e-07
1.50888146392525e-05
-5.27278778596843e-08
-8.09614925193312e-07
1.42280260969374e-05
-4.19928740456105e-08
-9.61205371949399e-07
1.28136468023014e-05
-3.16971245886474e-08
-1.03809752739539e-06
1.11774304880222e-05
-1.96645501307616e-08
-1.04407635813942e-06
9.98668834797729e-06
-6.72442881872938e-09
-1.052237571908e-06
1.10690526567443e-05
-4.71206726558423e-08
-1.83485651076936e-07
1.16276622635211e-05
-7.99243208636749e-08
-1.88954515789549e-07
1.09487358961885e-05
-4.52691290442567e-08
-3.46254116345887e-07
1.26066514540015e-05
-1.01523416112066e-07
-2.00776381191868e-07
1.18409565433486e-05
-7.79542395450488e-08
-3.63015070149261e-07
1.10042581873907e-05
-3.45669049951581e-08
-5.02771193662756e-07
1.3584793531181e-05
-1.13211858657207e-07
-2.11730273669758e-07
1.31224788166182e-05
-9.64575504521343e-08
-3.95614251391294e-07
1.2089297682946e-05
-6.65189203666648e-08
-5.25625568029216e-07
1.10524683772142e-05
-3.40378855762901e-08
-6.43548034675518e-07
1.42164199978603e-05
-1.16068500694094e-07
-2.16450759323074e-07
1.42188470944894e-05
-1.03167055581733e-07
-4.21870625524356e-07
1.36113062833291e-05
-8.33326699491335e-08
-5.83250811358501e-07
1.21108344493022e-05
-5.1805342524999e-08
-6.85944834557877e-07
1.09649922622415e-05
-3.1222882921148e-08
-7.69739099746805e-07
1.44341629852163e-05
-1.11688106554014e-07
-2.1454889730499e-07
1.48205554126658e-05
-1.01870607551259e-07
-4.31002623578568e-07
1.4808384479029e-05
-8.85706092675069e-08
-6.265355263637e-07
1.36477744200465e-05
-6.57957745732495e-08
-7.59144453926415e-07
1.19194086593695e-05
-4.62999607724302e-08
-8.31261960270769e-07
1.07356218468399e-05
-2.42489836142379e-08
-8.84502932848531e-07
1.43733223585185e-05
-1.01752994537234e-07
-2.09006677638223e-07
1.4972352631213e-05
-9.53335603106276e-08
-4.25772908830824e-07
1.53743258995153e-05
-8.62515805059256e-08
-6.40295994908889e-07
1.48169129076217e-05
-6.99146044200035e-08
-8.17386104024205e-07
1.33567789411924e-05
-5.17183954180594e-08
-9.23559638366911e-07
1.16357765382826e-05
-3.60116181927206e-08
-9.61411783021284e-07
1.04321829256487e-05
-1.57648743834961e-08
-9.90119822949009e-07
1.41871927047675e-05
-8.78642258398317e-08
-2.02538940953112e-07
1.48738998311241e-05
-8.48764473079771e-08
-4.14352654570572e-07
1.545117013327e-05
-7.91492094009337e-08
-6.31936778054055e-07
1.5316843890466e-05
-6.77770255183021e-08
-8.35114105017202e-07
1.44414992592101e-05
-5.33855824289758e-08
-9.91451885246672e-07
1.3001743526396e-05
-3.88996630121536e-08
-1.07144180736257e-06
1.13385453130151e-05
-2.4892762467935e-08
-1.07771828888809e-06
1.01266664380049e-05
-9.06665936334768e-09
-1.08668343371962e-06
1.39650217099063e-05
-7.16030859828245e-08
-1.96399880267761e-07
1.46803975108705e-05
-7.13785671947451e-08
-4.02253461671804e-07
1.53024775755563e-05
-6.84951864081273e-08
-6.15498130702207e-07
1.53371971052047e-05
-6.10905132572523e-08
-8.24809304560535e-07
1.48868515136681e-05
-5.09283358665256e-08
-1.01261763947019e-06
1.40398108533825e-05
-4.01375606875803e-08
-1.1496611158393e-06
1.26897250147517e-05
-2.72835707577414e-08
-1.20357349800029e-06
1.10594041077675e-05
-1.5546067382369e-08
-1.182429312858e-06
9.85992016451242e-06
-4.91866312228049e-09
-1.17405081468602e-06
1.13177360643878e-05
-5.63724723451934e-08
-1.92310456820362e-07
1.18743306178532e-05
-9.59162602705793e-08
-1.97872293173676e-07
1.11813873149959e-05
-5.36093894680143e-08
-3.62527233521155e-07
1.28590725076509e-05
-1.22379571739993e-07
-2.09965353850306e-07
1.20790817181256e-05
-9.23940037574648e-08
-3.79954374694723e-07
1.12250602731389e-05
-4.1431449805387e-08
-5.25624327890014e-07
1.38415548400449e-05
-1.37146780711128e-07
-2.21137515850143e-07
1.33722475827952e-05
-1.15183403306837e-07
-4.13315563718212e-07
1.23197037779665e-05
-7.89993025261753e-08
-5.48988333663332e-07
1.12620418388247e-05
-4.00101652748095e-08
-6.72334052535584e-07
1.44703210050282e-05
-1.41376915737719e-07
-2.25735498097926e-07
1.44751394682345e-05
-1.24566292609698e-07
-4.39913509793395e-07
1.38573767050396e-05
-9.97890644686402e-08
-6.08414110818877e-07
1.23288246887553e-05
-6.30153440192317e-08
-7.14637905868252e-07
1.11608092079173e-05
-3.60422455545231e-08
-8.0332227755822e-07
1.46783398697242e-05
-1.36972767757296e-07
-2.23272139720727e-07
1.5073936894276e-05
-1.24503948560193e-07
-4.48494915755967e-07
1.50627370759762e-05
-1.07440190633434e-07
-6.52115254505206e-07
1.38821243558056e-05
-7.92355132741235e-08
-7.90170086180353e-07
1.21219955117416e-05
-5.45200703791716e-08
-8.65233994899985e-07
1.09156046606168e-05
-2.82993595524732e-08
-9.21422068886826e-07
1.46045484056611e-05
-1.26015115108388e-07
-2.16898604102236e-07
1.52158774529148e-05
-1.18054071305606e-07
-4.41889853315002e-07
1.56257186161574e-05
-1.06366377657729e-07
-6.64599096010138e-07
1.50589371638307e-05
-8.58690415431827e-08
-8.48485957685109e-07
1.35731812734162e-05
-6.30744571961214e-08
-9.58771749194045e-07
1.18218874401752e-05
-4.31222126292548e-08
-9.98499146915387e-07
1.0595750069167e-05
-1.90632026749321e-08
-1.02900639735932e-06
1.44054123863826e-05
-1.10457624481773e-07
-2.09514622047115e-07
1.51051007379138e-05
-1.06849133299234e-07
-4.28691631655885e-07
1.56925812479475e-05
-9.95278400745994e-08
-6.53907314459529e-07
1.55559650558195e-05
-8.50594934914888e-08
-8.64271641822496e-07
1.46653836699254e-05
-6.68316028314944e-08
-1.02615670086159e-06
1.320033990139e-05
-4.88980557657406e-08
-1.10926907677293e-06
1.15085325727459e-05
-3.08496093853482e-08
-1.1163138146793e-06
1.02745190012713e-05
-1.17419726395859e-08
-1.12623000516667e-06
1.41717759200024e-05
-9.21647559179806e-08
-2.02453307942739e-07
1.4899754217204e-05
-9.20532158541349e-08
-4.14718565287248e-07
1.55320801529055e-05
-8.84186153413919e-08
-6.34685470654715e-07
1.55669957227557e-05
-7.88272470772849e-08
-8.50684624481857e-07
1.51083965869088e-05
-6.55394298169091e-08
-1.0445047273973e-06
1.42463325690234e-05
-5.12702147678382e-08
-1.18560258282122e-06
1.28718845794882e-05
-3.62153748293356e-08
-1.24227832212006e-06
1.12141867448687e-05
-2.05252965261335e-08
-1.22104195015485e-06
9.99334907083252e-06
-7.12452506425938e-09
-1.21298750474122e-06
1.39415502718637e-05
-7.28140493480788e-08
-1.96142826060624e-07
1.46709445156852e-05
-7.49693604607458e-08
-4.01972822413759e-07
1.53084026038184e-05
-7.41270523270549e-08
-6.154027040978e-07
1.53809555928044e-05
-6.83639915585591e-08
-8.27416974659148e-07
1.50992232043434e-05
-5.94118675743153e-08
-1.02974545686489e-06
1.46789158699905e-05
-4.93509861208609e-08
-1.20806273429179e-06
1.39188607581709e-05
-3.79126945356437e-08
-1.32961461373353e-06
1.25883888727115e-05
-2.52320229567864e-08
-1.3608649395995e-06
1.09541268860382e-05
-1.2888902109937e-08
-1.31505727777307e-06
9.76187312609293e-06
-4.46377107268154e-09
-1.28986086892834e-06
1.15867076458705e-05
-6.73884436416644e-08
-2.01582638644193e-07
1.21402218916758e-05
-1.14922425093903e-07
-2.07340828712183e-07
1.14323835476578e-05
-6.34412918683219e-08
-3.79864931227675e-07
1.31300860636167e-05
-1.47140320654992e-07
-2.19789036637905e-07
1.23350312961251e-05
-1.09442373329478e-07
-3.97988431247902e-07
1.14629008355335e-05
-5.03907474530353e-08
-5.49976607761228e-07
1.41159830669935e-05
-1.65508698470851e-07
-2.31298672948921e-07
1.36396234238264e-05
-1.37308209472634e-07
-4.32426568383407e-07
1.2566709096799e-05
-9.38279800151822e-08
-5.74562723121451e-07
1.14869317561312e-05
-4.68673539307919e-08
-7.03646445077911e-07
1.47403195278028e-05
-1.7127226140958e-07
-2.35872595210849e-07
1.474822519883e-05
-1.49811466116406e-07
-4.59594800094006e-07
1.4120045126246e-05
-1.19147186707251e-07
-6.35835690287855e-07
1.25619002533566e-05
-7.61268882776544e-08
-7.45946734878421e-07
1.13702632014037e-05
-4.16211135059951e-08
-8.40166478524832e-07
1.49365644260657e-05
-1.66708708575211e-07
-2.32892321733034e-07
1.53425235194811e-05
-1.51112026241295e-07
-4.67776002671145e-07
1.53329024102562e-05
-1.29618581028198e-07
-6.80248907927909e-07
1.41311272191232e-05
-9.55067878610898e-08
-8.24925054381947e-07
1.23378756481549e-05
-6.38035191952138e-08
-9.02756282069676e-07
1.11076072398085e-05
-3.29622167157982e-08
-9.62362169661914e-07
1.48476454873639e-05
-1.54376306470724e-07
-2.2569308373041e-07
1.54725694970206e-05
-1.44612190308331e-07
-4.59855547461645e-07
1.58913460673104e-05
-1.29867113892334e-07
-6.91694960384864e-07
1.53153087172714e-05
-1.04495097870076e-07
-8.83226658736998e-07
1.38028037837534e-05
-7.61784249948024e-08
-9.98133726674312e-07
1.20195979122113e-05
-5.12499399296578e-08
-1.03999342089621e-06
1.0769710424614e-05
-2.28233226202976e-08
-1.07255863596779e-06
1.46334474065837e-05
-1.3666153857476e-07
-2.17388179496511e-07
1.53473576037466e-05
-1.32331384891862e-07
-4.44877797783102e-07
1.59461938426041e-05
-1.23157876898804e-07
-6.78710484520252e-07
1.58077738177663e-05
-1.05089560435141e-07
-8.97186668631975e-07
1.49015988228853e-05
-8.23758252052341e-08
-1.06539914716081e-06
1.34104242678941e-05
-6.00054350233043e-08
-1.15197240089762e-06
1.16885748202991e-05
-3.75874919251444e-08
-1.16001660164829e-06
1.04313271964175e-05
-1.47947520680045e-08
-1.17101941929943e-06
1.43864853600496e-05
-1.1576778330873e-07
-2.09398863745297e-07
1.51281916668979e-05
-1.1578697857222e-07
-4.29013871187664e-07
1.57718392711277e-05
-1.11288162806964e-07
-6.56690003746463e-07
1.58075740024637e-05
-9.91930458105779e-08
-8.80351381493599e-07
1.5340798725848e-05
-8.24022358818997e-08
-1.08110249385677e-06
1.44630557788098e-05
-6.44375860959346e-08
-1.22733988111599e-06
1.30640555115133e-05
-4.57905468630746e-08
-1.28649858478273e-06
1.13776139524385e-05
-2.60340325367914e-08
-1.265448581968e-06
1.0134425577108e-05
-9.73102296134506e-09
-1.25757514760079e-06
1.41452152950353e-05
-9.36553311564181e-08
-2.02174086559746e-07
1.48874067083909e-05
-9.65779032306599e-08
-4.14390513409326e-07
1.55354479801887e-05
-9.56587187404508e-08
-6.3452350997525e-07
1.56090501003225e-05
-8.83090573507064e-08
-8.53297641552035e-07
1.53219069701501e-05
-7.67547729481203e-08
-1.06215246638928e-06
1.48930377255845e-05
-6.36824087888136e-08
-1.24621390530263e-06
1.41182578919891e-05
-4.92713585979038e-08
-1.37194326859436e-06
1.27640408190293e-05
-3.3587189045077e-08
-1.40486802959804e-06
1.11020721149712e-05
-1.73728407896791e-08
-1.35873852825687e-06
9.88876197535585e-06
-6.74272448353135e-09
-1.33313335604142e-06
1.39205926532205e-05
-7.18847860392117e-08
-1.95832042985667e-07
1.46502746657228e-05
-7.62997258423084e-08
-4.01451247641393e-07
1.52932488837877e-05
-7.77059245613276e-08
-6.14741652045885e-07
1.53706871845751e-05
-7.38835183466265e-08
-8.26875376788999e-07
1.5127218518026e-05
-6.65245302119985e-08
-1.03232056576454e-06
1.4885407654628e-05
-5.7719282630989e-08
-1.2274075556333e-06
1.45686490732054e-05
-4.76612202959148e-08
-1.39634562382124e-06
1.38362779578054e-05
-3.59267998078776e-08
-1.50228458647607e-06
1.25007685260258e-05
-2.34213338265049e-08
-1.51050931460861e-06
1.08664155428299e-05
-1.15956361118074e-08
-1.4415069080832e-06
9.68657380383561e-06
-4.75879867032281e-09
-1.39876607464555e-06
1.18784136799312e-05
-8.05139567657511e-08
-2.11191559932708e-07
1.24276734832267e-05
-1.3756569390564e-07
-2.17273830743813e-07
1.17039896176968e-05
-7.51061679694404e-08
-3.98082057159634e-07
1.34219622292221e-05
-1.7660380782088e-07
-2.30194305501145e-07
1.2611040161297e-05
-1.29633012170384e-07
-4.1715750196099e-07
1.17197361048922e-05
-6.08781207953817e-08
-5.7582162305079e-07
1.44102256579611e-05
-1.9920895843132e-07
-2.4217350785627e-07
1.39267864641793e-05
-1.63529381640735e-07
-4.52864632955412e-07
1.28322392482257e-05
-1.11519896305631e-07
-6.02388978643421e-07
1.17292835977303e-05
-5.48131975229157e-08
-7.37514789501663e-07
1.50283616845709e-05
-2.0670665993385e-07
-2.46843731233075e-07
1.50401927862957e-05
-1.79703438496378e-07
-4.80870638320352e-07
1.44014106511133e-05
-1.42051999997888e-07
-6.6556765683603e-07
1.28118862737449e-05
-9.12448458498778e-08
-7.80170804166645e-07
1.15951716040655e-05
-4.82631304920951e-08
-8.80291252793402e-07
1.52105321084483e-05
-2.01833107559487e-07
-2.43406351159308e-07
1.5628211270936e-05
-1.82536750287672e-07
-4.88834645709124e-07
1.56209256193961e-05
-1.55797542484361e-07
-7.10967232163512e-07
1.43970201669438e-05
-1.14744072348291e-07
-8.63110988152339e-07
1.25685646314338e-05
-7.43621299152922e-08
-9.43894217060857e-07
1.13131998517914e-05
-3.83678773171141e-08
-1.00739074499889e-06
1.51040528715004e-05
-1.87725259718279e-07
-2.35390374560219e-07
1.57440836232547e-05
-1.75845116112418e-07
-4.7967296368335e-07
1.61730384292293e-05
-1.57505051908745e-07
-7.21581441922219e-07
1.55877502756731e-05
-1.26490439693188e-07
-9.21706292220032e-07
1.40473302774091e-05
-9.15208157677472e-08
-1.04173375642415e-06
1.22304517909805e-05
-6.05414327815803e-08
-1.08603049471011e-06
1.09554946240486e-05
-2.72024493587838e-08
-1.12094346210012e-06
1.4872517081224e-05
-1.672857671e-07
-2.26159758015171e-07
1.560209047906e-05
-1.62118075921989e-07
-4.62919685387081e-07
1.6213620586449e-05
-1.50779646535345e-07
-7.06369311065748e-07
1.60740088038859e-05
-1.28500163899e-07
-9.3392425112054e-07
1.51519295102973e-05
-1.00490533517641e-07
-1.1092446544694e-06
1.36335083460768e-05
-7.27977268956532e-08
-1.19966953757568e-06
1.18799802040703e-05
-4.52243668529357e-08
-1.20899725756592e-06
1.05982384515462e-05
-1.83159980734577e-08
-1.22115346551682e-06
1.46102027711665e-05
-1.43143010710878e-07
-2.17235534934072e-07
1.53669290018496e-05
-1.43309377946882e-07
-4.45147181450476e-07
1.60231441793724e-05
-1.37808920642606e-07
-6.81531272823275e-07
1.60604390429164e-05
-1.22810666323431e-07
-9.13853811584357e-07
1.55856689655847e-05
-1.01961312014321e-07
-1.1224707645902e-06
1.46918975908504e-05
-7.9647422955774e-08
-1.27459845731235e-06
1.32675056170493e-05
-5.65968971637099e-08
-1.33641259982703e-06
1.15508436936914e-05
-3.21257500630896e-08
-1.31591494978339e-06
1.02842779472771e-05
-1.28901182720311e-08
-1.30798131358036e-06
1.43560725940723e-05
-1.17533026357813e-07
-2.09091649775615e-07
1.51122238912092e-05
-1.21377329253242e-07
-4.28625355979549e-07
1.57719622715689e-05
-1.20368775639393e-07
-6.56447169337892e-07
1.58473463216538e-05
-1.11198791318871e-07
-8.82979912112064e-07
1.55551752243703e-05
-9.6678346370769e-08
-1.0993428947175e-06
1.51178263226569e-05
-8.02171151975247e-08
-1.29011101469943e-06
1.43280657463373e-05
-6.22719457194046e-08
-1.42066582934195e-06
1.29494694836408e-05
-4.28281292648757e-08
-1.45513277867987e-06
1.1258337468196e-05
-2.28221561559504e-08
-1.40862243453572e-06
1.00230734868362e-05
-9.27919463359116e-09
-1.38260716686907e-06
1.41211794751712e-05
-9.23973974396377e-08
-2.01844402486803e-07
1.48635571435269e-05
-9.82085504135977e-08
-4.13825627531924e-07
1.55172086749735e-05
-1.00217942059913e-07
-6.33790771571343e-07
1.559597984653e-05
-9.54559457926246e-08
-8.52668802453775e-07
1.53479906164976e-05
-8.60676436040126e-08
-1.06475633788011e-06
1.51005616711833e-05
-7.47523806308873e-08
-1.26623603033221e-06
1.477593477029e-05
-6.19212724197066e-08
-1.44084921092222e-06
1.40286595360614e-05
-4.72229221626777e-08
-1.55068879599906e-06
1.26694913036554e-05
-3.14580567722765e-08
-1.5595052733964e-06
1.10075009188735e-05
-1.72799423694033e-08
-1.48928644874541e-06
9.80679967684611e-06
-7.54707419147716e-09
-1.4458119086209e-06
1.39028812253181e-05
-6.8960320442002e-08
-1.95459901878962e-07
1.4628319228591e-05
-7.53836271411732e-08
-4.00819095735542e-07
1.52717380382579e-05
-7.89884271909638e-08
-6.1389884972857e-07
1.53505096896183e-05
-7.72825593440388e-08
-8.25839540741277e-07
1.51115649489121e-05
-7.17873556786378e-08
-1.03140731147495e-06
1.4912192864714e-05
-6.45612136992912e-08
-1.23012907052459e-06
1.47838616553992e-05
-5.60180029710065e-08
-1.41850636475038e-06
1.45029405230267e-05
-4.5767954332539e-08
-1.57764379089134e-06
1.37648273058901e-05
-3.40776420982211e-08
-1.66754061908768e-06
1.2424109336388e-05
-2.21870285221324e-08
-1.65292061031228e-06
1.07936527764414e-05
-1.24809816495089e-08
-1.56059124355895e-06
9.62437348127151e-06
-5.75450656889124e-09
1.2195558817096e-05
-9.6170063481549e-08
-2.20974537610022e-07
1.27392973776358e-05
-1.6457587512166e-07
-2.27561444974804e-07
1.19986977215538e-05
-8.89602894661698e-08
-4.16938870396937e-07
1.37372094610932e-05
-2.1172673033437e-07
-2.41085701509423e-07
1.29095821904953e-05
-1.53610719977718e-07
-4.37310816592536e-07
1.19979328003665e-05
-7.33535484785535e-08
-6.02924725973393e-07
1.47266561004317e-05
-2.39331777055505e-07
-2.53702017801849e-07
1.42361847530983e-05
-1.94669693958476e-07
-4.7455546477779e-07
1.31188087027966e-05
-1.32460618876625e-07
-6.32143986803553e-07
1.19913369753348e-05
-6.41270159798206e-08
-7.73747502377341e-07
1.53365831865756e-05
-2.48814742279602e-07
-2.58615247461142e-07
1.53533485741634e-05
-2.15194287962365e-07
-5.03663991928357e-07
1.47037693604971e-05
-1.69242883709436e-07
-6.97499928896091e-07
1.30811151129388e-05
-1.08653350425296e-07
-8.17777203126255e-07
1.18379681984475e-05
-5.66626598378709e-08
-9.23648243872164e-07
1.55020840829065e-05
-2.43456486504439e-07
-2.54801678903232e-07
1.59330799421369e-05
-2.1977801799399e-07
-5.11637426024751e-07
1.59290554492369e-05
-1.86815384700627e-07
-7.44236665149261e-07
1.4682120559673e-05
-1.37475326983971e-07
-9.04437093569842e-07
1.28157199339077e-05
-8.6937054145875e-08
-9.88651691862792e-07
1.15342467875674e-05
-4.47672362895299e-08
-1.05657047645026e-06
1.537531796922e-05
-2.27106634822738e-07
-2.45991087801205e-07
1.60322168727688e-05
-2.12739242682093e-07
-5.01336710724093e-07
1.64728205848019e-05
-1.90158220965353e-07
-7.54255654602087e-07
1.58784107478204e-05
-1.52504421754846e-07
-9.63866816144205e-07
1.43089906049443e-05
-1.09568559175473e-07
-1.08956440020931e-06
1.24560324382102e-05
-7.11317263799042e-08
-1.13671057464899e-06
1.115465250498e-05
-3.23737812209468e-08
-1.17417439295353e-06
1.51239007392277e-05
-2.03282684458687e-07
-2.35825783073739e-07
1.58708227001753e-05
-1.97144626041408e-07
-4.82822712319958e-07
1.64966076198369e-05
-1.8326766558611e-07
-7.36896927839683e-07
1.63565257529206e-05
-1.56057871264738e-07
-9.74530309812685e-07
1.54182527429796e-05
-1.21788593239934e-07
-1.15776118966137e-06
1.38713582858298e-05
-8.77239216863592e-08
-1.25240075442257e-06
1.20843155759633e-05
-5.38038325700339e-08
-1.26376399389064e-06
1.07768224900832e-05
-2.28322903271394e-08
-1.27669478859552e-06
1.48440092179651e-05
-1.75128667616481e-07
-2.25963100334642e-07
1.56172506701008e-05
-1.75473797735952e-07
-4.6312533120964e-07
1.62874841567926e-05
-1.68808764395151e-07
-7.09230112157489e-07
1.63272284299129e-05
-1.50420355045561e-07
-9.51237840328449e-07
1.58447445059907e-05
-1.24814994870434e-07
-1.16867467687589e-06
1.49346200554723e-05
-9.73563457750827e-08
-1.32740801291885e-06
1.3483816206368e-05
-6.90793833160624e-08
-1.39212461410572e-06
1.17348287281635e-05
-3.89889211084736e-08
-1.37230896627497e-06
1.04440823565648e-05
-1.64165275406206e-08
-1.36454097716571e-06
1.45751299427679e-05
-1.45308169695806e-07
-2.1689179701296e-07
1.53464956381865e-05
-1.50132369071845e-07
-4.44683965354375e-07
1.60192152089885e-05
-1.49018319899434e-07
-6.81190357294237e-07
1.60972404445632e-05
-1.37738906093762e-07
-9.16496578870397e-07
1.58005121900396e-05
-1.19782971152845e-07
-1.14136847976331e-06
1.53548663417235e-05
-9.9384342541194e-08
-1.33977331716391e-06
1.45498836132924e-05
-7.72470910776256e-08
-1.47576559280054e-06
1.31460128457402e-05
-5.33862028480996e-08
-1.51169509454969e-06
1.14244811648497e-05
-3.02853850683977e-08
-1.46466298195135e-06
1.01657776853981e-05
-1.22982246465099e-08
-1.43838697135502e-06
1.43283149935205e-05
-1.15931095362892e-07
-2.08737050733508e-07
1.508443531578e-05
-1.23345122333574e-07
-4.28001700304993e-07
1.57498800481767e-05
-1.2604440235176e-07
-6.55620744152013e-07
1.58307749358016e-05
-1.20200433470747e-07
-8.82240094235481e-07
1.55787797858619e-05
-1.08484815764099e-07
-1.10196204645281e-06
1.53261200356007e-05
-9.43020571388826e-08
-1.31081579732057e-06
1.49938143386468e-05
-7.8274681674649e-08
-1.4919872939318e-06
1.42314356713409e-05
-6.00607366808154e-08
-1.6062089581899e-06
1.28479194783863e-05
-4.06160875477534e-08
-1.61576665945973e-06
1.11569177860376e-05
-2.33978263590795e-08
-1.54392040875215e-06
9.93430770781435e-06
-1.05592680328139e-08
-1.49955566206138e-06
1.41004845802692e-05
-8.85439361799366e-08
-2.01456466248603e-07
1.48383746852412e-05
-9.69525605640146e-08
-4.13155566959711e-07
1.54923970658251e-05
-1.0181995559069e-07
-6.32882343969821e-07
1.55726496479068e-05
-9.98455482965313e-08
-8.51540672250071e-07
1.53295188868982e-05
-9.2940498142009e-08
-1.06374940385149e-06
1.51254650151087e-05
-8.37646195039016e-08
-1.2690158162801e-06
1.49923377356869e-05
-7.28992628124686e-08
-1.46373362957258e-06
1.47032743219019e-05
-5.99586219689415e-08
-1.62844692828473e-06
1.3949746209942e-05
-4.52571870940133e-08
-1.72180822692869e-06
1.25851578486917e-05
-3.03762336894465e-08
-1.70745726481009e-06
1.09275258921506e-05
-1.78100981860254e-08
-1.61289625940431e-06
9.73769331684875e-06
-8.22859689478106e-09
-1.55090291447524e-06
1.38761659760505e-05
-6.42389365506621e-08
-1.94867093888189e-07
1.46057410454784e-05
-7.2307381516858e-08
-4.0007240059342e-07
1.52488875874057e-05
-7.79289020051393e-08
-6.12947726968861e-07
1.53280384876861e-05
-7.83913451856915e-08
-8.24670088462198e-07
1.50901163512539e-05
-7.49548390455095e-08
-1.03001999185371e-06
1.48965718500701e-05
-6.95786189224791e-08
-1.22888226321497e-06
1.48140494526787e-05
-6.27114075676958e-08
-1.42159322474136e-06
1.47277038401011e-05
-5.4089025171291e-08
-1.60288847999912e-06
1.44433538224223e-05