/*--------------------------------*- C++ -*----------------------------------*\
  =========                 |
  \\      /  F ield         | OpenFOAM: The Open Source CFD Toolbox
   \\    /   O peration     | Website:  https://openfoam.org
    \\  /    A nd           | Version:  12
     \\/     M anipulation  |
\*---------------------------------------------------------------------------*/
/*   Windows 32 and 64 bit porting by blueCAPE: http://www.bluecape.com.pt   *\
|  Based on Windows porting (2.0.x v4) by Symscape: http://www.symscape.com   |
\*---------------------------------------------------------------------------*/
FoamFile
{
    format      ascii;
    class       volVectorField;
    location    "0";
    object      U;
}
// * * * * * * * * * * * * * * * * * * * * * * * * * * * * * * * * * * * * * //

dimensions      [0 1 -1 0 0 0 0];

internalField   nonuniform List<vector> 
10140
(
(-1.2771000386788e-06 0.00595694482365349 3.74253147862387e-05)
(-1.86152355999388e-06 0.00604888351832495 3.85327238645281e-05)
(-4.59404983827508e-06 0.00595611487580734 3.79798427417941e-05)
(-2.75323246318436e-07 0.00595509115730577 0.000115717413669846)
(-2.52836761818527e-06 0.00614528381312728 3.98145677930646e-05)
(-6.35319391682903e-06 0.00604794124128975 3.91365100868383e-05)
(-8.70233078274654e-07 0.00604670793263682 0.000119064755696742)
(-8.53886502738187e-06 0.00595433867569888 3.87902308191523e-05)
(-3.45536193868944e-06 0.00595419370286507 0.0001156423641308)
(-2.24602727408047e-07 0.00595116116581142 0.000198957605038907)
(-3.29781930067286e-06 0.00624679864651594 4.126938627992e-05)
(-8.36106286171397e-06 0.00614420226410626 4.04736100564791e-05)
(-1.5470096936952e-06 0.00614279192881716 0.00012294026001678)
(-1.1488004237094e-05 0.0060459257873913 3.99896562863088e-05)
(-5.21939266264996e-06 0.00604569021663364 0.000119193496310972)
(-6.93721818898205e-07 0.00604209450324902 0.00020477347237666)
(-1.30474229624589e-05 0.00595143225716594 3.93702895504487e-05)
(-8.00543545494439e-06 0.0059523553039078 0.000117491826298951)
(-2.93386041190729e-06 0.00594993180353555 0.000197500358730714)
(-1.93849436348824e-06 0.00594453062037514 0.000283751017415238)
(-4.1932337783275e-06 0.00635413910306428 4.28976409915419e-05)
(-1.06785786296292e-05 0.00624554576247844 4.19904509257545e-05)
(-2.3267678706129e-06 0.00624399226282594 0.000127337379232641)
(-1.48569186937518e-05 0.00614188773691659 4.13727304835714e-05)
(-7.22700587736274e-06 0.00614162631000986 0.000123298932566194)
(-1.22691191707015e-06 0.00613750810340168 0.000211501965737762)
(-1.72050610434086e-05 0.0060426255306949 4.05965874008939e-05)
(-1.09368087713126e-05 0.00604361088375056 0.000121157141984387)
(-4.59804611937032e-06 0.00604069826587063 0.000203406711115465)
(-2.41514178185394e-06 0.00603433822604763 0.000292323716487116)
(-1.76380025140303e-05 0.0059472760828642 3.95281389062206e-05)
(-1.28360879192977e-05 0.00594936553726619 0.000119174960381685)
(-7.54793705443712e-06 0.00594794028292156 0.000199214577078339)
(-5.7302355086501e-06 0.00594336258776812 0.000282695130035751)
(-3.17345892074212e-06 0.00593502884210339 0.000366196550352417)
(-5.24154893832961e-06 0.00646808747278878 4.47012076688491e-05)
(-1.33760335592117e-05 0.00635267781577153 4.36880049411186e-05)
(-3.23334574901068e-06 0.00635101707981475 0.0001322558713954)
(-1.87492897649073e-05 0.00624286242999366 4.29390303602902e-05)
(-9.53954191486911e-06 0.00624264676512564 0.000127957462266254)
(-1.83937207720789e-06 0.00623804387274733 0.000219135195614504)
(-2.19621641912161e-05 0.00613809306010787 4.20055730618969e-05)
(-1.42760234407382e-05 0.00613924460445583 0.000125385705442135)
(-6.48521337882138e-06 0.00613591183529786 0.000210240987692368)
(-2.96187220442482e-06 0.00612863025411872 0.000302225808066861)
(-2.29791121698926e-05 0.00603789638605061 4.07613085070801e-05)
(-1.69721907323254e-05 0.00604022573537497 0.000122912699395583)
(-1.04890484017804e-05 0.00603845559749934 0.000205521440201062)
(-7.17508656323397e-06 0.00603299798279445 0.000291164290954629)
(-3.6800227398574e-06 0.00602325571927031 0.000377556433189963)
(-2.18289344598465e-05 0.00594188755174202 3.94361017582884e-05)
(-1.75483377031949e-05 0.00594513538291333 0.000119987918331379)
(-1.2833537145217e-05 0.00594481650014463 0.00020200283826982)
(-9.43608006944977e-06 0.00594075362349811 0.000283631100562519)
(-8.01436610127053e-06 0.00593386296365214 0.000367507303934181)
(-3.19173790440122e-06 0.00592273746856896 0.000446095355114433)
(-6.47355811830594e-06 0.00658950762894978 4.66807685711265e-05)
(-1.6534907611716e-05 0.00646637521993058 4.55684505331525e-05)
(-4.2937376183803e-06 0.00646464861533519 0.000137701845513119)
(-2.32853668626868e-05 0.00634954493673409 4.46879071424632e-05)
(-1.22247852323639e-05 0.00634945531522892 0.00013317549178281)
(-2.54912155036524e-06 0.0063444009326919 0.000227677065643288)
(-2.74660572818784e-05 0.00623845606121635 4.35980193541357e-05)
(-1.81271890539384e-05 0.00623989541914675 0.000130175517926173)
(-8.64917905756685e-06 0.00623620675222156 0.000217995662092738)
(-3.58977017024124e-06 0.00622804149108598 0.000313451568651383)
(-2.91005269624127e-05 0.00613264594363958 4.21760221514539e-05)
(-2.1697136135707e-05 0.0061353608312335 0.000127204829708383)
(-1.38160692701465e-05 0.00613335429287245 0.000212812830053054)
(-8.82500794210558e-06 0.00612709230137185 0.000300967377248521)
(-4.27511794146994e-06 0.00611596370133644 0.000390649528620293)
(-2.8262570145124e-05 0.00603175484775273 4.06644464582065e-05)
(-2.28723615897534e-05 0.00603541588680689 0.000123744743916701)
(-1.69470613089797e-05 0.00603495225764595 0.000208397538724242)
(-1.21546383607703e-05 0.00603002499314266 0.000292451106977565)
(-9.51540815767762e-06 0.00602189310870939 0.000378877085042675)
(-3.70172495125318e-06 0.00600896275034567 0.000460207261937458)
(-2.53513633221152e-05 0.00593541764308713 3.93205242260642e-05)
(-2.17708818681981e-05 0.00593970569098946 0.000120081874440522)
(-1.76045530675622e-05 0.00594051045285248 0.000203445959252201)
(-1.3617033285148e-05 0.00593746362083126 0.000286583840095688)
(-1.14830041938611e-05 0.00593127786049723 0.000368708737532285)
(-8.00113295351176e-06 0.00592159789534761 0.000449752411207644)
(-2.47553032175632e-06 0.0059078202176614 0.000524465814693647)
(-7.92357357448935e-06 0.00671936048252573 4.88428926615796e-05)
(-2.02520338435731e-05 0.00658749633444388 4.76289849066711e-05)
(-5.53390308106815e-06 0.00658574657995275 0.000143675581951693)
(-2.86058457707004e-05 0.00646269697435237 4.66173939596214e-05)
(-1.53578158949546e-05 0.00646283269768886 0.000138971525072927)
(-3.38051898348112e-06 0.006457361347521 0.000237150483351873)
(-3.38889528575655e-05 0.00634438969846849 4.5373669238114e-05)
(-2.26077108985145e-05 0.00634626036470615 0.000135523622725765)
(-1.11413669138498e-05 0.00634227040298114 0.000226687330391655)
(-4.32189682779765e-06 0.00633324669418419 0.000325999532991465)
(-3.61916674328695e-05 0.00623212141292558 4.3773383721011e-05)
(-2.7158722165111e-05 0.0062353940284548 0.000132055579223639)
(-1.76363591990205e-05 0.00623327738833924 0.000221075559397522)
(-1.07093086314072e-05 0.00622626401112152 0.000312083205303137)
(-4.95982298984615e-06 0.00621380023570416 0.000405478599559347)
(-3.56442396717112e-05 0.00612556278328922 4.20732141102735e-05)
(-2.89715402274608e-05 0.00612982488754327 0.00012805301530089)
(-2.1625858847962e-05 0.00612935826033356 0.000215725011803453)
(-1.51772889497631e-05 0.00612370449896017 0.00030275197278297)
(-1.13117650782318e-05 0.00611438056430782 0.000391996889098158)
(-4.30322144544442e-06 0.00609965450075608 0.000476436176571826)
(-3.27226759969765e-05 0.00602437395101734 4.05411839905865e-05)
(-2.81925045199928e-05 0.00602922780037723 0.000123827602295439)
(-2.28957178303036e-05 0.00603006173850409 0.000209845548602277)
(-1.76894097871217e-05 0.00602646551854928 0.000295753482033822)
(-1.3939508558303e-05 0.00601882025423552 0.000380136430368087)
(-9.51364004417927e-06 0.00600762960440908 0.000463971441183574)
(-2.97391201745541e-06 0.00599165503737296 0.00054131174005043)
(-2.80797991104032e-05 0.00592809288518047 3.92579731652998e-05)
(-2.52922717154552e-05 0.00593322913192058 0.000119920300031734)
(-2.17642758751414e-05 0.00593504642770626 0.000203825151414741)
(-1.79424408994481e-05 0.00593315425304272 0.000288297650450793)
(-1.46995394187571e-05 0.00592737583250975 0.000370778133067024)
(-1.15105980761125e-05 0.00591903022505894 0.000451667336386233)
(-6.56283228448412e-06 0.00590672019035432 0.000529125358624933)
(-1.73314538936248e-06 0.0058904288897688 0.000601395447067628)
(-9.63727015022527e-06 0.00685871929753766 5.11839826038076e-05)
(-2.46406782531656e-05 0.00671699114333907 4.98615247396161e-05)
(-6.96743131073669e-06 0.0067152761425553 0.000150233977139538)
(-3.48787976325518e-05 0.00658315784873528 4.87259164833667e-05)
(-1.9031517353866e-05 0.00658364730121203 0.000145329467701021)
(-4.33757008240439e-06 0.00657774095938396 0.000247531920243453)
(-4.14334792496701e-05 0.00645663082154567 4.7330925450062e-05)
(-2.78525168738585e-05 0.00645910274782554 0.000141417433547197)
(-1.3996705307522e-05 0.00645490230912472 0.000236446085121726)
(-5.25985795947665e-06 0.00644505751579976 0.00033987464278548)
(-4.44747099007894e-05 0.00633696821418753 4.55538433276862e-05)
(-3.35290180104337e-05 0.00634100325551936 0.000137464803298797)
(-2.20589217881799e-05 0.00633893130836145 0.000230295325701619)
(-1.28526200940442e-05 0.00633107782703188 0.000324503383741675)
(-5.74683030618584e-06 0.00631745530294653 0.000422042548439504)
(-4.42019052618723e-05 0.00622387619142453 4.36634466214312e-05)
(-3.60349576903984e-05 0.00622895989710531 0.000132917321782871)
(-2.70221481581559e-05 0.00622866253541871 0.000224003376050497)
(-1.86212324886404e-05 0.00622243392228518 0.000314439328226931)
(-1.33723993582983e-05 0.00621197921806214 0.000406857919146924)
(-4.99429411967712e-06 0.00619546101447892 0.000494807479206938)
(-4.11846109949027e-05 0.006117044558687 4.1941091121878e-05)
(-3.55599000532754e-05 0.00612268894569149 0.000128123027532418)
(-2.89535347849439e-05 0.0061237370435202 0.000217178068379987)
(-2.22666445738626e-05 0.00611971327682614 0.000306167449132294)
(-1.71228767492674e-05 0.00611077485682124 0.000393442540701877)
(-1.13290633730408e-05 0.00609810601389615 0.000480303221777971)
(-3.54973228574083e-06 0.00607992675702354 0.000560661268852486)
(-3.61858733110662e-05 0.00601601491903725 4.04722398325283e-05)
(-3.2653978100454e-05 0.00602183931412791 0.000123646386892509)
(-2.81573088082078e-05 0.00602383262988325 0.000210200286108046)
(-2.31734335113418e-05 0.00602155722199957 0.000297401712356463)
(-1.83896024436364e-05 0.00601490761102991 0.000382582510408184)
(-1.39462090584638e-05 0.00600457160278885 0.000466048094810355)
(-8.0972570605056e-06 0.00599038201490204 0.000546110698841257)
(-2.20532147994845e-06 0.00597150601485479 0.000620967340348803)
(-2.99413180883746e-05 0.00592016108650564 3.92216446790962e-05)
(-2.80062529376384e-05 0.00592591618158909 0.000119749282006117)
(-2.52098409197379e-05 0.00592856566445768 0.00020374051923444)
(-2.1815472050028e-05 0.00592770291494597 0.00028878000003067)
(-1.82517181780868e-05 0.00592322149963389 0.000372015670790428)
(-1.46408478241236e-05 0.00591508078825829 0.000452937111559078)
(-9.98008340294815e-06 0.00590413063351788 0.000531557197973578)
(-5.08256149063891e-06 0.00588937101471053 0.000605616159128944)
(-1.26877721557608e-06 0.00587064737084378 0.000676084535408173)
(-1.16753122444409e-05 0.00700877299108294 5.36823320558753e-05)
(-2.98413854176728e-05 0.00685591373808437 5.22580650847203e-05)
(-8.63367619049335e-06 0.00685433730277339 0.000157377597433836)
(-4.23048129547808e-05 0.00671185464157801 5.10076117577921e-05)
(-2.33431189149969e-05 0.00671285464985507 0.000152192799861969)
(-5.61236679632485e-06 0.00670650065985547 0.000258822439162771)
(-5.03395412888483e-05 0.00657598780893279 4.94682010540084e-05)
(-3.40288344502211e-05 0.00657926643567061 0.000147858952399646)
(-1.73077995311465e-05 0.00657503513669969 0.0002471822641516)
(-6.3632935571058e-06 0.00656438114152496 0.000355070216988874)
(-5.42114451468323e-05 0.006447887300295 4.751684337761e-05)
(-4.10106500207008e-05 0.00645292727173843 0.000143426468947148)
(-2.71923018234529e-05 0.00645107435929741 0.000240368693433173)
(-1.58970343371888e-05 0.00644242192296181 0.000338275715717373)
(-6.65997682597015e-06 0.00642771391505899 0.000440326197631418)
(-5.42029356294344e-05 0.00632730163709153 4.54359003997308e-05)
(-4.42850904621192e-05 0.00633346818495172 0.000138339947089149)
(-3.33112042455546e-05 0.0063335514808945 0.000233235285557195)
(-2.2578883100148e-05 0.00632700362385883 0.000327506040196172)
(-1.57292804354402e-05 0.00631535194074001 0.000423447376226111)
(-5.78486353867753e-06 0.00629707207504363 0.000515350631619422)
(-5.09977793388787e-05 0.00621395623132964 4.35213875455563e-05)
(-4.41006334344087e-05 0.00622065391697468 0.000132971797192965)
(-3.59656338982194e-05 0.00622213545423691 0.000225456049010916)
(-2.75239543140894e-05 0.00621784341874499 0.000317924868084878)
(-2.07099466257257e-05 0.00620785815156682 0.000408523651774364)
(-1.34086459602168e-05 0.00619368047546593 0.000498784237096564)
(-4.20658137895245e-06 0.00617326671946376 0.000582567335290399)
(-4.54923116389626e-05 0.00610739535178152 4.18646877071887e-05)
(-4.11045303020532e-05 0.00611416196729051 0.000127919545738413)
(-3.54924273380932e-05 0.0061165542356376 0.000217509674695351)
(-2.91704666166411e-05 0.00611407197166031 0.000307818987695506)
(-2.30039450936447e-05 0.00610666582984979 0.000396041228088008)
(-1.7144514655178e-05 0.00609451500906969 0.000482492845874371)
(-9.85340089817644e-06 0.0060784715045151 0.000565590772307917)
(-2.74352565676484e-06 0.0060569618716767 0.000643439962750772)
(-3.8548380945349e-05 0.00600696324923939 4.04311597823219e-05)
(-3.61036160888789e-05 0.00601349439184752 0.000123457205900359)
(-3.25481406638819e-05 0.00601643815777196 0.000210085016354983)
(-2.81623087446255e-05 0.00601533147102814 0.000297838319662254)
(-2.3358131800442e-05 0.00601007763140844 0.00038376683621688)
(-1.82814090626233e-05 0.00600066251221931 0.000467187306186995)
(-1.28013110542946e-05 0.00598734260573376 0.000548692503680342)
(-6.54952822748241e-06 0.00597030865421547 0.000625294393924583)
(-1.71477672221928e-06 0.00594860038500797 0.000698369424033514)
(-3.08945114218398e-05 0.00591187027689744 3.91780890615519e-05)
(-2.98489243993595e-05 0.00591799954639349 0.00011959585057278)
(-2.78590767886152e-05 0.00592126506131751 0.000203533433906177)
(-2.50838564395239e-05 0.00592124201755726 0.000288703029435754)
(-2.17563273231699e-05 0.00591783174573669 0.000372258404074009)
(-1.80312158522216e-05 0.00591098300816959 0.000453258664245962)
(-1.34733480702681e-05 0.00590058030122302 0.0005320171115176)
(-8.72121644894981e-06 0.00588679272292836 0.000608060249893932)
(-4.06944237980058e-06 0.00586963633794855 0.000679147421012729)
(-1.06908155632275e-06 0.00584849213832391 0.000747657394714194)
(-1.41078143102133e-05 0.00717083682111839 5.63148668266563e-05)
(-3.60294323215325e-05 0.0070054353872379 5.48101262901059e-05)
(-1.06122387875168e-05 0.00700413698776985 0.000164997420772505)
(-5.11241155167302e-05 0.00684981266010468 5.34546006744428e-05)
(-2.84264677677099e-05 0.00685151033688295 0.000159529943828041)
(-7.3061712230888e-06 0.0068448720818671 0.000270997706017568)
(-6.08929359188094e-05 0.0067033505054473 5.1781175123084e-05)
(-4.133920096016e-05 0.00670768550136816 0.0001548305178418)
(-2.13862061506465e-05 0.00670363512590243 0.000258877620976752)
(-7.63402385342113e-06 0.00669218934698928 0.00037153303705031)
(-6.57112854449352e-05 0.00656564335695525 4.96610182233876e-05)
(-4.98419870050834e-05 0.00657197784209239 0.00014993905515317)
(-3.32164165196881e-05 0.00657055266437984 0.000251368143152029)
(-1.94688391866759e-05 0.0065613250913186 0.000353378319658302)
(-7.71745347903797e-06 0.00654544789737102 0.000460368233902192)
(-6.59623092705245e-05 0.00643649329870542 4.73906166312189e-05)
(-5.39845535463064e-05 0.00644405276027872 0.000144319836262978)
(-4.07056386735307e-05 0.00644476468523167 0.000243403046477498)
(-2.77725728813443e-05 0.00643808921016569 0.000341989288037284)
(-1.84166206028981e-05 0.00642527729913878 0.000441654349496483)
(-6.69434383166293e-06 0.00640526168761472 0.000538101866061024)
(-6.24677487293849e-05 0.00631566913120447 4.52825142481298e-05)
(-5.40822072603037e-05 0.00632373022634912 0.000138376781649795)
(-4.4155913678131e-05 0.00632590867873579 0.000234686854611506)
(-3.36552492632583e-05 0.0063215709964274 0.000331052663800618)
(-2.48310620049415e-05 0.00631067526945852 0.000425399238859632)
(-1.57865997792508e-05 0.00629502359267675 0.000519449825526502)
(-4.9561180092456e-06 0.00627235519219038 0.00060709002802781)
(-5.62854405583944e-05 0.00620271843927995 4.34360645097268e-05)
(-5.09044243025049e-05 0.00621072347988081 0.000132742683273631)
(-4.39954749614642e-05 0.00621377579948533 0.000225761305408428)
(-3.61105466630839e-05 0.00621129610316609 0.000319579518881984)
(-2.82579471690701e-05 0.00620319540320508 0.000411246769646243)
(-2.07379777342827e-05 0.00618957284225407 0.000501078763402556)
(-1.18452936106372e-05 0.00617159726996247 0.000587638726797082)
(-3.35785598463792e-06 0.00614741246803484 0.00066889180230337)
(-4.84288777731796e-05 0.00609694731930269 4.18176901997904e-05)
(-4.53992227459542e-05 0.00610452944273924 0.000127708742857979)
(-4.09716007119873e-05 0.00610802007331699 0.00021736085748498)
(-3.54505202276513e-05 0.00610688771584146 0.000308223641108835)
(-2.93099691922207e-05 0.00610103394693104 0.000397232547522455)
(-2.2879914616093e-05 0.00609045027420782 0.0004836511760866)
(-1.58967487282128e-05 0.00607502261842572 0.000568203579852734)
(-8.18854590406823e-06 0.00605560257166886 0.000647899341859624)
(-2.23997083037599e-06 0.0060308512189385 0.000723920441671205)
(-3.97506792093589e-05 0.00599750370832677 4.03835989358242e-05)
(-3.84478124478547e-05 0.00600446136157676 0.000123288699120178)
(-3.59362571443717e-05 0.00600810838108709 0.000209849900730357)
(-3.23859846211362e-05 0.00600795654884601 0.00029772108974182)
(-2.80423215627968e-05 0.00600390103879422 0.000383967084162531)
(-2.30992052205438e-05 0.00599589336974899 0.000467577680211997)
(-1.75266286998103e-05 0.00598381168325493 0.000548845695146815)
(-1.13895502385687e-05 0.00596744061534666 0.000627698936088816)
(-5.41532691291967e-06 0.00594744158311443 0.000701537024701178)
(-1.52866461822078e-06 0.00592299210844816 0.000772600783299921)
(-3.0929492088689e-05 0.00590346622773906 3.91158876669975e-05)
(-3.07839508310905e-05 0.00590972121369915 0.000119432217915981)
(-2.96512385482328e-05 0.00591336615450095 0.000203287724473672)
(-2.76191966004832e-05 0.00591396520147246 0.000288433928306327)
(-2.48297729152439e-05 0.00591140994549011 0.00037203571990242)
(-2.14094246890122e-05 0.0059056374696343 0.00045306883754252)
(-1.73141731969311e-05 0.00589646874233521 0.000531710303026888)
(-1.25868857094014e-05 0.00588374015415985 0.000607868651856395)
(-7.68603251878352e-06 0.00586725176464522 0.000680951373250265)
(-3.55016274974302e-06 0.00584746587778293 0.000749523553894701)
(-1.04708372639549e-06 0.00582399520526585 0.00081546649234137)
(-1.70159331760438e-05 0.00734637024451746 5.90511072300291e-05)
(-4.34119245532114e-05 0.00716685631231095 5.74981921456228e-05)
(-1.29777959048302e-05 0.0071659987770767 0.000173020378302687)
(-6.162517875478e-05 0.00699816943096065 5.60570253385708e-05)
(-3.44692136705506e-05 0.00700079737232229 0.000167346946949763)
(-9.30294862252079e-06 0.00699411512977382 0.000283954291171814)
(-7.34340522477654e-05 0.00683969980596964 5.42625241499986e-05)
(-5.00220535835972e-05 0.00684539036631967 0.000162308972367658)
(-2.64331206863492e-05 0.00684169642944399 0.000271526510074554)
(-9.11182003425624e-06 0.00682964078178364 0.000389238964153453)
(-7.934169323119e-05 0.0066910733565934 5.198284194191e-05)
(-6.0309268708256e-05 0.0066990512364519 0.000156991788495878)
(-4.03816796339342e-05 0.00669832002072628 0.00026330079034735)
(-2.35893115525707e-05 0.0066886626196288 0.000369911480703473)
(-8.97749766918077e-06 0.00667163300443736 0.000482193909177395)
(-7.98523146128385e-05 0.0065521594463045 4.952657031043e-05)
(-6.54423709503201e-05 0.00656148155106372 0.000150854336663178)
(-4.94363121245732e-05 0.00656311693794413 0.000254516146040376)
(-3.38960161804237e-05 0.00655642404265439 0.000357868034452531)
(-2.1493155679007e-05 0.00654258459017925 0.000461584247725912)
(-7.74717657525863e-06 0.00652089853424634 0.000563101447202982)
(-7.59538910975174e-05 0.00642278149535076 4.72250081053456e-05)
(-6.58201889648744e-05 0.00643257375396345 0.000144338770724255)
(-5.37916175192918e-05 0.00643576336251548 0.000244870862578029)
(-4.09788573107818e-05 0.00643162907090849 0.000345564208271464)
(-2.95907945580572e-05 0.0064199753695255 0.000444192178142844)
(-1.8511030368225e-05 0.00640289916867303 0.000542336026771996)
(-5.82761164322263e-06 0.0063779677988899 0.000634308749830627)
(-6.88992566354971e-05 0.00630249233383251 4.51872043501597e-05)
(-6.23591242099432e-05 0.00631208450989593 0.000138118596200021)
(-5.39339045616951e-05 0.00631610687554774 0.000234962308815742)
(-4.42195600455396e-05 0.00631388993134694 0.000332703205241659)
(-3.43557303018355e-05 0.00630527346227306 0.000428239214987793)
(-2.48640813408885e-05 0.00629032641734591 0.000521849068767825)
(-1.41083531584182e-05 0.00627042135630196 0.000612330196377151)
(-4.06706726547328e-06 0.00624352148482093 0.000697388336411644)
(-5.98854895219054e-05 0.00619055204580747 4.33814097273309e-05)
(-5.61789771580108e-05 0.00619950502130598 0.000132506339823953)
(-5.07397344841777e-05 0.00620383677754531 0.000225574001344357)
(-4.39004692210101e-05 0.00620293379353816 0.000319950419800442)
(-3.62033402720075e-05 0.00619666390603408 0.000412445966792012)
(-2.81039895555792e-05 0.0061849730979651 0.000502281814489833)
(-1.93932395801767e-05 0.00616768977788752 0.000590228324330158)
(-1.00207024583822e-05 0.00614584210904851 0.000673545939831178)
(-2.87586283241201e-06 0.00611802095435871 0.000752836306662133)
(-4.99146904555823e-05 0.00608603102834863 4.1764586312457e-05)
(-4.83174520663255e-05 0.00609410389721716 0.00012752102681907)
(-4.52068470685644e-05 0.00609840595125618 0.000217092097837153)
(-4.07682866467428e-05 0.00609837457619101 0.000308063374792498)
(-3.52789562346197e-05 0.006093887501391 0.000397398427863239)
(-2.90105500652133e-05 0.00608488512673389 0.000484034956365771)
(-2.20368336520589e-05 0.00607114609014461 0.000568293661086453)
(-1.43413079863006e-05 0.00605243142586581 0.000650133133302053)
(-7.03282791403797e-06 0.00602947137616165 0.000727191785481513)
(-2.03887960526855e-06 0.00600172319421926 0.000801140993067505)
(-3.97746847906374e-05 0.00598791766814018 4.03177023896704e-05)
(-3.96327007609336e-05 0.00599501796652882 0.000123112168846209)
(-3.82320432002086e-05 0.00599909857201208 0.000209579749372331)
(-3.56653793449729e-05 0.00599965610750558 0.000297416019319411)
(-3.20878645994935e-05 0.00599656927973452 0.000383703037401794)
(-2.76553521892913e-05 0.00598977016834636 0.000467374110462818)
(-2.24356753156449e-05 0.00597905351950109 0.000548598492882109)
(-1.6519004348092e-05 0.00596416434379398 0.000627361848814261)
(-1.01952030195396e-05 0.00594493417357238 0.000703019732101009)
(-5.14856387044604e-06 0.00592182478282622 0.000774398052514284)
(-1.60703733540782e-06 0.00589472407955311 0.000842856864416928)
(-3.00668218643597e-05 0.00589519399724943 3.90345134147121e-05)
(-3.08024768752645e-05 0.00590132735816613 0.000119243674910349)
(-3.05474098404909e-05 0.00590510523058048 0.000203007041772837)
(-2.93351923876465e-05 0.0059060907061011 0.000288085176964751)
(-2.72486634730121e-05 0.00590416630386758 0.000371637100677713)
(-2.43824876930684e-05 0.00589925230573738 0.000452615301088914)
(-2.07848873676639e-05 0.00589114466555596 0.00053117223901631)
(-1.64863586908096e-05 0.00587960686004412 0.000607327643655194)
(-1.17382762785333e-05 0.00586443198301692 0.000680597086669519)
(-7.02980544241601e-06 0.00584554293010146 0.000750353746050264)
(-3.64101587678555e-06 0.00582315271731903 0.000816251639114227)
(-1.19671811846212e-06 0.00579735417410323 0.000879011721508915)
(-2.04948219709082e-05 0.00753698926108129 6.18488986271585e-05)
(-5.22337228048498e-05 0.00734161773437517 6.02905392805002e-05)
(-1.58134485184671e-05 0.00734140090153543 0.00018134860882164)
(-7.41534043005916e-05 0.00715818678559107 5.87956870687168e-05)
(-4.16812387166079e-05 0.00716203728810154 0.000175588462928613)
(-1.16969247399743e-05 0.00715553175755918 0.000297577095262799)
(-8.83688612745271e-05 0.00698611942668329 5.69011785874451e-05)
(-6.03599509988849e-05 0.00699353065011982 0.000170272120993303)
(-3.24142764724916e-05 0.0069904148200869 0.00028505183111219)
(-1.08513855624726e-05 0.00697802642309417 0.000408133184961666)
(-9.55397440056837e-05 0.00682509486878384 5.44757001827018e-05)
(-7.27519141954024e-05 0.0068351359475728 0.000164564322587682)
(-4.89363639547282e-05 0.00683540864862089 0.00027613088454541)
(-2.83516907892085e-05 0.00682553047397899 0.000388019008865724)
(-1.05730108059574e-05 0.00680750461726361 0.000505808782125517)
(-9.6314262437954e-05 0.00667506900430789 5.18408589679278e-05)
(-7.902627969951e-05 0.00668659703423387 0.000157934262499172)
(-5.97942079950651e-05 0.00668951870583926 0.000266564564407976)
(-4.1072155957014e-05 0.00668305491619889 0.000375091087685587)
(-2.51603601833143e-05 0.00666810783162212 0.000483332495970127)
(-8.99219595122138e-06 0.00664498159622541 0.000590378435830831)
(-9.18811426135743e-05 0.00653593446586265 4.93476681401411e-05)
(-7.96871398286307e-05 0.00654789563491452 0.00015085556221339)
(-6.51795208658999e-05 0.00655247321411047 0.000256007563570405)
(-4.96465018749418e-05 0.00654882337787476 0.00036145731225841)
(-3.51212662970895e-05 0.00653666072565564 0.000464835646833343)
(-2.16326471517757e-05 0.00651813331579983 0.000567491685992651)
(-6.85354462667333e-06 0.0064909777686295 0.000664253362021564)
(-8.37273156751854e-05 0.00640725260616035 4.71184437302979e-05)
(-7.58284967226306e-05 0.00641884469315259 0.000144048676430429)
(-6.56246394348973e-05 0.00642420686794364 0.00024511643359256)
(-5.37811564366711e-05 0.00642256519856349 0.000347201742344211)
(-4.15129819899792e-05 0.00641366819589733 0.000447058893778381)
(-2.96393701267719e-05 0.00639753792396207 0.000544838029121517)
(-1.66812606012943e-05 0.00637570785340703 0.000639841642415467)
(-4.97246031913219e-06 0.00634609748553018 0.00072899736153428)
(-7.32717227795987e-05 0.00628823021627175 4.51239103565055e-05)
(-6.87774091135372e-05 0.00629892970980814 0.00013785271915955)
(-6.21577458746762e-05 0.00630444984247901 0.000234730841319832)
(-5.3778188863169e-05 0.00630408179130606 0.000333033172971139)
(-4.42484586445504e-05 0.00629763838511136 0.000429435341298282)
(-3.41579411820088e-05 0.00628501143332079 0.000523102653826811)
(-2.34024643078212e-05 0.00626601118944573 0.00061482133792824)
(-1.21023070380503e-05 0.00624159204323443 0.000702244597581384)
(-3.58721281043174e-06 0.00621080220852832 0.000785244344228796)
(-6.16963759529931e-05 0.00617784398129467 4.33216982692621e-05)
(-5.97604728452666e-05 0.00618736528125459 0.000132295045781979)
(-5.59562831294453e-05 0.00619264012155512 0.000225265104379488)
(-5.04881772280214e-05 0.00619301894294846 0.000319740399415793)
(-4.36717389883866e-05 0.006188344825884 0.000412572049574564)
(-3.58520981877771e-05 0.00617852369699756 0.000502647084414435)
(-2.71872813468261e-05 0.00616326568397345 0.000590300130686572)
(-1.76732021514994e-05 0.00614233994241777 0.000675414753980505)
(-9.16156882424522e-06 0.00611640949385272 0.000756174603470213)
(-2.64601448634782e-06 0.00608521913789744 0.000833366474522874)
(-4.9922770595988e-05 0.00607497240162942 4.16931120287201e-05)
(-4.97861916312224e-05 0.00608320766961115 0.000127326921080106)
(-4.80776999828971e-05 0.00608800944957176 0.000216790264396294)
(-4.48970262347399e-05 0.00608879615510554 0.000307713886816918)
(-4.04193032993529e-05 0.00608542240932678 0.000397085198695389)
(-3.48411887891918e-05 0.00607780352663062 0.000483794939870556)
(-2.83039113238879e-05 0.0060656823135492 0.000568016233424974)
(-2.09369865716167e-05 0.00604874320835897 0.000649757112832506)
(-1.31217281714112e-05 0.00602692719888619 0.000728298508090851)
(-6.88438643504831e-06 0.0060004707103128 0.000802823621382395)
(-2.21061296424085e-06 0.00596963943605883 0.000874159567306548)
(-3.86409664362415e-05 0.00597848507473063 4.02329139767883e-05)
(-3.96414269352912e-05 0.00598544584244077 0.000122912329761543)
(-3.93799580497182e-05 0.00598967934710348 0.00020927726969986)
(-3.78879369011536e-05 0.00599067958307716 0.000297034461335031)
(-3.52559904599789e-05 0.00598831232101016 0.000383263741182634)
(-3.15987267051812e-05 0.00598248847872632 0.00046688459531666)
(-2.70105179544679e-05 0.00597297405789739 0.00054805005796538)
(-2.15849914779887e-05 0.00595948645109044 0.000626797354288274)
(-1.55843995125219e-05 0.00594179150761403 0.000702650359456195)
(-9.80879406715158e-06 0.00591988116946612 0.000774918389098769)
(-5.26900619709949e-06 0.00589388581669914 0.000843465977654812)
(-1.69321351832358e-06 0.0058640994597009 0.000908688734414684)
(-2.83595502883041e-05 0.00588729923403737 3.8945653560192e-05)
(-2.99245811462667e-05 0.00589306483047676 0.000119030928523003)
(-3.05326931265079e-05 0.00589672671317839 0.000202690487669806)
(-3.01781869746275e-05 0.00589785284434532 0.000287684012580854)
(-2.88899149129019e-05 0.0058963225799914 0.000371158671066686)
(-2.672501639221e-05 0.00589204353540728 0.000452051053422651)
(-2.37448072835157e-05 0.00588478924602249 0.00053051179859903)
(-2.00072729630458e-05 0.00587429956857087 0.000606613829780102)