/*--------------------------------*- C++ -*----------------------------------*\
  =========                 |
  \\      /  F ield         | OpenFOAM: The Open Source CFD Toolbox
   \\    /   O peration     | Website:  https://openfoam.org
    \\  /    A nd           | Version:  12
     \\/     M anipulation  |
\*---------------------------------------------------------------------------*/
/*   Windows 32 and 64 bit porting by blueCAPE: http://www.bluecape.com.pt   *\
|  Based on Windows porting (2.0.x v4) by Symscape: http://www.symscape.com   |
\*---------------------------------------------------------------------------*/
FoamFile
{
    format      ascii;
    class       volScalarField;
    location    "600";
    object      k;
}
// * * * * * * * * * * * * * * * * * * * * * * * * * * * * * * * * * * * * * //

dimensions      [0 2 -2 0 0 0 0];

internalField   nonuniform List<scalar> 
10142
(
6.99214778367233e-06
6.83778052876483e-06
5.5196494922413e-05
7.14105401750694e-06
6.69297939069379e-06
5.37523287649811e-05
6.98035822880077e-06
9.47232761991838e-05
5.53410377462649e-05
7.41059374214493e-06
6.38842055233972e-06
5.22024780836937e-05
6.79089759846479e-06
9.21689979480115e-05
5.38854429401074e-05
7.24141090523138e-06
0.000123670436528982
9.46485404374117e-05
5.55185840456696e-05
7.51751899504068e-06
6.00022683007647e-06
5.04217976221992e-05
6.45030669207138e-06
8.94448579392018e-05
5.23098995561376e-05
7.0288144920001e-06
0.000120250120069315
9.2092223314301e-05
5.40494440777594e-05
7.34240085565418e-06
0.000147245089801302
0.000123467687535479
9.4201584969268e-05
5.52041117936748e-05
7.32832244127478e-06
5.5425153321436e-06
4.84125854903231e-05
6.03146676762472e-06
8.65037436009411e-05
5.05071999773822e-05
6.66636027233987e-06
0.000116623567490447
8.93635817751674e-05
5.24504355128543e-05
7.11820180229443e-06
0.000143095866371764
0.000120050357523941
9.16484654882834e-05
5.37341916224137e-05
7.15580758161802e-06
0.000167621751546176
0.000146916575965203
0.000122624796699087
9.30992092555318e-05
5.40571593335071e-05
6.91988330247912e-06
5.01245334734638e-06
4.61640506465788e-05
5.54912632910138e-06
8.3325090756571e-05
4.84783116307111e-05
6.22960626622684e-06
0.00011277479353277
8.64178865553998e-05
5.06274437554532e-05
6.74961643932969e-06
0.000138716489577065
0.000116424755082386
8.89211702732562e-05
5.21293457754062e-05
6.93365052614007e-06
0.000162827911306039
0.000142774736960989
0.000119222515224756
9.05636908884496e-05
5.26079912296014e-05
6.75796466646747e-06
0.000185785016456602
0.00016715674173323
0.000145767013453773
0.000120940188922665
9.11216163745186e-05
5.21476995985769e-05
6.41339020488764e-06
4.41350226703815e-06
4.36391307061726e-05
5.01186647367242e-06
7.98909394617071e-05
4.62093432588098e-05
5.73157959705137e-06
0.000108691736552921
8.32346637294827e-05
4.85827644264053e-05
6.3105896395849e-06
0.000134107391767917
0.000112576311172627
8.59778798534836e-05
5.03048952124344e-05
6.57462586909361e-06
0.000157785837318979
0.000138400361352824
0.000115611114443601
8.7853356183663e-05
5.1022071129288e-05
6.54631297625257e-06
0.000180401987737547
0.000162374922053861
0.0001416492637282
0.000117570373123288
8.86240850803581e-05
5.07383185763055e-05
6.26621691172916e-06
0.000202258045902899
0.000185206785675171
0.000165730095971502
0.000143617617783956
0.000118293285413123
8.82860833787912e-05
4.97087751515468e-05
5.86519382311268e-06
3.84110963800923e-06
4.07446487733833e-05
4.48225435268771e-06
7.61734412778486e-05
4.36346644478707e-05
5.1957408041198e-06
0.000104365540917754
7.97958609186672e-05
4.62993744215488e-05
5.81122907368347e-06
0.000129268584819365
0.000108493251276087
8.27987902216807e-05
4.82646881909459e-05
6.14961033156798e-06
0.000152506849881126
0.000133795331298955
0.000111777040028604
8.4929021363563e-05
4.92215134635258e-05
6.20599704732117e-06
0.000174752812140272
0.000157342066561398
0.000137297929294524
0.000113991760325386
8.59522427524267e-05
4.91921759752578e-05
6.06892420205485e-06
0.000196326772375932
0.000179839745522129
0.00016098052777851
0.00013954462393113
0.000114977094587599
8.58468165655136e-05
4.83516910610417e-05
5.73427172738981e-06
0.000217353560809923
0.000201604380393357
0.000183550201127133
0.000163184814059844
0.00014040878630132
0.000114720680517053
8.47323540232643e-05
4.68903195014559e-05
5.27935725974439e-06
3.23840340065869e-06
3.72131265522786e-05
3.9195180951565e-06
7.21200808638743e-05
4.0580313421773e-05
4.65158497652322e-06
9.97857485928161e-05
7.60711664406917e-05
4.36914593872287e-05
5.26501665347651e-06
0.000124204015173185
0.000104166871917047
7.9366196621625e-05
4.59921815192142e-05
5.66731484018502e-06
0.00014700215670276
0.000128959906449491
0.000107708889724083
8.17719558892876e-05
4.72118518739609e-05
5.80460753299542e-06
0.000168858612516637
0.000152071122715593
0.000132715472300741
0.00011019133563271
8.30691404612868e-05
4.74367790400192e-05
5.74949309660561e-06
0.000190102386516673
0.000174203363812901
0.000155978492065374
0.000135238323023758
0.000111453263852218
8.32342447232118e-05
4.68594951687064e-05
5.55425729979919e-06
0.000210919588443371
0.000195691953424263
0.000178222412941807
0.000158490861040455
0.000136403568308891
0.000111479046214372
8.23676616032015e-05
4.55938439364757e-05
5.16624082328533e-06
0.000216653293703237
0.00019977609275729
0.00018068083181757
0.000159499907892687
0.000136209906273414
0.000110327207286301
8.0567473499966e-05
4.37299557618968e-05
4.65085895814963e-06
2.625448416268e-06
3.3218845178492e-05
3.32828308910369e-06
6.76358340736784e-05
3.70541108711623e-05
4.07141015208903e-06
9.49342852437349e-05
7.20022112794548e-05
4.06085946111263e-05
4.71878480084758e-06
0.000118919960831227
9.95865576101401e-05
7.56484089283701e-05
4.34175328859236e-05
5.1263494722023e-06
0.000141288122079396
0.000123897996968357
0.000103398301431415
7.83655290599323e-05
4.49806161405684e-05
5.35333284642077e-06
0.000162741285663417
0.000146573454038543
0.000127902150864926
0.000106158086257357
7.99575011722409e-05
4.54796191340275e-05
5.37620211765293e-06
0.000183622773379183
0.000168320600202505
0.000150737344460946
0.000130700913842051
0.000107709019264267
8.04138418647658e-05
4.5163018871008e-05
5.2564909153634e-06
0.00020412673472348
0.000189482944877987
0.000172623498589477
0.000153544435467439
0.000132166107021051
0.000108031470590098
7.98315536052452e-05
4.41667831262474e-05
5.00734778003975e-06
0.000224393448526509
0.000210239554068217
0.000193908549668442
0.000175418030136161
0.000154886545488258
0.000132294915454947
0.00010717894369292
7.82911585110153e-05
4.25022892174146e-05
4.55663822117814e-06
0.000214699431099351
0.000196652627494607
0.000176601780251439
0.000154768567499314
0.000131120854246873
0.000105191005203059
7.58365714371267e-05
4.0220107652594e-05
3.98231433272731e-06
2.03493239710641e-06
2.890201722313e-05
2.73490923787956e-06
6.26108853148481e-05
3.31799114576798e-05
3.46949196634655e-06
8.9778981626425e-05
6.74850534468546e-05
3.71030439057044e-05
4.14260747398996e-06
0.000113422316435513
9.47340225052255e-05
7.15891577665298e-05
4.03858389265478e-05
4.59961889466123e-06
0.000135385611175415
0.000118615561682103
9.88348789515921e-05
7.46814645788544e-05
4.24893441824727e-05
4.85169631399962e-06
0.000156428489527621
0.000140865141696207
0.000122861715283348
0.000101884217435119
7.6603097685765e-05
4.33129873906784e-05
4.96031735985243e-06
0.00017692138526851
0.000162213427079386
0.000145268178163056
0.000125932328013124
0.000103733951004413
7.73700546128353e-05
4.32734338709587e-05
4.91195597033104e-06
0.000197070900786629
0.000183017216886419
0.000166776757717018
0.000148358149289119
0.000127697953002106
0.00010436565770221
7.70915242924913e-05
4.25391728824742e-05
4.73270429488588e-06
0.000216996536763623
0.000203464178707347
0.000187742301861916
0.00016988382826698
0.000150021482830213
0.000128149320615924
0.000103827178357582
7.58464627767213e-05
4.11509611630576e-05
4.42406329326931e-06
0.000236699139897301
0.000223678845917207
0.000208334484085981
0.000190858029310885
0.000171430936929131
0.000150259926284128
0.000127316968180314
0.000102153363263021
7.36607591598075e-05
3.90712648622542e-05
3.90785132042553e-06
0.000211375548454122
0.000192251328832113
0.000171421336865974
0.000149092822006596
0.000125207432644926
9.935200421621e-05
7.05520576744736e-05
3.63469680030262e-05
3.28196678836415e-06
1.5010506634765e-06
2.42681124227051e-05
2.16958871870802e-06
5.70745957902117e-05
2.8968873176759e-05
2.87294103317739e-06
8.42619668639714e-05
6.24784551812397e-05
3.32790047556632e-05
3.54794710471129e-06
0.000107712818470649
8.9576383587303e-05
6.70852121920244e-05
3.69521065298641e-05
4.04665098586106e-06
0.000129319006098672
0.000113118109106726
9.4001033635889e-05
7.06678271484412e-05
3.95712693168842e-05
4.3393834189024e-06
0.000149953833873141
0.000134966522386157
0.000117599719141835
9.73603387786694e-05
7.29838866743765e-05
4.09122894680196e-05
4.50155218402983e-06
0.000170035822180251
0.000155909039796265
0.000139586269968719
0.000120935933550117
9.95210516672552e-05
7.40914426291546e-05
4.11870911027425e-05
4.5318023708433e-06
0.000189795944306494
0.000176328234426144
0.000160703607072593
0.000142942152070932
0.000122998623522697
0.00010047166094413
7.41342379760964e-05
4.07272812266419e-05
4.41747760275558e-06
0.000209359524724114
0.000196424157713907
0.000181317643843692
0.000164100438725294
0.000144916089310638
0.000123774021670845
0.000100259938067424
7.32021603351501e-05
3.96018457023383e-05
4.17812844105408e-06
0.00022876545056934
0.000216304688596406
0.000201606404696683
0.000184764252726813
0.000165989224015265
0.000145500953428943
0.000123284814832089
9.89155285590349e-05
7.13224604813893e-05
3.78056889921781e-05
3.80218504534871e-06
0.000247973386128413
0.000235960794705872
0.000221676059077413
0.000205089935763614
0.000186558780494102
0.000166368437968022
0.000144711661251375
0.000121534457676248
9.64414188445737e-05
6.84898981379461e-05
3.52870440052899e-05
3.22666225830101e-06
0.000206707227837526
0.000186691805946319
0.000165246637125954
0.000142534144495388
0.000118504765230348
9.2830649757916e-05
6.47138247946627e-05
3.20942420560792e-05
2.56277212992432e-06
1.05871705079845e-06
1.94804283573622e-05
1.65975117039614e-06
5.09645524348408e-05
2.44599513085252e-05
2.30268613709723e-06
7.83446157686903e-05
5.69821796045503e-05
2.91725564861267e-05
2.95970073167673e-06
0.000101780339792432
8.40479550274168e-05
6.21328515439289e-05
3.32299224184498e-05
3.47863538404185e-06
0.000123114032384614
0.000107406163628072
8.88648832812214e-05
6.62396477861074e-05
3.62609109641527e-05
3.82397339131238e-06
0.000143357047240596
0.000128901125043217
0.000112121067338075
9.25705212542593e-05
6.90550954323596e-05
3.81671744026639e-05
4.01176261625454e-06
0.00016301063833772
0.000149440266737753
0.000133710852867484
0.00011571676962883
9.50626236665657e-05
7.05619726609706e-05
3.88905598060472e-05
4.11613385065463e-06
0.000182345885751525
0.000169452994192201
0.000154430020065609
0.000137310503914298
0.000118070885757964
9.63434913366673e-05
7.09508451145175e-05
3.87313232314474e-05
4.07380983196005e-06
0.000201509754782393
0.000189163299430054
0.000174667224167102
0.000158087851607343
0.000139579204515059
0.000119167984758706
9.64679813452206e-05
7.03471542144363e-05
3.78767054972298e-05
3.89228622370841e-06
0.000220561172789362
0.000208685750253533
0.00019461183576208
0.00017841031093274
0.000160297112297864
0.000140501638501079
0.000119024632671108
9.54657252125583e-05
6.87885488152388e-05
3.63464279737884e-05
3.59361572678361e-06
0.000239491468375182
0.000228051616448102
0.000214356001758327
0.00019844144112033
0.00018056755609046
0.000161045835749573
0.000140082270972834
0.00011763642117431
9.33350752521312e-05
6.62717918257418e-05
3.41183162048273e-05
3.14794756871105e-06
0.000258240135582568
0.000247214589127533
0.000233878979118939
0.000218270339027562
0.00020053242654963
0.000181129317848025
0.000160336328341194
0.000138302387079128
0.000114981910082909
9.00631582447297e-05
6.27783983963242e-05
3.113513099052e-05
2.52508280978418e-06
0.000200824056084894
0.000180088676198397
0.00015813969381592
0.000135125081928648
0.000111035298319769
8.56381463416794e-05
5.83146526051114e-05
2.74339886149459e-05
1.85652088216043e-06
7.08308203426036e-07
1.48026025105976e-05
1.21903381267338e-06
4.42701099298171e-05
1.98128139991077e-05
1.77812852497011e-06
7.20063293319577e-05
5.09568209535431e-05
2.48328191421873e-05
2.39228249380694e-06
9.55916159319251e-05
7.81496183184375e-05
5.67320618805444e-05
2.92528954222639e-05
2.91425946450435e-06
0.000116792630929133
0.000101460948983419
8.33645674111122e-05
6.1385524854608e-05
3.26902862750323e-05
3.29559078374791e-06
0.00013668387462184
0.000122693548949234
0.000106425604869404
8.7486998988619e-05
6.47571657695154e-05
3.50255198771871e-05
3.54122493047113e-06
0.000155899223600223
0.000142845733999419
0.000127663856083851
0.000110279269669891
9.0345541484143e-05
6.67494289844212e-05
3.63319575331198e-05
3.66746113920644e-06
0.00017477390624225
0.000162435081214076
0.000147987067766838
0.000131480642945914
0.000112919311670337
9.19754214089913e-05
6.75308066257075e-05
3.65450550307649e-05
3.7015296083346e-06
0.000193490502217565
0.000181724989456613
0.000167826458000524
0.000151870044799505
0.000134023226151645
0.000114333452670883
9.24463267572881e-05
6.7275265825848e-05
3.59797150715402e-05
3.58506178565169e-06
0.000212132373783859
0.000200851699739432
0.000187393528123867
0.000171826990828256
0.000154372589267905
0.000135269364188256
0.000114534906422962
9.17954157610089e-05
6.60505185485661e-05
3.4717682782403e-05
3.34121720014907e-06
0.000230711748407135
0.000219867138639829
0.000206787379251564
0.000191524482415138
0.000174314446053069
0.00015547202018572
0.00013521323944076
0.000113512891794732
9.00210176075328e-05
6.38628449701663e-05
3.27630999675133e-05
2.98047575737149e-06
0.000249191990484193
0.000238758984097319
0.000226028323184345
0.000211038252337871
0.000193996229004446
0.000175269449272727
0.00015515827548965
0.000133825428754998
0.000111238220367381
8.71054597927347e-05
6.06945444391637e-05
3.00764162239038e-05
2.47444208718615e-06
0.000267496227504735
0.000257462884215382
0.000245063654289521
0.000230337259254613
0.000213492478479788
0.000194790245207029
0.000174682834492756
0.000153395848671195
0.000131064159549138
0.00010768126811093
8.3029487158734e-05
5.65186070868403e-05
2.65927368450283e-05
1.83240408342437e-06
0.000193849041660001
0.000172507516262704
0.000150132567346413
0.000126888213366568
0.000102815428136991
7.77781026377158e-05
5.13383261542546e-05
2.237552702571e-05
1.21175051384065e-06
4.78941811316948e-07
1.05515402214446e-05
8.56793004900551e-07
3.71098236967026e-05
1.52695722320899e-05
1.3148706290911e-06
6.5159230153363e-05
4.44339570951468e-05
2.0375293959415e-05
1.85975009290429e-06
8.91643463917771e-05
7.18420130269318e-05
5.08745174644599e-05
2.50667012914845e-05
2.36620416347433e-06
0.000110357696304401
9.52745394633684e-05
7.75157340152131e-05
5.61283702847344e-05
2.88772209928168e-05
2.76601929562724e-06
0.000129984974066094
0.000116363863555756
0.000100494297049664
8.20546185676313e-05
6.00419755450064e-05
3.1638968298982e-05
3.05493746443795e-06
0.000148766101118426
0.000136169768642098
0.000121467953762843
0.000104623832284411
8.53486278470459e-05
6.2612284717057e-05
3.33975405932061e-05
3.22480772852372e-06
0.000167145592285944
0.000155326550945966
0.000141411029803428
0.000125472374010832
0.000107548151211933
8.7358079664612e-05
6.38537526765182e-05
3.41468100902036e-05
3.30103678447134e-06
0.000185360979634319
0.000174161316366104
0.000160836696599486
0.000145475387252082
0.000128263568321977
0.000109274608088947
8.8191198078915e-05
6.39801449719145e-05
3.39087196840527e-05
3.25443653253135e-06
0.000203529726025206
0.00019284556010256
0.000179993043593762
0.000165047115548678
0.0001482370795504
0.000129814779335987
0.000109817418319592
8.79006447807293e-05
6.31049019554893e-05
3.29274274197242e-05
3.06752996876356e-06
0.000221688468124529
0.00021145569039647
0.000198999983721296
0.000184379559910665
0.000167827645068477
0.00014966275233538
0.000130110525979241
0.000109161933275161
8.64913132459206e-05
6.12561846866612e-05
3.12413692839931e-05
2.76952097692131e-06
0.000239818689284873
0.000230000873966853
0.000217898650328587
0.000203554660448046
0.000187189517931967
0.000169146325138059
0.000149728927217402
0.000129110477132679
0.000107272546670248
8.39451479076203e-05
5.84255749487116e-05
2.88410763095594e-05
2.34235644328599e-06
0.000257864517321452
0.000248443096874886
0.000236671174181567
0.000222581694290405
0.000206383510819921
0.000188397629404856
0.00016898183925912
0.000148387223854112
0.000126762149488807
0.000104111744302332
8.0237287936671e-05
5.45827898478341e-05
2.5669889042334e-05
1.80256957672801e-06
0.000275733496129733
0.000266702496561793
0.000255250218627996
0.000241402767491568
0.000225370286507481
0.000207478931956544
0.000187984761228445
0.000167284087644779
0.000145578596614914
0.00012301903657496
9.96484053944452e-05
7.53435919396688e-05
4.96956705165606e-05
2.16544816136852e-05
1.19591080207224e-06
0.000185852314959485
0.000163981288018004
0.000141247572214104
0.000117841495761593
9.38541572952644e-05
6.92429703174161e-05
4.37582028315445e-05
1.69893323092339e-05
6.76710069985805e-07
3.15737056300041e-07
7.12260492573617e-06
5.87279135424589e-07
2.9767417263696e-05
1.11463893222059e-05
9.32274818592301e-07
5.77203946547322e-05
3.75522308921391e-05
1.59863028887678e-05
1.38401005240578e-06
8.24229391349526e-05
6.50632411123559e-05
4.46038370325015e-05
2.07634158067187e-05
1.84932917255312e-06
0.000103837914934237
8.88493859897836e-05
7.12925058210025e-05
5.04796036289297e-05
2.48716664650225e-05
2.25233875238403e-06
0.000123310512860611
0.000109911980213603
9.43239260505855e-05
7.62962777881487e-05
5.49686915395856e-05
2.80152285579929e-05
2.56614096715599e-06
0.000141690606935878
0.000129461099077297
0.000115141226224705
9.87377974049563e-05
8.0029989090176e-05
5.80712437702203e-05
3.01871388900893e-05
2.78504244497536e-06
0.000159543675797544
0.000148190223353941
0.00013474334350353
0.00011930607793501
0.000101958995892969
8.24770560002386e-05
5.98858396247732e-05
3.14408112693974e-05
2.87985243564121e-06
0.000177197244774898
0.000166536318009996
0.000153747047615783
0.000138936748588926
0.000122317688598833
0.000103995754662305
8.36968188639932e-05
6.04505353192937e-05
3.16541790351031e-05
2.90018750400032e-06
0.000194819247454085
0.0001847254475252
0.000172459904386376
0.000158108594664544
0.000141915725321693
0.000124151251293437
0.000104876070679479
8.37793404708949e-05
5.99484059321269e-05
3.09760230285165e-05
2.77610525994997e-06
0.000212477751555403
0.00020286774371017
0.00019103528558215
0.000177045212700222
0.000161136685854022
0.000143636722125175
0.000124783112829043
0.000104584959683831
8.27429897932596e-05
5.8450268539912e-05
2.95638194132915e-05
2.52976958634985e-06
0.000230176535652221
0.000220996840635244
0.000209538252736069
0.000195847391614814
0.000180149709805182
0.000162785227567665
0.000144061820838662
0.000124162164789512
0.000103082554491228
8.05745913892263e-05
5.59644295691597e-05
2.74362520639769e-05
2.17326699036466e-06
0.000247875613114322
0.000239093481662587
0.000227972698842185
0.000214544524806642
0.000199020225099539
0.000181732733159388
0.000163016966232977
0.000143128239399417
0.000122224905317702
0.000100324803021293
7.72485115418315e-05
5.24704387613908e-05
2.45622614632076e-05
1.6996533317997e-06
0.000265502343079279
0.000257101403377737
0.000246298676202749
0.000233113033267422
0.000217747689600305
0.000200527008885278
0.000181765506896272
0.000161768867533389
0.000140763987024041
0.000118914077634432
9.62724185145366e-05
7.27336308885464e-05
4.79241270849902e-05
2.0878213012969e-05
1.17792605665534e-06
0.00028294733806509
0.000274925403504428
0.000264435093696295
0.000251483894970641
0.000236270059654608
0.000219121920294815
0.000200358432728135
0.000180185153436403
0.000158965551008433
0.000136906335131184
0.000114184324561563
9.08918402571935e-05
6.69983452624443e-05
4.22850906460297e-05
1.63912399418578e-05
6.65999980479451e-07
0.000176868096408603
0.000154531834806641
0.000131502111985909
0.000107994804910306
8.4146802478296e-05
6.00063920029117e-05
3.55475066402363e-05
1.14737733708807e-05
3.0211669641232e-07
2.20113301259939e-07
4.60803716465714e-06
3.82679203870216e-07
2.2729702771105e-05
7.77765292167605e-06
6.34839785758768e-07
4.96732741933207e-05
3.05551265563234e-05
1.19411814601532e-05
9.88596129834401e-07
7.5249194883739e-05
5.77669709179486e-05
3.80368995527709e-05
1.65318332050908e-05
1.38839083197312e-06
9.72251862415659e-05
8.21227489221579e-05
6.46571965602719e-05
4.44812733174856e-05
2.07763730020526e-05
1.76889430013965e-06
0.000116696439169518
0.000103381343290106
8.79236238460338e-05
7.02026639448222e-05
4.95585991223284e-05
2.42306587054397e-05
2.09442770473138e-06
0.000134769110628039
0.000122763854043296
0.000108683822032535
9.26074569390121e-05
7.43948295151396e-05
5.32174382359912e-05
2.67852257619012e-05
2.34153656630692e-06
0.000152076975967629
0.000141103378989885
0.000128029582518683
0.000112998576388797
9.61458637730664e-05
7.73087475533498e-05
5.55787179446965e-05
2.84206264499685e-05
2.48555126576627e-06
0.000169098363965459
0.000158930637190376
0.000146616603219593
0.000132291502270758
0.000116203723315656
9.84996314548712e-05
7.89536842501659e-05
5.66642778722704e-05
2.91832750854601e-05
2.52790023304217e-06
0.000186085710565282
0.000176565702503316
0.000164854697731148
0.000151056077810682
0.000135437399784085
0.000118293954176273
9.97153085423075e-05
7.9428895759367e-05
5.65760985612125e-05
2.88602650677559e-05
2.46802414772757e-06
0.000203150695341808
0.000194168203123905
0.000182948707930729
0.000169566944306157
0.000154275279900236
0.000137415725796168
0.000119242475075616
9.97856828873822e-05
7.87754269927256e-05
5.54449270443213e-05
2.77347011454449e-05
2.272941496409e-06
0.000220323360461385
0.000211802862550008
0.000200996055057412
0.000187954867726605
0.000172911500377873
0.000156212144698217
0.000138172988138707
0.000118987966754356
9.86693662539222e-05
7.69915538005029e-05
5.33108924150132e-05
2.58763134315376e-05
1.97445580482514e-06
0.00023758383125383
0.000229472866726235
0.000219024777804775
0.000206271726683648
0.000191427456133856
0.000174829495182194
0.000156810543612146
0.000137630316358061
0.000117455836560485
9.63176669375221e-05
7.40552965562964e-05
5.0168651175207e-05
2.32818527016205e-05
1.56448636659897e-06
0.000254874119424839
0.000247138559524853
0.000237014142433953
0.000224515251124369
0.000209841258014397
0.000193318138927318
0.000175272935980757
0.000155990222304611
0.00013570117014087
0.00011457785686314
9.26847022884101e-05
6.99343303925294e-05
4.59834504230403e-05
1.99016917951828e-05
1.10094064690479e-06
0.000272102912453568
0.000264727268048412
0.000254907884990286
0.00024264358923413
0.000228124000961757
0.000211668741033057
0.00019359582364227
0.00017416827455686
0.000153662687621654
0.000132309885764201
0.000110297945277493
8.77284277513855e-05
6.45879975345319e-05
4.06967855741412e-05
1.57604256197782e-05
6.55879460208092e-07
0.00028914001318566
0.000282127158230813
0.000272610395250432
0.000260576140492133
0.000246205501129219
0.000229815674083269
0.00021172708103446
0.00019220402357227
0.000171425091724831
0.000149748471181905
0.000127395704519912
0.000104569191271885
8.14068404848427e-05
5.79694876146719e-05
3.42618996930872e-05
1.10182120461834e-05
2.93815186860193e-07
0.00016691735453164
0.000144174524695765
0.000120903434285551
9.73405978621865e-05
7.36624900085941e-05
5.00223120892604e-05
2.67662406806108e-05
6.29138132704542e-06
1.02694409453e-07
1.36794299939555e-07
2.91995853336975e-06
2.33058521124091e-07
1.65723086250296e-05
5.19307765655324e-06
4.06660152225691e-07
4.12215956160064e-05
2.38207304154108e-05
8.52096973636775e-06
6.79687445919921e-07
6.75227469211576e-05
4.99727556765373e-05
3.13553957111138e-05
1.26389918571972e-05
1.00478892049027e-06
9.04513125987473e-05
7.50000186657879e-05
5.75892163190489e-05
3.82352713166062e-05
1.67807456004855e-05
1.33924388521518e-06
0.000110226269615977
9.67579309536168e-05
8.12472084858853e-05
6.37580014758647e-05
4.38607279176704e-05
2.03887538613157e-05
1.65314316817453e-06
0.00012810159936015
0.000116130478910692
0.000102138819429716
8.62587216687472e-05
6.84635772678532e-05
4.80694465770822e-05
2.32510005632436e-05
1.91219339618121e-06
0.000144891539533197
0.000134159801842259
0.000121311299046337
0.00010655040968757
9.00891192744389e-05
7.18249230978494e-05
5.09512164334994e-05
2.52652900673506e-05
2.09170044059667e-06
0.000161199756420311
0.000151450387123462
0.000139517910415343
0.000125581146967876
0.000109938017862997
9.27846921511484e-05
7.39476158536223e-05
5.25999303575847e-05
2.64140131305611e-05
2.15864376332337e-06
0.000177440287275517
0.000168462905353846
0.000157253445911101
0.000143942954986853
0.0001288347631959
0.000112258867889105
9.43388731959158e-05
7.48446292614583e-05
5.29782966602783e-05
2.65741140713081e-05
2.1463564133675e-06
0.000193797933614532
0.000185440030582208
0.000174810768975205
0.000161999980301812
0.00014728267615539
0.000131024564590044
0.000113501722336141
9.47687828396709e-05
7.45886395547517e-05
5.22391746436069e-05
2.57565438539537e-05
2.00653472136708e-06
0.000210332298264272
0.000202488963802084
0.000192334200047053
0.000179928146214909
0.000165515403696788
0.000149456363075059
0.000132081052578256
0.000113597706553506
9.40366006265158e-05
7.31968198114908e-05
5.04672623933345e-05
2.41697192084266e-05
1.75326640577106e-06
0.000227044340699577
0.000219639063417821
0.000209881902546142
0.000197809048109009
0.000183639560180402
0.000167718459226859
0.000150385076844548
0.000131907030473928
0.000112461092615945
9.20911749326733e-05
7.06558257370283e-05
4.76792279797885e-05
2.18435019370751e-05
1.4080092424375e-06
0.00024389590192567
0.000236871070951777
0.000227455562738016
0.000215663573754836
0.000201693482482207
0.000185873817474451
0.000168537427364134
0.00014996761915434
0.000130399592486268
0.000110012643335099
8.88819063334624e-05
6.69365456571643e-05
4.38539516304205e-05
1.87412150874727e-05
9.97209864405885e-07
0.000260809675484538
0.000254127765824694
0.000245016196203736
0.000233468967124024
0.000219668459265302
0.000203929842161093
0.000186574223643357
0.000167878135488937
0.000148098148642734
0.000127468714683502
0.000106185543930457
8.43601600720409e-05
6.19964628772714e-05
3.8941645987241e-05
1.49217587146287e-05
6.04315084393287e-07
0.000277669722814626
0.000271318223373917
0.000262492098616322
0.000251169490633569
0.000237520710956566
0.000221852479568563
0.000204477837592271
0.000185662069819807
0.000165639210704377
0.000144684057492362
0.000123040863711593
0.000100922307873816
7.84752094740586e-05
5.57788258381321e-05
3.2879420356032e-05
1.05507115006335e-05
2.88963386352941e-07
0.000294319323373603
0.000288310011066754
0.00027977182962571
0.000268671408343391
0.000255170713989986
0.000239570454781796
0.000222179341928821
0.000203261623940396
0.000183050137096995
0.000161724913006134
0.000139647372674069
0.000117053038202314
9.4165564916581e-05
7.11635441063263e-05
4.82145531591686e-05
2.56927942438397e-05
6.02225813421734e-06
9.83944172555961e-08
0.000156012342772789
0.0001329114738066
0.0001094363427671
8.58362249202399e-05
6.23311751585676e-05
3.92548524289524e-05
1.76416384804396e-05
2.39195746464443e-06
2.21202843221532e-08
5.17945348444418e-08
1.51210021514307e-06
1.26739900082873e-07
1.14741213941257e-05
3.14218154973879e-06
2.41783448990586e-07
3.28275962190552e-05
1.77164748122304e-05
5.76809889164285e-06
4.46573068827262e-07
5.92645248656751e-05
4.18770873656458e-05
2.48230258712842e-05
9.30268605196523e-06
7.05416185019467e-07
8.34810586476484e-05
6.73978777290288e-05
5.01193002691028e-05
3.18954503781786e-05
1.31129445317168e-05
9.8090905240769e-07
0.000103937392945352
8.99862540578207e-05
7.42238551217839e-05
5.69571150223901e-05
3.79747449865664e-05
1.66651058684426e-05
1.26064366966778e-06
0.000121805688222162
0.000109636251060007
9.54990335274532e-05
7.96650310601113e-05
6.22380029190327e-05
4.26879929209039e-05
1.96880762773569e-05
1.51396101775039e-06
0.000138170238715851
0.000127452894555247
0.000114635323547008
0.000100000758143177
8.38207006775596e-05
6.60774357514534e-05
4.60742294780314e-05
2.19938845868664e-05
1.70616969632715e-06
0.00015369167346908
0.000144238400029346
0.000132538159677113
0.000118846622885867
0.000103527074597899
8.68370207531347e-05
6.86547047082805e-05
4.82159625643707e-05
2.34598871631404e-05
1.81099571573496e-06
0.000169035660424605
0.000160548933500531
0.000149755615430975
0.000136834420805896
0.000122144236801071
0.00010606140151388
8.87485476437401e-05
7.00205582203802e-05
4.91403236521806e-05
2.40802224938935e-05
1.81774078596381e-06
0.000184537251580264
0.000176791689392072
0.000166712608053152
0.000154413003991842
0.000140205261038044
0.000124491016576886
0.000107574789527953
8.95389270901185e-05
7.01821860198236e-05
4.88317519709381e-05
2.36313626488136e-05
1.73317605143447e-06
0.000200296903455099
0.000193144004158552
0.000183631646114535
0.000171831670514259
0.00015800998528451
0.000142551491572305
0.000125807013634258
0.000108002760057476
8.91892621234523e-05
6.91925035473221e-05
4.74365043475114e-05
2.23238313741587e-05
1.52572585713462e-06
0.000216328585522093
0.000209664267283572
0.000200611416258668
0.000189214065694559
0.000175702045814194
0.000160434822406578
0.00014376560363761
0.000125974160124803
0.000107249122601654
8.7648974277473e-05
6.70520719191933e-05
4.50065032387582e-05
2.02575999320121e-05
1.23043897748245e-06
0.000232613922622102
0.000226354322995849
0.000217679472127142
0.00020660934331872
0.000193345787076039
0.000178223948585699
0.000161585429153924
0.000143720308116317
0.000124870622904616
0.000105223419743171
8.48645252390881e-05
6.37385390443094e-05