/*--------------------------------*- C++ -*----------------------------------*\
  =========                 |
  \\      /  F ield         | OpenFOAM: The Open Source CFD Toolbox
   \\    /   O peration     | Website:  https://openfoam.org
    \\  /    A nd           | Version:  12
     \\/     M anipulation  |
\*---------------------------------------------------------------------------*/
/*   Windows 32 and 64 bit porting by blueCAPE: http://www.bluecape.com.pt   *\
|  Based on Windows porting (2.0.x v4) by Symscape: http://www.symscape.com   |
\*---------------------------------------------------------------------------*/
FoamFile
{
    format      ascii;
    class       volScalarField;
    location    "600";
    object      nut;
}
// * * * * * * * * * * * * * * * * * * * * * * * * * * * * * * * * * * * * * //

dimensions      [0 2 -1 0 0 0 0];

internalField   nonuniform List<scalar> 
10142
(
2.83445547106857e-06
2.77187364268367e-06
0.000103868547257104
2.99832933837314e-06
2.71317806918603e-06
0.000101783106490008
2.93085391427138e-06
0.000361878214736851
0.000106835036493016
3.24032177580163e-06
2.58971996702701e-06
9.94789772007144e-05
2.8513058184536e-06
0.000355538870571472
0.000104659740504486
3.16634200779627e-06
0.000684084083601989
0.000366563701098544
0.000110694299670524
3.39221845973546e-06
2.43235886445925e-06
9.66736465356983e-05
2.70830648955548e-06
0.000348505051845847
0.000102222685144972
3.0733669125506e-06
0.000672307549886759
0.000360119253421395
0.000108422897599608
3.31319462192243e-06
0.00101156770783784
0.000687594927466894
0.000372147728380201
0.000113044839907966
3.35052256304311e-06
2.24681888017329e-06
9.33900678801829e-05
2.532465227245e-06
0.000340456233632084
9.9284198326202e-05
2.9149197478531e-06
0.000659265298423653
0.000352955257461887
0.000105858279431468
3.21200619415756e-06
0.000993560934551633
0.000675752750194427
0.000365584635696121
0.0001107102484926
3.27164717961047e-06
0.00131864821604267
0.0010125808461948
0.00069069739305855
0.000374985742520903
0.000112429040430336
3.16526609857368e-06
2.03196165641613e-06
8.95854508611692e-05
2.32992387582412e-06
0.000331262024744602
9.58597077578288e-05
2.72394600908551e-06
0.00064462821378514
0.000344768004884686
0.000102785622226645
3.04573033075329e-06
0.000973634497627518
0.000662629726830981
0.000358278270172307
0.000108064581433142
3.17007391470395e-06
0.00129398046992337
0.000994559897853036
0.000678794109207116
0.000368353610516341
0.000110091528828379
3.09120234518163e-06
0.00159599466828772
0.00131702351271613
0.00101126955141814
0.000690213481116723
0.000372666583644144
0.000109335681797407
2.92590755318212e-06
1.78917455451246e-06
8.51326578190763e-05
2.10432173959895e-06
0.000320730161403201
9.18880656576006e-05
2.50614977330441e-06
0.000628112714481508
0.000335424879224287
9.92215658442141e-05
2.84760116618496e-06
0.000951458833689227
0.000647905973354617
0.000349942771323409
0.000104910091057147
3.00593635436894e-06
0.00126671409891522
0.00097461145084945
0.00066559888417
0.000360965997771909
0.000107436568633485
2.99439098041025e-06
0.00156451564247881
0.00129240043123165
0.000993278078907521
0.000678309908680868
0.000366052143262929
0.000107044754735435
2.85876790284905e-06
0.00184188649563074
0.00159240336239509
0.00131106818361224
0.00100523672766174
0.000683810262071574
0.000365500194308056
0.000104939836962546
2.67224267404061e-06
1.55708708769372e-06
7.95748248704739e-05
1.88188299610974e-06
0.0003085225120608
8.69591603713691e-05
2.27180009034896e-06
0.000609364094166525
0.000324718552306496
9.50832467547747e-05
2.6222451970286e-06
0.000926650065645108
0.000631299854530576
0.000340447132447791
0.000101266020728077
2.8116125684098e-06
0.00123651367496351
0.000952413490883615
0.000650804806427613
0.000352551865502335
0.000104279378899451
2.8387276847922e-06
0.00152976683600153
0.00126517642512604
0.000973361431886463
0.000665116090652808
0.000358683371760682
0.000104436893552518
2.76876136946927e-06
0.00180361527442589
0.00156102203086374
0.00128657769121751
0.000987358734978286
0.000672000921987462
0.000358980203580939
0.00010272032084854
2.61259913913842e-06
0.00205778513417922
0.00183710857405345
0.001582645233496
0.00129901569395132
0.000992717996271468
0.000671347759509534
0.000355007044806114
9.98779582790036e-05
2.4050292925129e-06
1.31263044308268e-06
7.10588551755835e-05
1.64541988690755e-06
0.000293784773242766
7.97983767532526e-05
2.03373909360208e-06
0.000587855865328212
0.000312154088494141
8.97366499454757e-05
2.37570757282233e-06
0.000898731437530273
0.000612454613233419
0.000329566683740882
9.70536977649914e-05
2.59108089157095e-06
0.0012029391926533
0.000927586933367383
0.000634137456710688
0.000342986692638668
0.000100643203548782
2.65511996904212e-06
0.00149140915617294
0.00123502518194002
0.000951209492928115
0.000650338450578652
0.000350301559032954
0.000101339108026946
2.62303533973076e-06
0.00176139429648239
0.00152637248584932
0.00125950081830057
0.000967575347666425
0.000658917823975191
0.000351714855865487
0.000100187951561033
2.53058510802942e-06
0.00201285105676868
0.00179897625488779
0.00155149399827869
0.00127477372253393
0.000975059466332231
0.000659718477944699
0.000348627014978747
9.77409910317211e-05
2.35350445047846e-06
0.00205230143752242
0.0018246207386872
0.00156526833674384
0.00127962478660517
0.000973360832270622
0.000653821905975246
0.000342170523860179
9.42109824901199e-05
2.11902511460615e-06
1.06359860255137e-06
6.1237213029736e-05
1.3967964682772e-06
0.000274648579126612
7.10558198267364e-05
1.77978054437015e-06
0.000562674989671855
0.000296570421611115
8.2181954628217e-05
2.12907701820838e-06
0.000867053104838631
0.000590807314599987
0.000316698103790018
9.17779576301438e-05
2.34368905245973e-06
0.00116544065509104
0.00089966021145433
0.000615242711374112
0.000332054669367773
9.6475029308211e-05
2.44867762121935e-06
0.00144897389969571
0.00120151354733502
0.000926454329235481
0.000633716142133515
0.00034079339192866
9.77790220441867e-05
2.45272356844877e-06
0.00171492107683036
0.00148812731710103
0.00122952421319791
0.000945590417207005
0.000644279547116964
0.000343459449787556
9.71769979557826e-05
2.39492443187018e-06
0.00196317702221308
0.00175689853609259
0.00151709919400717
0.00124798369501244
0.000955532149542536
0.000646840539461357
0.000341514472290835
9.5299247828277e-05
2.28112273813251e-06
0.00219459159896529
0.00200753319280402
0.00178680404730229
0.00153450278135292
0.00125575970175962
0.000956018070164332
0.000642430984781066
0.000335955809897106
9.2167108823159e-05
2.07610148933833e-06
0.00203784958008197
0.00180293456146633
0.00153929573574542
0.00125249446120283
0.000947534951862134
0.00063194410286275
0.000327186506485847
8.7816526883116e-05
1.81442679702125e-06
8.23695014684026e-07
5.08928274091581e-05
1.14697705715721e-06
0.000249675170975869
6.1533687977618e-05
1.51608057113304e-06
0.000532357553912562
0.000276341429586111
7.32580518744246e-05
1.86877357666242e-06
0.000830679118087289
0.000565395276650614
0.000300712825934062
8.42598691726782e-05
2.1027233437478e-06
0.00112329826668878
0.000867983673815283
0.000593541693776741
0.000319216738944359
9.15627356187556e-05
2.21916747978942e-06
0.00140186473501795
0.00116409954935851
0.000898640083038536
0.000614914396695554
0.000329981083232344
9.37195265539461e-05
2.26297210622286e-06
0.00166372084280362
0.00144582615710117
0.00119623029792903
0.000921055226165454
0.000627846668064903
0.000334113683533583
9.37248546763328e-05
2.23794165673629e-06
0.00190866306670161
0.00171058634365717
0.00147914874450346
0.00121834804644811
0.000933855752692919
0.000632449750935058
0.000333436861540867
9.23853268679536e-05
2.15601251534362e-06
0.00213740804636982
0.00195804099209508
0.00174507356710525
0.001500549061423
0.00122940552140537
0.000936854070255685
0.000629821894810822
0.000329023201507568
8.98303464530385e-05
2.01570012348958e-06
0.00235071490205845
0.00218877859485246
0.00199346725530956
0.00176563696688695
0.00150908065201766
0.0012291223239684
0.000930580670736269
0.000620828994139444
0.000321154617876767
8.58799543544191e-05
1.7805044054641e-06
0.00201267912611188
0.00177109482384643
0.00150433095399386
0.00121754678193491
0.000915445064451723
0.000605813021080156
0.000309860791196565
8.05738054033029e-05
1.49511207412662e-06
6.05975952586294e-07
4.02603119381034e-05
9.08804159489301e-07
0.000219681379852573
5.1361649410495e-05
1.25446610551079e-06
0.000495035263625299
0.000250972163559174
6.36427147435419e-05
1.59988557511438e-06
0.000788336182132106
0.00053479274711924
0.000280038527931715
7.53644339069025e-05
1.84960409823548e-06
0.00107554762122807
0.000831625763656479
0.000568088848296335
0.000303347488281542
8.44548092973918e-05
1.98469866719039e-06
0.00134930259848962
0.00112207405214539
0.000867135891782891
0.000593395624561175
0.000317474324007314
8.90306886325511e-05
2.05362903851689e-06
0.00160716316774241
0.0013988826412508
0.00115909669541971
0.000893543503783164
0.000609321811810707
0.00032353159356848
8.98065191698546e-05
2.06472513795813e-06
0.00184884801328609
0.00165957476884113
0.00143720026223236
0.00118547255684229
0.00090970948964056
0.000616327282614084
0.000324310027089203
8.90506671174953e-05
2.01240178482312e-06
0.00207489351425614
0.00190372844704094
0.0016991593260532
0.00146311314438917
0.00120028449531503
0.000915607929492871
0.000615745435988473
0.000321148123307218
8.70227281317617e-05
1.90365136036856e-06
0.00228611253479474
0.00213182783512062
0.0019444083545214
0.0017244953745314
0.00147575903056504
0.00120333398377242
0.0009118585254906
0.000608527815803439
0.00031442497296181
8.36649624602311e-05
1.7323627595178e-06
0.00248334719417543
0.00234450308989997
0.00217321990602136
0.00196894365614676
0.00173453170084113
0.00147481659825076
0.00119476193498115
0.000898932157038092
0.000595001020758936
0.000304032664013221
7.87598030324052e-05
1.46992159426363e-06
0.00197570894658774
0.00172871980621826
0.00146007021515627
0.00117452276410435
0.000876868505938332
0.000575096147213119
0.000289843710023935
7.23692286196556e-05
1.16762671240945e-06
4.27405676902631e-07
2.99409410103353e-05
6.93918210605818e-07
0.000185465705941396
4.08330594820181e-05
1.00421043519041e-06
0.00044954308054068
0.000221169895732788
5.35509051156929e-05
1.33362055350981e-06
0.00073841946224397
0.000496955223886248
0.000254790548244663
6.58331015874422e-05
1.58935779301468e-06
0.00102092126548774
0.000789316585061681
0.000537536817179845
0.00028319511538023
7.58777399353239e-05
1.74866301258247e-06
0.00129023242945746
0.00107448727193878
0.000831046975151862
0.000568278902392017
0.000302189620954796
8.27860911968982e-05
1.83006446613308e-06
0.00154439631951952
0.00134653192349562
0.00111744427384872
0.000862471449104431
0.000588248860368168
0.000311431624846581
8.53544343257901e-05
1.87530277223568e-06
0.0017830775971569
0.00160324504002046
0.0013906909532534
0.00114887130673507
0.000882708696815044
0.000598217857306456
0.000314015213219586
8.52812956449337e-05
1.85583033501177e-06
0.00200658535372869
0.0018441459076705
0.00164861635404036
0.00142177990673863
0.0011680341347398
0.000891988521993797
0.000600005634179827
0.000312263113526682
8.3811633151242e-05
1.77340879343996e-06
0.00221559827883299
0.00206955581425424
0.00189058775656126
0.00167926121232269
0.00143905968573112
0.00117487463966174
0.000891126826206638
0.000594803749125401
0.000306769083361047
8.09796837815596e-05
1.63733773548711e-06
0.00241105020787839
0.00228017100316964
0.00211680204996439
0.00192062195584699
0.00169422825956944
0.00144229561404845
0.00116964136568669
0.000880706593321262
0.000583035645037206
0.00029752999601603
7.66864675037224e-05
1.43406456047375e-06
0.00259395579569557
0.00247678469663191
0.00232770781134585
0.00214590328260411
0.00193290091899928
0.00169309027057457
0.00143138372425636
0.00115240033524304
0.000860837050003527
0.000564611241911691
0.00028424586198156
7.06974083638167e-05
1.15045679328058e-06
0.00192656322135272
0.00167544201345552
0.00140594565025546
0.00112282488825367
0.000831189863215894
0.000539151245680031
0.000266654738854476
6.30618928353773e-05
8.46980021049869e-07
2.83763517326989e-07
2.08176818178882e-05
5.0891975281236e-07
0.000148480743424042
3.06732115817253e-05
7.74194103846108e-07
0.000396723808835873
0.000187596906172995
4.3313385550244e-05
1.07661118104786e-06
0.000679055167267574
0.000451793307745912
0.00022563788477633
5.58388165861321e-05
1.33048516526923e-06
0.000957786396734613
0.000739305645547237
0.00050002124804559
0.000258671323857637
6.66750195309624e-05
1.5064480435174e-06
0.00122317063724263
0.00102009262059473
0.00078916873128688
0.000538396453777435
0.000283318642742624
7.47857676946235e-05
1.61514227905244e-06
0.00147419127370812
0.00128774107907053
0.00107036693247932
0.00082702218801114
0.00056385950178085
0.000297058530182966
7.99915155550399e-05
1.67078279498208e-06
0.00171043091609032
0.00154076341904332
0.00133888972130554
0.00110791655140249
0.000852341510321895
0.000577754261313005
0.000302365392067795
8.10422692912631e-05
1.68620294143175e-06
0.00193183203530357
0.00177865304175586
0.00159285238344133
0.00137602629977858
0.00113221628793501
0.000865660060964053
0.00058238701861915
0.000302273806245578
8.01946831249046e-05
1.63342059080905e-06
0.00213881452191432
0.00200152183235619
0.00183157742775692
0.00162951965028355
0.00139860311993928
0.00114341742755197
0.00086812438561954
0.000579481787085975
0.000298135893067702
7.79012390783742e-05
1.52233355782904e-06
0.00233227551006155
0.00220994127177781
0.00205511912356278
0.00186764548888014
0.00164996137888078
0.00140652295104178
0.00114195343760248
0.000860543485397445
0.000569686858738499
0.000290110447904554
7.41489553372048e-05
1.35777509446451e-06
0.00251344619565052
0.00240480403540383
0.00226400185495028
0.00209038527177793
0.00188563680210684
0.00165384873980585
0.00139980114867486
0.00112802539566875
0.000843147668995883
0.000553007158519596
0.000278002597403764
6.87888998724045e-05
1.12738552424326e-06
0.00268360466043024
0.00258710426970692
0.00245893736884755
0.00229803826567482
0.00210559067893033
0.00188494454093043
0.00164091784555048
0.00137819366132413
0.00110142595232434
0.000815672863405062
0.000529020262132202
0.000261323747802637
6.156419988105e-05
8.35977869442659e-07
0.00186489010156806
0.00161053683517677
0.00134105215344672
0.00106150857805267
0.000777418976223799
0.000497021081081633
0.000239646592968639
5.25673623756166e-05
5.54274096971311e-07
1.93367383646571e-07
1.34365099928453e-05
3.56831217594556e-07
0.000111696149964747
2.17122415992511e-05
5.71637929352331e-07
0.000337184209426869
0.000151833152109004
3.3406137620497e-05
8.35624722962692e-07
0.000610418272544639
0.000399681065457044
0.000193353632080044
4.5667840421567e-05
1.07889643009682e-06
0.000883869862288537
0.000680338860761006
0.00045584022171379
0.000230557452423729
5.69856588256759e-05
1.26338173291227e-06
0.00114591002869546
0.000957271930768419
0.000739863764297833
0.000502102784048188
0.000260003167909381
6.60713268745081e-05
1.39279743867866e-06
0.0013946011278059
0.00122106408969529
0.00101668493293412
0.000786134869824947
0.000535228683470268
0.000279702838090727
7.27278627470486e-05
1.46887746218076e-06
0.00162947187624755
0.00147093292765585
0.00128081427881734
0.00106178277632544
0.000817902932907916
0.000554344236263675
0.000288915698301742
7.6204621583427e-05
1.50366948050595e-06
0.00184969658230062
0.00170635098107715
0.00153107289558731
0.00132517915538249
0.00109227622162725
0.000836192541296779
0.000562606648009643
0.00029105393000212
7.6149342214884e-05
1.48275209705028e-06
0.00205520104384847
0.0019270910785557
0.00176676643625245
0.00157472228048151
0.00135391917023206
0.00110857836705125
0.000842563490730508
0.000562381444953728
0.000288452920300078
7.44396206074894e-05
1.39762683880382e-06
0.0022467724944224
0.00213347599219592
0.00198775929282921
0.00180961805288283
0.0016013552010493
0.00136715915942925
0.00111140689806721
0.000838208583581933
0.000554796234478552
0.000281734222923736
7.12161789175599e-05
1.26166882179967e-06
0.00242580617062709
0.00232636353497716
0.0021944627419421
0.00202971987393198
0.00183387033398417
0.00161080006114378
0.00136510375202464
0.0011011870334396
0.000823587088811966
0.000540049280500105
0.000270840651592769
6.64289112620948e-05
1.06720715918753e-06
0.00259400075906097
0.00250696845832033
0.00238768999523012
0.00223540427559638
0.00205137144154475
0.00183903073414495
0.00160292525458185
0.0013476607962359
0.00107785713875119
0.000798551462951374
0.00051780740749255
0.00025537799677305
5.98660861127338e-05
8.22367462510521e-07
0.00275296759944088
0.00267654855912795
0.00256839668824342
0.00242730195199741
0.00225408598680859
0.00205187207054547
0.00182468805778453
0.00157726569916613
0.0013143263317211
0.00104088607232574
0.000762449039447501
0.000487280337204812
0.000234632786029807
5.12435695067963e-05
5.47028961141444e-07
0.00178990783708564
0.00153289893430424
0.00126416767808035
0.000989258546377936
0.00071415423723032
0.000447390550472807
0.000208025754511019
4.08447213290122e-05
3.09392938217091e-07
1.25588561364709e-07
8.30966627665983e-06
2.44632579618307e-07
7.85751771466674e-05
1.45741659559163e-05
4.05005260708403e-07
0.0002730251072424
0.000116427459100524
2.44242050235179e-05
6.21060896594249e-07
0.000532249132369375
0.000341423544282335
0.000159153892315177
3.57424086607489e-05
8.41819249340899e-07
0.00079724695574967
0.000612397094659671
0.000405416191358747
0.000199554273006739
4.70570915072621e-05
1.02737197890607e-06
0.00105485770035517
0.000883748349462801
0.000682103733018547
0.000459694886127744
0.000233356488113128
5.68216141544045e-05
1.16899825698732e-06
0.00130221453541277
0.00114435375440165
0.000954876222385294
0.000738465329952689
0.00050099033574526
0.000257973787976887
6.44824880756876e-05
1.26806400502891e-06
0.00153766319739391
0.00139187113454975
0.00121510055882745
0.00100941351112492
0.000778513304870081
0.000527255524598025
0.000272824933100392
6.99002220156242e-05
1.31159720193046e-06
0.00175861914381593
0.00162584714743156
0.00146214556705706
0.00126834572481066
0.00104749781434849
0.000803010888241902
0.000540232649995668
0.000278345631387806
7.16212869920925e-05
1.32127337300413e-06
0.00196392258059194
0.00184535158512316
0.00169530162191876
0.00151414151544756
0.00130441369588455
0.00106988488128879
0.000814093741970595
0.000543286333130001
0.000277626788693885
7.05786818402794e-05
1.26482287574451e-06
0.00215414447996466
0.002050231320711
0.0019141205183873
0.00174597659172635
0.00154791960344103
0.00132379330482997
0.00107767125081539
0.000813456921857573
0.000538211788321187
0.000272346331685018
6.79078399347196e-05
1.1524415278242e-06
0.00233091017669139
0.00224123170650253
0.00211877890626954
0.00196352911861186
0.00177724618329063
0.00156361182002654
0.00132699196569377
0.00107162617648795
0.000801942396036296
0.000525588551666763
0.00026272003417715
6.36535438117773e-05
9.90166151948707e-07
0.0024963724681553
0.00241972597969942
0.00231005563425857
0.00216707022946187
0.00199217811273758
0.00178880028478811
0.00156129652159035
0.00131415202478412
0.00105192332882919
0.000779614460821441
0.000505252538875184
0.000248498409508851
5.76930164873685e-05
7.75415276097539e-07
0.00265283259477302
0.00258739311419267
0.00248912142127368
0.0023573242638906
0.0021930159528419
0.00199932325912063
0.00178037257023561
0.00154067759328564
0.00128493533235361
0.00101817399354598
0.000745927712094325
0.000476496889111328
0.000229027520903793
4.97697257334891e-05
5.38802752643283e-07
0.00280227869592317
0.00274581417987593
0.00265720024051268
0.0025351936909716
0.00238033133483108
0.00219541593745498
0.00198438915633664
0.00175131922165897
0.00150101153535281
0.00123855198774782
0.00096946650799494
0.000699775056618625
0.000438093718386576
0.000203385554003648
3.9702265830431e-05
3.04496354183109e-07
0.00170040485895259
0.00144112258154264
0.00117374233884306
0.000904350656449327
0.000639551983680874
0.000388620965343017
0.000170893393105593
2.810652269918e-05
1.36327571584512e-07
8.92707958100876e-08
5.00315305171177e-06
1.5830376583364e-07
5.22496891860134e-05
9.48601589536907e-06
2.75316209958482e-07
0.000208372201009992
8.42895033144853e-05
1.69502169038956e-05
4.43441661790554e-07
0.000445618829539022
0.000279082242089523
0.000124879642600884
2.67037547649189e-05
6.31151556146658e-07
0.00069599024765085
0.000535336045916576
0.000349524972963202
0.000166603059870354
3.73790823549945e-05
8.05400187654872e-07
0.00094426613272203
0.000798033836622188
0.0006159841697406
0.000411605960331317
0.000203931956034399
4.73639465040249e-05
9.52758700543854e-07
0.00119067132262213
0.0010540611693879
0.000882832763951451
0.000682838237782307
0.00046089915666447
0.00023318061413267
5.57949093580754e-05
1.06524838261466e-06
0.00143005333855737
0.00130030217171541
0.00113973944591623
0.000949473396239599
0.000733111957437574
0.000495505497447571
0.000253327526192933
6.22047234487461e-05
1.13156776917485e-06
0.00165562265340563
0.00153470110762669
0.00138430904021694
0.00120430767132343
0.00099698510180233
0.000765404423178134
0.000514647311652806
0.000263501416241159
6.63501160521441e-05
1.15147713644976e-06
0.00186350648311423
0.00175479542985761
0.00161587380074246
0.00144675708978913
0.00124931492950631
0.00102674124203597
0.000782261387617133
0.000521886393798988
0.000265510267837572
6.62898190403167e-05
1.12439019778978e-06
0.00205380395885573
0.0019593964014946
0.00183334111136954
0.00167594539686684
0.00148901728558077
0.00127591900509671
0.00104035374571203
0.000786006655981934
0.000519764706486777
0.000261875941306245
6.42188203348766e-05
1.03542179713235e-06
0.00222860555494049
0.00214902632334326
0.00203643808037151
0.00189126155293912
0.00171526450983802
0.0015118586323877
0.00128511298517651
0.00103906025043378
0.000778003586537647
0.000509494625413053
0.00025359941316081
6.04929732782744e-05
8.99578546155523e-07
0.00239073444703704
0.00232527045654309
0.00222582721321326
0.00209275499432694
0.00192767366821996
0.00173394302685887
0.00151574209835267
0.00127740391906733
0.00102339175695051
0.00075866234052454
0.000491205095385503
0.000240617121175096
5.50809686740139e-05
7.13749360271932e-07
0.00254331040459253
0.00249024934583764
0.00240282473204824
0.00228110973694158
0.00212644253490293
0.00194201394787627
0.0017319452492887
0.00150062900268124
0.00125270304093087
0.00099318524557462
0.000727629542269613
0.000464354099615549
0.000222439619375555
4.77771981473512e-05
5.03588431262458e-07
0.00268936886676002
0.00264623060094164
0.00256906238129477
0.00245742371024689
0.00231222298463853
0.00213637163631759
0.00193382892148122
0.00170881120697817
0.00146596144539609
0.00121038501876081
0.000947662911032718
0.000683897265677628
0.000427787809458524
0.000198158253376386
3.84542172444851e-05
2.99869355356416e-07
0.00283127888515111
0.00279516240058827
0.00272607573754222
0.00262286401462981
0.00248585360240885
0.00231755877022849
0.00212169429349998
0.00190231314083419
0.00166360537937183
0.00141074163952916
0.00114932511775399
0.000885461637696389
0.000625841177947204
0.000379863186870931
0.000166715221776396
2.72015377414223e-05
1.32581610533543e-07
0.00159488280636121
0.00133353541831043
0.00106789051838826
0.000804668047183756
0.000551409590023665
0.000318989130579541
0.000127987856568439
1.53580215631336e-05
4.49036532431121e-08
5.47985372519415e-08
3.05395163272488e-06
9.59458255046319e-08
3.34472008636431e-05
6.0133674809359e-06
1.75039777869561e-07
0.000149436500809807
5.79633986033277e-05
1.13216479767906e-05
3.04406180613816e-07
0.000354736753142362
0.00021636093623686
9.28583959214884e-05
1.91588347091122e-05
4.56628736630915e-07
0.000580577542909591
0.000450243108041127
0.000289817478949068
0.000133300214778411
2.86006517982331e-05
6.08852798042439e-07
0.000808951067433552
0.000698074595683713
0.000541462544427878
0.000358543985067737
0.00017266890313494
3.81723309812118e-05
7.5056371581216e-07
0.00104930923089494
0.000944923671462637
0.000799231727009147
0.00061959287991271
0.000415639219097871
0.000205717353557789
4.69519534795952e-05
8.68653119367963e-07
0.0012968425052536
0.00119012883257806
0.00105144652324943
0.000880121495836198
0.000680463445080281
0.000458058635060206
0.000230397314564067
5.41804931700224e-05
9.51469029571565e-07
0.00153455431206374
0.00142818011582685
0.00129453332060515
0.00113131372133189
0.000939642278247986
0.000722532385264811
0.000485147397677278
0.000246065010960216
5.94804866057629e-05
9.82888325648984e-07
0.00175098098685433
0.00165256723388704
0.00152621865187814
0.00137101679032424
0.00118759707449111
0.000978415334700363
0.000746498322896498
0.000497720699533301
0.000251772241138388
6.15098026509394e-05
9.77683433415513e-07
0.00194464012765223
0.00185955069820506
0.00174401103716034
0.00159835769308156
0.00142377784843057
0.00122289542822857
0.000998972049353916
0.000755506438460016
0.000499237203259293
0.000250228167789985
6.01368254743029e-05
9.14006168559467e-07
0.00211872037096377
0.00204917963285378
0.00194667809527686
0.00181213972740454
0.00164725299718148
0.0014550019827278
0.00123904474497255
0.00100316673057747
0.00075154330891042
0.000491632405916567
0.000243426324508651
5.69554218386247e-05
7.98785570054192e-07
0.00227728315291462
0.00222346054096161
0.00213465021778627
0.00201199394238187
0.00185737184044864
0.00167402858850093
0.00146589946975498
0.0012371157456408
0.000992019751497297
0.000735511691893191
0.000475550668731899
0.000231710320946115
5.2062551157545e-05
6.42355750184865e-07
0.00242457488168505
0.00238515218450137
0.00230942408809605
0.00219847772361438
0.00205412121252251
0.00187965156669076
0.0016791399201151
0.00145686898416565
0.00121739622610455
0.000965705814018569
0.000707358204914322
0.000450685825895052
0.00021476277761136
4.53100815094158e-05
4.56139748302214e-07
0.00256493172534428
0.00253732140995224
0.0024730459436725
0.00237280782367048
0.00223810132523027
0.0020720678694492
0.00187874555524632
0.00166240387374393
0.00142762421830909
0.00117950294114096
0.000923657380462197
0.000666258109640758
0.000416067498134687
0.000191859075139957
3.66533062139685e-05
2.76294042694277e-07
0.00270227247666992
0.00268295468505273
0.00262771556774206
0.00253652535555714
0.00241031788082182
0.00225188440205496
0.00206507162967125
0.00185401128311778
0.00162308701802166
0.00137735242741605
0.0011224687983104
0.000864638568461464
0.000610683427344573
0.000370112344942196
0.000161959038004788
2.62343898310714e-05
1.3039231764303e-07
0.00283925563715818
0.00282436950427638
0.00277532434165557
0.00269108928502134
0.00257185158373855
0.00241987416532607
0.00223865839458445
0.00203209151268467
0.00180436137463519
0.00156003760099501
0.00130478963367692
0.00104478622269267
0.000786807843629556
0.000538536075505638
0.000310999247300928
0.000124422894491237
1.48281682289949e-05
4.30234634701386e-08
0.00147164403196794
0.00120823921057668
0.000944478502183857
0.000687903969944064
0.000447658898404745
0.000237622708697218
7.96572755836248e-05
5.27632206288379e-06
9.28768728171117e-09
1.77031860444755e-08
1.43143249161622e-06
5.16206938831255e-08
2.05527794189919e-05
3.49174049487317e-06
1.02379191260363e-07
0.000101195320493403
3.81345844560473e-05
7.28702217939053e-06
1.98224586778665e-07
0.000267592569246536
0.000158522169263282
6.55066027276617e-05
1.33578982012633e-05
3.20166322503969e-07
0.000459875658720741
0.00036103700184183
0.000229209398189148
0.000101787677515525
2.12484493380923e-05
4.45771313474545e-07
0.000651891013953796
0.000584178709521643
0.00045943802239014
0.000301827293946066
0.000141056150288139
2.98697203496555e-05
5.71396926147602e-07
0.000869069593067656
0.000811688819888738
0.000702241991791698
0.000548771143755965
0.000365907121260117
0.000176586631825614
3.83959303315052e-05
6.86361652002624e-07
0.00112199685661016
0.00105102381156264
0.000945370473789148
0.00080017884432219
0.000620880124923187
0.000415934152469026
0.000205077183400812
4.60236513421731e-05
7.74948289044554e-07
0.00138297893034833
0.00129691684053589
0.00118723448091398
0.00104660411988288
0.000874043304041335
0.000673368411471286
0.000450783434836742
0.000225084058888799
5.19656802499647e-05
8.2390469302691e-07
0.00162001057540458
0.00153279514857
0.00142200073734554
0.0012843186195746
0.00111783855257483
0.000924039253353352
0.00070616338152946
0.000470292550626163
0.000235792005597063
5.58248147178141e-05
8.27667965565014e-07
0.00182423036523078
0.00174784762202158
0.0016434967230831
0.00151124676797317
0.0013509228593309
0.00116389510998726
0.00095293978767749
0.000721518503190906
0.000476317375745317
0.000237243850022422
5.56441736100609e-05
7.89356770777002e-07
0.00200078879755344
0.00194062318248073
0.00184817619544877
0.00172491911618841
0.00157223279738436
0.00139233051830269
0.00118826770385696
0.000963560818339514
0.000722292895522253
0.000471844148042897
0.000232135302186088
5.30427868205802e-05
6.95074468475218e-07
0.00215648112144212
0.0021141354568675
0.00203599694289547
0.00192410571729588
0.00178060629666803
0.0016084960829728
0.00141132330896946
0.0011929393005219
0.000957542756618901
0.000709976796573599
0.000458179967214037
0.000221743901476104
4.86523961128444e-05
5.61332459972129e-07
0.00229735266285066
0.00227230490362286
0.00220880083619416
0.00210911351440764
0.00197564747888282
0.00181182020909826
0.00162159270959343
0.00140909085039797
0.00117875801035282
0.000935524521284101
0.000684949947188578
0.000435392242755692
0.000205999538233268
4.24297298160088e-05
4.02820884450781e-07
0.00242937806828751
0.00241928333817181
0.00236921328050376
0.00228128696338612
0.00215781609460986
0.0020022991385888
0.00181888908062163
0.00161187007602591
0.00138578129540451
0.00114569571257017
0.000897246134133757
0.000646653628482825
0.000402741823833789
0.000184366955916733
3.43722468821932e-05
2.44512937230011e-07
0.0025584913981237
0.00255932936583053
0.00252019209393385
0.00244253081938673
0.00232819967660978
0.002180475587388
0.00200346236013776