/*--------------------------------*- C++ -*----------------------------------*\
  =========                 |
  \\      /  F ield         | OpenFOAM: The Open Source CFD Toolbox
   \\    /   O peration     | Website:  https://openfoam.org
    \\  /    A nd           | Version:  12
     \\/     M anipulation  |
\*---------------------------------------------------------------------------*/
/*   Windows 32 and 64 bit porting by blueCAPE: http://www.bluecape.com.pt   *\
|  Based on Windows porting (2.0.x v4) by Symscape: http://www.symscape.com   |
\*---------------------------------------------------------------------------*/
FoamFile
{
    format      ascii;
    class       volScalarField;
    location    "600";
    object      omega;
}
// * * * * * * * * * * * * * * * * * * * * * * * * * * * * * * * * * * * * * //

dimensions      [0 0 -1 0 0 0 0];

internalField   nonuniform List<scalar> 
10142
(
2.46683987631541
2.46684423974848
0.531407210171008
2.38167766499647
2.46684118035118
0.528106584860994
2.38168070909672
0.261754569194126
0.518004575679465
2.28699316144663
2.46683835846298
0.524758894317611
2.38167984455201
0.259237471840602
0.514863142984743
2.28699581011822
0.180782508310683
0.258204890865523
0.501548717602604
2.21610697667948
2.46683452748261
0.521567142950174
2.38167530777881
0.256652973796103
0.51172496087294
2.2870079271358
0.178861772546759
0.255727019423032
0.498505807116106
2.21610913137178
0.145561279448144
0.179564570073742
0.253129544493761
0.488338183667815
2.18721775585323
2.46682782535463
0.518391158601954
2.38165827618735
0.254081832128889
0.508713378653054
2.28697900765528
0.176899296488533
0.253186713856549
0.495477876596418
2.21612331110756
0.144023241449544
0.177654264062411
0.250690145426305
0.485358784340599
2.18721860542126
0.12711635256992
0.145091205820556
0.177537656767575
0.248273997378293
0.480811355558998
2.18619322577566
2.46680508538093
0.515307454534323
2.38167709541093
0.25153831267201
0.505721462798346
2.28697861317679
0.174945481940012
0.250655180675202
0.492553750794233
2.21609128397796
0.142472858054105
0.175701074624566
0.248190241151079
0.482390669394836
2.18722046005908
0.12583490639212
0.14355569460341
0.175638700465473
0.245860738982582
0.477856850472225
2.1861929151941
0.116407040792889
0.126920089215794
0.144142591111695
0.175221423851344
0.244512441881642
0.476950422234562
2.19193193507179
2.46678126284934
0.512601530647784
2.38170160929269
0.249090821743058
0.502887321961898
2.28700601141414
0.17304495522375
0.24814695893153
0.48963916274698
2.21610726759164
0.140949231873672
0.173754087479312
0.24569125839729
0.479504828425246
2.18721393070675
0.124563101850767
0.142005679527156
0.173694874185025
0.243384021558664
0.474904139049223
2.18619178960914
0.115308522867639
0.125638245028376
0.142607862527275
0.173328402871087
0.24210781636293
0.473991637439003
2.19192922429423
0.109810265932613
0.116306452277648
0.126408449265304
0.142869449386336
0.17299138660885
0.241548663321314
0.473688320759336
2.19485822904104
2.46685600848344
0.512029386677312
2.38179225911149
0.246897514119933
0.501783414898716
2.28705898295906
0.171269593855054
0.245738533729817
0.486935143695267
2.21612726386856
0.139500971954685
0.171856924245231
0.243206014473858
0.476612864255308
2.18721825356119
0.123336161151333
0.140480298294415
0.171752019844734
0.240897949135942
0.472015790494747
2.18618963719849
0.114234933081068
0.124363735710395
0.141055444356808
0.171386261627656
0.239632638475851
0.471022971882256
2.19192750555393
0.108851801800373
0.115206410906719
0.125123052325096
0.141331229458561
0.171096632200371
0.239140809741498
0.470712033039071
2.19485325608768
0.105625002921706
0.10974004652786
0.115976845121302
0.125621895732046
0.141438743760745
0.170881154948464
0.238677950939088
0.469476151789871
2.1951322074037
2.46710977771731
0.52369442851741
2.38207774583481
0.245486108989994
0.508535575194128
2.28720832045595
0.169745263215335
0.243697485455551
0.486885340758495
2.21618885830368
0.138199255068343
0.170080965456531
0.24081984174112
0.473883866131314
2.18723964142585
0.122202483384484
0.139027299555992
0.169851013505457
0.238411453401293
0.46910124289791
2.18619407057886
0.113220850105239
0.123132001629889
0.139522863562055
0.169436907097627
0.237136085521881
0.468099433314586
2.19192361212936
0.107927218168197
0.114128998935649
0.123841517051044
0.139770327292776
0.169145923508079
0.236652627363129
0.467715872403683
2.19485101772543
0.10478648568363
0.108779620015868
0.1148714807402
0.124328622593047
0.139892563498701
0.168979723838683
0.23626299186316
0.466476178062064
2.1951268552881
0.105566019563279
0.109489105610532
0.115431218773282
0.124645841157734
0.13993773096013
0.168741986583848
0.235460005704314
0.464170467243379
2.19481068255959
2.4684579407777
0.542461740745147
2.38279746884582
0.246263185809159
0.521478901538476
2.2875911105826
0.168719575218901
0.24278284694847
0.494130308713581
2.21635232567511
0.137154183714456
0.16856012975663
0.238865998953148
0.473071465164784
2.18729932062537
0.121231502833029
0.137716434928329
0.168060993685696
0.236001888511729
0.466241020739862
2.18621381599225
0.112314849630896
0.121990679475605
0.138055538010678
0.167516777937766
0.23462163018988
0.465126549470654
2.19193152738901
0.107073599980804
0.113109005034868
0.122598109775234
0.138221487299018
0.16717746162554
0.234129070883055
0.464750093345733
2.19484625293944
0.103977752598881
0.107850818351414
0.113785241776789
0.123034007640547
0.138316755835297
0.167014069155373
0.233757454170962
0.463453638226327
2.19512422384563
0.102248385819168
0.104725319024272
0.108522560132548
0.114315876300661
0.123340910901364
0.138381187117317
0.16683339725503
0.233040049329683
0.461143782853856
2.19480514058606
0.105355877684905
0.109073635670209
0.114728947888574
0.123568265005086
0.138381021184695
0.166456186119211
0.23178392120033
0.458001575331339
2.19480573107997
2.47049254982686
0.567899617578116
2.38444982034606
0.250769369938268
0.539215388321086
2.28846146597185
0.168644139576107
0.24420896116782
0.506470523804054
2.21675195204148
0.136541672910568
0.167553614997329
0.238064863193522
0.479300992549406
2.18745794987137
0.120525077969274
0.136656443272395
0.166517162969125
0.233952219503977
0.464046250861133
2.1862686607412
0.111586007993573
0.121007813957004
0.136719602878074
0.165688456771588
0.232143906357892
0.462155422496153
2.19194807846382
0.106340787899472
0.11219428164491
0.121438303656538
0.136726142402347
0.165221791053114
0.231568051312865
0.461707132226539
2.19485434553035
0.103250754009292
0.106990925985727
0.112751850235998
0.121769924219629
0.136742695682785
0.165018102304426
0.231202764854007
0.460453779021375
2.19511911976615
0.101523215060489
0.103912113959188
0.107584176049005
0.113214444388693
0.122027663141385
0.136786853667562
0.164851649669576
0.23052010444612
0.458096431639285
2.19480231296031
0.100692406250554
0.102193454579304
0.104508606063674
0.108095850330656
0.113599585747737
0.122249773967974
0.136814541913472
0.164543480132754
0.229362291742205
0.454952091625601
2.19480014114704
0.105021980757787
0.108549427305414
0.11395187768414
0.122453464802116
0.136772196942167
0.163997802554767
0.227689529230298
0.451101543747322
2.19513095048833
2.47707958883524
0.602780039558936
2.3873006038256
0.259806251346902
0.564017579444006
2.29017031273842
0.17021406969454
0.248945756753252
0.522903601610428
2.21762553516218
0.136633102617887
0.167497379255464
0.239557080547083
0.490312268191531
2.18784711264511
0.120235500080428
0.136020448199404
0.165468894377689
0.232959987731473
0.468549626079214
2.18641927393713
0.111134325273661
0.120283079470649
0.135618557894129
0.16407323335198
0.229889100173956
0.459530192301145
2.19199870064206
0.105798730081091
0.111452551628534
0.120426768983389
0.135344203206769
0.163330853644498
0.229008369204203
0.458620281505886
2.19486956763889
0.102656325962217
0.106249045078742
0.11181712896641
0.120578204232482
0.135206486162188
0.163016734417452
0.228590644086701
0.457349535325833
2.195127054682
0.100901334591703
0.103178663962929
0.106710207255759
0.11215840644628
0.120734784025185
0.135182339169343
0.162826928479744
0.227938932294875
0.455074743719558
2.1947970768372
0.100067449474827
0.101464426457386
0.103685218296805
0.107141054395126
0.112477186706905
0.120914854388805
0.135201691255515
0.162548902433386
0.226834592079466
0.451870028748875
2.19479726429068
0.0998544974742246
0.100644266890661
0.102003510304325
0.10416241984546
0.107555705325901
0.112806187674689
0.121121754061957
0.135198698505451
0.162086140157475
0.225271512718014
0.448033675132114
2.19512542090208
0.10462433153149
0.107994254057125
0.113177185186445
0.121354944196487
0.135145423091159
0.161417617224125
0.223271447875542
0.443479123216222
2.19485568691378
2.47707765247967
0.650628460563004
2.39185417680148
0.274792324414654
0.599023233105928
2.29303147667512
0.174276102024444
0.257639853813535
0.544763088935686
2.21929747849747
0.137835397083297
0.169125810510959
0.243858541739412
0.504760092068767
2.18870502245036
0.120591113679855
0.136074885110489
0.165318691559484
0.233901095706298
0.477886017625993
2.18679835039516
0.111109474516059
0.119965241478041
0.134915438826532
0.162896283611108
0.228515775009657
0.461033657355403
2.19214278540219
0.10554974541019
0.110981599567134
0.119657736852465
0.134168811905585
0.161602733249783
0.226572920125666
0.455636079287989
2.19491695506187
0.102264694504756
0.105693758572326
0.111045534382987
0.119517741551502
0.133759739973088
0.161050844871908
0.225947158378287
0.454159648238744
2.19514130958217
0.100424212908732
0.102575017867758
0.105947768708611
0.111190101124706
0.119499251232201
0.133598114572526
0.160778459150782
0.225281665259593
0.451926589103443
2.1948048515979
0.0995492616583621
0.100836009744793
0.102937213618718
0.106243334642363
0.111390176437626
0.119588621422223
0.133566434283854
0.160499535103689
0.224235597869161
0.448833908413768
2.19479197779223
0.0993307678092377
0.100015137518673
0.10126407509948
0.103321447782168
0.106578057041941
0.111659381184364
0.119765147747311
0.13357050130701
0.160084681008097
0.222739867284411
0.444906608889908
2.19512262939621
0.0995545629617486
0.0998127085748354
0.100476089816321
0.101714900572166
0.10374687319899
0.106981488817224
0.112014916492426
0.120012449536437
0.133569890006985
0.15951357599574
0.220859498036939
0.440399891751266
2.19485236171608
0.104239535904712
0.107487262914562
0.112479236866081
0.120343860687669
0.133585963007502
0.158838817544907
0.218689729106731
0.43503274927954
2.19192995822876
2.49612145387186
0.711059119842922
2.39533601503348
0.298153881162807
0.645932166128697
2.29674769691033
0.181502414849387
0.271629324774431
0.573328979637969
2.22204871723377
0.140771502139617
0.172976484995632
0.251429683170367
0.523881006273492
2.19037351229288
0.121940164662304
0.1372381633963
0.166722049786795
0.237310900718134
0.490292863879128
2.18765645315788
0.111745549198241
0.120276871405757
0.134857858212221
0.162495496348096
0.22856655369602
0.468344725967227
2.192515777959
0.105752371744869
0.110927372218741
0.119271113680744
0.133344995174913
0.160227044500984
0.224701269959521
0.454197639349899
2.19505560520556
0.102181213282642
0.105425063449996
0.110529691439065
0.118673778074238
0.132481300397645
0.159194708836881
0.223341719645501
0.450938199909275
2.19518630728496
0.10015907112088
0.10217000459922
0.105362216703307
0.11036856259502
0.118372459025548
0.132076617400547
0.158736928883614
0.222563994748493
0.448654619851808
2.19481853346539
0.0991822206228487
0.100349492317548
0.102312643344465
0.105446406122416
0.110376265480236
0.118302695873601
0.131933750877444
0.158409492423598
0.221545007107101
0.445662780119254
2.19479967643484
0.0989213098589053
0.0994900368836295
0.100620629179429
0.102548627967922
0.105647591685638
0.110536426064406
0.118405212496789
0.13190837386016
0.158018420517674
0.220132868124684
0.441855179462982
2.19511741636928
0.0991435547398693
0.0992841747528193
0.0998357499973466
0.100956629950984
0.102881015467927
0.10597671059888
0.110843083416907
0.118636893521053
0.131932073654258
0.157512354859775
0.218323659584419
0.437227754473354
2.1948499727696
0.0996779560897952
0.0995177841226121
0.0996624222293134
0.100232125241385
0.10139315329238
0.103340040503726
0.106454345027953
0.111302099970346
0.118994980345753
0.132015263645538
0.156949540692612
0.216278113114792
0.431951310930849
2.19192893783902
0.103946630151024
0.10711181048136
0.111951326397373
0.119535739974277
0.132252274875514
0.156488538611788
0.214225145111797
0.425654360700602
2.18619365483965
2.47684900258225
0.78528875631121
2.40111560495267
0.332239058449328
0.703270188031466
2.30018086900016
0.193245200491796
0.292649902066492
0.609926660510232
2.22558050497906
0.146070899909466
0.17974835246393
0.263116430331131
0.548891759717338
2.19317081553601
0.124857403802253
0.140039831558052
0.170050228836286
0.243446350116582
0.506745409071338
2.18937730661276
0.113433839316401
0.121557793366352
0.135828110388725
0.163421954975172
0.230927861486414
0.478860797802277
2.19338245433317
0.106672867354178
0.111517298552345
0.119474529254889
0.133086365075891
0.159461984162863
0.223852875946677
0.459212457670652
2.19542324772009
0.102576543187022
0.105597303606155
0.110407130949541
0.118171415856885
0.131492560895415
0.157588144603816
0.221011710515743
0.448093690129023
2.19532073189423
0.100211559781211
0.102066525760229
0.105048359920048
0.109777901849122
0.11742777676776
0.130681156183817
0.156754632016726
0.219822302249787
0.445292351815285
2.19486220185125
0.0990315407995736
0.100070807367907
0.101877101523137
0.104810300580881
0.109487392460063
0.117100227818161
0.13033726185356
0.156300755598296
0.218770196154856
0.44233738902763
2.19481329607905
0.0986697445668709
0.0991132270388595
0.100112717087619
0.101888660768463
0.104803509526498
0.109469882349222
0.117068308830465
0.130232421157842
0.155897441025736
0.217425430432152
0.438683593515432
2.19512516206178
0.098861439215021
0.0988671248103584
0.0992947595618537
0.100287070675285
0.102073475132393
0.105007647577287
0.109683184882711
0.117246637684606
0.130250398685814
0.155439792142458
0.215719370800212
0.434164519056577
2.19484701083643
0.0994080346432893
0.0991010062573115
0.0991213996181937
0.0995711141471368
0.100607577272553
0.102443980900869
0.105420910161655
0.110107249738633
0.117605705739143
0.130375748004448
0.154955851877854
0.213733330739299
0.428788496278094
2.19192716018351
0.100158641963579
0.0996441837949273
0.0993811508153621
0.0994531262552314
0.099983003233416
0.101116894632416
0.103022958048341
0.106059548326715
0.110762900431494
0.118186840851937
0.130695168121209
0.154620628387886
0.211801902698489
0.422579492843745
2.1861928472248
0.103833455057716
0.106974624581126
0.11173167504851
0.119121028767512
0.131420010415755
0.154770748385811
0.210349929672898
0.415949277077483
2.1872188611848
2.51405902630846
0.857146928480405
2.4006579023158
0.378839963772943
0.764804610838201
2.30188323223664
0.211410574059353
0.322537579899568
0.654527051069818
2.22846110581968
0.154857817744176
0.190564599899276
0.280256023799727
0.58091820290557
2.19682452498093
0.130245608572561
0.145084597501495
0.175850169136232
0.252961777607363
0.528542365632269
2.19233033276058
0.116897770020631
0.124370224035399
0.138283843768409
0.16597156089952
0.235556731180054
0.493038238615778
2.19516235530522
0.10880742234302
0.113130313575969
0.120582357718658
0.133706747493863
0.159743578628369
0.225105210206175
0.468144759778136
2.19629485099363
0.103757231146551
0.106468350176598
0.110890693387184
0.118193462461238
0.130966285682149
0.156427106312671
0.219502810627417
0.449795585232473
2.19568357678908
0.100759306185197
0.102430488790464
0.105151669628379
0.109541701344613
0.116771306749609
0.129507278400659
0.154927361137215
0.217177956118416
0.441966074117015
2.19499428600931
0.0991990465303192
0.100103118026081
0.101728153950082
0.104421279683233
0.108796561834209
0.116041691461125
0.128825545846374
0.154208444722366
0.215931633305843
0.438886392049878
2.19485693466437
0.0986367226208006
0.0989487096703884
0.0998031648201037
0.10140182493808
0.104098872768207
0.108503889240945
0.115789590503253
0.128568528798065
0.153736858962817
0.214617425460727
0.435352080727519
2.1951392112067
0.0987496377826731
0.0986050839786271
0.0988957611934111
0.0997425450727568
0.10136452197727
0.104108465721948
0.108562692588229
0.115863318304178
0.128541095969894
0.153303551102294
0.213019268760536
0.431024738310023
2.19485081982205
0.0992943225725807
0.0988101477888366
0.0986871032287299
0.0990021098023751
0.0999008190216749
0.101594758623887
0.104411278689667
0.108912999942247
0.116191838290858
0.128685148958866
0.152890892371972
0.211149998364565
0.42574063480604
2.19192655109092
0.100082584782171
0.0993669659115404
0.0989500448221279
0.0988888278283299
0.0992914298312004
0.100297442132233
0.102094084089499
0.10499852028639
0.109549471852567
0.11679150949465
0.129064005738887
0.152642404495432
0.209250516688436
0.419496244057469
2.18619160885243
0.100970448969522
0.100125276327639
0.0995164345029844
0.099197112972564
0.0992593157924275
0.0998088410293816
0.100967308800464
0.102885385604184
0.105905615822644
0.110537415050404
0.117780576863578
0.129887225041131
0.152931535994599
0.207906067140203
0.412854017245894
2.18721824195948
0.104015285228925
0.107230180684022
0.112036609427865
0.119416958610188
0.131571482264816
0.154408530044042
0.208009835806068
0.408224578105331
2.21610854576862
2.46568095716546
0.921026624016741
2.4173727128663
0.435020822615524
0.819907220002971
2.30585691214659
0.238387241448483
0.36250215453663
0.704485466342839
2.22937133566249
0.168864486632178
0.206989059875111
0.304588472232717
0.619082722659247
2.19977407716397
0.139693316924664
0.153404108594166
0.184985913916598
0.266989533998353
0.555828867191988
2.19629238638525
0.123584268381116
0.129545062559859
0.142736823712628
0.170557938199713
0.243015366919586
0.511584453871062
2.1982771750453
0.113187500250906
0.116467485577318
0.123108052249986
0.135621369476581
0.161412379344617
0.228224110455909
0.480065763526946
2.19811323304673
0.106343569059489
0.108515837363969
0.112332325583204
0.119011840496352
0.131147586392019
0.156019959317464
0.219394705265341
0.456888558846915
2.19655537518424
0.102135811936145
0.103558039021782
0.105913202153629
0.109848592200182
0.116555125152407
0.128689655392738
0.153413186977707
0.215043542006661
0.439837589169025
2.19535425673861
0.0998578283743356
0.100618966461317
0.102022012891973
0.104410117549657
0.10840933425618
0.115213015054994
0.127470574568499
0.152195758891465
0.213084409209453
0.435364969848589
2.1949890283453
0.0989143557085128
0.0990959271823693
0.0997897809611998
0.101176890740689
0.103608790437959
0.107699411363304
0.114617240113847
0.126952719964849
0.15155978466716
0.211722110735947
0.431878084972895
2.19518412950551
0.0988615324829287
0.0985575933851308
0.0986998116931422
0.0993806845142666
0.100807484435273
0.103324571062249
0.107518163564217
0.114514982845973
0.126823793567625
0.151113574040325
0.210216939189872
0.427757341542855
2.19486760023708
0.0993769222459146
0.0986865274448055
0.098401518547608
0.0985646801669623
0.0993049079259472
0.10082770452897
0.103454633728634
0.107742206128934
0.11477113799556
0.126957226940944
0.150762476309772
0.208499922741157
0.422684155019307
2.19192682148663
0.100213532317804
0.0992424955107154
0.0986397964332234
0.0984236959267864
0.0986818381264064
0.0995451856248125
0.101200044315916
0.103949891696013
0.108326686937737
0.115364034427283
0.127378970896796
0.150605605615262
0.206723292155092
0.416552091100097
2.18619129940061
0.101177237461435
0.100039379770686
0.0992221468992962
0.0987390120077229
0.0986600351598096
0.0990786141487558
0.100110108754597
0.101923649520567
0.104820415369202
0.109312230169256
0.116389429187743
0.128277202080142
0.150981388684929
0.2053751730282
0.409849081560449
2.18721736146907
0.102123466078202
0.100934084606832
0.100001035002869
0.0993479414253622
0.0990426390720034
0.0991628247082646
0.0997915117569513
0.101037005657221
0.103044324002823
0.106148756785746
0.110843922709066
0.118095676673166
0.130075877640174
0.152606226710694
0.205511526350247
0.40505842540677
2.21610814409181
0.104658068834831
0.108114507283527
0.113217068794681
0.120969880937695
0.133589424887283
0.156815098992181
0.20913109570124
0.409647902966075
2.28699453242711
2.49631298205334
0.956124681897606
2.42906369191476
0.495476697514727
0.863588941307311
2.32324422011512
0.275846900808194
0.410961589371732
0.75262627435827
2.23283063618936
0.190346070214099
0.230969400233275
0.337668935586878
0.659695229333855
2.20045047515796
0.15579540356564
0.166576716725528
0.19870856833024
0.28683578177399
0.58672598508829
2.1996185112741
0.136258265862331
0.13860686458422
0.150051391960515
0.177824769431899
0.254016369603006
0.534123888618457
2.20253541884279
0.122081837830488
0.122899322366361
0.127796252298361
0.1392183875336
0.164718761180551
0.233667436148399
0.495208374521589
2.20133141014048
0.1117263961863
0.112727125139588
0.11537562430796
0.121063296592179
0.132393767697264
0.156802901638147
0.22114501000111
0.466317092907704
2.19839046315416
0.105046628296605
0.106044318531756
0.107774676939272
0.1110047059449
0.116999863041479
0.128415963136576
0.15242298775106
0.213764363134461
0.444078632134154
2.19622484771915
0.101337643645287
0.101940121950501
0.103034677054685
0.104989928644719
0.108483563965587
0.114735392943819
0.126375197776561
0.150374757030676
0.210421515973075
0.432030553278034
2.19534906699734
0.0996574794784809
0.0997230302788759
0.100234898317982
0.101354021695534
0.103444983582052
0.107142901646006
0.11361851656365
0.125437425831661
0.149405210725075
0.208766163717631
0.428299027273392
2.19531857703927
0.0992732694445159
0.0988146478501199
0.0988012350443074
0.0992904374281408
0.100479649440609
0.102719009904621
0.10659909830874
0.113239108805087
0.125124659499463
0.148885262506298
0.207320479801029
0.424362043650702
2.19491497029936
0.0996996532508442
0.0987825326204489
0.0983214490118194
0.0983149322382332
0.0988706494742835
0.100188527471355
0.102588942794068
0.106624647644107
0.113365779709732
0.125206949050168
0.148576861274192
0.20577084259823
0.419562650147035
2.19194619497417
0.100593264315336
0.0993106739649389
0.0984901664057454
0.0980967746174282
0.0981896692622739
0.0988873793251443
0.10037128255076
0.102938301785748
0.107113517924663
0.113919417008898
0.125653319231984
0.14852152388913
0.204197171028304
0.413621305968697
2.18619374460913
0.101682891948919
0.100155922236701
0.0990746641123389
0.0983935423657159
0.0981494701732067
0.0984185147445494
0.0993078722780507
0.100985168610594
0.103737486898439
0.108069857426721
0.114962047807513
0.126617836017827
0.149005781886867
0.20297004954722
0.407105395281969
2.18721720707518
0.102754154220897
0.101126651480729
0.0998936497689042
0.0990210841312089
0.0985433136626697
0.0985185915254404
0.0990173099345821
0.100140744293417
0.102051959546982
0.10504505209592
0.109616288574614
0.116721959388646
0.128503912109243
0.15070782317959
0.203010716543401
0.402171026982965
2.21610744847733
0.103660734004279
0.102079423613031
0.100806895045217
0.0998374189361987
0.099216733812866
0.0990012035396539
0.09924664811134
0.100025822002405
0.101448711810296
0.10366731731529
0.10702673371227
0.112035396007271
0.119680511168005
0.132142575665911
0.155031092768258
0.206495712456274
0.406136350843487
2.28699433563476
0.106012282443169
0.110004271209807
0.115869596305323
0.124779371352108
0.139238101556091
0.165198236499237
0.221469267573924
0.453338032845003
2.38167841478807
2.9257182698255
1.05635454273905
2.45521496417358
0.558275898369393
0.899889769687173
2.36164640503656
0.324398362088248
0.464577628547384
0.791557751526603
2.25286416828756
0.22147298421831
0.264171803604922
0.378939295241486
0.696418396951506
2.20328040595438
0.181529631030857
0.186678588026154
0.218661628471898
0.313352766824981
0.617124775698769
2.20047594530486
0.159439830770115
0.154038914104737
0.161553575247534
0.188707635673823
0.269217222425214
0.5579264108723
2.20624860229321
0.140156426129477
0.135071776737094
0.135991630582781
0.145169861729351
0.170092352137604
0.24173966330056
0.512764663009144
2.20577739641055
0.123146725324435
0.121265468158854
0.121259682553378
0.124973009287549
0.135003034100873
0.158865136126022
0.224667750521919
0.477882218065403
2.20165618848028
0.11113088572533
0.111216382979302
0.111636043096626
0.113554514670902
0.11844616178537
0.128959154118024
0.152300859797887
0.214213137982337
0.451449630800443
2.19806457113579
0.104342319112572
0.104742589804197
0.105313317706519
0.106542425470106
0.109268227079593
0.11478019048323
0.125677074123444
0.148887236523633
0.208405384770147
0.431353379596785
2.19621981469697
0.101158962759026
0.101148227777198
0.101437748984622
0.102175903541508
0.103784801678081
0.106960683577619
0.112887289332451
0.124097894501851
0.147343325256624
0.205829369091434
0.424687098678393
2.19568149105559
0.100108968872687
0.099526794228879
0.0993583006678355
0.0996172335859776
0.100500374720196
0.102383370685633
0.105874301915221
0.112087123097839
0.123480741228895
0.14664270783969
0.204348515287367
0.420864602187479
2.19505380550317
0.100315548033839
0.0991725797902418
0.0985322777417195
0.0983387056094185
0.0986754040704994
0.0997421281313065
0.101865818217505
0.105599807190266
0.112004526022788
0.123453294108305
0.146344398963803
0.202966137689285
0.416374147020974
2.19199683827929
0.101253031971793
0.0996144147006678
0.0985509732521705
0.0979602766315535
0.0978645174013385
0.0983673477593015
0.0996461245773836
0.101995061621276
0.105934060942025
0.112475319833137
0.12389887113273
0.14639337311316
0.201648296043607
0.410717083307167
2.18621249781237
0.102535855023513
0.100516192956229
0.0991120325304878
0.098197520860986
0.0977627230320106
0.0978593915883639
0.0985831389567142
0.100095925768008
0.102677593594265
0.106826301989125
0.113512087928462
0.124924400829957
0.14702301694148
0.200666956916452
0.404491269692089
2.18722116427642
0.103842191775888
0.101611245843332
0.0999805772097207
0.0988310937545802
0.0981450444597779
0.0979506004939791
0.0983006698979101
0.099287556477813
0.101072447014758
0.103935454522404
0.108366616265429
0.115313032635548
0.12689840805191
0.148842802851663
0.200784887538225
0.399808618347487
2.21610681721688
0.104925219182941
0.102688291868088
0.100970273143473
0.0996885563977313
0.0988393540403679
0.0984482179917034
0.0985504465741118
0.09920494332071
0.100514285203775
0.102648653028128
0.105912449972649
0.110817351922642
0.118340899713526
0.130629253664893
0.153198638869369
0.204023843605764
0.403420563781496
2.28699422060006
0.105649070090767
0.103602378257733
0.101940716403709
0.100635380948125
0.0997120157969869
0.0992078759625518
0.0991573145009902
0.099607557873621
0.100638564200441
0.102377929639241
0.105006373345188
0.108917986420304
0.11471018968162
0.123533240369933
0.137829426285263
0.163349951867092
0.218594640641731
0.450832102734317
2.38167751245985
0.108473463453004
0.113533227612822
0.121078611579167
0.132844388898501
0.152581210643088
0.190398360195244
0.295112263176749
0.794479098612634
3.68516580399512
2.94890112223629
2.93624876935594
0.720437859129614
1.0045284368969
2.41074114632021
0.393299031898517
0.528402329670776
0.829430485550455
2.30196937991196
0.265007089108445
0.308357616913897
0.425807511926348
0.725249338140679
2.2231212117153
0.218956869587127
0.21586989988952
0.246586448088063
0.345839203259586
0.641297145451426
2.20294350372899
0.197877837205928
0.178791111026654
0.179005094738934
0.204427831213502
0.288846364269002
0.578799659446935
2.20741119446383
0.175150849389673
0.157338129916393
0.149843456731951
0.154508712761155
0.178144155319019
0.252601823602719
0.529943413205816
2.20974604523943
0.147656419563413
0.138569491552783
0.132309465092841
0.131822065084168
0.139456254821364
0.162467849734049
0.230012078677228
0.490440297561533
2.20619056007993
0.124332164996793
0.12215427330408
0.119425919241477
0.118532135119292
0.121405149354966
0.130590089622371
0.15321300497005
0.215915025844487
0.459700966259039
2.20134560439283
0.110506653698619
0.110588400938942
0.110056475955104
0.109822624868079
0.111189635748353
0.115599695270399
0.125564672487399
0.14795099259632
0.207324420712429
0.435670484687207
2.19805979278028
0.104034646691081
0.104046019816586
0.104017506660237
0.10411081463275
0.104934724132228
0.107345658650847
0.112553882161736
0.123034606948486
0.145484781232403
0.203173367268318
0.421388391798096
2.19655342292587
0.101600904727708
0.100977033081057
0.100667055165741
0.100623235016211
0.101069915831253
0.102458514611133
0.10544221085107
0.111130291777184
0.121945429848682
0.144427753100009
0.201336185876498
0.417320799039212
2.1954216347598
0.101305877431958
0.0999775022718835
0.0991759092245411
0.0987778835817169
0.0988427063928458
0.0995860117408141
0.101358426880064
0.104721565973575
0.110726147629234
0.121722321950245
0.144081913170669
0.200103974567538
0.413135869455164
2.19214133690418
0.102211445246605
0.100205511508554
0.098892692210673
0.0980919633044121
0.0977811205850746
0.0980499807962143
0.0990777996551737
0.101161829378784
0.104819540053259
0.111053789184932
0.12212958199019
0.144227869312818
0.199076865008451
0.407856874446635
2.1862668380172
0.103748357300196
0.101150581182137
0.0993745740338007
0.0981965283536047
0.0975460074220689
0.0974437158948906
0.0979720077215343
0.0992876542900213
0.101666425153636
0.105601159799821
0.112054025146809
0.123206706570597
0.145031885377437
0.198428795924995
0.401927224730404
2.18723936276593
0.105448843137589
0.102435190292478
0.100300346843553
0.0988126751045403
0.0978807664163408
0.097489594657411
0.0976679203521563
0.0984956856865065
0.100127944492676
0.102837651406382
0.107109017409358
0.113882899815471
0.12527931351914
0.147036340541736
0.198794830208084
0.397775410859062
2.21609764042036
0.106904724123143
0.103743339586543
0.101412664301585