/*--------------------------------*- C++ -*----------------------------------*\
  =========                 |
  \\      /  F ield         | OpenFOAM: The Open Source CFD Toolbox
   \\    /   O peration     | Website:  https://openfoam.org
    \\  /    A nd           | Version:  12
     \\/     M anipulation  |
\*---------------------------------------------------------------------------*/
/*   Windows 32 and 64 bit porting by blueCAPE: http://www.bluecape.com.pt   *\
|  Based on Windows porting (2.0.x v4) by Symscape: http://www.symscape.com   |
\*---------------------------------------------------------------------------*/
FoamFile
{
    format      ascii;
    class       volScalarField;
    location    "600";
    object      p;
}
// * * * * * * * * * * * * * * * * * * * * * * * * * * * * * * * * * * * * * //

dimensions      [0 2 -2 0 0 0 0];

internalField   nonuniform List<scalar> 
10142
(
83333.3294000147
83333.3293915589
83333.3293991588
83333.3294002082
83333.3293823108
83333.3293906455
83333.3293917762
83333.3293975186
83333.3293993323
83333.3294006077
83333.3293723257
83333.3293813565
83333.3293825415
83333.3293888152
83333.3293908168
83333.3293922585
83333.3293954548
83333.3293977111
83333.3293997177
83333.3294012777
83333.3293610442
83333.329371156
83333.3293726067
83333.3293791387
83333.3293815415
83333.3293831202
83333.3293863714
83333.3293890282
83333.329391273
83333.3293930685
83333.3293937375
83333.3293956365
83333.3293981109
83333.3294003912
83333.3294022741
83333.3293485058
83333.3293596706
83333.3293613892
83333.3293684998
83333.3293713754
83333.329373296
83333.329376136
83333.3293793837
83333.3293820869
83333.3293841017
83333.3293840347
83333.3293865741
83333.3293895072
83333.3293920924
83333.3293942669
83333.3293927004
83333.3293939257
83333.3293960675
83333.3293988199
83333.3294014104
83333.3294035832
83333.329334669
83333.3293469331
83333.3293489166
83333.3293565939
83333.3293599489
83333.3293622142
83333.3293646837
83333.3293687622
83333.3293720214
83333.3293744702
83333.3293729162
83333.3293763389
83333.3293799505
83333.3293830686
83333.32938556
83333.3293822282
83333.3293842402
83333.3293870873
83333.3293903656
83333.3293933254
83333.3293958336
83333.3293927521
83333.3293929379
83333.329394402
83333.3293968704
83333.3293999283
83333.3294027637
83333.3294051575
83333.3293194298
83333.3293328756
83333.3293351745
83333.3293433954
83333.3293472737
83333.3293499049
83333.3293518204
83333.3293568876
83333.3293607175
83333.3293636237
83333.329360287
83333.3293648886
83333.3293694143
83333.3293731932
83333.3293762256
83333.3293700604
83333.3293731263
83333.3293769261
83333.3293809834
83333.3293845555
83333.329387466
83333.3293814867
83333.3293824953
83333.3293848116
83333.3293880518
83333.3293916987
83333.3293949524
83333.3293977069
83333.3293942299
83333.3293930353
83333.3293934932
83333.3293953177
83333.3293981287
83333.3294014156
83333.3294044009
83333.3294069335
83333.3293028474
83333.3293174188
83333.329320118
83333.3293287939
83333.3293332954
83333.3293363696
83333.3293374189
83333.3293437194
83333.3293481965
83333.3293516058
83333.3293459492
83333.3293520411
83333.3293576471
83333.3293621248
83333.3293657406
83333.3293560293
83333.3293605066
83333.3293655517
83333.3293706417
83333.3293749838
83333.329378527
83333.3293682294
83333.3293703498
83333.329373786
83333.3293780712
83333.3293825877
83333.3293865193
83333.3293897323
83333.3293822948
83333.3293818259
83333.3293831683
83333.3293859156
83333.3293895606
83333.3293934795
83333.3293969038
83333.3293998047
83333.329397395
83333.3293945515
83333.329393682
83333.3293945435
83333.3293967542
83333.3293998195
83333.3294032148
83333.3294062576
83333.329408853
83333.329285092
83333.3293005823
83333.3293037497
83333.3293127046
83333.3293179682
83333.3293215933
83333.3293212736
83333.3293291602
83333.329334416
83333.3293384284
83333.3293296392
83333.3293376674
83333.3293446125
83333.3293498948
83333.3293541675
83333.3293398636
83333.3293461955
83333.3293528023
83333.3293591124
83333.3293642922
83333.3293685208
83333.3293527192
83333.3293563453
83333.3293612659
83333.3293669073
83333.3293725702
83333.3293773558
83333.3293812634
83333.3293680804
83333.3293686234
83333.3293711485
83333.3293751074
83333.329379884
83333.3293847312
83333.3293888656
83333.329392252
83333.3293850192
83333.3293826929
83333.3293826189
83333.3293844424
83333.3293876412
83333.3293915813
83333.3293956206
83333.3293990963
83333.3294020482
83333.3293977314
83333.3293952677
83333.3293948663
83333.3293961743
83333.3293986877
83333.3294018676
83333.3294052548
83333.3294082712
83333.3294108684
83333.3292662412
83333.3292825018
83333.3292861544
83333.3292951346
83333.3293013105
83333.3293055788
83333.3293032316
83333.3293131362
83333.3293193467
83333.329324091
83333.3293110082
83333.3293215843
83333.329330219
83333.3293364765
83333.3293415322
83333.3293211277
83333.3293299269
83333.3293385563
83333.3293463777
83333.3293525252
83333.3293575332
83333.3293345733
83333.3293402226
83333.32934708
83333.3293544246
83333.3293614418
83333.3293671661
83333.3293718275
83333.3293512221
83333.3293531808
83333.3293572888
83333.3293628488
83333.3293690852
83333.3293751546
83333.3293801864
83333.3293842982
83333.3293701345
83333.3293685599
83333.3293695805
83333.3293726911
83333.3293771894
83333.3293823135
83333.329387299
83333.3293914839
83333.3293949177
83333.3293899286
83333.3293854477
83333.3293835845
83333.3293840705
83333.3293864165
83333.3293899573
83333.3293940162
83333.3293980293
83333.3294014523
83333.3294043777
83333.3293984834
83333.3293965612
83333.3293966848
83333.3293983652
83333.3294010365
83333.3294041949
83333.3294074711
83333.3294103895
83333.3294129356
83333.3292465083
83333.3292633225
83333.3292674598
83333.3292761571
83333.3292834147
83333.3292883818
83333.3292832001
83333.3292956433
83333.3293030216
83333.3293086014
83333.3292897303
83333.3293036312
83333.3293144097
83333.3293218573
83333.3293278459
83333.3292992909
83333.3293113943
83333.3293226348
83333.3293323586
83333.3293396715
83333.3293456051
83333.329313182
83333.3293215657
83333.3293309822
83333.3293405181
83333.3293492031
83333.3293560105
83333.3293615308
83333.329331234
83333.3293351269
83333.3293413699
83333.3293489954
83333.3293570617
83333.3293645706
83333.329370591
83333.32937549
83333.329352258
83333.3293518069
83333.3293543459
83333.3293591669
83333.3293653717
83333.3293720197
83333.3293782445
83333.329383334
83333.3293874911
83333.32937476
83333.3293706625
83333.3293696562
83333.3293713625
83333.3293750928
83333.3293799878
83333.3293852337
83333.3293901694
83333.3293942689
83333.3293976396
83333.3293972448
83333.3293903595
83333.3293863976
83333.3293851855
83333.3293862884
83333.3293890557
83333.3293927568
83333.3293967646
83333.3294006226
83333.3294039016
83333.3294067413
83333.3293998453
83333.3293985371
83333.329399123
83333.329401033
83333.3294037154
83333.329406732
83333.3294098069
83333.3294125673
83333.3294150161
83333.3292263969
83333.3292432757
83333.3292478772
83333.3292558427
83333.3292644272
83333.3292701059
83333.3292611521
83333.3292767411
83333.3292855354
83333.3292920158
83333.3292655058
83333.3292837101
83333.3292971826
83333.3293060803
83333.3293131483
83333.329273713
83333.3292902471
83333.3293048897
83333.3293169977
83333.3293257341
83333.3293327625
83333.3292877508
83333.329299847
83333.3293126749
83333.3293250249
83333.3293357862
83333.3293438969
83333.32935043
83333.3293073177
83333.3293138725
83333.3293229757
83333.3293333311
83333.3293437314
83333.329352989
83333.3293601524
83333.3293659476
83333.329330835
83333.3293319627
83333.32933657
83333.3293436815
83333.3293520809
83333.3293606218
83333.3293682998
83333.3293743873
83333.3293793328
83333.3293563633
83333.3293529189
83333.3293531649
83333.3293565464
83333.3293621136
83333.3293687678
83333.3293755395
83333.3293816844
83333.3293866609
83333.3293907144
83333.3293822265
83333.3293753022
83333.3293718485
83333.3293716424
83333.3293740878
83333.329378301
83333.3293833572
83333.3293885113
83333.3293932346
83333.3293971278
83333.3294003583
83333.3294071028
83333.3293976602
83333.3293913214
83333.3293880969
83333.3293876131
83333.3293892446
83333.3293922507
83333.3293959291
83333.3293997366
83333.3294033279
83333.3294063899
83333.3294090947
83333.3294019273
83333.329401185
83333.3294020963
83333.3294040846
83333.3294066462
83333.3294094165
83333.3294122133
83333.3294147629
83333.3294170793
83333.3292066837
83333.3292228203
83333.3292280032
83333.3292343806
83333.329244602
83333.3292510373
83333.3292371328
83333.3292565047
83333.3292670327
83333.329274511
83333.3292380846
83333.329261785
83333.3292785858
83333.3292892612
83333.3292975156
83333.3292436981
83333.329266183
83333.3292852299
83333.3293002963
83333.3293107741
83333.3293190767
83333.329257271
83333.3292744669
83333.329291814
83333.3293078064
83333.3293211463
83333.3293308458
83333.3293385681
83333.3292784034
83333.3292886336
83333.3293016068
83333.3293155722
83333.3293289542
83333.3293403697
83333.3293488991
83333.3293557406
83333.3293049184
83333.3293082539
83333.3293157047
83333.329325867
83333.329337134
83333.3293480652
83333.329357493
83333.3293647272
83333.3293705661
83333.3293341345
83333.3293316744
83333.3293336769
83333.3293393269
83333.329347322
83333.3293562314
83333.3293648808
83333.3293724357
83333.3293783813
83333.3293831948
83333.3293639074
83333.3293570549
83333.3293544097
83333.3293556476
83333.3293599206
83333.3293660418
83333.3293728481
83333.3293794716
83333.3293853331
83333.3293900418
83333.3293938762
83333.3293926982
83333.3293827562
83333.3293765199
83333.3293739768
83333.3293746507
83333.329377708
83333.3293821674
83333.3293871531
83333.3293920289
83333.3293963999
83333.3293999911
83333.32940303
83333.3294195048
83333.3294074916
83333.3293985927
83333.3293930538
83333.3293906702
83333.3293908436
83333.3293928258
83333.3293958802
83333.3293993723
83333.3294028513
83333.3294060841
83333.3294088735
83333.3294114077
83333.3294047202
83333.3294044169
83333.3294055022
83333.3294074299
83333.329409756
83333.3294121928
83333.3294146499
83333.3294169434
83333.3294190856
83333.3291884429
83333.3292025489
83333.3292087268
83333.3292120739
83333.3292244468
83333.3292318096
83333.3292113282
83333.3292351074
83333.3292477561
83333.3292564314
83333.3292073241
83333.3292378993
83333.3292586738
83333.3292715481
83333.3292811484
83333.3292085574
83333.3292389646
83333.3292636219
83333.3292823145
83333.3292949136
83333.3293046541
83333.3292205143
83333.3292447437
83333.3292681358
83333.3292887859
83333.3293053037
83333.329316933
83333.3293260345
83333.3292430709
83333.3292584341
83333.3292767119
83333.3292954311
83333.3293126177
83333.3293266891
83333.3293368676
83333.3293449307
83333.3292731945
83333.3292796342
83333.3292909959
83333.3293052717
83333.329320292
83333.3293342435
83333.3293458027
83333.3293543984
83333.3293612701
83333.3293070488
83333.3293060148
83333.3293104666
83333.3293192034
83333.329330417
83333.3293422381
83333.3293532305
83333.3293624651
83333.3293695175
83333.329375187
83333.3293416534
83333.3293350246
83333.3293335804
83333.3293368249
83333.329343552
83333.3293521687
83333.3293611989
83333.3293696157
83333.3293767968
83333.3293824136
83333.3293869393
83333.329375091
83333.3293645916
83333.3293586049
83333.3293570972
83333.3293594084
83333.3293643918
83333.3293707556
83333.3293774196
83333.3293836619
83333.3293890656
83333.3293933775
83333.3293969275
83333.3294062009
83333.3293931957
83333.3293839482
83333.3293787069
83333.3293771887
83333.329378635
83333.3293820693
83333.3293865313
83333.3293912419
83333.3293956813
83333.3293995867
83333.329402808
83333.3294056206
83333.3294343285
83333.3294198519
83333.3294083567
83333.3294002858
83333.3293956858
83333.3293940959
83333.3293947582
83333.3293968977
83333.3293998269
83333.3294029923
83333.3294060382
83333.3294088433
83333.3294113162
83333.3294136379
83333.329408132
83333.3294081202
83333.3294092365
83333.3294109819
83333.3294129784
83333.3294150139
83333.329417084
83333.3294190774
83333.3294209863
83333.3291729452
83333.3291834057
83333.3291912001
83333.3291894605
83333.3292045599
83333.3292133213
83333.3291841161
83333.3292128815
83333.3292281234
83333.3292383611
83333.3291732109
83333.3292122436
83333.3292376227
83333.3292531665
83333.3292643832
83333.3291676214
83333.3292084523
83333.3292401086
83333.3292631462
83333.3292783254
83333.3292897014
83333.3291760559
83333.3292099778
83333.3292414084
83333.3292679521
83333.3292883358
83333.3293022877
83333.3293129616
83333.3291994714
83333.3292220836
83333.3292476378
83333.3292726642
83333.3292946746
83333.3293119847
83333.3293241503
83333.3293336187
83333.3292338805
83333.3292447272
83333.3292615329
83333.3292813876
83333.3293013158
83333.3293190772
83333.3293332314
83333.3293434538
83333.329351521
83333.3292736422
83333.3292746616
83333.3292825442
83333.3292955078
83333.3293110138
83333.3293265993
83333.3293405169
83333.3293517721
83333.3293601277
83333.3293667772
83333.3293144351
83333.3293082222
83333.3293085048
83333.3293145224
83333.3293245539
83333.3293364468
83333.329348314
83333.3293589408
83333.329367678
83333.329374327
83333.3293796432
83333.3293536552
83333.3293425419
83333.329337025
83333.3293370197
83333.3293415805
83333.3293491249
83333.3293579554
83333.3293667313
83333.3293746276
83333.3293812225
83333.3293863493
83333.3293904793
83333.329389935
83333.3293757366
83333.329366123
83333.3293613898
83333.3293611451
83333.3293643689
83333.3293697487
83333.3293760416
83333.3293823069
83333.3293879731
83333.3293927766
83333.3293966023
83333.3293998393
83333.3294226023
83333.3294066452
83333.329394307
83333.3293860987
83333.3293820109
83333.3293814396
83333.3293834319
83333.3293869925
83333.3293912382
83333.3293955009
83333.329399377
83333.3294027336
83333.3294055439
83333.3294080951
83333.3294513696
83333.3294346194
83333.3294206088
83333.3294099346
83333.3294028715
83333.3293991966
83333.3293982493
83333.3293992088
83333.3294013249
83333.3294039785
83333.329406704
83333.3294092382
83333.3294115693
83333.3294136787
83333.3294157274
83333.3294120412
83333.3294121767
83333.3294131956
83333.3294146572
83333.3294162525
83333.3294178395
83333.3294194795
83333.3294211365
83333.3294227103
83333.3291603194
83333.329166736
83333.3291760221
83333.3291675125
83333.3291858655
83333.3291964236
83333.3291560939
83333.3291903962
83333.3292087463
83333.3292211204
83333.3291359222
83333.3291851858
83333.3292158343
83333.3292345489
83333.329247742
83333.3291202234
83333.3291746428
83333.329214879
83333.3292430177
83333.3292612522
83333.329274541
83333.3291222651
83333.3291695344
83333.3292115211
83333.3292453945
83333.3292704033
83333.3292871134
83333.3292995657
83333.3291452711
83333.32917821
83333.3292137611
83333.329247086
83333.329275147
83333.3292963636
83333.3293108857
83333.329321946
83333.3291845665
83333.3292017552
83333.3292262186
83333.3292536552
83333.3292800196
83333.3293025556
83333.3293198441
83333.3293319967
83333.3293414298
83333.3292319035
83333.329235889
83333.3292486252
83333.3292674189
83333.3292886862
83333.3293091392
83333.3293266981
83333.3293403834
83333.3293502771
83333.3293580494
83333.3292807632
83333.3292752264
83333.3292779801
83333.3292878508
83333.329302364
83333.3293185727
83333.3293340594
83333.329347409
83333.3293579968
83333.3293658472
83333.3293720619
83333.3293274235
83333.3293156125
83333.3293108569
83333.3293129795
83333.3293206145
83333.3293315677
83333.3293435972
83333.3293550336
83333.3293649437
83333.3293729314
83333.3293789867
83333.329383807
83333.3293701399
83333.3293544969
83333.3293445324
83333.3293406156
83333.3293421812
83333.3293478188
83333.3293557578
83333.3293643971
83333.3293725996
83333.3293797398
83333.3293855759
83333.3293900924
83333.3293937835
83333.3294082706
83333.329390513
83333.3293771729
83333.3293688794
83333.3293655813
83333.3293664744
83333.3293703028
83333.3293757507
83333.3293816956
83333.3293873503
83333.3293922864
83333.3293963876
83333.3293996832
83333.3294025825
83333.329441658
83333.3294229741
83333.3294076202
83333.3293963198
83333.3293893603
83333.3293863893
83333.3293865568
83333.3293888431
83333.3293922991
83333.3293961422
83333.3293998201
83333.3294030402
83333.3294058022
83333.3294081628
83333.3294103908
83333.3294703632
83333.3294515919
83333.3294352267
83333.329421991
83333.3294123578
83333.3294063324
83333.3294034581
83333.3294029695
83333.3294040412
83333.3294059738
83333.3294082291
83333.3294104304
83333.329412403
83333.3294142168
83333.3294159365
83333.3294175998
83333.3294163171
83333.3294164652
83333.3294172761
83333.3294183742
83333.3294195186
83333.3294206214
83333.3294217911
83333.3294230515
83333.329424153
83333.3291500314
83333.3291534601
83333.3291630923
83333.329147793
83333.3291693361
83333.3291816212
83333.3291283935
83333.3291686665
83333.3291905774
83333.3292053122
83333.3290960401
83333.3291573523
83333.3291939537
83333.3292163219
83333.3292319422
83333.3290659233
83333.3291376584
83333.3291883477
83333.3292223842
83333.3292441007
83333.329259643
83333.3290572823
83333.3291227769
83333.3291784907
83333.3292213473
83333.3292517607
83333.3292716685
83333.3292861473
83333.3290775829
83333.3291252521
83333.329174513
83333.329218659
83333.3292541848
83333.3292800307
83333.3292972812
83333.3293101253
83333.3291220652
83333.3291484904
83333.3291838096
83333.3292215713
83333.3292562961
83333.329284745
83333.3293057684
83333.3293201713
83333.3293311394
83333.3291790806
83333.3291873854
83333.3292070782
83333.3292340152
83333.3292630063
83333.3292897402
83333.3293118007
83333.329328387
83333.329340073
83333.3293491209
83333.329238595
83333.3292340934
83333.3292404005
83333.3292556802
83333.3292763115
83333.3292982244
83333.3293183234
83333.3293350148
83333.3293478015
83333.3293570482
83333.3293642806
83333.3292950066
83333.3292823596
83333.3292787667
83333.3292839029
83333.3292957614
83333.3293112766
83333.3293274613
83333.3293422438
83333.329354602
83333.3293642323
83333.3293713527
83333.3293769724
83333.3293459647
83333.3293285402
83333.3293182485
83333.3293155629
83333.3293196528
83333.3293285458
83333.3293398472
83333.3293514895
83333.3293621017
83333.3293710173
83333.3293780575
83333.3293833677
83333.3293876108
83333.3293908567
83333.3293708937
83333.3293563724
83333.3293481067
83333.3293459947
83333.3293489333
83333.3293552247
83333.3293631271
83333.3293712259
83333.3293785985
83333.3293847998
83333.329389756
83333.3293935965
83333.3293968409
83333.329429783
83333.3294087545
83333.3293917784
83333.3293797652
83333.3293730384
83333.3293711014
83333.329372844
83333.3293769418
83333.3293821617
83333.3293875285
83333.3293924088
83333.3293965057
83333.3293998569
83333.3294025964
83333.3294051072
83333.3294630502
83333.3294419415
83333.3294237586
83333.3294093899
83333.3293993891
83333.329393695
83333.3293916641
83333.329392325
83333.3293946658
83333.3293978167
83333.3294011085
83333.3294041028
83333.3294066131
83333.3294087465
83333.3294106414
83333.3294124294
83333.3294910027
83333.3294705074
83333.3294520101
83333.329436332
83333.3294241298
83333.3294156176
83333.3294105428
83333.3294083018
83333.3294080866
83333.3294091007
83333.3294107148
83333.3294124774
83333.3294140995
83333.329415477
83333.329416739
83333.3294180088
83333.3294191466
83333.3294208236
83333.3294208621
83333.3294213719
83333.3294220447
83333.3294227038
83333.3294232927
83333.329423931
83333.3294247036
83333.3294252553
83333.3291426894
83333.3291420368
83333.3291529065
83333.3291322323
83333.3291556692
83333.3291693422
83333.3291030762
83333.3291492622
83333.3291746693
83333.3291914005
83333.3290555939
83333.3291298924
83333.329172991
83333.3291994086
83333.3292175167
83333.3290058847
83333.3290981486
83333.3291611726
83333.3292019051
83333.3292274844
83333.3292456144
83333.3289799695
83333.3290693321
83333.329142493
83333.3291962825
83333.3292328645
83333.3292563267
83333.329273111
83333.3289931263
83333.3290614784
83333.3291293486
83333.3291874811
83333.3292320835
83333.329263264
83333.3292836096
83333.3292984479
83333.3290422959
83333.3290821814
83333.3291329154
83333.3291846999
83333.3292301918
83333.3292658413
83333.3292912143
83333.3293081734
83333.3293208347
83333.3291114722
83333.3291261142
83333.3291558918
83333.3291942295
83333.3292336045
83333.3292683792
83333.3292959319
83333.3293159245
83333.3293296602
83333.3293401302
83333.3291851477
83333.3291821849
83333.3291936445
83333.3292165985
83333.3292456437
83333.3292751018
83333.3293010546
83333.3293218152
83333.3293371885
83333.3293480342
83333.3293564138
83333.3292545331
83333.3292408101
83333.3292389468
83333.3292483721
83333.329266088
83333.329287741
83333.3293093296
83333.3293283084
83333.329343628
83333.3293551859
83333.3293635227
83333.3293700387
83333.3293162161
83333.3292965204
83333.3292859182
83333.3292850406
83333.329292652
83333.3293059583
83333.3293216922
83333.3293371759
83333.3293507742
83333.3293618213
83333.329370269
83333.3293764895
83333.3293814082
83333.3293696579
83333.3293469632
83333.3293310318
83333.329322956
83333.3293225618
83333.3293283074
83333.3293378737
83333.3293489558
83333.3293597741
83333.3293692578
83333.3293769715
83333.3293829247
83333.329387397
83333.3293910488
83333.3294153678
83333.3293914873
83333.329372552
83333.3293597483
83333.32935347
83333.3293530293
83333.3293569365
83333.3293634337
83333.3293709207
83333.3293781983
83333.3293845489
83333.3293896858
83333.3293937061
83333.3293968478
83333.3293996183
83333.3294540749
83333.3294301523
83333.3294097771
83333.3293940671
83333.3293836952
83333.3293785281
83333.3293777006
83333.3293799614
83333.3293840171
83333.3293887586
83333.3293933693
83333.3293973611
83333.3294005624
83333.329403141
83333.3294053273
83333.3294073356
83333.3294864262
83333.3294632337
83333.3294424843
83333.3294251796
83333.3294121094
83333.3294034881
83333.3293989278
83333.329397609
83333.3293985203
83333.3294007008
83333.3294033818
83333.3294060118
83333.3294082624
83333.3294100361
83333.3294115191
83333.3294128945
83333.3294141135
83333.3295129573
83333.3294910618
83333.3294707004
83333.329452759
83333.3294380631
83333.3294270302
83333.3294195994
83333.329415334
83333.3294135468
83333.3294134272
83333.3294142337
83333.3294154186
83333.3294166192
83333.329417628
83333.3294183835
83333.3294190297
83333.3294197541
83333.329420318
83333.3294254198
83333.3294252385
83333.3294253656
83333.3294255606
83333.3294257018
83333.329425723
83333.3294257313
83333.3294259124
83333.3294260165
83333.329139204
83333.3291325221
83333.3291459502
83333.329119804
83333.3291445489
83333.3291600592
83333.3290831737
83333.3291341918
83333.3291616908
83333.329179973
83333.329018813
83333.3291049054
83333.3291544917
83333.3291846886
83333.3292049435
83333.328944749
83333.3290582986
83333.3291345617
83333.3291825637
83333.3292122575
83333.3292329252
83333.3288933784
83333.3290105356
83333.3291042577
83333.3291709165
83333.3292143984
83333.3292416776
83333.3292609458
83333.3288907744
83333.3289859976
83333.3290779513
83333.3291538399
83333.3292093773
83333.3292465087
83333.3292702117
83333.3292872372
83333.3289408581
83333.3289997731
83333.3290719795
83333.3291426857
83333.3292019364
83333.3292462035
83333.3292764924
83333.3292962748
83333.3293107819
83333.3290243225
83333.3290482025
83333.329092586
83333.329146954
83333.3292002281
83333.3292451868
83333.3292793075
83333.3293031925
83333.3293192199
83333.3293312383
83333.3291167147
83333.3291159774
83333.3291349674
83333.329168925
83333.329209577
83333.3292489893
83333.3292823041
83333.3293079458
83333.3293263001
83333.3293389454
83333.3293485917
83333.3292035104
83333.3291882974
83333.3291889848
83333.3292045645
83333.3292304692
83333.3292604143
83333.3292890226
83333.329313233
83333.3293320987
83333.3293458832
83333.329355601
83333.3293631114
83333.3292793437
83333.3292566295
83333.3292457094
83333.3292474594
83333.3292600127
83333.3292793413
83333.3293009372
83333.3293213298
83333.3293386107
83333.3293521983
83333.3293622765
83333.3293695238
83333.3293752045
83333.3293437233
83333.3293175653
83333.3292998905
83333.3292922216
83333.3292942806
83333.3293038792
83333.3293178147
83333.3293330204
83333.3293472618
83333.3293593237
83333.3293688325
83333.3293759458
83333.3293811564
83333.3293853323
83333.3293978524
83333.3293704905
83333.3293491714
83333.3293354927
83333.3293299652
83333.329331632
83333.3293384616
83333.3293481016
83333.3293584829
83333.3293681404
83333.3293762785
83333.329382653
83333.3293874518
83333.3293910598
83333.3293941129
83333.3294431473
83333.3294158481
83333.3293928333
83333.3293755441
83333.3293648353
83333.3293604964
83333.329361365
83333.3293657913
83333.3293720897
83333.3293788518
83333.3293850992
83333.3293903004
83333.3293943129
83333.3293973836
83333.3293998515
83333.3294020452
83333.3294807362
83333.3294543152
83333.3294308656
83333.3294116243
83333.3293975628
83333.329388906
83333.3293851019
83333.329385071
83333.32938753
83333.329391272
83333.3293953362
83333.3293990639
83333.329402104
83333.3294043921
83333.3294061933
83333.3294077955
83333.3294091777
83333.3295114354
83333.329486501
83333.3294634878
83333.3294434536
83333.3294273907
83333.329415771
83333.3294084563
83333.3294048318
83333.3294039862
83333.3294049207
83333.3294067563
83333.3294088374
83333.329410729
83333.3294122066
83333.329413228
83333.3294140046
83333.3294147723
83333.329415392
83333.3295358771
83333.3295129251
83333.3294909956
83333.3294710162
83333.3294539618
83333.3294404456
83333.3294305992
83333.3294241445
83333.3294205225
83333.3294190071
83333.3294188175
83333.3294192851
83333.3294199483
83333.3294205322
83333.3294208994
83333.3294209783
83333.3294209101
83333.3294210078
83333.3294211345
83333.3294299585
83333.3294294518
83333.3294291162
83333.3294287744
83333.3294283189
83333.329427632
83333.3294270045
83333.3294266319
83333.3294264568
83333.329127683
83333.3291426823
83333.3291075651
83333.3291361621
83333.3291539784
83333.3290681736
83333.3291223651
83333.3291515583
83333.3291715168
83333.3289907926
83333.3290855595
83333.329140285
83333.3291728253
83333.3291948747
83333.3288893979
83333.3290222382
83333.3291107665
83333.3291657202
83333.3291992162
83333.3292220522
83333.3288043188
83333.3289509853
83333.3290661781
83333.3291464641
83333.3291973136
83333.3292284995
83333.3292500784
83333.3287761034
83333.3289021545
83333.3290218442
83333.3291185478
83333.3291868395
83333.3292304582
83333.3292576281
83333.3292768615
83333.3288177681
83333.3289005002
83333.3290002757
83333.3290954228
83333.3291719777
83333.329226405
83333.3292620226
83333.3292847968
83333.3293012515
83333.3289128453
83333.3289495619
83333.3290144411
83333.3290910053
83333.3291627981
83333.329220522
83333.3292623276
83333.3292905081
83333.3293089943
83333.3293226353
83333.3290286384
83333.3290309575
83333.3290608953
83333.3291106416
83333.3291673486
83333.3292198248
83333.3292622698
83333.3292936308
83333.3293153295
83333.3293299488
83333.3293409542
83333.3291387212
83333.3291212954
83333.3291256951
83333.3291501803
83333.3291876182
83333.3292287812
83333.3292664616
83333.3292971195
83333.3293201598
83333.3293364636
83333.3293477123
83333.329356309
83333.3292333707
83333.3292064795
83333.3291951837
83333.3292007441
83333.3292202801
83333.3292478724
83333.3292772309
83333.3293038742
83333.3293256592
83333.3293422357
83333.3293541718
83333.3293625672
83333.3293690806
83333.3293118889
83333.3292812018
83333.3292612708
83333.3292542947
83333.3292598431
83333.3292747552
83333.3292945437
83333.3293151006
83333.3293336359
83333.3293488234
83333.3293604404
83333.3293688848
83333.3293749279
83333.329379719
83333.3293765109
83333.3293448422
83333.3293205541
83333.3293058771
83333.3293015131
83333.3293061208
83333.3293168911
83333.3293306514
83333.3293447217
83333.3293573268
83333.3293676178
83333.329375448
83333.3293811558
83333.3293853255
83333.3293887385
83333.3294298072
83333.3293984842
83333.3293722896
83333.3293531373
83333.329342161
83333.3293390617
83333.3293422659
83333.3293495671
83333.3293587578
83333.3293680615
83333.3293763215
83333.329382979
83333.3293879529
83333.3293915914
83333.3293943737
83333.3293967477
83333.3294737048
83333.3294434597
83333.329416796
83333.3293952617
83333.3293800852
83333.3293715272
83333.3293688336
83333.3293705798
83333.3293751034
83333.3293808626
83333.3293866642
83333.3293917411
83333.3293957296
83333.3293986123
83333.329400745
83333.3294025364
83333.3294040464
83333.329509416
83333.3294808358
83333.329454658
83333.3294321377
83333.329414481
83333.3294022351
83333.3293951698
83333.3293924505
83333.3293928974
83333.3293952641
83333.3293984674
83333.3294017042
83333.3294044683
83333.3294065364
83333.329407911
83333.3294088995
83333.3294098481
83333.32941059
83333.3295377448
83333.3295113913
83333.32948642
83333.329463905
83333.3294450013
83333.3294304132
83333.3294202423
83333.3294140788
83333.3294111652
83333.3294105578
83333.3294113104
83333.3294126457
83333.3294140237
83333.3294151246
83333.329415812
83333.3294160408
83333.3294160222
83333.3294161168
83333.329416268
83333.3295593866
83333.3295357465
83333.3295125656
83333.3294908036
83333.3294715746
83333.3294556728
83333.3294434194
83333.329434699
83333.3294290762
83333.3294259177
83333.3294244953
83333.3294240819
83333.3294240901
83333.3294241457
83333.3294240551
83333.3294236988
83333.3294229572
83333.329422215
83333.3294217578
83333.3294216339
83333.32943428
83333.3294333379
83333.3294324459
83333.3294314556
83333.3294302187
83333.3294287941
83333.3294276753
83333.3294270059
83333.3291044537
83333.3291320791
83333.3291512828
83333.3290545663
83333.3291121761
83333.32914454
83333.3291665859
83333.3289683511
83333.3290714377
83333.3291300221
83333.3291639949
83333.329187559
83333.3288481547
83333.3289953506
83333.3290932465
83333.3291529491
83333.3291890104
83333.3292134558
83333.3287223841
83333.3288971529
83333.3290324781
83333.3291252377
83333.3291827878
83333.3292175149
83333.32924088
83333.3286557587
83333.3288165756
83333.3289658932
83333.3290840388
83333.3291656619
83333.3292160091