/*--------------------------------*- C++ -*----------------------------------*\
  =========                 |
  \\      /  F ield         | OpenFOAM: The Open Source CFD Toolbox
   \\    /   O peration     | Website:  https://openfoam.org
    \\  /    A nd           | Version:  12
     \\/     M anipulation  |
\*---------------------------------------------------------------------------*/
/*   Windows 32 and 64 bit porting by blueCAPE: http://www.bluecape.com.pt   *\
|  Based on Windows porting (2.0.x v4) by Symscape: http://www.symscape.com   |
\*---------------------------------------------------------------------------*/
FoamFile
{
    format      ascii;
    class       volScalarField;
    location    "600";
    object      k;
}
// * * * * * * * * * * * * * * * * * * * * * * * * * * * * * * * * * * * * * //

dimensions      [0 2 -2 0 0 0 0];

internalField   nonuniform List<scalar> 
10107
(
3.92066029236095e-06
2.04493547990318e-06
4.35337289389019e-06
1.42593876178817e-06
1.82551055311218e-06
1.93663998920955e-06
8.77274651568544e-07
2.22552329237982e-06
5.15215828725451e-06
2.27777230322136e-06
1.32435515953361e-06
6.72876091265077e-07
4.81727561111446e-07
8.22139874685945e-07
1.48341349193308e-06
7.5105808403119e-07
9.29991345536252e-07
1.48656093934432e-06
2.31756700416833e-06
3.69132921916064e-06
8.21047797884327e-06
5.30478645474661e-06
6.65223757830044e-06
5.54000629376315e-06
3.05076975999847e-06
3.41472151127199e-07
3.70469814943661e-07
2.96756611265237e-07
3.20193906076427e-07
6.29799848981361e-07
6.52475866713542e-07
5.43904057873859e-07
4.23086644055729e-07
7.6881120465659e-07
1.88621787407436e-06
8.60941381042194e-07
7.21230429385191e-07
7.8619885306138e-07
1.12061683442359e-06
9.68979998181696e-07
2.11563357948701e-06
7.59193344711942e-07
2.23341488475942e-06
1.951699283037e-06
2.08093313340139e-06
2.12339947682818e-06
4.70701359356693e-06
2.58798850803764e-06
9.1732390663098e-06
2.61875061975188e-06
7.76141878921858e-06
3.99509798547294e-07
2.69768357223143e-07
2.45104862039088e-07
3.05829827209813e-07
2.94011999421776e-07
5.07745286647075e-07
7.7069785879371e-07
1.23766193347507e-06
7.94410451250966e-07
7.41501594599076e-07
1.28853840854231e-06
1.16366773270788e-06
6.31488700503948e-07
8.03931796557843e-07
1.02869862658563e-06
1.25780395477645e-06
1.36729021959887e-06
1.12037468987841e-06
9.12697218477094e-07
2.43409521575193e-06
9.31540269723997e-07
7.91604677162816e-07
2.09742486966187e-06
1.82489505370189e-06
9.56650036826314e-07
1.42053410921255e-06
1.43054358473087e-06
4.22654187408936e-06
3.7872867954304e-06
6.97473042474307e-07
4.46912826499832e-07
2.30725147405749e-07
2.41182550976424e-07
4.07330568270529e-07
4.04355788963522e-07
5.0934002833596e-07
4.59570500776519e-07
9.08537340194237e-07
7.65374984872702e-07
6.10615610163167e-07
1.17486062067311e-06
6.69577956227316e-07
1.22780276652784e-06
4.52599593564413e-07
1.14956837481585e-06
8.47057349742514e-07
1.11686988601403e-06
8.62889132579501e-07
1.15489861090892e-06
9.24765328605897e-07
9.26739053129383e-07
2.48903083297209e-06
1.0375058095138e-06
9.62227813629319e-07
1.27455673622853e-06
1.99274390647657e-06
1.81858512834785e-06
1.26031047311066e-06
2.08078724166848e-06
2.72991868089725e-07
3.79978621042469e-07
2.89684774534888e-07
6.26682036873128e-08
5.21058263241111e-07
3.45345320251478e-07
5.17186336710113e-07
4.59561561280002e-07
1.65822085956182e-06
6.82847873886243e-07
7.04637112078336e-07
1.33511801643373e-06
9.30370782631758e-07
7.63592409832195e-06
4.07708049540913e-07
3.71265349665712e-07
1.47456486716549e-06
9.03106921413851e-07
7.61800983618703e-07
1.04343925018165e-06
8.13399510841077e-07
8.22117510248828e-07
1.11988484860394e-06
1.10530184512574e-06
1.51272698430379e-06
9.08471721095657e-07
2.39076031807025e-06
1.10495558699082e-06
1.40641101407328e-06
3.78486157678506e-06
5.60430148834816e-06
1.91922204349495e-06
1.5571769272632e-06
4.35630502926321e-06
1.83362046271245e-05
2.60324007545555e-07
3.68224770161753e-07
2.41203312951065e-07
6.19718520851605e-08
1.14548761392613e-06
5.15990900293509e-07
4.50716140984861e-07
3.05209550207794e-07
9.57084326835079e-07
1.01660041910651e-06
6.74158219782768e-07
1.11133371759685e-06
9.84004120657737e-07
1.12335432082683e-05
6.36402293615675e-07
3.10160724544119e-07
2.28580676337721e-07
1.75519077901008e-06
1.53456209354683e-06
9.02126254337661e-07
8.61435578179856e-07
7.29927281744592e-07
8.13418032276757e-07
9.5304442456275e-07
9.05784546677258e-07
9.12471805674844e-07
9.31159332760624e-07
1.07162859388903e-06
1.16083910926694e-06
2.23102805803171e-06
2.79372261608669e-06
2.90143136749831e-06
1.15001031490997e-06
1.6615071385559e-06
5.41772408038959e-06
1.1398483065874e-05
7.75232586523945e-06
1.72092992243518e-06
5.92878403722326e-06
2.764556097442e-05
2.43797172113268e-05
1.68983203848082e-07
1.52398508973879e-07
1.42491856968335e-07
8.37734137502468e-07
5.74516375253089e-07
9.67722303672019e-07
6.4036027313501e-07
2.30345864354391e-07
1.16795236104136e-06
1.95615303983867e-06
6.95869933999611e-07
1.16406078064229e-06
8.89562816173083e-07
1.26935587834665e-05
7.04347904189557e-07
3.8830952683613e-07
2.27539781487516e-07
3.08070360185921e-07
1.87998152817847e-06
2.17989753317447e-06
2.67223127651736e-06
1.29186530429278e-06
9.01388657651934e-07
7.36174301761655e-07
7.38115485208999e-07
6.88530886810915e-07
9.4763563278221e-07
8.79528043308518e-07
8.38600279378719e-07
9.56241184581373e-07
1.32809144023373e-06
1.32061469301548e-06
1.75277202474982e-06
1.05501332739101e-06
1.09356304639196e-06
2.34225816750029e-06
4.52954990924671e-06
5.74322379628784e-06
4.84924385946891e-06
1.67077289659238e-06
5.92038113559627e-06
1.60609887216014e-05
1.58254404366313e-05
9.57057007314827e-06
6.11240669352891e-06
3.13955878334887e-05
3.29129819558813e-05
2.81286290287646e-05
1.31019413902368e-07
3.14999667474394e-07
9.02979425627237e-07
3.97986282128775e-07
7.18430474799011e-07
7.14775920126609e-07
3.69018902969176e-07
2.60618779982609e-07
2.8474353081627e-06
1.10543680081257e-06
9.43219790933233e-07
1.20879754676666e-06
9.70932670677189e-07
1.42623581345741e-05
6.95110470376161e-07
4.60882287293754e-07
3.22152229006984e-07
2.23075686213956e-07
2.42073695584918e-07
2.81937379366402e-06
2.21921749884067e-06
1.76144937254071e-06
2.19488901412981e-06
3.103035213041e-06
1.09984201852584e-06
1.19701148411533e-06
9.29270203559528e-07
7.06307796528034e-07
4.99417391451975e-07
6.65032968587874e-07
6.52222541119235e-07
8.60135704637432e-07
1.2431558505257e-06
1.45606284257491e-06
7.71570007920136e-07
8.99331629801236e-07
1.58270535311504e-06
2.16695724933063e-06
2.94269124852811e-06
2.8167736521527e-06
1.11567286605821e-06
1.00817677755108e-06
2.08372002696861e-06
5.15477507105006e-06
8.62819570559729e-06
9.62436624024135e-06
6.82974804750804e-06
5.49990993677799e-06
1.80649021205741e-05
2.15907300647705e-05
2.09726274314379e-05
1.15361639530339e-05
3.12914666842047e-05
3.78119294930763e-05
3.82472240379998e-05
3.09504378838037e-05
1.9263700370648e-07
1.69633684246631e-07
3.37554005675651e-07
3.77140930558368e-07
2.52242886678622e-06
5.02307353151239e-07
9.69165013425531e-07
2.12354244841261e-07
1.28817460795296e-06
1.8790395267038e-06
8.22250715116038e-07
1.16565369903937e-06
1.02024682065981e-06
1.47175786292179e-05
7.35523321320162e-07
4.66580192253625e-07
3.40782508168955e-07
2.75118918484785e-07
1.51604035104442e-07
2.81639985546852e-07
1.83754903219762e-06
2.93360379932146e-06
1.85283924711137e-06
2.40356670789858e-06
2.17290262008384e-06
1.08042892965602e-06
2.13099726762871e-06
2.89296291685948e-06
8.21376573546009e-07
3.65030631052995e-07
1.00406387916097e-06
7.4799975447674e-07
6.1815647285441e-07
6.80391997605761e-07
8.51616182578452e-07
6.29240245791116e-07
6.20998186305724e-07
8.06371309679933e-07
1.41343079425879e-06
2.27596841962996e-06
2.04933381893359e-06
7.62975491019619e-07
8.15774915553114e-07
1.54056233164496e-06
2.78230455248363e-06
4.51606898629254e-06
5.55915056297943e-06
4.23994703179117e-06
1.24894412707583e-06
1.05192289596241e-06
1.66415712011105e-06
4.84945611770414e-06
1.02395848175858e-05
1.39351334139072e-05
1.49265574823449e-05
8.9313286544358e-06
1.80322939011038e-05
2.44590381552904e-05
2.87159107529488e-05
2.51613382479968e-05
1.22126812195243e-05
3.98706501320218e-05
4.42714476588092e-05
4.17858842030446e-05
3.17021755586709e-05
5.59384002102047e-08
2.88355303047412e-07
2.11243097004282e-07
1.96814032604164e-06
1.22666889311884e-06
1.85254962718497e-06
5.17336257079292e-07
1.90424101509012e-07
1.49492179269946e-06
6.73249731015754e-07
8.56468242681383e-07
1.18354908184652e-06
9.63084269443448e-07
1.5015503148922e-05
8.15835674152277e-07
4.77454799939102e-07
3.15417214504217e-07
3.29905846579687e-07
1.50407035220494e-07
2.08935582490547e-07
2.9715383030132e-07
1.91103757524061e-06
1.90923535495987e-06
8.25520441965563e-07
3.38198690049078e-06
1.89930835308171e-06
7.66646350684879e-07
2.46579139052991e-06
2.23820993292666e-06
1.25408222699586e-06
5.60148087756041e-07
2.10431887119657e-06
2.67950114846337e-06
8.98007017102795e-07
5.07984152341266e-07
4.20227205785437e-07
7.89737533866935e-07
6.99474855961724e-07
5.60893304947637e-07
7.41996390598639e-07
1.24240765950606e-06
1.58546122887313e-06
6.22471133731453e-07
6.07828638434924e-07
8.10622258163013e-07
1.19476026689581e-06
2.76248679812268e-06
4.14627857133253e-06
2.66916081058477e-06
8.18377772987362e-07
7.93721444408088e-07
1.33090621484529e-06
2.97971920263072e-06
5.476268939673e-06
8.78980546427278e-06
9.91510272068638e-06
6.35467086536665e-06
1.65993738680077e-06
1.37571105473761e-06
1.45824604138628e-06
3.9342449866098e-06
1.07859974040036e-05
1.60184955873871e-05
2.11161880961177e-05
1.98530770425933e-05
1.01091644132642e-05
2.57172245721331e-05
3.28270671405054e-05
3.40944768714188e-05
2.70565747291481e-05
1.28063454829105e-05
4.74806191981946e-05
4.99070090075941e-05
4.26508734270737e-05
3.11429142595521e-05
1.13958449940947e-07
3.21016513891717e-07
1.56029534494793e-06
1.16659030851922e-06
1.3530604133438e-06
6.78265744201217e-07
8.74611916140971e-07
3.27536763365784e-07
1.29536022442671e-06
5.8765186714808e-07
5.5999705684591e-07
1.14300679063949e-06
9.62272215012273e-07
1.45645139901784e-05
8.05381994583451e-07
5.92088284511288e-07
3.36068927680865e-07
2.83111681643923e-07
2.08627729995152e-07
1.28288317515351e-07
1.25491408052326e-07
3.5592712281052e-07
3.05940175511062e-06
2.21866906403838e-06
1.79509496277225e-06
1.71045908050807e-06
1.11071295354746e-06
7.54145688323938e-07
3.18599745914058e-06
1.91191057200905e-06
8.68785313989493e-07
3.14130821571446e-07
2.45117491257936e-06
2.1455444973622e-06
1.21605746197529e-06
6.10617659926384e-07
3.67908184411241e-07
2.29959905195554e-06
2.42825614521753e-06
9.28962713269117e-07
6.57370563669835e-07
7.04570563480177e-07
9.81022454007569e-07
6.6164016820252e-07
6.30745134067436e-07
5.08704367442911e-07
6.85730587025778e-07
1.54483151351594e-06
2.46284301442658e-06
2.13368814880298e-06
6.41168748803128e-07
6.21502239735796e-07
8.08152804674005e-07
1.17997950483252e-06
2.67085827801802e-06
6.1599858582644e-06
6.39949330059392e-06
4.49485330344552e-06
9.98806436466764e-07
9.20537472621001e-07
1.16741231267024e-06
2.77095644073392e-06
5.71054744348937e-06
1.06301065701492e-05
1.50583886099095e-05
1.52510008905318e-05
8.0763369383749e-06
3.0001525120953e-06
2.35732159682183e-06
1.83744824359254e-06
3.31803059843337e-06
1.0311545245117e-05
1.66688733821571e-05
2.45068122059915e-05
2.74355288888298e-05
2.28854910698102e-05
1.11478300883365e-05
3.5089887485894e-05
4.10472752381464e-05
3.68644900614592e-05
2.7458378725811e-05
1.26588028894332e-05
5.61195678827133e-05
5.15341219659186e-05
4.1798535747131e-05
2.97197921447355e-05
3.37392907379485e-07
8.90373881827142e-07
5.50917850909525e-07
1.14451924524044e-06
5.71068937992425e-07
6.12495427882348e-07
7.18831612168047e-07
4.84977781831265e-07
1.6306572535687e-06
6.42053180212301e-07
6.11190477444932e-07
5.76774839863439e-07
9.74108875647467e-07
9.11542565060591e-07
1.33888912091984e-05
8.45103030087987e-07
6.47449091294172e-07
4.33013108217154e-07
2.89540266026283e-07
2.51223888793454e-07
1.0877739783585e-07
6.91654777391265e-08
1.85702560900259e-07
5.30077498988862e-07
4.67147267835727e-06
4.9001318750271e-06
5.29904564503794e-06
2.00821040304152e-06
1.67172669385476e-06
5.28970822862664e-06
2.38583140346771e-06
1.83402412797435e-06
1.35863204806986e-06
6.65249230876729e-07
1.49544180651582e-06
3.06099159722259e-07
2.81689734164217e-06
1.91395305010078e-06
9.93435953231893e-07
5.16801171763059e-07
3.72301117487297e-07
2.3527608576323e-06
1.97714741281633e-06
1.13425920192298e-06
5.94235924837138e-07
7.35340479659601e-07
7.10192537907735e-07
2.22916060490925e-06
2.13414291667191e-06
1.01748979346471e-06
7.15504924488967e-07
1.02439820989551e-06
1.76848524041932e-06
1.75556060780104e-06
5.84082430393119e-07
5.7761716168136e-07
5.11595880895587e-07
5.9522053580136e-07
1.30241020077355e-06
3.05920584123765e-06
4.87659049804058e-06
3.09731027801691e-06
7.17332392746655e-07
6.96504967160875e-07
8.20954501468161e-07
1.41635980281275e-06
2.31405808487986e-06
7.08600040807502e-06
1.08442263869909e-05
1.16789158135417e-05
6.38445367219817e-06
1.5220594970652e-06
1.3553783205398e-06
1.32049036304911e-06
2.499391375191e-06
6.09937982256923e-06
1.05113822923248e-05
1.79660233845131e-05
2.18826015447606e-05
1.91367294565559e-05
9.59492811090587e-06
7.41827007454433e-06
4.94327967356181e-06
3.66379182489194e-06
4.42291772595087e-06
1.01020695031718e-05
1.75315964131561e-05
2.61555634961122e-05
3.33111805762005e-05
3.15810706357411e-05
2.41432696598238e-05
1.11747668670103e-05
4.64058045887344e-05
4.50840131120791e-05
3.74130151709471e-05
2.68043628654195e-05
1.17272372087765e-05
5.926286707628e-05
5.07470067559908e-05
4.00404509654152e-05
2.76061240910373e-05
4.46240854601383e-07
6.28936171454686e-07
4.15190497775904e-07
6.25779295301251e-07
2.90705480397061e-07
4.83125721424528e-07
5.94999368234042e-07
1.63249011127038e-06
1.81081715648097e-06
7.37174689089424e-07
1.2458752291393e-06
7.04825061319884e-07
7.46942642896213e-07
9.20809031567802e-07
6.49227153471196e-07
6.86957189721955e-07
7.82434608820955e-07
1.16487786148926e-05
7.75966966974498e-07
7.16474603726005e-07
5.09941007679086e-07
3.54700985024498e-07
2.93609561865453e-07
1.58805747145355e-07
8.32824849588098e-08
1.25464110925474e-07
8.45653673579508e-07
5.85767733373992e-06
6.40089465344155e-06
6.20947721105806e-06
3.88977790697538e-06
4.5890443290998e-06
6.49978551355082e-06
4.56618416450482e-06
5.29042999320593e-06
1.43625586135206e-06
1.69547724101061e-06
1.78437906001209e-06
5.68132003908313e-06
1.96586951205004e-06
2.07851157976236e-06
4.51999531142538e-06
1.8351823427835e-06
1.36028077443275e-06
1.28593582622962e-06
8.11896284792827e-07
1.26435683671451e-06
1.91368928665286e-06
6.81878375120936e-07
2.34030251145736e-06
2.42460751936813e-06
1.80634219687967e-06
9.65884287408599e-07
8.58122630674194e-07
9.15829793956872e-07
9.28498592575573e-07
2.09916975593075e-06
1.7668431456429e-06
1.05658012545532e-06
5.5942079560189e-07
8.50478254272275e-07
1.46690547649355e-06
1.66182857603068e-06
1.80802223197695e-06
1.78640618236383e-06
1.06197340083046e-06
7.11834666617464e-07
1.09688304202337e-06
2.37385295029178e-06
3.7124265318144e-06
2.78090186590816e-06
5.80949965027136e-07
5.81467206243323e-07
5.61482875162007e-07
6.45786039175169e-07
9.83318596076294e-07
2.71556279779515e-06
8.05903579478378e-06
7.87969977276539e-06
5.12140275164089e-06
9.35327532130234e-07
9.08460054920553e-07
9.6239192103766e-07
1.62603204061144e-06
2.94903184817799e-06
5.86178090572956e-06
1.30118792319223e-05
1.75155187051322e-05
1.60830810966934e-05
8.13157478484128e-06
3.1514879376014e-06
2.45063304635803e-06
2.17492666941787e-06
3.07592411867415e-06
6.69119985651144e-06
1.09047314781644e-05
1.88750832921099e-05
2.66385266473521e-05
2.70005061326379e-05
2.11739319093359e-05
9.89118802299105e-06
2.3204563719288e-05
1.18466645187206e-05
8.73712714708133e-06
8.83284092677683e-06
1.35134334220752e-05
2.05991623409431e-05
2.78001089655726e-05
3.7831953541482e-05
3.88881203403025e-05
3.32441891484982e-05
2.41937415975896e-05
1.04592973342283e-05
5.22389772659525e-05
4.59486365483078e-05
3.65612147714683e-05
2.52181369116745e-05
1.02474626501017e-05
5.90983547141927e-05
4.89322004836327e-05
3.7632571473722e-05
2.49012500995857e-05
6.78183637197683e-07
2.38978169837974e-07
1.96830325402923e-07
8.11148052216383e-07
2.06712510363239e-06
1.81787527414823e-06
1.75581587298476e-06
1.60924236307649e-06
2.11493979131785e-06
1.3490110445018e-06
3.9807462555042e-07
5.64793671996029e-07
9.3904524593508e-06
6.70761487483612e-07
6.79166171443798e-07
6.01314297610558e-07
4.29668598086512e-07
3.4248660399087e-07
2.59101851462223e-07
1.52297204810342e-07
1.50084356914124e-07
3.45877546298676e-07
1.01981791967383e-06
6.98117022179849e-06
1.04435686247682e-05
7.15828664570054e-06
9.09856627388398e-06
8.03719237615466e-06
7.87600170519603e-06
6.7466195561745e-06
8.31811488211717e-06
6.78480089157093e-06
3.12728897637678e-06
3.59278478480654e-06
6.62596056827884e-06
7.84695342434431e-06
6.10034784571751e-06
1.25978338494049e-06
1.26778142616276e-06
2.58887443059569e-06
2.91673902316542e-06
6.97344922873745e-06
6.3991501993454e-06
3.34106458185026e-06
5.6381765486032e-06
1.73117185490624e-06
1.32691174123066e-06
1.25427203788293e-06
2.07718356014611e-06
2.01671031495852e-06
1.69973360798148e-06
2.06694792570814e-06
4.10012110008658e-06
5.29724201657746e-06
2.01669563933677e-06
1.62127753525727e-06
9.11607481361661e-07
7.45103796431655e-07
1.40382029729957e-06
2.01641477026455e-06
1.87566974125774e-06
1.75620823313162e-06
1.52922606076861e-06
9.86148150616584e-07
5.40691209545934e-07
7.58719008281054e-07
1.93083214882776e-06
3.4876291259532e-06
2.90579093669964e-06
1.28337478149687e-06
1.36692582691726e-06
9.99149348157005e-07
7.04308547062825e-07
1.05694009155454e-06
1.95911095509299e-06
5.91894827029096e-06
6.97279978444377e-06
4.56917529242428e-06
6.70960030567893e-07
6.76204238477831e-07
6.77941641388386e-07
8.80154849548184e-07
1.44807207773708e-06
2.23689796191978e-06
7.87906642828846e-06
1.31577231968218e-05
1.34656326741285e-05
7.02289103788928e-06
1.585111473258e-06
1.41247506838753e-06
1.42744936390475e-06
2.11155943365151e-06
4.15930936660377e-06
6.32822222271786e-06
1.26450053445274e-05
2.12038348426212e-05
2.32790466950196e-05
1.86182831768104e-05
8.80542947090602e-06
1.00470441357116e-05
5.38259152262747e-06
4.50909347326376e-06
5.34387229483211e-06
8.9656001590921e-06
1.39531524526603e-05
2.00620434076534e-05
3.00721413355814e-05
3.32510745296339e-05
2.95026748908059e-05
2.18138547820019e-05
9.44952671464226e-06
3.17260239549964e-05
2.10617293068378e-05
1.92385340607474e-05
2.31068939728856e-05
2.90349874472039e-05
3.47438032664809e-05
4.2533175242589e-05
4.53503572899164e-05
4.12288992435667e-05
3.32963152824893e-05
2.31307474757913e-05
9.19404254597572e-06
5.38181211792999e-05
4.50727059765307e-05
3.47770961430044e-05
2.28724114182516e-05
8.19798065402287e-06
5.76866059082547e-05
4.65487168800044e-05
3.45582662799151e-05
2.14519226778734e-05
1.00036787803692e-06
1.07666875176962e-06
1.51518296103897e-06
1.02102769824824e-06
6.3698476284484e-06
4.99960793922244e-06
2.01552885023904e-07
3.26627186169956e-07
6.62492173087776e-06
5.01977306817124e-07
6.00830426342194e-07
6.10085790341755e-07
5.49804191856465e-07
4.65113242506997e-07
3.23074758490374e-07
2.43128356011589e-07
2.34087178329372e-07
3.89793470036874e-07
6.68010501868686e-07
6.40525746584384e-07
7.95256480059163e-06
1.51775777963246e-05
8.11639389326103e-06
1.52007202327571e-05
1.25254191317521e-05
8.87755402270436e-06
8.85263055200913e-06
1.01608342164617e-05
9.55166295819055e-06
7.68823824630708e-06
6.68299970747819e-06
8.34802351529993e-06
2.54083578582883e-06
2.94556980015572e-06
4.96347563761796e-06
7.17183427762994e-06
7.10321621075922e-06
1.22328909221127e-06
1.1387004019456e-06
2.84296400198452e-06
4.64842634541904e-06
5.90308039602031e-06
7.49785030203974e-06
7.43355526219701e-06
5.69783883641768e-06
1.52801677069005e-06
1.27681795551093e-06
9.78116763818001e-07
2.08848663051853e-06
3.47601491832776e-06
4.0542666316272e-06
3.22204571522964e-06
4.80096262741112e-06
6.61650077226113e-06
7.29977367014963e-06
1.62323888765497e-06
1.38684676435253e-06
8.57315867209597e-07
5.776068934253e-07
1.29768156094137e-06
2.54777172875344e-06
3.88711529472259e-06
3.15792344240997e-06
1.37682903386655e-06
1.26709812172771e-06
9.02930590372272e-07
5.31379056143815e-07
6.12300937125184e-07
1.90664414760285e-06
4.64868060768475e-06
6.73557309614048e-06
4.47573393046923e-06
9.11519479498152e-07
9.91908837364017e-07
8.67055602847252e-07
7.18553403861892e-07
1.04548713790831e-06
1.54814631935804e-06
5.08284749503324e-06
1.12529058511869e-05
1.14080388699892e-05
6.26364585116673e-06
9.66164432555939e-07
9.34366979434294e-07
9.56271345975042e-07
1.30530139411127e-06
2.51494403223129e-06
3.58377671647252e-06
7.34082644011177e-06
1.57156177252282e-05
1.99735979263505e-05
1.6478757289386e-05
7.99146354104675e-06
4.76117995571991e-06
2.74813311535933e-06
2.5914345190543e-06
3.41592272331578e-06
5.90774702917295e-06
9.26633649289178e-06
1.35389904256414e-05
2.3219112945789e-05
2.83994688822454e-05
2.63323441766657e-05
1.97133675628307e-05
8.67907790233895e-06
1.63098187906179e-05
1.07849198188901e-05
1.09973387508564e-05
1.48488022365029e-05
2.02908534191623e-05
2.57479282731879e-05
3.40484216076727e-05
3.8740605351691e-05
3.68238094817402e-05
3.03275170562893e-05
2.12508213042396e-05
8.40826424534035e-06
4.83782227865136e-05
3.85284749100518e-05
3.88752104333891e-05
4.23133180060029e-05
4.58215725261336e-05
4.96501522146226e-05
5.18787299376106e-05
4.86147922337322e-05
4.13749317594373e-05
3.21613423935883e-05
2.11127390185104e-05
7.38956437045247e-06
5.33442327802473e-05
4.32908873788755e-05
3.21767604497864e-05
1.97652698820785e-05
5.67478152457145e-06
5.55258107010372e-05
4.33728457620567e-05
3.05922945339658e-05
1.7123529284892e-05
8.17142632885472e-07
8.62389241305686e-07
1.35456010048861e-06
7.43945304611388e-06
9.57356468062581e-08
1.82470909815598e-07
3.70374522260721e-06
3.13009672995106e-07
4.70926300827538e-07
5.57617490700036e-07
6.08183738567483e-07
6.12306753897975e-07
4.7307859728408e-07
3.12738183181885e-07
3.01493494700227e-07
3.98453949979275e-07
7.83989088062172e-07
7.71143157438257e-07
8.35217896409994e-07
8.27652805110929e-06
1.71582591627726e-05
8.25751525243676e-06
2.04866799789747e-05
1.59822749731497e-05
8.97747165999812e-06
1.80728786397215e-05
1.6529995752872e-05
1.46116107695036e-05
9.12952890962892e-06
8.62880152175676e-06
1.02164525872647e-05
1.23271015687706e-05
1.20797580869053e-05
1.85212573142005e-06
2.3372443467974e-06
5.37179080482614e-06
8.52661250860439e-06
1.00252580771278e-05
1.11802437888151e-06
1.0653868214067e-06
2.2725266913088e-06
4.9483851241598e-06
7.40402739612951e-06
8.16973775159168e-06
1.27878754175307e-06
1.14918230834404e-06
8.11263480983417e-07
1.55051427884586e-06
3.61458963928236e-06
5.64699468363899e-06
6.60700280906254e-06
4.39576506530158e-06
5.36913700374726e-06
7.37855439438078e-06
8.31798338451189e-06
1.27514677453675e-06
1.14429060471252e-06
7.83052408580119e-07
4.85168848121962e-07
9.47380756076672e-07
2.44127622616446e-06
4.42022750721814e-06
6.91805195007881e-06
4.70746569977594e-06
1.03802745147578e-06
1.00682215444236e-06
8.01533370369613e-07
5.17607250639929e-07
5.14608657986127e-07
1.56371511621545e-06
4.74225938588853e-06
9.20551512074752e-06
1.06117513441128e-05
5.91242133959697e-06
8.14343654755556e-07
8.2825765244797e-07
7.8647470349157e-07
7.79949657682677e-07
1.16643683350997e-06
1.8471947412422e-06
4.64998090405921e-06
1.13374047038327e-05
1.68323929688986e-05
1.47075008966842e-05
7.47765063812429e-06
2.6270959133438e-06
1.64210301628995e-06
1.60412408778256e-06
2.13504304353307e-06
3.81517263631475e-06
6.48300290499481e-06
9.5506700677916e-06
1.67322543441651e-05
2.38352495593578e-05
2.36546360401851e-05
1.79574285568345e-05
8.16554169820577e-06
2.37481858112237e-05
8.79383863191682e-06
5.93009875226559e-06
6.59348575855581e-06
9.62531050531666e-06
1.3948299531874e-05
1.85527635820845e-05
2.61571709130992e-05
3.25991231869381e-05
3.29454097060976e-05
2.77329151551467e-05
1.9590913179216e-05
7.86917492225813e-06
3.02081231914014e-05
2.43188928973492e-05
2.62131428996373e-05
3.08028599833415e-05
3.52713612355921e-05
4.01882931575329e-05
4.44811777463219e-05
4.35903342718324e-05
3.79470896473968e-05
2.97963868059138e-05
1.95807873154631e-05
6.86081999060036e-06
6.94341871039727e-05
6.05433091748658e-05
5.88839399087601e-05
5.9254263930497e-05
5.96394515719642e-05
5.93897222369461e-05
5.6047027077889e-05
4.92098505315023e-05
4.02443947966615e-05
3.00045957802908e-05
1.82867498777147e-05
5.19904377223616e-06
5.18814306581849e-05
4.06707482982375e-05
2.86381980863228e-05
1.57564674832362e-05
3.20140154937547e-06
5.2330149492935e-05
3.91437911236893e-05
2.55811378914704e-05
1.19175192056368e-05
5.99039629479517e-07
7.11269691660444e-07
8.20635365513469e-07
3.97292738010025e-08
9.37964157997458e-08
1.65975212496129e-06
1.87622325110787e-07
3.16883301261876e-07
4.54161637472902e-07
5.64365865866819e-07
6.74636757997095e-07
6.32456409343591e-07
4.89941836615149e-07
3.92189248580299e-07
4.60378680513406e-07
7.76834697524228e-07
9.24427143867232e-07
7.4907201465598e-07
7.69782965595593e-07
8.55204503538387e-06
1.87615957264805e-05
8.32646841278235e-06
2.38150155791452e-05
1.75892827098241e-05
8.6433899303101e-06
2.46820174466251e-05
2.13318242407774e-05
1.72645025545725e-05
8.84256874392738e-06
1.89529377612175e-05
1.95260414221643e-05
1.90493297054292e-05
1.66035673614687e-05
9.22472228754608e-06
7.30931165482865e-06
9.73830518315788e-06
1.3111249816357e-05
1.5285488887338e-05
1.49311762273491e-05
1.43026917296637e-06
1.77845409542757e-06
5.01881524106997e-06
9.30517558881263e-06
1.23172598874759e-05
1.34655066881855e-05
9.70400042889685e-07
9.72578185550039e-07
1.24541760782298e-06
4.2822569542935e-06
7.72503334900014e-06
1.08937431054658e-05
1.05963165604013e-05
1.04014496553277e-06
9.74744963999122e-07
7.07703891203632e-07
9.39322298592728e-07
2.87536941161872e-06
5.67129347784139e-06
8.27174915187195e-06
9.64421134914959e-06
5.61803714630476e-06
6.18930954035213e-06
7.87266583717679e-06
9.30983330461336e-06
9.94670274761437e-07
9.22129972172831e-07
6.93639429167883e-07
4.39078816924707e-07
6.2669073724405e-07
1.86729088691266e-06
4.52150717822055e-06
8.36353700655148e-06
1.07135950477257e-05
6.17775832869811e-06
8.35706132979956e-07
8.0531406155205e-07
7.02958938818133e-07
5.19424903830558e-07
4.87460189631498e-07
1.09197474719184e-06
4.1708046599094e-06
9.64478435793911e-06
1.47995811293734e-05
1.375911547177e-05
7.20998014781125e-06
1.60971544445009e-06
1.05156673528873e-06
9.53392549011391e-07
1.0640534337617e-06
1.72632807512441e-06
3.59000878418582e-06
5.68167646558052e-06
1.15521455768955e-05
1.97866568151602e-05
2.13234368208609e-05
1.66226623220725e-05
7.9045310909619e-06
1.52745798180226e-05
5.38029320856868e-06
3.57438370763372e-06
4.04637668102415e-06
6.18022678281528e-06
9.63450085672455e-06
1.3666011471801e-05
1.9565825816095e-05
2.67181203232445e-05
2.95356906205898e-05
2.55672904089111e-05
1.82074279114576e-05
7.58644592252565e-06
7.94508789077044e-05
3.54150468255831e-05
1.93154952091264e-05
1.55185290635273e-05
1.75325236823334e-05
2.18784984968929e-05
2.64614920748585e-05
3.1759925702549e-05
3.73621584220227e-05
3.89314593841007e-05
3.49332458870544e-05
2.7723741065498e-05
1.82662643789426e-05
6.53717519516942e-06
5.23307965788683e-05
4.56855619793191e-05
4.56884412524514e-05
4.7427478641273e-05
4.94364232918785e-05
5.14248360015969e-05
5.04606554452218e-05
4.53373650712329e-05
3.74878162618615e-05
2.80562918606529e-05
1.7007119611341e-05
4.98737689565321e-06
8.99999280251037e-05
7.9817289973699e-05
7.50593540056831e-05
7.19507369293559e-05
6.9047164176724e-05
6.44394016879743e-05
5.74190621707723e-05
4.8440448129293e-05
3.81515177778846e-05
2.68472850811252e-05
1.45852268897046e-05
3.10948026749198e-06
4.93366578496615e-05
3.69519447916183e-05
2.40138449083633e-05
1.08765051024097e-05
1.61744342784658e-06
4.78941670961821e-05
3.3680306870454e-05
1.94381990969425e-05
6.31016666720966e-06
5.39564824386371e-07
6.0483306791161e-07
7.2855865864888e-07
8.02294044634299e-09
4.14625642826598e-08
5.62607151499829e-07
9.53710827457406e-08
1.9285771915962e-07
3.26641991527458e-07
4.6422525988271e-07
6.24218297834084e-07
7.34376099563807e-07
6.3825222505485e-07
5.24424558646313e-07
5.96271348731481e-07
7.93846428530001e-07
9.44999534009212e-07
7.62716431886869e-07
7.4760580536055e-07
7.25519747599191e-07
8.5498319072821e-06
1.98211779229069e-05
8.63301097095522e-06
2.64878037584257e-05
1.89971299773173e-05
8.64794292197408e-06
2.93492174713856e-05
2.43781866539192e-05
1.85868704146596e-05
8.82048952256673e-06
2.77075581970421e-05
2.57488635693063e-05
2.31166684546876e-05
1.85454765610815e-05
9.11077140048557e-06
1.85064745565829e-05
2.07162044970489e-05
2.20816604682877e-05
2.18488796582559e-05
1.85532132310223e-05
9.81251862122505e-06
5.79489428377461e-06
7.73437248706696e-06
1.25824099603497e-05
1.70456829195273e-05
1.9206377300982e-05
1.77592704483395e-05
1.26838040876242e-06
1.43495297084074e-06
3.26097981068909e-06
8.8363080696865e-06
1.3493823839485e-05
1.7053377689435e-05
1.54938260358116e-05
8.3557212396973e-07
8.57913777210645e-07
8.74206857339396e-07
2.82570905361146e-06
7.13367730239984e-06
1.12761340945882e-05
1.4055272332589e-05
1.34033635342876e-05
8.59058015954078e-07
8.03721754509191e-07
6.22078358478597e-07
6.16900341370455e-07
1.81519514351944e-06
4.85140602179966e-06
8.6318677765261e-06
1.25542136336362e-05
1.29383914028697e-05
6.96075209372933e-06
7.29959279152208e-06
8.39272524865221e-06
9.67585937746317e-06
8.89452690285292e-07
7.44915279305497e-07
6.06166328550829e-07
4.13393344191228e-07
4.5653710445401e-07
1.18604488682669e-06
3.85362443056735e-06
8.94855404062207e-06