/*--------------------------------*- C++ -*----------------------------------*\
  =========                 |
  \\      /  F ield         | OpenFOAM: The Open Source CFD Toolbox
   \\    /   O peration     | Website:  https://openfoam.org
    \\  /    A nd           | Version:  12
     \\/     M anipulation  |
\*---------------------------------------------------------------------------*/
/*   Windows 32 and 64 bit porting by blueCAPE: http://www.bluecape.com.pt   *\
|  Based on Windows porting (2.0.x v4) by Symscape: http://www.symscape.com   |
\*---------------------------------------------------------------------------*/
FoamFile
{
    format      ascii;
    class       volScalarField;
    location    "600";
    object      nut;
}
// * * * * * * * * * * * * * * * * * * * * * * * * * * * * * * * * * * * * * //

dimensions      [0 2 -1 0 0 0 0];

internalField   nonuniform List<scalar> 
10107
(
4.95431615857851e-07
2.8096514374773e-07
9.71229423031648e-07
2.38920345053095e-07
4.39959362456693e-07
5.5208954769025e-07
9.59763309340983e-08
6.85565316381538e-07
1.11721646124488e-06
4.94445714171667e-07
3.50324898670089e-07
6.16046285358481e-07
1.03174668936467e-07
5.64684496315314e-07
4.35615614149356e-07
8.18001683834395e-08
1.45998796414483e-07
1.65106682162776e-06
7.81219625381337e-07
8.38326638405031e-07
1.04331957593685e-06
1.51304186725383e-06
2.71480149616856e-06
8.93723876788579e-07
1.03189788278345e-06
8.37628120451491e-08
1.84670982817647e-07
3.14046652167211e-07
2.42275308813757e-07
1.11687109013987e-07
6.7976674369817e-07
3.9390696019233e-07
1.26274508345758e-07
5.86041353376439e-07
6.08233227849661e-07
1.94304075341146e-07
2.7248906493574e-07
2.62496483242648e-07
1.73358450500268e-07
1.56608402840457e-06
1.70591194454166e-06
1.05197414102717e-06
8.06486836535698e-07
6.13849415785999e-07
7.69230694172321e-07
5.48920096669324e-07
5.8838339512714e-07
5.89141551423348e-07
1.2957903384935e-06
3.61040942716703e-07
1.36789437630578e-06
7.31008746646828e-08
3.48706672601439e-07
2.37255116837034e-07
4.20604997730004e-07
2.75028527829027e-07
4.28948540987153e-07
1.94959298451762e-07
1.47174820217901e-06
7.77448943401004e-07
3.18037884747786e-07
3.55990008039356e-07
2.31866197492717e-07
1.43158832696497e-07
3.4301213552715e-07
2.49941715696494e-07
1.950257899237e-07
1.4296652752845e-06
1.33812939938857e-06
1.01680411073161e-06
1.63265642280403e-06
9.51278516756966e-07
6.31201125836743e-07
8.06521454697233e-07
6.42561510632487e-07
4.52973540140814e-07
5.04280881242976e-07
3.37788053788594e-07
5.70861955273919e-07
5.12660145385536e-07
1.65621257109728e-07
3.71737049797653e-07
3.6727747494102e-07
6.42052892647088e-07
2.72010490079536e-07
7.47286987527594e-07
2.55136757898265e-07
1.08042758945729e-07
1.03259383662655e-06
5.58799065783521e-07
3.31415819363222e-07
3.69667007429918e-07
1.29705707751689e-07
3.51766157122661e-07
1.01848398024345e-07
2.45924062198762e-07
8.51808134381934e-07
1.15773872663207e-06
1.10373940857085e-06
1.15227598970976e-06
9.27755700975582e-07
6.05833142441895e-07
1.51889580751747e-06
8.72487941972401e-07
7.08233036148815e-07
5.13051693844187e-07
8.08707714854663e-07
6.91415326296806e-07
6.35289811520507e-07
7.25574061023504e-07
4.66374356971914e-08
1.29939142258885e-07
1.90934194842335e-07
4.27984555146548e-08
7.53538864100941e-07
3.13046613971291e-07
3.00248181165377e-07
1.38513040893755e-07
1.15170796051836e-06
6.57925845773951e-07
4.00805944073288e-07
4.46871892055017e-07
2.84980179953817e-07
4.65987672997291e-06
7.78668630478087e-08
8.23527603377699e-08
1.08829059052472e-06
8.78634799919455e-07
7.34797574771028e-07
1.03689080770507e-06
9.50683981464717e-07
7.01624272813036e-07
1.05064158377633e-06
1.01327632363718e-06
1.08295911804115e-06
3.57308907217217e-07
1.40775047878621e-06
8.45001823231875e-07
9.82433481214198e-07
1.90002835440298e-06
3.92775514329535e-06
7.77374731039311e-07
8.38097098241369e-07
1.85172296359969e-06
1.69511735280924e-05
7.67579131379897e-08
1.12552291581991e-07
5.01269936990496e-07
5.87192891383887e-08
1.01860812275924e-06
5.7675040538761e-07
1.79923928474992e-07
9.30862975877866e-08
1.37526393945485e-06
7.83674071472362e-07
4.07323293332358e-07
3.74406209709411e-07
3.27379736168183e-07
1.0408486946372e-05
1.931186696306e-07
5.89979289658427e-08
5.06950550428537e-08
3.40588952154718e-06
1.18193290708415e-06
7.28631737009731e-07
9.54868748935217e-07
7.72455736144747e-07
6.4891347538219e-07
9.59817071011016e-07
9.96250628661538e-07
8.86429664499042e-07
4.79344907620627e-07
9.89580007078208e-07
1.03823045089236e-06
1.70107869804764e-06
1.80452915147424e-06
1.5781753136473e-06
8.41798209879512e-07
1.15424268430215e-06
3.07603593775866e-06
1.16218631090106e-05
6.6548670513657e-06
1.00332786167293e-06
2.9461195511976e-06
2.89551372149523e-05
4.29948448137345e-05
5.15111030015409e-08
4.93555473453583e-08
5.87696796659044e-08
9.37752862520388e-07
7.21025073402506e-07
7.93162827627896e-07
3.03639808934712e-07
7.07237370635937e-08
2.45815685892683e-06
1.40963970609064e-06
3.35228638706554e-07
3.90817798165381e-07
2.99444543200172e-07
1.40372132703409e-05
2.33444681653904e-07
1.17425990066139e-07
4.32431958129451e-08
6.79049689312162e-08
3.19968694461146e-06
3.20301004860038e-06
1.66713315449809e-06
1.20628443377058e-06
7.60714549605405e-07
6.32814162937792e-07
9.17162601310853e-07
8.93444030227993e-07
8.728786400124e-07
3.81898611138948e-07
8.89904479563743e-07
1.02695758394381e-06
1.37010542646745e-06
9.08637641073263e-07
8.88816455378608e-07
9.61949983333764e-07
9.8383624062988e-07
1.8690813846091e-06
3.70962069042799e-06
5.05206683042512e-06
3.46395349292171e-06
1.20023640094852e-06
3.66071547295123e-06
1.89067718724495e-05
2.50227660298068e-05
1.00538753840556e-05
3.38837661948527e-06
3.38298637938821e-05
7.62635931492872e-05
6.22408573263583e-05
4.04712365925279e-08
1.73970957891402e-07
4.73052715768475e-07
4.28630493253233e-07
1.25292114085118e-06
9.49680995769998e-07
1.93577743695975e-07
7.99739210434985e-08
1.99276224410536e-06
9.66931593661642e-07
6.28882931779818e-07
4.0437341987748e-07
3.26101530150221e-07
2.0429095257789e-05
2.33778263699278e-07
1.52425252743057e-07
9.71654850309898e-08
4.1976265549639e-08
5.32652293049854e-08
2.23259789110549e-06
3.31935738775527e-06
1.95795537134929e-06
2.9658190697027e-06
1.87895586814594e-06
7.82650325603368e-07
1.28602106918338e-06
8.41085118314705e-07
6.99522515115617e-07
2.11577244075834e-07
8.5871005082002e-07
9.00685874205588e-07
9.8894083734733e-07
8.53229427551821e-07
7.41745258369723e-07
8.51357951244988e-07
9.74738525408295e-07
1.67460885711137e-06
2.00144781558295e-06
2.12756979396039e-06
1.62531704016736e-06
9.85421633692953e-07
9.21102621902543e-07
1.74043668270117e-06
4.51779491874698e-06
1.07599189529973e-05
1.23192766773758e-05
6.42736340877933e-06
3.63833026622005e-06
2.17298687504835e-05
4.67966927487746e-05
4.61273541796274e-05
1.56497203349176e-05
3.32679519335532e-05
8.97678327054703e-05
9.00615716215089e-05
8.77765103471211e-05
5.97435251861999e-08
1.47984007328533e-07
1.81235817067131e-07
2.93110994203457e-07
1.68298683742587e-06
2.41260208639865e-07
3.74721389852503e-07
6.47444876206688e-08
6.70275977201525e-07
1.36935167703957e-06
4.32509613750891e-07
3.88916054245669e-07
3.41460700642884e-07
2.45101887973407e-05
2.47053658705087e-07
1.56773594496685e-07
1.12460297299665e-07
8.2577650734219e-08
2.83053446924244e-08
6.10810322923088e-08
1.22422564225769e-06
2.58441610581295e-06
1.38762088520401e-06
3.29847950271702e-06
2.18645587834674e-06
1.13508078845824e-06
2.85009910600012e-06
1.93926416207333e-06
6.95313089737535e-07
2.02530195027525e-07
1.27546534622319e-06
8.82597691274986e-07
7.25852200560653e-07
4.82562890951312e-07
4.37761305732679e-07
8.32482485606872e-07
8.4801694128481e-07
1.1340839837349e-06
1.25392829693327e-06
1.75832444734212e-06
1.21482926083041e-06
8.56249709835045e-07
9.06362792500243e-07
1.64213295899905e-06
3.10336086343258e-06
4.63758401883435e-06
5.15524112684155e-06
3.3490847269973e-06
1.09874338415302e-06
9.79115358283184e-07
1.46014045005262e-06
4.31481223521003e-06
1.47764342799207e-05
2.65488410618024e-05
2.9024942259903e-05
1.14412035253366e-05
2.11854055912153e-05
5.72831585105929e-05
7.33431137130974e-05
7.45209888402278e-05
2.0068889887185e-05
8.77852275511782e-05
0.000118922795704916
0.000116783613200426
0.000118998467890335
1.72118797926456e-08
1.44991962834645e-07
7.68993318973498e-08
1.81344256177441e-06
6.12239396981779e-07
1.35482457333118e-06
3.37860063410472e-07
5.71148472027208e-08
5.87822793150285e-07
4.09679650969762e-07
4.63390155997129e-07
3.94150870395678e-07
3.21442618014016e-07
2.75827619460845e-05
2.73117841082281e-07
1.60327981512069e-07
1.05840561945405e-07
1.0855144745793e-07
4.49072251324704e-08
3.79645549730981e-08
6.49269778021491e-08
1.0126068208203e-06
1.62119206017671e-06
6.5956105784506e-07
2.98290308849667e-06
1.53200684568974e-06
4.86607280167809e-07
3.22923509522439e-06
2.24728833271965e-06
1.25169253448924e-06
3.6739228734214e-07
2.83739903602183e-06
2.01597115058078e-06
8.2971046114561e-07
4.16529626299965e-07
2.09734220053459e-07
1.16364161647474e-06
1.01790896584329e-06
7.57637853712896e-07
7.65158118442023e-07
9.79725753521172e-07
1.03875199928556e-06
8.32258565265754e-07
8.2287806792041e-07
1.17279576978694e-06
1.42174535638686e-06
2.9683362957719e-06
3.64141953146873e-06
1.96721921023437e-06
9.2681795917655e-07
9.06962989910418e-07
1.44173902235187e-06
3.49693449974349e-06
7.56122419566733e-06
1.24737655055269e-05
1.5014657629481e-05
7.44240314422639e-06
1.52475531889537e-06
1.32121693655355e-06
1.37356606981998e-06
3.47678223712331e-06
1.56143985280595e-05
3.67659923380789e-05
5.80356004478878e-05
5.81089632134391e-05
1.6685442290754e-05
5.70554716924822e-05
0.000101560672609949
0.00010261305472304
0.000102976477586661
2.38339443843351e-05
0.000152927685135912
0.00014701270854699
0.000156335999654632
0.000132508176388172
3.44937414391234e-08
3.75213503086276e-07
1.43512279589943e-06
6.54311619859756e-07
4.81269536700267e-07
4.65670807306654e-07
4.8465946519288e-07
9.59695062675439e-08
2.80731740057058e-07
2.70692034355808e-07
2.72663320436574e-07
3.80162234452283e-07
3.20531061670757e-07
2.83818913648649e-05
2.68867165040644e-07
1.98210708214582e-07
1.12769857183812e-07
9.48175873209019e-08
6.83991865567783e-08
3.79481534871808e-08
2.20533260333572e-08
8.14676993172499e-08
1.42742224573402e-06
1.59862177628256e-06
1.17741737357458e-06
2.07344665988607e-06
1.12410798841983e-06
5.62043207392407e-07
3.03573829364841e-06
1.70806619071834e-06
6.23111746590023e-07
1.8061617264014e-07
3.14767670448345e-06
2.22639672160302e-06
1.25437182672485e-06
4.62237375953883e-07
2.58727592430066e-07
2.99523820990999e-06
2.06756849667657e-06
9.21154724354992e-07
6.80322339456427e-07
5.51444874990384e-07
6.00037815376998e-07
1.04537797553647e-06
9.8757793838078e-07
7.95703352714239e-07
9.63545847580985e-07
1.67987214794943e-06
2.49044267718458e-06
1.59586558372326e-06
8.68073762397966e-07
8.42311027047555e-07
1.1258091448334e-06
1.82953312520388e-06
3.683226967845e-06
7.51234391802831e-06
7.46133939932921e-06
5.01551363937975e-06
1.1612134408833e-06
1.08709614669344e-06
1.31579626372755e-06
3.18038732682976e-06
9.12827779606999e-06
2.0425193516301e-05
3.45865392946809e-05
4.11516602553912e-05
1.30641783287308e-05
3.03582483935833e-06
2.4167488921339e-06
1.88634400425868e-06
3.01428360592499e-06
1.37107277629698e-05
3.89852027404272e-05
7.79756531552394e-05
9.409565680206e-05
8.76626147266544e-05
2.151650332093e-05
0.000110259580780592
0.00012824751547527
0.000140271529618472
0.000117455331021556
2.50315515759871e-05
0.000203123553993717
0.000196425751732223
0.000207744910074127
0.000135843573824028
9.82886505515158e-08
2.66596524395339e-07
5.92081468095609e-07
5.01792646419743e-07
1.57447109878422e-07
2.32995375354551e-07
2.42828701719585e-07
9.98554874949317e-08
2.66716645893029e-07
1.41667127714055e-07
2.21259659208069e-07
2.11612223928183e-07
3.23827832121401e-07
3.03215018977243e-07
2.65903445452614e-05
2.81544057465692e-07
2.16154491864505e-07
1.44907108654873e-07
9.70419527656046e-08
8.39463158397948e-08
3.55337198840207e-08
2.0269779091499e-08
3.10829322761156e-08
9.47714092662882e-08
2.06011479778958e-06
3.65097192858994e-06
1.56670746772435e-06
2.21001618663827e-06
1.47599747228022e-06
1.41883300398834e-06
1.83105987952553e-06
2.53669987770709e-06
1.54356748917323e-06
6.80423183679144e-07
9.5470687373561e-07
1.31649655336458e-07
2.97630202798978e-06
1.85426773719194e-06
7.95890271433292e-07
3.97625516834662e-07
2.13876023943108e-07
3.0395304363078e-06
2.1642434895536e-06
1.22768889550059e-06
4.9615896071571e-07
7.11314844073274e-07
4.79608835120989e-07
2.92710767026682e-06
2.0701637075317e-06
1.05064325616625e-06
8.20030264654862e-07
1.14106476678019e-06
1.75325133403599e-06
1.37333553365403e-06
9.62802375020049e-07
9.32649045840337e-07
8.73049403471019e-07
1.03779595467365e-06
1.82184832399522e-06
4.92405120282839e-06
5.68181951119459e-06
3.13963404656663e-06
9.97492144304398e-07
9.64915775303786e-07
1.12422112593774e-06
2.12353022120971e-06
3.84374555145381e-06
1.18588288645266e-05
1.92102089042375e-05
2.71722049672657e-05
9.93074680123987e-06
1.87825676423105e-06
1.68181971298407e-06
1.58489897978875e-06
2.84202598230143e-06
9.63087932854242e-06
2.26504648462046e-05
5.16900656728575e-05
7.99577353069671e-05
7.248354132585e-05
1.89903236112741e-05
8.77287553567233e-06
5.6844959130419e-06
4.16199339015425e-06
4.37117596026245e-06
1.25436180662192e-05
3.69363904364708e-05
8.2908569868449e-05
0.00011273725935203
0.000129577998868508
0.000104747085135345
2.25164471680848e-05
0.000169346489171077
0.000166483644726471
0.000181477796721549
0.000123276205562484
2.35198780916253e-05
0.000271380247823129
0.00028092536921761
0.000265584119449665
0.00013106158426728
7.13253718651211e-08
4.9151930682629e-07
2.1087223469708e-07
1.30516364991624e-07
1.12044470378907e-07
9.70393160672186e-08
1.23478604382032e-07
3.87891965325518e-07
2.57005198871988e-07
1.01443096977847e-07
5.19917913031606e-07
1.59682480471502e-07
2.03473413580945e-07
3.62549571822857e-07
1.30409317552054e-07
2.28620326145787e-07
2.60124597429552e-07
2.33474518641579e-05
2.58139310647684e-07
2.38704543584204e-07
1.70220277326727e-07
1.18620031836823e-07
9.82642343095874e-08
5.29608414928549e-08
2.7130378695602e-08
3.63409886957088e-08
1.57325306358818e-07
4.95754639800925e-06
6.04193020390655e-06
3.35692768846055e-06
4.51740832128315e-06
4.21491147463204e-06
2.08639048512744e-06
1.72577248641415e-06
2.84480230778244e-06
2.7147826321581e-06
2.45009616743671e-06
1.93332383986431e-06
2.27586608353094e-06
1.05655189571424e-06
1.70468587205086e-06
2.47426969098258e-06
2.54090000242412e-06
1.64348576844555e-06
1.57671930488809e-06
6.76894316906097e-07
5.93435576263562e-07
1.1742716604759e-06
3.93015904917158e-07
1.26695034325027e-06
2.84849761096055e-06
1.92297470747752e-06
8.50354164622096e-07
7.98272527047769e-07
8.44874444218003e-07
7.46171829634558e-07
2.84702723600341e-06
2.07593128167871e-06
1.20252608896784e-06
5.11329848466659e-07
9.1954168973403e-07
1.65726399263154e-06
1.4554162348866e-06
2.58239541930404e-06
1.9958923934038e-06
1.16430787401472e-06
8.42325396618421e-07
1.47148964207154e-06
3.47643252827954e-06
4.91482076551007e-06
3.08930141089123e-06
9.86197509677143e-07
9.64279201264431e-07
9.50107273049081e-07
1.20810910773362e-06
1.99085216976692e-06
5.29889403727651e-06
1.34179869615765e-05
1.34557778427554e-05
7.64144242561233e-06
1.36608943704253e-06
1.31360143876316e-06
1.35249620370724e-06
2.29130212379551e-06
5.23462745384877e-06
1.15509910421449e-05
3.18862301656623e-05
5.55373201542007e-05
5.83937902083029e-05
1.58363239640987e-05
4.30447048746542e-06
3.2942482757343e-06
2.82829935308299e-06
3.6638022201011e-06
9.93170267085296e-06
2.41028244977899e-05
5.76027995494192e-05
9.52321686904241e-05
0.000117835065360124
9.26310753247832e-05
2.02260064773229e-05
3.47337887937274e-05
1.61704848827359e-05
1.13608722666244e-05
1.00710175585115e-05
1.67496213938163e-05
3.68797644689819e-05
8.19323510813072e-05
0.000145348349896269
0.000146931629753306
0.000166300125435131
0.000112527116680238
2.12883108483643e-05
0.000219808932816877
0.000233581226514672
0.000232708442092624
0.000120747075602604
2.06615980384173e-05
0.000394178264396177
0.000378523295898948
0.000262158451221678
0.000119724440064275
1.57759515643338e-07
8.26357563011042e-08
3.47648231298342e-08
1.10753254536524e-07
6.23901593122307e-07
4.1052512848181e-07
3.58413425032201e-07
3.40861264491328e-07
3.31495435447176e-07
2.11493767226376e-07
1.32889243507325e-07
1.87969273523359e-07
1.8855871181716e-05
2.23007946060987e-07
2.25945082583891e-07
2.00324811978162e-07
1.43374402676184e-07
1.14436887222159e-07
8.66116827927488e-08
5.0756984465793e-08
4.89202377448199e-08
9.96237853953652e-08
3.22814302796094e-07
1.05218123944582e-05
1.73782590766386e-05
9.0125746064483e-06
1.3306803632702e-05
9.345279271317e-06
4.26981488142423e-06
4.14843624420774e-06
6.99673181008841e-06
1.95782837132887e-06
5.56323226715319e-06
5.35282202858524e-06
6.460594873247e-06
2.13490542603481e-06
1.52968042873425e-06
2.6467088837359e-06
2.27827474230544e-06
4.42265083810929e-06
3.65351796141838e-06
2.09856021011304e-06
3.44954637691189e-06
9.29003135471739e-07
2.70548511752273e-06
2.48591745603245e-06
1.67594739495415e-06
1.60142705791392e-06
2.66696800107175e-06
2.13721205318702e-06
3.95508670204821e-07
2.11608488584388e-06
6.02933578749024e-06
5.60462865486334e-06
2.65624532444703e-06
1.90489354758816e-06
8.93432816780681e-07
7.3522836182917e-07
1.69523483797026e-06
2.76418718536889e-06
2.07673255355058e-06
2.5890123153959e-06
1.96104212067198e-06
1.18336718590461e-06
5.36794022438004e-07
8.56063985780612e-07
2.87890499972819e-06
5.47536182623789e-06
3.6730535088377e-06
2.09415713911075e-06
1.81264668278722e-06
1.20742002732113e-06
8.51524133820328e-07
1.47528529345376e-06
3.32159228264115e-06
1.29838347358184e-05
1.36210758013292e-05
7.51647484551678e-06
1.18225423171799e-06
1.16362459187482e-06
1.1463044053059e-06
1.56663840838057e-06
2.97878315598274e-06
5.24822218358503e-06
1.89057126311071e-05
3.13211438829648e-05
4.45405832924701e-05
1.36504683161588e-05
2.50378670660821e-06
2.17995864013807e-06
2.12246872243912e-06
3.00514052484831e-06
6.92569082672318e-06
1.38449658370502e-05
3.50852853029854e-05
6.74527065852505e-05
9.60659111255417e-05
8.07545702165019e-05
1.81660512362378e-05
1.5985837658271e-05
8.12915929001932e-06
6.49965157440885e-06
7.00106708255958e-06
1.30543609672968e-05
2.80684970899992e-05
6.14306112830319e-05
0.000117349441782927
0.000129986988554056
0.000154611079454927
0.000102454413753193
1.94835887147939e-05
5.54742093826244e-05
3.31794764776875e-05
2.68900112634982e-05
3.23727495650529e-05
4.95750011414392e-05
8.95183214687677e-05
0.000162517723005591
0.000185509597283999
0.000203032277672592
0.000209652337102998
0.00011196744979677
1.87430132873649e-05
0.000320540584670242
0.000325825733899331
0.000242067896647128
0.000110756759634643
1.64709028340198e-05
0.000474030060052897
0.000380546446573786
0.000243818110987493
0.000102006744830219
1.25961042573651e-07
3.38794583403454e-07
4.48494419198961e-07
2.59511028522105e-07
1.91352711396174e-06
2.10916102693142e-06
6.7444982743362e-08
1.09039140814501e-07
1.3149898517498e-05
1.67066588531675e-07
1.99762276989408e-07
2.02959085399197e-07
1.83133689087793e-07
1.55128376197142e-07
1.07871782567447e-07
8.1250065484917e-08
7.81318162032465e-08
1.2833185300653e-07
2.07257398632042e-07
1.73057411963212e-07
1.53838774217531e-05
5.35686822907185e-05
1.41896257689555e-05
4.05487388495752e-05
2.43698586847695e-05
1.44103981287537e-05
2.00076336431142e-05
1.71510594207089e-05
1.37713301643369e-05
6.03357529268647e-06
1.99887743242944e-06
2.71561666618108e-06
6.11085126110328e-06
6.57693042731418e-06
8.44181567013887e-06
1.0675106292678e-05
3.79407682013759e-06
2.39351990840227e-06
2.01388967082815e-06
5.71428757891168e-06
8.64864808470204e-06
1.20531879147839e-05
2.39316369003132e-06
3.09353189058902e-06
2.41976337143315e-06
2.35314356964318e-06
1.70751258989345e-06
1.22418512928692e-06
3.01800636811841e-06
5.69675574395187e-06
7.04411349223428e-06
4.85211488724394e-06
8.26216725212414e-06
1.13847977606453e-05
1.08259017944987e-05
2.42177544527238e-06
1.81719493880145e-06
9.38927968463431e-07
6.01493906949577e-07
1.70049168075905e-06
4.43503716831911e-06
7.23039150469533e-06
4.71494583102618e-06
2.27571581230429e-06
1.81049655007303e-06
1.15602718427737e-06
5.73523011442354e-07
7.02690454842849e-07
3.04082891437467e-06
1.02231857350299e-05
1.5319454531117e-05
7.74520664306596e-06
1.69888145015191e-06
1.58647894431833e-06
1.20133764588164e-06
9.2760512225167e-07
1.43924229786327e-06
3.09542012044969e-06
1.33102241132355e-05
2.67909585099378e-05
3.61926207521971e-05
1.22954351706731e-05
1.80600841747547e-06
1.69082956943646e-06
1.67129374110848e-06
2.25325042411092e-06
4.69778845763824e-06
8.5572293383751e-06
2.03464519957835e-05
4.01195762406715e-05
7.07259284131128e-05
6.97209134169802e-05
1.65761959434339e-05
8.42879035586756e-06
4.64907315705049e-06
4.17686868623965e-06
5.17584757833564e-06
9.7516151366692e-06
1.95553536698755e-05
3.93235305540602e-05
8.24258415965618e-05
0.000105751095667111
0.000138241140313179
9.2839597121858e-05
1.80960972610785e-05
2.90753166253476e-05
1.77993995438861e-05
1.65726099715438e-05
2.31829539367252e-05
3.87638056893535e-05
7.01321930800392e-05
0.000129936680029332
0.0001593407355404
0.000180458853640444
0.000193335464021753
0.000103868748873782
1.73246792299022e-05
0.000100528322144237
7.07542629870007e-05
6.94173956204628e-05
8.42370729050521e-05
0.00011715248847453
0.000182486612956761
0.0002429270971354
0.000270025829516382
0.000285815644576368
0.000223821344992756
0.000103429180357292
1.49455120971784e-05
0.000426927110473957
0.000351368808681105
0.000227371464028987
9.40812610067756e-05
1.11487015794769e-05
0.000483444660839783
0.000358726860108463
0.000210169282569834
7.77732101841036e-05
2.66830061199642e-07
2.70118033235338e-07
4.18601584136244e-07
6.73043370852257e-06
3.19105720968084e-08
6.1059948407983e-08
7.0312187576502e-06
1.04493972476845e-07
1.56734086732525e-07
1.85393746165171e-07
2.02311802135465e-07
2.03904165746738e-07
1.57718326345021e-07
1.04398108352331e-07
1.00870773955666e-07
1.33575588381875e-07
2.61813341247183e-07
2.5137318550139e-07
2.61629099737032e-07
1.614077197016e-05
7.47377870998722e-05
1.58214062116251e-05
9.7338593773342e-05
5.85948686074169e-05
1.67601182749144e-05
6.72112599399878e-05
4.8872404831646e-05
3.56721202667642e-05
1.63091603643755e-05
2.52593092229519e-05
2.5012501958063e-05
2.70718286813833e-05
2.43124361896019e-05
4.89512414200295e-06
5.75628480864157e-06
1.32210987424759e-05
1.83878736568618e-05
2.38409360972472e-05
2.20918356924192e-06
1.81802665807422e-06
4.66021151095847e-06
1.08719388714824e-05
1.79778976414272e-05
2.10196946069835e-05
2.17368669694842e-06
1.66589218826845e-06
1.03970175375554e-06
2.26074798567905e-06
6.82894592167771e-06
1.28189090844486e-05
1.51184407366498e-05
7.83017848177377e-06
9.72779540401654e-06
1.38938359775502e-05
1.53837614537202e-05
2.17018907088231e-06
1.68916405965821e-06
9.58313841236522e-07
5.40112096504886e-07
1.26020050969228e-06
4.53820999500793e-06
1.02650041122634e-05
1.73761669075481e-05
8.66550360890845e-06
1.95829285795345e-06
1.63781286867313e-06
1.11577532766029e-06
6.14212904680631e-07
6.03782354543656e-07
2.40329181335631e-06
1.15630412310257e-05
2.68880001643119e-05
3.37850908157021e-05
1.14527194568479e-05
1.69044152864265e-06
1.55745323646739e-06
1.27933660332835e-06
1.13334769408595e-06
1.68862219383856e-06
4.09192083819434e-06
1.24879032263994e-05
3.62718949586536e-05
5.00871761282769e-05
5.97085790776159e-05
1.55032374986374e-05
5.32816135586652e-06
3.18460759893688e-06
2.97104494591121e-06
3.80034842193224e-06
7.07376810404153e-06
1.40979011650598e-05
2.67706857730305e-05
5.04278204973987e-05
7.70478594944201e-05
0.000117668130414971
8.38444916912388e-05
1.72050504146046e-05
5.14118880970025e-05
1.68547488788663e-05
1.06389134240864e-05
1.10797738046397e-05
1.68242808987474e-05
2.8967303431792e-05
5.11349804722848e-05
9.60808594010165e-05
0.000125397625484677
0.000156160694537586
0.000175051613315166
9.65554544838135e-05
1.63859888333328e-05
6.07289919468354e-05
4.44943067393659e-05
4.81717713765942e-05
6.44230383158216e-05
9.44406536343141e-05
0.000148374551482936
0.000199274353930134
0.000232508763425983
0.000254633965814773
0.00020687699507633
9.7141593180959e-05
1.40105809378559e-05
0.000159725829223042
0.000150281588897268
0.000151229325677351
0.000176635700221401
0.000228003584708288
0.000304972536857578
0.000374773739750078
0.000383671429234751
0.000324124214450177
0.000212816649232252
8.80178795785353e-05
1.0185708442321e-05
0.000446930364914894
0.000336064768316084
0.000196399559292263
7.11833379163996e-05
5.77948934612983e-06
0.000460816056211541
0.000312953341204818
0.000161533191988221
4.92865367455738e-05
1.97114328276662e-07
2.30404102649219e-07
2.62899785978692e-07
1.31021216351762e-08
3.12642405817769e-08
3.00909383868167e-06
6.27838479590359e-08
1.05787687406642e-07
1.51154132163328e-07
1.87632231726269e-07
2.24393128565684e-07
2.10567001261542e-07
1.63312452273418e-07
1.30988886489716e-07
1.54362783628171e-07
2.61633240735968e-07
3.10825875762301e-07
2.47708756245207e-07
2.53310965111376e-07
1.67764153722149e-05
8.66122095277589e-05
1.55024007538697e-05
0.000140080961664216
7.68831280733946e-05
1.55680235972185e-05
0.000131848903333374
0.000102996619884903
6.7142247069044e-05
1.54272386222423e-05
7.83958208892851e-05
6.61421331053984e-05
6.3137241428315e-05
5.35782912021887e-05
1.72649368274637e-05
2.42628794422462e-05
2.86721764109944e-05
3.70578759210549e-05
4.37053823122184e-05
4.36457790200495e-05
3.74234585862185e-06
4.21041053856361e-06
1.35981032490149e-05
2.54989370184673e-05
3.59306389792108e-05
4.29863163076092e-05
2.03685485619357e-06
1.71542118946376e-06
2.20011435846265e-06
9.58416578233855e-06
2.06990457246458e-05
3.21225211756436e-05
3.07017420082249e-05
1.97987165428419e-06
1.56917997727871e-06
9.64134486047292e-07
1.33888482583565e-06
5.27129252072561e-06
1.39715433618627e-05
2.29152786535506e-05
2.53097892710656e-05
1.05098622847298e-05
1.15252396955088e-05
1.50768499517723e-05
1.81133380937186e-05
1.93366178352262e-06
1.54601780726996e-06
9.51516869284902e-07
5.3220877642049e-07
8.36283387771705e-07
3.35799485312586e-06
1.15735795415222e-05
2.51359677172037e-05
3.24062964821478e-05
1.2020773133099e-05
1.79311897909447e-06
1.51229409365768e-06
1.08981217575301e-06
6.78843595790756e-07
6.02100223099605e-07
1.59202640050852e-06
9.52530295158404e-06
3.1284515520673e-05
4.94591099418881e-05
5.27297172113129e-05
1.48211518274678e-05
3.65710582263257e-06
2.2320294428529e-06
1.80336307399083e-06
1.79270313145199e-06
2.8181091038798e-06
6.49696284933836e-06
1.48652314631335e-05
3.62640926258104e-05
5.7839137819371e-05
9.26124005930164e-05
7.56874888383806e-05
1.68089947995359e-05
3.57007194219346e-05
1.14760740278407e-05
7.18689589053635e-06
7.7545699351092e-06
1.21333363761646e-05
2.13000230590683e-05
3.72014691147892e-05
6.75341000010861e-05
8.89443987760226e-05
0.000130157685676002
0.000155130260774697
9.01490768362399e-05
1.60085544804158e-05
0.000228558871197886
8.45966746257729e-05
4.04093152149935e-05
3.01897850446009e-05
3.47365971600712e-05
4.90981663632797e-05
7.37524721437864e-05
0.000116287710269687
0.00015693486860684
0.000195211792337572
0.000225274169806299
0.000190916090581778
9.18233624927987e-05
1.34984473909355e-05
0.000126647870242868
0.000107951699693891
0.000117137851899161
0.0001434658857936
0.000187931788454349
0.00025308464537656
0.000312509855960526
0.000342078611133881
0.000298556147281067
0.000199732166148824
8.32026683437743e-05
9.98018122378179e-06
0.000254007182337209
0.000249405124864271
0.000284895324828705
0.000314006879748809
0.000372083576967849
0.000434619447182752
0.000454913343490935
0.000412555602107187
0.000315186349487604
0.000184870644211213
6.65762276174233e-05
5.62147941000246e-06
0.000433621956572505
0.000295345809085805
0.000150467031070313
4.47405971552406e-05
2.9770970104788e-06
0.000407540908453468
0.000244129886434105
0.000104295239594594
2.24306445101085e-05
1.78448561388526e-07
1.9776428220137e-07
2.38673191648908e-07
2.63081382445532e-09
1.36737924991814e-08
9.45440782095381e-07
3.17889077490166e-08
6.45358654141022e-08
1.0904535585451e-07
1.54501987502546e-07
2.0752196839328e-07
2.44237089681751e-07
2.12471659152913e-07
1.74838707493761e-07
1.99348805984363e-07
2.66613371099625e-07
3.1861479978707e-07
2.56500837690872e-07
2.49829062006273e-07
2.41495564684682e-07
1.68115653992123e-05
9.45887563488436e-05
1.67886843276374e-05
0.000173609032488869
8.76802918141658e-05
1.53077443131473e-05
0.000193670962143544
0.000144370247864159
8.18920636385956e-05
1.48931829786918e-05
0.00015169612672997
0.000137590420424942
0.000116754213215804
7.51598122119872e-05
1.55863776414159e-05
7.86320238805009e-05
7.39414411211881e-05
7.82030419169529e-05
7.51527729183287e-05
6.82197819921742e-05
1.90338299686347e-05
1.9627929586161e-05
2.45304547544261e-05
4.08629319265328e-05
5.58276067333017e-05
6.90691275934397e-05
6.29044237421388e-05
3.38459474138548e-06
3.31422352190272e-06
8.37010780162592e-06
2.72650930432761e-05
4.46968554905108e-05
5.34316754608801e-05
5.33070198357396e-05
1.90489871780774e-06
1.6285902022444e-06
1.5004941373061e-06
5.88480507109998e-06
1.92135639233608e-05
3.53501815799434e-05
4.03202899431787e-05
4.15379797220521e-05
1.83951138550593e-06
1.45372203593187e-06
9.24742142966382e-07
8.8669158565105e-07
3.14657267346334e-06
1.14553833228222e-05
2.61065652496342e-05
3.83171311170615e-05
3.80902311026013e-05
1.37089943052874e-05
1.41329443342397e-05
1.63800947251417e-05
1.91876235206008e-05
1.96332644177735e-06
1.42831681042623e-06
9.35573977931519e-07
5.5328895822329e-07
6.23739442002031e-07
2.03262483934645e-06
9.54615776664651e-06
2.97526035850493e-05