/*--------------------------------*- C++ -*----------------------------------*\
  =========                 |
  \\      /  F ield         | OpenFOAM: The Open Source CFD Toolbox
   \\    /   O peration     | Website:  https://openfoam.org
    \\  /    A nd           | Version:  12
     \\/     M anipulation  |
\*---------------------------------------------------------------------------*/
/*   Windows 32 and 64 bit porting by blueCAPE: http://www.bluecape.com.pt   *\
|  Based on Windows porting (2.0.x v4) by Symscape: http://www.symscape.com   |
\*---------------------------------------------------------------------------*/
FoamFile
{
    format      ascii;
    class       volScalarField;
    location    "600";
    object      omega;
}
// * * * * * * * * * * * * * * * * * * * * * * * * * * * * * * * * * * * * * //

dimensions      [0 0 -1 0 0 0 0];

internalField   nonuniform List<scalar> 
10107
(
5.27003482348185
7.27825328304519
4.48233217677996
5.96826009719384
4.14927083928547
3.50783672198067
9.14053124380136
3.24626004145935
4.61160255508015
4.60671867090053
3.78036264211066
0.693162417735983
4.66904877017909
0.555192454058506
2.15667430594131
9.18162026892896
6.36985624796558
0.90036388586547
2.96660110533841
4.40321117098656
7.86957147954467
3.50604075773182
2.45035874176761
6.19878962355809
2.956464792591
4.07665577109734
0.204058401867753
0.117802861860634
0.277408507284299
5.09571296103964
0.402066881781924
0.426555333243787
0.533782368984581
0.998697371600943
2.95411911444837
4.43089718798029
2.64682338557431
2.99508337540137
6.46416042131074
0.61872797411058
1.2401774817606
0.721684417043417
2.7693135009533
3.17944308953681
2.70521333738565
3.86832161859679
7.99990895825642
4.39281273199138
7.07926181713526
7.25333420649394
5.67398983697816
4.54723869844334
0.147461953614294
0.0503705068369136
0.128364971509731
0.148114530938461
0.396968124604067
3.95312183062866
0.840946794867923
0.77074624790425
1.1457202546198
2.03765330398972
4.75759480946997
4.41110540376318
2.34374155690538
4.11575404177344
6.44942371605593
0.956370867528265
0.837269318191756
0.897613619815516
1.49088024997412
0.979250822251028
1.25412431119073
2.60058161806649
2.84003169113818
2.11193359446321
2.81695016021854
4.23503308860704
7.40378971665981
7.38751945030219
4.21125316065085
0.204059611723051
0.0333487421562237
0.0309577993604797
0.435543690572399
0.510572142141714
0.7268784795472
3.45560940552646
0.879859348340101
0.637794388201653
1.84244557588227
3.17815925430089
5.16228597672177
3.4903948025327
4.4438557929623
4.67448514203031
0.994422705715452
0.964699426841385
0.78178701048356
1.00227603562217
0.99677676745447
1.52969355455535
1.63871071383115
1.18913484026879
1.3586316431406
2.48426572121523
2.46410893561798
2.63023548825294
1.98383548776617
2.86778063528524
3.66630328696804
0.390826644888087
0.24739711073508
0.0805929674849886
0.524317181985258
0.253118635728833
1.49125968956027
3.31782161675668
1.43979282631292
1.03787969156763
1.34265946220839
2.98769745909496
3.26468592581607
1.63865366849873
5.23596345843017
4.50823200270357
1.35493670532842
1.02785243823331
1.03674945287631
1.00631546005415
0.855594000424698
1.17173470489083
1.06590569600218
1.09081976884472
1.3968458819018
2.54253869059965
1.69828414488028
1.30763692646804
1.43155851359533
1.99200268144121
1.42684594224634
2.46885056442348
1.85799107350535
2.35256845375762
1.08170709223977
3.39149407407109
1.02806459606772
0.0471575656741102
0.070002370305661
1.12456163300878
0.894651994126876
1.13730896580366
3.27878063814882
0.33139702914649
1.2972234964933
1.50857872932529
2.9682566388506
3.00569648010294
1.07926764631087
3.29539497570583
5.25714597072873
4.50893437524619
0.515339903982779
1.29834958003888
1.23811001980224
0.902150771130012
0.944943829904856
1.25350769114123
0.992943815386476
0.909193450541837
1.02937868870907
1.9425664442389
1.08291253483695
1.11809387623836
1.31153723845481
1.54817261544615
1.83847215351053
1.36613537711677
1.43947816274048
1.76126813535774
0.980779325910027
1.1649107045119
1.71522190120957
2.01240443036781
0.954772231579823
0.567038148804733
3.2805200044547
0.560172392829528
0.423093491282359
0.89334212774451
0.182703472179506
1.22008025333988
1.69852593691619
3.25698095035996
0.475133373527374
1.38769717636833
1.16174197997512
2.97852550755558
2.9707097236313
0.904279114308722
3.0171940487117
3.30684481874429
5.26186321824533
4.53678670404781
0.58755170762706
0.68057780028727
1.60289012866634
1.07094584670607
1.18492364595826
1.16333411114571
0.804781490385728
0.770648035596828
1.08564419994141
2.3030406962871
0.942348643744131
0.931139902496395
0.969335216529987
1.45340082043663
1.9720292239675
1.09674447286201
1.11152954244888
1.2531600746696
1.22102777810529
1.1368067741504
1.39991598310368
1.39203651486658
1.61727432228523
0.84948339303787
0.632441690010619
0.951928456197712
1.80393367678751
0.92804357785107
0.431568728888155
0.428896296207618
3.23734644487135
1.81064512889
1.02071444033422
0.0909715242977366
0.305648488293042
0.752648440171292
0.674178640251842
3.25879707512224
1.42888862762504
0.724255484101514
1.4998336626243
2.98931009642749
2.97739378968851
0.698139489517348
2.9733751092887
3.02366096824299
3.31550065235858
5.31432902124554
4.54468513030997
1.2628220267054
0.668568412376174
0.899637141027805
0.740061670164466
1.651467852783
1.40527893817451
0.930786837633561
1.10484680245148
1.00969987565203
2.36044945964497
0.774455787436987
0.724139858077047
0.869754460686044
1.4570006734211
1.96302278463523
0.90628155500495
0.92263884760739
0.94511942080919
1.08269485342513
1.38312325023679
1.7330610475004
1.13217817420663
1.09453252393168
1.19723977762562
1.14099359615902
0.801882964294431
0.781244426299506
1.06260493037924
1.5116576930472
0.831339679406583
0.461372990195677
0.454667903772827
0.737148249690726
0.940588911114931
0.421219142241496
0.317684465882575
0.321591840016846
3.22439968358239
0.376768022854193
0.290995408580409
0.175478355869814
1.49878110196291
0.505707337980801
1.58762679170391
3.27988146396991
1.92185704361841
1.37221106762446
0.807932618210832
2.9971858613557
2.98788943717078
0.60046777896769
2.97718044401914
2.97614017048956
3.03024726371563
3.33163896088872
5.35602151296243
4.61092380035489
1.50098884451468
1.13511279887287
1.33526330344831
0.728689296361769
0.993801266059327
0.951471348814546
0.747692339239174
1.49178382885523
1.1813046319264
1.80235164935966
0.787213766437577
0.847497973166224
0.851628571735323
1.40995507604087
1.94538935128838
0.755860041106337
0.732294552234847
0.711033152081289
1.12720224730203
1.29439616395616
1.68693155903468
0.891066568847778
0.90005340279113
0.938147135530359
0.896545608107643
0.973797772277914
1.07834928109082
1.2660017220862
1.13670229563075
1.07436053072121
1.13972400398268
1.12390895671688
0.692967235776233
0.524886693979143
0.514266569376279
0.780628422058689
0.851165856771751
0.426984803059828
0.3329469040232
0.330431575275753
0.608537955421374
0.454184049460684
0.299210981917425
0.24455919080025
0.262843270380253
3.24998785049072
0.765535181594991
0.286211954382085
1.08530612853592
2.00357719409447
1.36737232528194
0.395006339814221
3.33405604383619
2.54315043601458
1.64335653338429
1.84826594090767
3.00278185522813
2.99613123920442
0.54437997102221
2.98711966570684
2.97798796838942
2.98011658958233
3.03916579930953
3.34928365706884
5.50343821068362
4.57673898216596
1.88724541050643
1.17767376355875
1.25162095631105
1.13379040490224
1.23975187083881
1.57549297334906
0.763583733552411
0.995960287044251
1.00190916893788
1.52465935474142
0.741636563797149
1.32913665341462
1.08231372166007
1.21956307610984
2.00361774858831
0.678677629508861
0.687168380899606
0.74031848091923
0.969729488212783
1.26811779218909
1.52631352812181
0.74792998199146
0.738661852990004
0.691187911012228
0.840347578086767
0.930651557930806
1.13864347008107
1.35681920789437
0.882997318820264
0.875142043543016
0.923125610260738
0.852094656862827
0.724256918980258
0.704663356095495
0.660361559042031
0.853846632897928
1.08865820386404
1.04124539784225
1.06164972579543
1.13157647453497
0.690772519006792
0.43568783456435
0.35821586347788
0.341652577239612
0.60586733255888
0.450740723181537
0.306229151452731
0.253296205986734
0.262745195439203
0.537315405138207
0.310477590476813
0.230926938164228
0.194894929197804
0.23502635919101
3.30374280047492
0.136255653169604
1.08722079351408
1.78292769547524
2.81143997316098
1.45653481721169
1.8045906021724
3.41292537707422
3.07870875889917
2.17092412248691
2.0538041418599
3.00662897851038
3.00211845303373
0.51316220624424
2.99546430097443
2.98716598030766
2.98013082638813
2.98585620709538
3.05014928535692
3.38062081357103
5.69036198270097
3.8730490814397
1.69715248978366
1.38786365665409
1.52460376673603
0.824935173689041
0.988083854033276
1.34179308352963
1.0494967454232
1.11934220254368
1.39426887511577
1.73921757381783
0.77872511782674
0.963684718246166
0.969455336979627
1.32100451346302
1.42199052275681
0.767751641371002
1.17445015684885
1.00847630556267
0.966263380671976
1.27768086246601
1.63493438057933
0.632919559896964
0.638678841997622
0.639314093258072
0.7116740617453
0.919612552301478
0.98891776831049
1.33700994028892
0.738610906787418
0.737853619124836
0.717841748206438
0.644962088183581
0.725140834744893
0.819981875893822
0.857686932344781
0.896190026910461
0.860140264744954
0.846785700989694
0.887228779144771
0.871263829206626
0.625588700417065
0.520440923199358
0.435382924021696
0.370604753146837
0.618204737806845
0.988249543649373
0.975410231693703
0.974079086022618
1.10076921491771
0.752078622184198
0.427569236798444
0.314288001630478
0.258643621306958
0.261063295239033
0.518106028756659
0.31824796754597
0.242602690354143
0.201148975234215
0.233777202677771
0.505713872789926
0.233003043650438
0.177049555385467
0.165991784656719
0.218779521976024
3.4326741234752
1.85871336341957
0.653558682693712
1.97748759787918
2.51310024892921
1.56271448241914
1.8006015891512
3.40587309548597
5.56935632745119
2.96800662017695
2.76232223999847
2.72562155983572
3.00810733057151
3.00625796220537
0.50352454765707
3.00167241210895
2.99530713291871
2.98821163596928
2.983660754701
2.99267318976685
3.06124431078117
3.41224625226103
5.97442220864581
3.31903464970527
1.71443245014831
1.34214449490977
1.36138618223956
0.90868583460299
1.13260810079313
1.39256192401561
1.30297836250223
0.722996103753557
0.880189598186969
0.977699241932987
1.56638843571368
2.32510414812678
0.946442032815039
1.03218807711082
1.24820718243339
1.29971832762924
1.74073330251516
0.77405405437896
0.913551281248924
0.923897907751684
1.19767246363938
1.03377637313
1.4807745101872
0.761557433487253
1.03090538632642
0.968444605238782
0.8725347774696
0.897756411133544
1.00868894612403
1.27831878283235
0.606648306596622
0.619329601265944
0.585987320833866
0.573542933098572
0.714883990955644
0.621278235181721
0.858279726843222
0.986519521727062
0.719135881763648
0.721829806276712
0.730242905534608
0.666983586419547
0.602032068435077
0.597529527495874
0.564503303480414
0.429811118663768
0.642897639017547
0.810357521959103
0.805899889313904
0.833170050513327
0.879440015944902
0.633314946070697
0.464069164306184
0.347572075033116
0.273677105295075
0.264014824696915
0.505253533710695
0.845591624363084
0.869607393369829
0.880297367496817
1.01183703565329
0.805355316930238
0.474642925472368
0.315474787921359
0.24792602160786
0.204927477749664
0.230491088402392
0.496293521957122
0.247923384033332
0.188611884307594
0.169656918727234
0.217433386622477
0.498609608565625
0.171194657518041
0.144856119231894
0.150763724308463
0.21063475041427
3.72831592294191
1.27957572107531
0.883779628131607
2.48482453400255
2.59455446050988
1.94787596775285
3.79398833320395
4.20862058821044
7.04583862283236
4.42545133364611
2.39629217980717
3.48579500831483
3.1890410829273
2.5398155262964
3.62653756002488
3.00479489861237
3.00792242084241
0.498931475805947
3.00600077155068
3.00151221660038
2.9957712188442
2.99022837485353
2.98795959616821
2.9985502999755
3.06971332369608
3.45241325094409
5.3751916532156
1.18156782881389
1.05941221388206
1.37583077113579
0.861064050519681
1.08876410731744
1.23369458691192
1.65432145329915
1.06880321590259
0.529050040448476
0.692004364377427
0.922959218325952
1.15259021439444
1.86064642922351
1.21929301687809
1.19565896142161
0.722256814920959
0.827680288171488
0.815576889458393
1.19944319890849
2.1305713497584
1.62968191353379
1.73498926274922
1.51063845778565
0.851188187779635
0.939347870700369
1.13586118301407
1.07497452511333
1.0839833068978
1.24434956627927
0.737319871543454
0.851108686128634
0.878633848486579
1.09405073316069
0.924893633173139
0.885136878020426
1.14182358022147
0.700133766680942
0.895041330017443
0.912107033312938
0.845082754806133
0.745423556280824
0.682841657642234
0.755353391087317
0.900171752780151
0.589080746327706
0.603007101554054
0.590967873932907
0.534542811606352
0.493918439052868
0.512477278974025
0.600614370684773
0.58559972265058
0.670214138429565
0.684675180678611
0.691579674102617
0.711567188432549
0.709654141077623
0.563369957877271
0.507469955118334
0.408072047536513
0.315382857086009
0.275424510711184
0.513476157931332
0.73214300034778
0.743912674830733
0.768987436583432
0.83954425863885
0.673721322341678
0.452425460724088
0.327676492110706
0.255924707654059
0.210670440412962
0.228583462246291
0.489033167970202
0.668068889837855
0.732610345616072
0.76905425411295
0.877055458940368
0.80679038077029
0.558549183747318
0.339305641772499
0.252382451918656
0.196750012321881
0.172350576904299
0.215003656997092
0.491316451019973
0.185583096969321
0.151276385917348
0.152084271287184
0.208850912420198
0.495966605828262
0.137475524105561
0.129271305131761
0.143548954070912
0.207988027224995
4.29884457005381
0.59031695471802
2.72809925177456
3.11198871262333
3.31322299288818
4.42817052605534
4.89885632165427
4.72110659296529
2.52797870797699
3.40105993031469
2.99553684740839
3.00471274591505
0.4980121241206
3.00779187168594
3.00589047425553
3.00169655307656
2.99682921125701
2.99279902052904
2.99153466492761
3.00051719804159
3.06794005574955
3.47183702090853
3.15914725847201
0.663495029190547
0.600955974859841
0.794255466199297
0.68375295262672
0.860026987189437
0.879699353505936
1.25693847874052
0.867448777326156
1.25985673034584
0.562135252709317
0.671194514897056
0.92393044112956
1.07337216737221
1.35202495537928
0.475981092095881
0.556465558179282
0.585367130565173
0.798337124373428
1.1484641719073
1.08935534371349
1.58604612726528
1.11916209462025
0.6963915276854
0.791738299916606
0.783221459687827
0.77885582403365
0.943617322366864
2.04387987840647
0.97677930575259
0.680028654000923
0.848927620270888
0.759227930031878
0.851111883553819
1.02034250840088
1.01343179223652
0.828097833914498
0.72947837286043
0.903183097915482
0.678331355431603
0.77980276132192
0.833340794271505
1.00726011644137
0.88628773185594
0.670682828717883
0.636967790738598
0.791110428886496
0.612835950812093
0.754104944939078
0.827507682122676
0.827115191560072
0.716430982023929
0.589810786029168
0.455870579895968
0.511912560075712
0.60788805741159
0.567526013074944
0.581118896248435
0.591415018777207
0.561811101298095
0.486128731736882
0.426220133918142
0.416755854805727
0.402847327219666
0.302322773496435
0.514479860707484
0.633085665434053
0.647936636218967
0.672542002062737
0.702649149413103
0.600562380081252
0.457077489189828
0.360407653388853
0.276681530426135
0.224352834339973
0.230553925640307
0.484718960460756
0.628496569931906
0.662133848113423
0.693743875597496
0.763293971021114
0.686789662209609
0.497110778960509
0.326580559571851
0.25626147750416
0.205415121134647
0.175997970381647
0.212912787091342
0.484999291094007
0.571905833504921
0.634781845367614
0.715452807818744
0.71377607040923
0.585677998561533
0.388119467572934
0.261714073123739
0.195711003101573
0.157161458453214
0.153147621746817
0.206584570049381
0.490531720007565
0.14485937642647
0.131903762679541
0.143666701056606
0.206510297824724
0.497725032843394
0.121693982659702
0.122320724051167
0.141737896909913
0.210299061239314
3.21328140612594
3.17793968532096
3.37837639929875
3.93442892991065
1.55333640590904
1.4080837854488
2.988404427218
2.99550403396536
0.503800217322003
3.00465407972314
3.00772716149031
3.00595457031049
3.00220125851827
2.99824734783479
2.99498859480117
2.99234658532949
2.99605448464726
3.0373867508719
3.22309604519668
3.70123266792263
0.516941508474746
0.283329310098679
0.571994922587624
0.374875289935591
0.483036645844463
0.616051960770644
0.442462647503336
0.571303583768193
0.693590440735067
0.940770639704055
1.26774631778204
0.953981490316083
0.415790808393869
0.447863913524565
0.587963043919
0.671827903254609
0.990899789290968
0.511083734009068
0.565423428323827
0.497518538002244
0.537474331235803
0.489752622937193
1.04701747526251
1.10731524855757
1.10955173864649
0.649351272231022
0.747764885054582
0.798994155718709
0.692008689107108
0.610174470270763
0.575553848769869
0.664049757704686
0.581077879557187
0.58116981182862
0.674287815344774
0.670268125322577
0.7631799620063
0.913079486398309
0.960287189532113
0.763121381671281
0.574464572011478
0.537607858744349
0.66976876417744
0.605009213550453
0.699862212759586
0.781063458240987
0.926517411755543
0.871366521211848
0.627014607296624
0.454719373018526
0.439674472903661
0.577871467700117
0.536540957237861
0.625226600653193
0.721741806576728
0.774632854676001
0.726414961164264
0.500140936970176
0.381875425371607
0.367676748540078
0.315203448462535
0.509428561431212
0.534972275437393
0.552608610781339
0.572174311704654
0.579297081293712
0.535346377324034
0.418801059871212
0.360791475665293
0.311330652135807
0.249684929408644
0.236353146879064
0.482104794629451
0.564871085256676
0.591114190404098
0.620425183006488
0.659973593042748
0.605822414684715
0.473851644379428
0.344297427898255
0.270792183461195
0.220573950635861
0.183064087005229
0.212337926638734
0.479610480487751
0.560950685448396
0.605914811468715
0.66358520291852
0.640505186570734
0.523448434907805
0.367134223847852
0.2620385683241
0.205619466856315
0.164139580206399
0.154853962406891
0.204593022777841
0.485334483470711
0.481239731795197
0.544539272737962
0.560021160199353
0.502312302015722
0.391127607469434
0.272075586313758
0.195923052462708
0.151601659331328
0.134622727956397
0.143692025417099
0.204127490381122
0.494433668274744
0.124949274645564
0.123206403953077
0.141516265408241
0.210087212592262
0.509008289809987
0.114854532894384
0.120907717222353
0.145560255808556
0.220172592134972
3.06240844532914
3.19263853277925
3.23591728226173
1.10534526722899
3.00012317284131
2.98838951838587
0.526757216674195
2.99548065381921
3.00461954795575
3.00774703696448
3.00617033780488
3.00291439194283
2.99951570782702
2.99563074578356
2.98890831186384
2.98298480138562
2.99445812932044
3.06772242194462
3.19237385003994
0.512771512193495
0.229579438040412
0.521920437537935
0.2104682139407
0.272758952327895
0.535644887031321
0.268896590479908
0.338227591005886
0.375516825719242
0.55977921031243
0.341608768695708
0.408453844577165
0.4553479454178
0.496855107102417
0.378361340323886
0.406033478970434
0.406304416104842
0.463708456329453
0.420506058832372
0.506080343185405
0.586012760965361
0.48764453844315
0.455152037061175
0.411840557989834
0.388670620784253
0.588303523018442
0.689829940038624
0.780284805765716
0.685841274068478
0.529304182627696
0.4405206906795
0.430106696816292
0.561387594872014
0.551937698189086
0.53106675552404
0.540698931762257
0.587574046725029
0.677430115902457
0.817114785245863
0.898274360566137
0.751769856296921
0.537938136148368
0.430611372277716
0.398134524540833
0.543242021725834
0.530067526549932
0.614735769696347
0.718364486558757
0.842716339392229
0.85230821025744
0.650655533183731
0.410122154815484
0.342365183892177
0.314095688006286
0.516246063816903
0.481734293057411
0.531802581968126
0.61475197492627
0.688182154296181
0.690762467629561
0.451424847714629
0.3723588195518
0.312567201596614
0.269949987763318
0.246321401779898
0.48232832908491
0.49305862527066
0.515637473463961
0.539919158742508
0.561801920900595
0.539340925543627
0.459855891248711
0.356758513725233
0.294344140276699
0.244924225144163
0.194785437130263
0.214175412058833
0.474601439776916
0.461920125680198
0.52174248902297
0.557397030681714
0.59509209076044
0.572108285830707
0.481518742837676
0.362819412674658
0.272241225527823
0.220199163972131
0.174765411347952
0.158427075477538
0.202898047385818
0.480238025443449
0.497425071996037
0.546561901499035
0.54415982951322
0.47813423254483
0.373476462500643
0.270857048974161
0.205689882224076
0.15974651619829
0.138262443765089
0.144029483775709
0.201569550943923
0.489688473378201
0.383133515146014
0.402865777631968
0.382333856932644
0.330513433114043
0.261572429434686
0.194737935582315
0.149372914685833
0.128260398825249
0.124163493507973
0.140988009577888
0.20776176346532
0.5104253476012
0.116083924322449
0.121020565476191
0.145815999738097
0.221350500614921
0.553924638950887
0.113559735576819
0.125078680972033
0.158364591057768
0.241800702434364
3.03904660161857
3.08705306668659
3.12147597404275
3.03227789416475
3.00011815589781
0.551578719023416
2.98838524891312
2.99546486959106
3.00462601301671
3.00783005496708
3.00649472784376
3.00358748310247
3.00002743082254
2.99406506223786
2.98244609025947
2.96917431186883
2.97409970003325
3.02400297030466
3.03888528969574
0.509765933045971
0.216616061739742
0.537108319219778
0.170008938375448
0.228779488433833
0.555201492105548
0.187199262357289
0.207111886434869
0.25713322547604
0.573178970031523
0.241759542105999
0.265857100224354
0.278484725088844
0.309893559292732
0.534303854090687
0.301254913796496
0.339643040820009
0.353804676886722
0.349739278749309
0.342098974118213
0.382185192656962
0.422394462283076
0.369082007186079
0.364924058680307
0.342806591739228
0.313251002756939
0.476420811202596
0.566961741829753
0.56606948772119
0.446805392513632
0.373207221809368
0.339131011725374
0.345137307113146
0.525359794551343
0.621181112500261
0.734030263874327
0.701570650788769
0.545477110274828
0.405917466020394
0.360970917130449
0.356237594761224
0.534549073441944
0.53702219683674
0.522169144241657
0.513976675996671
0.514397234944268
0.596454948860632
0.728982797424471
0.825012356763162
0.749376044541409
0.556073183130238
0.390674912804536
0.332731848665897
0.315212212560785
0.513923543876537
0.466062845089058
0.532511543177618
0.645027606094069
0.765161381872509
0.809599749227891
0.685902411444335
0.437865827586702
0.308292591316167
0.270261222550081
0.260936644447204
0.486465575128184
0.440161024186972
0.47112583512548
0.528674764811249
0.593546926478491
0.612583832452656
0.552567232941992
0.382212445172573
0.31855603547277
0.258814383490813
0.210402809809348
0.219622325660292
0.470256025730945
0.427850756661163
0.468826986957056
0.49734736137481
0.521805427623262
0.5093592224935
0.452323494204985
0.367351392216072
0.289717725057125
0.240301771207896
0.190347654534499
0.164811754207283
0.201970209240548
0.47389949740975
0.347616692764097
0.418634030028335
0.477996103283619
0.514032446425208
0.504727725676209
0.445607241928605
0.358787865758177
0.273115066320366
0.217437412883692
0.17151926430288
0.143984219285396
0.145214271783041
0.198928288869569
0.484290897007848
0.413199183519752
0.423203730083598
0.390039944490211
0.330583667182771
0.263055141966508
0.203192239991813
0.157761799423842
0.13253493084807
0.125563705866588
0.140469571835253
0.204405939735868
0.499728089482862
0.288324702187172
0.285188497043671
0.263462919410183
0.229137453889269
0.185568964745494
0.148266263982611
0.126219780079756
0.117415562609928
0.121044321367049
0.145222002095976
0.219075598177744
0.553142694422966
0.113778043528135
0.125114166698343
0.159595392675368
0.243101473694473
0.543295506378695
0.117519900708693
0.137960605161486
0.186376666590927
0.281319008215121
3.02364345326162
3.05835341538442
3.05253662388946
3.04960403194021
3.03226513676743
0.595073919122594
3.00013713898965
2.98838045979743
2.99546907768607
3.00465558655069
3.00796249508925
3.00681645249182
3.00394051422881
2.9994762954023
2.99109566163266
2.97751918913836
2.96596245573261
2.97354362953806
2.99246932825524
3.00427773299478
0.508568458930226
0.209551099813664
0.514216051864389
0.152571576367283
0.216663626275113
0.564939075611987
0.151541651606154
0.168858798918578
0.226967908595963
0.592250127805892
0.182651718236442
0.187141397560833
0.19799429774718
0.246747244508465
0.584534239455134
0.235355439721451
0.242577520414125
0.243739053871503
0.243638999431606
0.271962364716301
0.51553043383254
0.295237164894886
0.315296742946497
0.307917453964672
0.291233201935283
0.27557487987674
0.282321486977438
0.374751042791967
0.432968072719767
0.38959830482179
0.324088682025079
0.301896491182691
0.281429739050336
0.29065263981281
0.438643858677878
0.526783088850917
0.582612644464506
0.480170374289608
0.371283398064758
0.318983767285256
0.301767408533045
0.305677381419492
0.467003369874661
0.552871687051223
0.672704670388545
0.695732711749484
0.576880095231206
0.423504468168634
0.33063973349183
0.301205641064794
0.299231230429116
0.507750746606165
0.516494837798054
0.512373425763545
0.504276069783977
0.453033520742529
0.52153364986526
0.647908495585796
0.747156324099994
0.73193560277133
0.583504079979675
0.403683295915305
0.300765410833448
0.269323035847808
0.265752431224138
0.485783670198325
0.415288255405893
0.462380990093285
0.56506253388049
0.679151495453618
0.743748298097038
0.687357325155242
0.478970798407014
0.3107575191547
0.257547297226574
0.225658929934199
0.227332968636242
0.468159750428544
0.391125870726256
0.42525342295243
0.465114073714783
0.511322871902567
0.528419421573298
0.499509357482333
0.426584196247958
0.322067000490744
0.256432276024014
0.206768967541572
0.173931344458737
0.202815709962158
0.466766133383431
0.346097773979239
0.395224445333206
0.437177741591617
0.463293198807218
0.456171178022302
0.413478984683283
0.351000812358836
0.283144322641211
0.233576904447959
0.18899412224781
0.152628049690589
0.147733318373497
0.196201850982484
0.476794991598711
0.258958396071393
0.31568125588493
0.364923626962689
0.407966774241629
0.41105785727121
0.376466881025375
0.32094460333193
0.261786099780643
0.210985585176404
0.168655374053651
0.138861252524363
0.127938957407569
0.140181435437241
0.200752008166042
0.489744860797465
0.312408594330425
0.302843422338022
0.273993465520352
0.236461762780247
0.194060796794753
0.155735971490409
0.130738434896029
0.119187372406627
0.121194221015362
0.1441402610056
0.21440471148854
0.519964065545837
0.22713664522214
0.216822235882285
0.197276226036726
0.171225649647586
0.145222290912509
0.126048929233246
0.115489632499752
0.113986782349594
0.124773644196239
0.159183107746011
0.239870960958751
0.53375989399994
0.117328750550212
0.138437980556044
0.187941756376921
0.277814405075276
0.584091801506936
0.129356033940388
0.167105875575788
0.238020169885878
0.368218924286546
3.02471770644669
3.05020418506065
3.03429078017122
3.73006693002183
3.04959415554777
0.836637635896649
3.03228292887633
3.00012142561296
2.98838437108533
2.99547885057045
3.00470379617671
3.00809964913782
3.00701746144821
3.00383444881016
2.9982515987981
2.98890124898374
2.97806516607392
2.97319974693783
2.97806331878807
2.9822999625052
2.99773181936069
0.506624307256544
0.204979024795625
0.510648426174746
0.142031365610352
0.208397897936366
0.515136605355041
0.131828633708152
0.151384053971559
0.215580409225122
0.581220348431833
0.146463847719577
0.150854294407985
0.164850919524054
0.225197462260541
0.595765352796258
0.186441584785061
0.183823214157261
0.181115904659352
0.187646259321807
0.237226658663723
0.557071359027327
0.236574138071332
0.23926701153365
0.229816345829215
0.221357333640286
0.217775539218807
0.247981018153145
0.503163969040476
0.298001057088366
0.319336055759549
0.292764697488657
0.26659583887981
0.249829278365615
0.237671513524473
0.259169835066399
0.358975657084085
0.421097116179622
0.433946798916327
0.334414525495993
0.284210607058398
0.262508145091073
0.252935450691269
0.268028944522
0.399896900733918
0.481191919375084
0.562843246739239
0.530951019574592
0.40779804247359
0.316175055568154
0.280534635642736
0.265812226839129
0.268651696397315
0.413415702423399
0.488676448331547
0.606669202455432
0.661889322349576
0.605696242953087
0.461880613620497
0.326215456884031
0.277289292197888
0.254053517946647
0.254672086946701
0.482123886525436
0.494981922893667
0.499384044621265
0.497967202424533
0.396510303479985
0.455067953283324
0.570430813321712
0.669566981651607
0.692845775525318
0.604874925725711
0.429166907666015
0.294114555660089
0.250937697118596
0.224545864520962
0.228775703794844
0.466772885542451
0.361022848578455
0.404671102766514
0.486391638164646
0.585105247955919
0.65579530025766
0.646600557666985
0.519112966177292
0.325556845004382
0.251064036541625
0.213379752332567
0.182459424424
0.204730662844893
0.461428428626766
0.328009558168015
0.365321275108691
0.403770509735354
0.438535796230371
0.44900917814785
0.428419946681557
0.387094791610904
0.320729854195233
0.253099028144761
0.20503259902865
0.162844219252495
0.151507671337233
0.194160960043823
0.468459110065305
0.270628405706649
0.315066153782914
0.348391606933558
0.379039374855082
0.381047992941049
0.353770744714561
0.310806126260647
0.264852730994875
0.222747798685914
0.183763012889698
0.148338615967602
0.131675260013962
0.140302059512046
0.196908181186766
0.48062585267067
0.200838116818311
0.243826897937648
0.276027295420824
0.301271065830894
0.31418008943709
0.301339451339571
0.271799498067936
0.236853254030582
0.19977443886172
0.164055285670449
0.136741148530484
0.121875900085706
0.121712979988322
0.14285277234546
0.209590709663429
0.495168925036735
0.241307533610158
0.228565639221408
0.207020094703016
0.179758126845371
0.151670873124031
0.130159787414112
0.117437317661619
0.1143264999642
0.124233920780646
0.157636701411279
0.234461172981632
0.526578422574128
0.189033751964989
0.176246962028956
0.159414436367303
0.1415648660462