/*--------------------------------*- C++ -*----------------------------------*\
  =========                 |
  \\      /  F ield         | OpenFOAM: The Open Source CFD Toolbox
   \\    /   O peration     | Website:  https://openfoam.org
    \\  /    A nd           | Version:  12
     \\/     M anipulation  |
\*---------------------------------------------------------------------------*/
/*   Windows 32 and 64 bit porting by blueCAPE: http://www.bluecape.com.pt   *\
|  Based on Windows porting (2.0.x v4) by Symscape: http://www.symscape.com   |
\*---------------------------------------------------------------------------*/
FoamFile
{
    format      ascii;
    class       volScalarField;
    location    "600";
    object      p;
}
// * * * * * * * * * * * * * * * * * * * * * * * * * * * * * * * * * * * * * //

dimensions      [0 2 -2 0 0 0 0];

internalField   nonuniform List<scalar> 
10107
(
83333.3289615338
83333.3326194787
83333.3305620573
83333.3299526878
83333.3331981331
83333.3317726957
83333.3315070479
83333.3311404164
83333.3303470353
83333.3301469444
83333.3316914909
83333.3320228548
83333.3320455159
83333.3318212687
83333.3316792425
83333.3313635806
83333.331559556
83333.3313508216
83333.3305643019
83333.3308088418
83333.3303569089
83333.330069904
83333.3300467443
83333.3302927323
83333.3301218537
83333.332203054
83333.3321943169
83333.3320320079
83333.3320426551
83333.3320149241
83333.3317853961
83333.3316348013
83333.331654326
83333.3316546773
83333.3310847719
83333.3313373395
83333.3313448245
83333.3314777419
83333.3310368643
83333.3312937898
83333.3306903849
83333.3310956788
83333.3300681438
83333.3303394679
83333.3307662804
83333.3306306188
83333.330541862
83333.330455719
83333.3303422058
83333.3305619875
83333.3303291032
83333.3321949834
83333.3322778211
83333.33237602
83333.3320916806
83333.3320032654
83333.3319245328
83333.3320524315
83333.3316961258
83333.3315540299
83333.3312929879
83333.3312051482
83333.329528592
83333.3311733051
83333.3306361629
83333.3311255765
83333.3307815827
83333.3311805576
83333.3307018223
83333.3310411123
83333.3301717187
83333.3304747503
83333.3307637246
83333.3297669761
83333.3299289387
83333.330120402
83333.330877061
83333.3305707681
83333.3304434622
83333.3304590919
83333.3319099513
83333.3321816813
83333.3323743473
83333.3324595449
83333.3321128979
83333.3320357842
83333.3318836246
83333.3316844503
83333.3315852384
83333.3314914299
83333.3311156751
83333.3299194147
83333.3301867725
83333.3302327474
83333.3307313495
83333.3308310774
83333.3310659619
83333.3306421852
83333.3309761981
83333.3302236403
83333.3305210264
83333.3306353746
83333.3298540129
83333.3300184193
83333.330246935
83333.330248703
83333.3296289867
83333.3296739804
83333.3297601119
83333.3299670393
83333.3323503737
83333.3324604674
83333.3325691223
83333.3325761475
83333.3321074444
83333.3319770991
83333.3318467457
83333.3313087855
83333.3313663484
83333.3313588964
83333.3310710835
83333.3298349631
83333.3300303757
83333.3298960353
83333.3302836092
83333.3306277191
83333.3309011323
83333.3305957131
83333.3308608162
83333.3302403301
83333.3304948555
83333.3306012867
83333.3299412945
83333.3301007549
83333.3302622295
83333.3302377331
83333.3296830253
83333.3297573613
83333.329878981
83333.3299829506
83333.3299371076
83333.3295678981
83333.329573601
83333.329652059
83333.3297653727
83333.3321778339
83333.3326569131
83333.3324700015
83333.3326710831
83333.3319440796
83333.3319443799
83333.3317957615
83333.3312590906
83333.3315056543
83333.3312302775
83333.3308613793
83333.329789904
83333.3298839314
83333.3297834304
83333.3300839764
83333.3302860166
83333.330575652
83333.3308879328
83333.3304693395
83333.330806775
83333.3302109282
83333.3304510026
83333.330515496
83333.3299754745
83333.330135856
83333.3302620399
83333.3302396217
83333.3297676865
83333.3298566782
83333.329945666
83333.3300173624
83333.3299822445
83333.329632483
83333.329680909
83333.3297173311
83333.3298085451
83333.3298170706
83333.3295127693
83333.3294849356
83333.3295816204
83333.3297089105
83333.3321333502
83333.332530407
83333.3326261574
83333.3326326248
83333.3320680714
83333.3317235599
83333.3315662142
83333.3311922181
83333.3314625328
83333.3314940638
83333.3310810195
83333.3297572363
83333.3298244725
83333.3297638404
83333.3299464549
83333.3301354778
83333.3302969351
83333.3305770535
83333.3308588161
83333.330357392
83333.3308832077
83333.3301127233
83333.3304019511
83333.3305948446
83333.3299135611
83333.3301263393
83333.3302358441
83333.3302327774
83333.3297817102
83333.3299012872
83333.3299950793
83333.3300497651
83333.3300180485
83333.3296358478
83333.3297118485
83333.3297521592
83333.3298013142
83333.3298674653
83333.3298716675
83333.3295955861
83333.3295706567
83333.3296400951
83333.3297424578
83333.3297933914
83333.3294423418
83333.3294454761
83333.3295940927
83333.3297089871
83333.3323953244
83333.3324755492
83333.332366232
83333.3322647019
83333.3319897949
83333.331948033
83333.3317472439
83333.3311235414
83333.3309836653
83333.3314109597
83333.3312705954
83333.3297340553
83333.3297834151
83333.3297428525
83333.3298694236
83333.3300031634
83333.3301053809
83333.3302746953
83333.3311174638
83333.3306376757
83333.3303397095
83333.3308186496
83333.3300072367
83333.3303460907
83333.3306555178
83333.3298392047
83333.33007343
83333.3302246405
83333.3302418189
83333.3297208587
83333.3298711303
83333.3300085925
83333.3300583513
83333.3300186029
83333.3296385425
83333.3297397673
83333.3298064238
83333.3298691722
83333.3299042221
83333.3299251062
83333.3295574454
83333.3296074466
83333.3296448251
83333.3296437884
83333.3297163578
83333.3297875084
83333.3298342341
83333.3295165541
83333.3295116433
83333.3296288417
83333.3297347219
83333.3297666981
83333.3293974041
83333.3294907399
83333.3296269408
83333.3297109865
83333.3320898287
83333.3323139436
83333.3322906488
83333.3324558742
83333.3316467856
83333.3319529487
83333.3319366212
83333.3317750859
83333.3307158244
83333.3310813586
83333.331283231
83333.3297176949
83333.3297527111
83333.3297263666
83333.3298141102
83333.3299080968
83333.3299861115
83333.3300748784
83333.3303922028
83333.3311314534
83333.3304326425
83333.3303166638
83333.330597123
83333.329990811
83333.3303299561
83333.3307642888
83333.3297817539
83333.3299829259
83333.3301911333
83333.3302780762
83333.3296766334
83333.3298272192
83333.3299697976
83333.3300288717
83333.3300222667
83333.3296069624
83333.3297057735
83333.3298078282
83333.3298892114
83333.3299250614
83333.3299282359
83333.3295520781
83333.3296194233
83333.3296803477
83333.329711036
83333.3297740321
83333.3298324233
83333.3298730559
83333.3295518021
83333.3295456813
83333.3295749752
83333.3295602935
83333.3295830696
83333.3296752309
83333.3297708541
83333.3297968618
83333.3294516423
83333.3295219811
83333.3296488091
83333.3297319985
83333.3297448969
83333.3294410309
83333.3295498395
83333.329656753
83333.3297072982
83333.3323339438
83333.3322087394
83333.3323934895
83333.3326356105
83333.3313613821
83333.3317119026
83333.3319680775
83333.3318515268
83333.3306325423
83333.3308783256
83333.3308533083
83333.329703599
83333.329732093
83333.3297125724
83333.3297751186
83333.3298410169
83333.3299124409
83333.3299629534
83333.3301402863
83333.3302603751
83333.3305777231
83333.3302135836
83333.3302447127
83333.3305052392
83333.3300292538
83333.3302679106
83333.3304934304
83333.329783588
83333.3299698924
83333.3302877075
83333.3304095917
83333.3296848527
83333.3297724775
83333.3298818687
83333.3299890635
83333.3300310595
83333.3296027493
83333.3296783947
83333.3297812756
83333.3298530147
83333.3299164104
83333.3299215326
83333.3295449904
83333.3296048262
83333.3296702809
83333.3297338451
83333.3297931497
83333.3298500562
83333.3298842069
83333.3295362262
83333.3295460599
83333.3295914375
83333.3296110377
83333.3296470958
83333.329725658
83333.3298071993
83333.3298246603
83333.3296109628
83333.3295472759
83333.3295388971
83333.3295191467
83333.3295067322
83333.3295692763
83333.3296844273
83333.3297619513
83333.3297670464
83333.3294677834
83333.3295647565
83333.3296736508
83333.3297243958
83333.3297271001
83333.3295051433
83333.3296025672
83333.3296729273
83333.3296997013
83333.3324279037
83333.3321586324
83333.3323907253
83333.3323676251
83333.3311337287
83333.3315623362
83333.3314967847
83333.3312643639
83333.3298139235
83333.3306693078
83333.330674614
83333.3296895601
83333.3297159552
83333.3296992884
83333.3297486596
83333.3297952471
83333.3298551106
83333.3299030339
83333.3299763721
83333.3301140568
83333.330222388
83333.3302961282
83333.3300178976
83333.3300257389
83333.3303342073
83333.3300533195
83333.3302015603
83333.3303244938
83333.329838835
83333.3299969409
83333.3301904514
83333.3303233119
83333.329702864
83333.3297814516
83333.3299406513
83333.3301194209
83333.3300932444
83333.3296531739
83333.3296811878
83333.3297153858
83333.3297875761
83333.3298892625
83333.3299224981
83333.3295683466
83333.3296069751
83333.3296634467
83333.3297101645
83333.329788238
83333.329853836
83333.3298664334
83333.3295371358
83333.3295480486
83333.329590313
83333.3296241127
83333.3296738225
83333.3297574819
83333.3298223204
83333.3298403649
83333.3295783583
83333.3295359426
83333.3295393172
83333.3295492049
83333.3295684857
83333.3296225298
83333.329725224
83333.3297911923
83333.3297877739
83333.3296983114
83333.3296078699
83333.3295545768
83333.3295166536
83333.3294744004
83333.3295105418
83333.3295983396
83333.3297026052
83333.3297463125
83333.3297436178
83333.329518264
83333.3296157741
83333.3296880194
83333.3297142195
83333.3297124813
83333.3295654409
83333.3296362662
83333.3296773721
83333.3296894509
83333.3319923224
83333.3321690759
83333.3324473511
83333.3320169565
83333.3289167726
83333.3314479618
83333.3313202298
83333.3309307251
83333.3294973837
83333.3302996633
83333.3305290048
83333.3305357905
83333.3296766532
83333.3297022367
83333.3296852258
83333.3297287138
83333.3297648462
83333.3298093432
83333.3298562064
83333.329891376
83333.3299712204
83333.3300684127
83333.3301176286
83333.3300201549
83333.3299964028
83333.3299021071
83333.3300343705
83333.3299366177
83333.3300084256
83333.3301287961
83333.330167989
83333.3298645715
83333.3300033219
83333.3300857703
83333.3301398368
83333.3301211472
83333.3297405268
83333.3298300289
83333.3299571681
83333.3300522238
83333.3300487279
83333.3296721051
83333.3297005282
83333.3297603637
83333.3298474451
83333.3299230758
83333.3299097287
83333.3296368228
83333.3296457358
83333.3296392445
83333.3296662736
83333.3297569412
83333.3298346092
83333.3298560592
83333.3295655032
83333.3295729814
83333.3296006101
83333.3296161594
83333.3296805626
83333.3297580502
83333.329817102
83333.3298395519
83333.3295728578
83333.3295411642
83333.3295471612
83333.3295667009
83333.3296036757
83333.3296595616
83333.3297516022
83333.3298061563
83333.32980205
83333.3296478272
83333.3295792142
83333.3295407639
83333.3295220146
83333.329523663
83333.3295619529
83333.3296416847
83333.3297333797
83333.329768205
83333.3297595982
83333.3297810944
83333.3296938015
83333.3296169157
83333.3295562179
83333.3294947342
83333.3294914419
83333.3295478166
83333.3296425502
83333.3297095706
83333.3297312828
83333.3297253964
83333.3295752545
83333.329649368
83333.3296909463
83333.3297027457
83333.3296987249
83333.32960885
83333.3296523823
83333.3296738675
83333.3296781127
83333.3320283802
83333.3318612534
83333.3324057441
83333.3292688894
83333.3311674725
83333.3313547599
83333.3306270133
83333.3299044016
83333.3298240318
83333.3299810163
83333.3302420591
83333.3308824604
83333.3302904165
83333.3302634463
83333.3302792897
83333.3296658805
83333.3296893283
83333.3296725893
83333.3297139497
83333.3297411199
83333.329777102
83333.3298141123
83333.3298420287
83333.329873029
83333.3299457995
83333.3299838676
83333.329984604
83333.3298593629
83333.3299022787
83333.3299541173
83333.3298619032
83333.3298814045
83333.3299837873
83333.3298811558
83333.3299723819
83333.3298302777
83333.3299205348
83333.3299395594
83333.329901345
83333.330168722
83333.3300160159
83333.3300453439
83333.3297562257
83333.3298474685
83333.3299147771
83333.3299479782
83333.3301741124
83333.3299953741
83333.3299440196
83333.3299197042
83333.3296863102
83333.329736087
83333.3298118508
83333.3298530562
83333.3299031605
83333.329894015
83333.3296548057
83333.3296632632
83333.3296768714
83333.3297117854
83333.3297699678
83333.3298209707
83333.3298364772
83333.3296295964
83333.3296292176
83333.3296079442
83333.3296044225
83333.3296636145
83333.3297334421
83333.3298024474
83333.3298211582
83333.3295926221
83333.3295690857
83333.3295699087
83333.3295753845
83333.3296160058
83333.3296709954
83333.3297535386
83333.3298041787
83333.3298067361
83333.3296301951
83333.3295767495
83333.329547171
83333.3295406424
83333.3295605131
83333.329601296
83333.3296762439
83333.3297541298
83333.3297830025
83333.3297717942
83333.3297218317
83333.3296486506
83333.3295875197
83333.3295412686
83333.3295145437
83333.3295352512
83333.3295876261
83333.3296745188
83333.3297318185
83333.329747961
83333.3297377557
83333.3298357622
83333.3297737793
83333.3296967651
83333.3296239781
83333.3295527806
83333.3295134008
83333.3295344935
83333.329599022
83333.3296701204
83333.3297077061
83333.3297166613
83333.3297109816
83333.3296195979
83333.3296648981
83333.3296870198
83333.3296909587
83333.329685694
83333.3296313273
83333.329655465
83333.3296661571
83333.3296674111
83333.3313088885
83333.3322080109
83333.3320831016
83333.3305873551
83333.3298261441
83333.3298630612
83333.3297477124
83333.3298107215
83333.3301582347
83333.330108718
83333.3296570086
83333.3296781468
83333.3296622028
83333.3297012873
83333.3297244555
83333.3297515572
83333.3297817111
83333.3298040623
83333.3298207625
83333.3298494547
83333.3299007145
83333.3299125423
83333.3298339584
83333.3298207308
83333.3298507547
83333.3298354873
83333.3298419303
83333.3298724031
83333.3298661885
83333.3298937495
83333.3298971425
83333.329965358
83333.3297961922
83333.3298454561
83333.3298556933
83333.3299856577
83333.329873475
83333.3297447135
83333.3298127412
83333.3298397304
83333.3298582182
83333.3299387615
83333.3298465313
83333.3301270414
83333.3299959245
83333.3296945856
83333.3297481556
83333.3298030404
83333.3298163125
83333.3298448798
83333.3300731766
83333.3298580117
83333.3298590356
83333.3298586933
83333.329654816
83333.329679103
83333.3297188193
83333.3297493812
83333.3297763261
83333.3298123219
83333.3298144584
83333.3296501025
83333.3296445772
83333.3296359046
83333.3296452023
83333.3296829081
83333.3297316684
83333.3297771095
83333.3297995692
83333.3296386566
83333.329624892
83333.3295999483
83333.3295788551
83333.3296103586
83333.3296615911
83333.3297328625
83333.3297843607
83333.3297960979
83333.3296363435
83333.3295959693
83333.3295716385
83333.3295620234
83333.3295786582
83333.3296262029
83333.3296899736
83333.3297563349
83333.3297860877
83333.3297769012
83333.3296918707
83333.3296335574
83333.3295849535
83333.3295519657
83333.3295451992
83333.3295733737
83333.3296256343
83333.3296997841
83333.3297477869
83333.3297602461
83333.3297480119
83333.3297837905
83333.3297222745
83333.3296564994
83333.3295952773
83333.3295471245
83333.329536713
83333.3295669748
83333.3296297825
83333.3296929519
83333.3297244597
83333.329729846
83333.3297215736
83333.3298270884
83333.3297669792
83333.3296949986
83333.3296202552
83333.3295616512
83333.3295485184
83333.3295816656
83333.3296384191
83333.3296812386
83333.3297011474
83333.3297033726
83333.3296978711
83333.3296428593
83333.3296683105
83333.3296789311
83333.329679925
83333.3296747783
83333.3296385432
83333.3296515948
83333.3296577495
83333.3296578214
83333.3314823817
83333.3298157984
83333.3298173385
83333.3298298727
83333.3298445566
83333.3298692965
83333.3296496181
83333.329669134
83333.3296538108
83333.3296900055
83333.329711151
83333.3297330653
83333.3297569347
83333.3297754657
83333.3297880291
83333.329796325
83333.3298202541
83333.3298491643
83333.329839809
83333.3298449394
83333.3297909221
83333.3298167826
83333.3298107658
83333.3298184699
83333.3298412082
83333.3298211177
83333.3297862219
83333.3298272145
83333.329845908
83333.3298645969
83333.3298932528
83333.3299649445
83333.3297314083
83333.3297823945
83333.3298082123
83333.3298272206
83333.3298799328
83333.3296843747
83333.3297308279
83333.3297660043
83333.3297806396
83333.3298021642
83333.329912036
83333.3298312982
83333.3298769441
83333.3296550224
83333.3296859343
83333.3297227302
83333.3297363354
83333.3297517396
83333.3297901292
83333.3297970022
83333.3298158971
83333.3298247003
83333.3298396849
83333.3296467562
83333.329647112
83333.329659178
83333.3296811478
83333.3297082245
83333.3297329785
83333.3297642115
83333.3297781728
83333.3296599782
83333.3296428406
83333.3296209945
83333.3296099988
83333.3296335791
83333.3296703377
83333.3297137665
83333.3297571878
83333.3297762333
83333.3296635458
83333.3296376268
83333.3296092635
83333.3295790998
83333.3295841702
83333.3296265282
83333.3296721123
83333.3297341552
83333.3297730156
83333.3297722778
83333.3296846217
83333.3296400286
83333.3296015719
83333.3295746819
83333.3295690244
83333.3295974243
83333.3296480549
83333.3297077647
83333.3297512738
83333.3297648679
83333.3297534681
83333.3297484844
83333.3296950956
83333.3296417563
83333.3295942978
83333.3295633832
83333.3295667098
83333.32959922
83333.3296575952
83333.3297106954
83333.329736873
83333.3297402405
83333.3297300046
83333.329782225
83333.3297261252
83333.3296625308
83333.3296025824
83333.3295666354
83333.3295687873
83333.3296074531
83333.3296606187
83333.3296982949
83333.3297146874
83333.3297146281
83333.3297080603
83333.329812353
83333.3297509581
83333.3296787527
83333.3296138118
83333.3295793442
83333.3295844591
83333.3296206343
83333.3296582408
83333.3296825072
83333.3296916532
83333.3296915565
83333.3296864603
83333.3296506339
83333.3296641173
83333.329670005
83333.3296700401
83333.3296661459
83333.3296379243
83333.3296457148
83333.329649775
83333.3296496237
83333.3297909429
83333.3298086872
83333.3298093211
83333.329831938
83333.3296434316
83333.3296617141
83333.3296473509
83333.3296806695
83333.3296998172
83333.3297186038
83333.3297379798
83333.3297539154
83333.329763696
83333.3297709301
83333.3297751477
83333.3298001644
83333.3298161133
83333.3298206875
83333.3298100862
83333.3297720184
83333.3297882712
83333.3297871931
83333.3297968423
83333.3298104951
83333.3298014245
83333.329778096
83333.3298109521
83333.3298253881
83333.3298132821
83333.3297317495
83333.329774564
83333.3298033735
83333.3298208013
83333.3296803753
83333.3297178718
83333.3297498178
83333.3297702011
83333.3297899721
83333.3296486209
83333.329675053
83333.3297010126
83333.3297184328
83333.3297409171
83333.3297676701
83333.3296418477
83333.3296470176
83333.3296621135
83333.3296765977
83333.3296886907
83333.3297195309
83333.3297521284
83333.3297639341
83333.3297769405
83333.3297988905
83333.3298122558
83333.3296585241
83333.3296410884
83333.3296304316
83333.3296326959
83333.3296580167
83333.3296841198
83333.3297096071
83333.3297395817
83333.3297586517
83333.3296818141
83333.3296572735
83333.3296285965
83333.3296030002
83333.3296051232
83333.329635159
83333.3296686282
83333.3297082591
83333.3297508269
83333.3297589316
83333.3296970892
83333.3296651153
83333.3296333024
83333.3295992849
83333.3295825127
83333.3296030135
83333.3296397236
83333.3296889499
83333.3297370124
83333.3297587571
83333.3297519422
83333.3297306918
83333.3296883713
83333.329646695
83333.3296092299
83333.3295851923
83333.3295898435
83333.3296211595
83333.3296710026
83333.3297161204
83333.3297411406
83333.3297455627
83333.3297350579
83333.3297881367
83333.3297501322
83333.3297027787
83333.3296508538
83333.3296056863
83333.3295839413
83333.3295924186
83333.3296317904
83333.3296792256
83333.3297114019
83333.3297251951
83333.329723538
83333.3297156095
83333.329779606
83333.3297231276
83333.3296603272
83333.3296097036
83333.3295890513
83333.3296020169
83333.3296397647
83333.3296748998
83333.3296964596
83333.3297033899
83333.3297016084
83333.3296962398
83333.329784332
83333.3297209528
83333.3296580584
83333.3296141098
83333.3296001183
83333.3296155401
83333.3296418322
83333.3296642138
83333.3296768854
83333.3296816206
83333.3296811045
83333.3296773003
83333.3296497251
83333.3296575941
83333.3296616068
83333.329661457
83333.3296595303
83333.3296342922
83333.3296396032
83333.3296427576
83333.3296430495
83333.3297739347
83333.3297876453
83333.3298004052
83333.3296384524
83333.3296554089
83333.3296424966
83333.3296729179
83333.329690176
83333.3297068553
83333.3297229717
83333.3297368086
83333.3297459682
83333.3297533308
83333.3297598855
83333.3297687514
83333.3297875992
83333.3297959548
83333.3297988862
83333.3297938041
83333.3297567685
83333.329768514
83333.3297697966
83333.3297752338
83333.3297846345
83333.3297822263
83333.329766562
83333.3297916234
83333.3298005825
83333.3297933941
83333.3297354728
83333.3297716812
83333.3297977833
83333.3298069264
83333.3297971659
83333.3296895821
83333.3297227276
83333.3297544571
83333.3297804115
83333.329795187
83333.3296512767
83333.3296705417
83333.3296942932
83333.3297182625
83333.3297409163
83333.3297666248
83333.3296387576
83333.3296419171
83333.3296512315
83333.3296645334
83333.3296832119
83333.3297151896
83333.3297446564
83333.3296521575
83333.3296365209
83333.329628588
83333.3296297222
83333.3296456769
83333.3296702442
83333.3296998487
83333.3297313553
83333.3297486624
83333.3297557851
83333.329776367
83333.3297900642
83333.3296830463
83333.3296564805
83333.3296314419
83333.3296140759
83333.3296207261
83333.3296467613
83333.3296717385
83333.3297002114
83333.3297329997
83333.3297469543
83333.3297110567
83333.3296826817
83333.329652846
83333.329620478
83333.3296021317
83333.3296141502
83333.3296396706
83333.3296728422
83333.3297146842
83333.32974465
83333.3297445297
83333.3297339738
83333.3296997545
83333.3296671589
83333.3296321102
83333.3296023348
83333.3295986767
83333.3296197033
83333.3296577656
83333.3297025499
83333.3297340932
83333.3297438833
83333.3297353135
83333.3297665666
83333.3297328961
83333.3296953983
83333.3296549075
83333.3296194873
83333.329602843
83333.3296110022
83333.3296456735
83333.329686594
83333.3297161647
83333.3297302346
83333.3297289181
83333.329720141
83333.3298165982
83333.329788026
83333.3297537728
83333.3297066778
83333.3296551762
83333.3296167487
83333.3296041985
83333.3296205997
83333.3296566516
83333.3296882705
83333.3297073899
83333.3297127868
83333.3297094917
83333.3297034684
83333.3297647981
83333.3297064598
83333.3296516636
83333.3296173084
83333.3296106021
83333.3296298223
83333.329656813
83333.329677979
83333.3296889671
83333.3296919655
83333.3296903526
83333.3296864294
83333.3297448228
83333.329690057
83333.329644796
83333.3296201291
83333.3296190764
83333.3296327713
83333.3296492839
83333.3296618242
83333.3296691086
83333.3296723962
83333.3296718325
83333.3296699887
83333.3296455422
83333.3296509056
83333.3296540974
83333.3296543456
83333.3296539856
83333.3296298304
83333.3296340838
83333.3296370263
83333.3296381215
83333.3297588539
83333.3297718688
83333.3297832143
83333.3296351834
83333.3296499356
83333.3296384162
83333.3296657755
83333.3296818199
83333.3296967384
83333.3297108076
83333.3297228968
83333.3297317984
83333.3297395028
83333.3297469165
83333.3297543744
83333.3297651627
83333.3297772873
83333.3297838387
83333.3297839556
83333.3297775127
83333.3297451529
83333.3297539435
83333.3297555685
83333.3297588151
83333.3297662834
83333.3297663248
83333.3297537252
83333.3297716756
83333.3297791916
83333.3297761062
83333.3297338546
83333.3297625459
83333.3297826229
83333.3297888658
83333.3297819646
83333.3297010141
83333.3297313017
83333.3297605592
83333.3297811804
83333.3297885791
83333.3297810128
83333.3296650963
83333.3296837487
83333.3297080577
83333.329732679
83333.3297601338
83333.32977547
83333.3296440295
83333.3296452713
83333.3296545006
83333.3296717202
83333.3296941739
83333.3297231844
83333.3297534713
83333.3296495779
83333.3296341673
83333.3296255786
83333.3296261413
83333.3296414354
83333.3296692002
83333.3297021979
83333.3297342283
83333.3296772136
83333.3296503012
83333.3296267012
83333.3296093726
83333.3296134683
83333.3296381665
83333.3296638141
83333.3296959109
83333.3297271121
83333.3297406538
83333.3297470225
83333.3297593706
83333.3297724836
83333.3297148431
83333.3296841811
83333.3296541691
83333.3296247137
83333.3296089354
83333.329620439
83333.3296429901
83333.3296691202
83333.3297022552
83333.3297323899
83333.3297370776
83333.3297445085
83333.3297136081
83333.3296848075
83333.3296523317
83333.3296220555
83333.3296118109
83333.3296228631
83333.3296476339
83333.3296809738
83333.32972002
83333.3297364209
83333.3297315216
83333.3297653141
83333.3297345348
83333.3297044299
83333.329670172
83333.3296346494
83333.3296132956
83333.3296141256
83333.329638053
83333.329674475
83333.3297090218
83333.329728024
83333.3297298262
83333.329721194
83333.3297944149
83333.3297659184
83333.329737799
83333.3297014155
83333.3296602226
83333.3296290833
83333.329618455
83333.3296329586
83333.3296642414
83333.3296934834
83333.3297125741
83333.329718548
83333.3297146701
83333.3297078026
83333.329812991
83333.3298109023
83333.3297856011
83333.3297484022
83333.3296989621
83333.3296529897
83333.3296260212
83333.329623425
83333.3296434215
83333.3296693495
83333.3296890223
83333.3296988627
83333.3297003392
83333.3296974642
83333.329693037
83333.3297357263
83333.3296848559
83333.3296453132
83333.3296261935
83333.3296291947
83333.3296450624
83333.3296618014
83333.3296736522
83333.3296796654
83333.3296816605
83333.3296802782
83333.3296780662
83333.3297079241
83333.3296673402
83333.3296385622
83333.3296268705
83333.3296295269
83333.3296390775
83333.3296490318
83333.3296565026
83333.3296614621
83333.3296641004
83333.3296638551
83333.3296630949
83333.329640513
83333.3296448008
83333.3296476883
83333.3296487066
83333.3296491992
83333.3296256217
83333.3296295631
83333.3296326131
83333.3296347852
83333.3297467203
83333.3297576221
83333.3297684179
83333.3296331208
83333.3296459588
83333.329634846
83333.3296591722
83333.3296737256
83333.3296874892
83333.3297003332
83333.3297113013
83333.329720068
83333.3297276792
83333.3297359186
83333.3297434815
83333.3297510512
83333.3297613741
83333.3297692053
83333.3297721772
83333.3297704533
83333.3297641199
83333.3297353919
83333.3297428957
83333.3297442938
83333.3297465227
83333.3297525997
83333.3297532647
83333.3297426218
83333.3297566419
83333.3297629097
83333.3297619085
83333.3297291743
83333.3297509899
83333.3297662524
83333.3297718078
83333.3297682677
83333.329706951
83333.3297314994
83333.3297552951
83333.3297708123
83333.3297758746
83333.3297697343
83333.3296799912
83333.3296995852
83333.3297227637
83333.3297457388
83333.3297648791
83333.3297721777
83333.3297660008
83333.3296584998
83333.3296617846
83333.3296736069
83333.3296916605
83333.3297176612
83333.3297461837
83333.3297608525
83333.3296541982
83333.3296409686
83333.329634568
83333.3296392936
83333.3296566459
83333.3296843162
83333.3297192564
83333.3297444535
83333.3296729776
83333.3296479636
83333.3296258292
83333.3296104941
83333.3296156692
83333.3296385286
83333.3296676741
83333.329702291
83333.3297317049
83333.3297094397
83333.329678525
83333.3296484651
83333.3296192357
83333.3296033261
83333.3296149719
83333.3296393822
83333.3296664524
83333.3297012265
83333.3297282223
83333.3297331647
83333.329739463
83333.3297478283
83333.3297578522
83333.3297500816
83333.3297176404
83333.3296874253
83333.3296542203
83333.3296241202
83333.329613291
83333.3296238662
83333.3296455298
83333.3296742363
83333.3297106243
83333.329730163
83333.329727083
83333.32977485
83333.3297456283
83333.329718871
83333.3296884742
83333.3296542665
83333.3296289668
83333.3296208164
83333.3296317542
83333.329656482
83333.329694489
83333.3297207583
83333.3297268896
83333.3297195188
83333.3297902759
83333.3297617594
83333.3297376896
83333.3297078575
83333.3296706306
83333.329638973
83333.3296244756
83333.3296304103
83333.3296548269
83333.3296860409
83333.3297101726
83333.3297196333
83333.3297167977
83333.3297092096
83333.3298061757
83333.3297915379
83333.3297667004
83333.3297376156
83333.32969805
83333.3296595747
83333.3296363147
83333.3296333952
83333.3296505507
83333.3296746203
83333.3296944007
83333.3297050127
83333.3297061467
83333.3297023034
83333.3296971907
83333.3297678864
83333.3298035489
83333.3297973911
83333.3297696356
83333.329728615
83333.3296839665
83333.3296500665
83333.3296347589
83333.3296394931
83333.3296558028
83333.3296722248
83333.3296835119
83333.3296884737
83333.3296890852
83333.329686707
83333.3296836998
83333.3297055803
83333.3296679682
83333.3296427668
83333.3296343283
83333.3296393299
83333.3296498814
83333.3296599213
83333.3296668844
83333.3296708649
83333.3296724569
83333.3296714404
83333.3296701171
83333.3296805985
83333.3296526048
83333.3296353689
83333.3296300009
83333.3296328854
83333.3296392207
83333.3296454688
83333.3296505759
83333.3296545125
83333.3296568306
83333.3296573692
83333.3296573613
83333.3296357443
83333.3296396793
83333.3296425719
83333.3296447646
83333.3296449243
83333.3296222082
83333.3296260292
83333.3296293659
83333.3296320909
83333.3297364574
83333.3297458435
83333.3297552428
83333.3296433595
83333.3296322568
83333.3296545656
83333.3296661376
83333.3296785138
83333.329690588
83333.3297012413
83333.3297099904
83333.3297173464
83333.3297254389
83333.329733638
83333.3297409808
83333.3297488949
83333.3297564618
83333.3297607479
83333.329761857
83333.3297586827
83333.3297520343
83333.3297269962
83333.329733754
83333.3297347803
83333.3297372996
83333.3297419955
83333.3297426265
83333.329734366
83333.329745265
83333.3297503677
83333.3297500982
83333.329724134
83333.3297409447
83333.3297532287
83333.3297581031
83333.3297563527
83333.3297075164
83333.3297273897
83333.3297463074
83333.3297587981
83333.3297631636
83333.3297593925
83333.3296902659
83333.3297063981
83333.329726216
83333.3297450796
83333.3297588563
83333.3297632071
83333.3297582685