/*--------------------------------*- C++ -*----------------------------------*\
  =========                 |
  \\      /  F ield         | OpenFOAM: The Open Source CFD Toolbox
   \\    /   O peration     | Website:  https://openfoam.org
    \\  /    A nd           | Version:  12
     \\/     M anipulation  |
\*---------------------------------------------------------------------------*/
/*   Windows 32 and 64 bit porting by blueCAPE: http://www.bluecape.com.pt   *\
|  Based on Windows porting (2.0.x v4) by Symscape: http://www.symscape.com   |
\*---------------------------------------------------------------------------*/
FoamFile
{
    format      ascii;
    class       surfaceScalarField;
    location    "600";
    object      phi;
}
// * * * * * * * * * * * * * * * * * * * * * * * * * * * * * * * * * * * * * //

dimensions      [0 3 -1 0 0 0 0];

internalField   nonuniform List<scalar> 
28758
(
-9.03866121530862e-05
0.0001077953186836
2.16320766294099e-06
-0.000160672730658579
5.96007381795136e-05
1.06853811733102e-05
1.23898386817964e-05
-2.32067557942225e-05
-5.85586695116981e-05
1.02128865089359e-05
-0.000169740627874332
6.43930848130737e-06
2.62858889105995e-06
0.00015108402525477
-9.45986814126828e-05
3.58382116794526e-06
-4.68426190839395e-07
-8.48275223566246e-05
1.75465086398071e-05
1.94077260547721e-05
-1.28064958006633e-05
0.000165495422929667
1.07849362451915e-05
-9.77509724116259e-06
-3.93169363919734e-06
-1.75386980624382e-06
-7.74609465897454e-06
2.89501966677461e-07
3.65879537386002e-06
-3.51050846884309e-06
-2.12294120950018e-06
-5.26959087609506e-06
-8.17844155337488e-05
-1.98401244829027e-06
-4.39094564041932e-06
-8.32321412535992e-05
-4.11468024292974e-06
5.14788891374491e-06
7.98552201402708e-05
-7.98510182841985e-05
-5.60317987894251e-06
9.18279938609296e-06
2.19341686809783e-07
-9.38808573813796e-06
-2.16612510164652e-06
1.08664436023721e-05
-7.08262602247937e-05
1.0983107872084e-05
2.16686863875556e-05
-7.84653808741598e-06
8.77992528035529e-06
1.86936805247084e-05
-1.08975592531346e-05
6.43291355401753e-05
1.3617148624492e-05
-1.6207773865352e-05
0.000165264000815079
2.10598029200991e-05
-4.28066284946207e-07
-1.06866221415393e-05
8.31400222905637e-07
2.10682245949333e-05
-3.3072672114457e-06
5.09383382380392e-07
-1.13380962161747e-06
-6.78245037696841e-06
-1.17625753506631e-05
-2.99479847687407e-06
-8.06348540959886e-06
1.95161822815303e-06
-1.60009019911174e-06
7.90498695159386e-06
1.2797501970217e-07
1.93485722394949e-06
2.21072449612878e-06
-2.02767357853547e-06
-8.18941553640624e-05
-2.8274529588977e-06
2.88657643386938e-06
3.73780898734407e-05
-7.58369100487452e-05
1.1044042547091e-05
1.89091537696535e-05
-7.35207602190778e-05
-1.28227155238342e-07
7.97061589537107e-06
6.47718368655131e-05
-8.24777593401018e-05
1.74526931974252e-08
1.20852915950507e-05
7.95260385334916e-06
6.4255700307408e-05
-7.92659278797567e-05
-8.40517246261435e-06
2.46455978393405e-05
7.55810474463072e-06
1.25853615739301e-05
4.35183490653305e-06
8.99274860758259e-06
3.55091385606276e-07
9.88282909862186e-06
6.28523068929984e-07
2.05128098093046e-05
-0.000130820179587702
0.000125864562703338
-4.57408502167996e-06
-1.2745214659776e-05
-7.89229856545567e-05
-8.52531307034725e-06
0.000142375008991954
1.2971906787987e-05
3.38029551570228e-06
1.56684764426178e-05
3.15764088815275e-07
4.39681812889257e-05
9.59033055027185e-06
-1.47618776842785e-05
5.508696260877e-05
7.79627806878453e-06
1.75327864226351e-05
-1.7435171040587e-05
5.59205857212598e-05
2.18546493612259e-05
-7.19183421406168e-06
0.000170379456161553
1.05303464430176e-06
-8.14098812020748e-05
-2.31282177680585e-05
0.000125787932426621
-8.0047477026636e-06
2.47845746612971e-05
-1.23311377413297e-05
4.65128331835776e-06
-1.14200745746833e-06
3.38214465087443e-07
-4.2756819539622e-06
5.61646537533314e-06
-2.12198423242781e-05
-1.43372396292339e-05
-5.02624061554924e-06
8.97632347396918e-07
-1.10354474652147e-05
8.71138371559074e-06
1.2786562193576e-06
5.02534825916321e-06
1.17754121194409e-06
5.22726717085872e-06
1.52851124458655e-06
1.62695316378583e-06
-1.95234123241628e-06
-9.21927553322529e-05
-1.19853050718058e-06
8.08607281744119e-06
-8.26525276090341e-05
2.65967964621602e-06
1.46575407649343e-05
4.20535354362123e-06
-6.88117728881852e-05
4.46436061817205e-06
-0.00012287882018849
4.23461088626965e-06
1.07527200031923e-05
-2.42736599885974e-05
3.88998837156924e-06
9.64840208438242e-06
6.98102128832719e-05
-8.70362342777504e-05
3.3418350846905e-06
1.75643046219603e-05
-1.52519030907045e-06
0.000121999512251635
-0.000100681497452742
-3.67253961895855e-06
-5.79030448594001e-07
1.02003020413413e-05
1.64863554414412e-05
-2.14122766131362e-05
0.000118940005584188
-8.60691077696021e-05
6.98152541925489e-05
1.01545789106653e-05
-3.58432957630468e-05
0.000119081538807724
-3.06991103489754e-06
3.0965014672059e-05
1.57731718945107e-05
3.49102152662246e-06
1.91748685750169e-06
9.61747715350146e-06
-4.66479109178033e-07
-3.07072929495457e-06
3.53381280852535e-05
-3.06109509382533e-06
2.12877985349009e-07
4.75997588666608e-05
1.41527343782671e-05
-1.13038855735753e-05
6.24077195086891e-05
-3.20870460316224e-06
-1.55932061865273e-05
5.26911249435655e-05
3.49072600245416e-06
-6.45882916602449e-06
8.63689029987609e-05
2.81007894647852e-05
-4.12589237331954e-06
0.00017354279180642
-1.81205898607594e-06
-5.05925661326087e-06
0.000128734810262199
-3.10412933897841e-06
-1.74357388345771e-05
0.000112421475856893
2.82320798722555e-06
-1.79262118354476e-06
-2.16689797011025e-06
-1.74715721564083e-05
-7.82314181873584e-06
-3.95167660228525e-06
4.05883229844162e-07
-1.47852616693465e-07
2.66248536288914e-06
2.31196525478601e-07
-1.06394272384065e-07
-1.44857876328939e-06
-4.3224815622773e-05
5.27760998998655e-06
1.24750167621086e-05
-9.2012268346848e-05
6.52936832912662e-06
9.19241740707724e-06
7.06663131579184e-06
-9.04820113591535e-05
1.85578618310929e-06
-8.34603750797396e-05
8.69250948555418e-06
-7.55769061413647e-06
-3.07476018719749e-05
1.55480223596436e-05
2.66472555211532e-05
5.65892898773307e-05
-8.65426319198093e-05
1.78810549163057e-05
2.50625248396438e-05
1.87560167362971e-05
3.89364752831944e-05
-5.28326846404198e-05
9.03196094813962e-06
1.35905867681103e-08
-7.13520646232459e-06
6.76491321492933e-06
2.69051461257531e-05
2.40106449604471e-05
-2.51281094270263e-06
-1.42209900367168e-05
0.000137727267603904
8.84731865964801e-06
-4.39185126958863e-05
6.51689041255878e-05
7.66020207542442e-06
1.21759585021605e-05
-2.40608269889435e-05
6.24466496688939e-06
2.61154833011593e-06
1.63982086400954e-05
-1.24630115011644e-05
1.17363309217602e-05
3.21404192226972e-05
1.24589400577988e-05
-4.30528619595851e-06
3.80488904459018e-05
-9.70936303059147e-06
-1.51248694649568e-06
3.99909369219228e-05
-9.53298741263929e-06
7.38179896619464e-06
2.87637702121539e-05
1.04848113041057e-05
-7.11910183422936e-06
7.2477187558643e-05
-7.07625953473563e-06
-7.32728069627822e-06
6.08168740215185e-05
-9.06642801334065e-06
-3.14623277768115e-06
8.10960623853744e-05
-5.52593661612775e-06
-5.97809879593029e-06
5.11031549171695e-05
-4.34011081210108e-06
-1.55369072600215e-06
-1.43329535554952e-06
4.96944730075838e-07
0.000126619004560786
-6.65631510457042e-06
-9.72745593302487e-07
0.000113822548165078
-8.09859598721996e-06
3.49996549398927e-06
0.000137979234552811
-5.93759365600323e-06
-3.26073130889179e-06
-1.19718874414401e-06
-9.56490156375264e-06
-1.16519046882236e-05
3.49801687634231e-06
5.91144206821448e-06
2.07093946640903e-06
-6.00449204393036e-05
1.0132862063366e-05
2.4442067205113e-05
-9.99030667342373e-05
1.35670995657276e-05
1.87977185842263e-05
3.71641791737339e-05
-8.99960329009674e-05
1.10473727148686e-05
1.12543704763159e-06
8.12741299742138e-07
-1.63146706778056e-05
3.13238970715804e-05
-1.32717506634925e-06
1.86597010441154e-06
5.41247207370372e-05
-7.71598410510368e-05
2.7248242616487e-05
4.0315187063436e-05
2.68065229182409e-05
4.86559811894316e-05
-5.21113747643554e-05
1.07433596825631e-05
-3.07813842502796e-06
-5.24458434212258e-06
6.10751921494492e-06
8.39236153970825e-06
5.92991544607135e-06
2.55316461481336e-06
5.20412516315996e-06
2.58784059965021e-05
-1.81961427482772e-05
2.66995597659012e-05
3.2567855415451e-05
3.3886782625119e-06
-4.37892026932096e-05
8.13475476297089e-05
-3.09162197957648e-06
3.15760967752793e-06
6.11964330553074e-06
-1.34159690973367e-05
9.3926151950487e-06
-1.70624333038346e-05
-1.3779460899421e-05
1.15595099844907e-05
2.35991201316546e-05
3.69470814241805e-05
4.09413206602648e-06
2.47356459896844e-05
-1.67368537709219e-05
4.21973961772352e-06
2.5528187498553e-05
-1.15830123164945e-05
5.84792224932585e-06
2.54658912679632e-05
3.71829000084088e-05
-2.37205271621564e-06
4.3573339298036e-05
-1.02714958611634e-05
7.17193129098486e-07
4.08443447725331e-05
-1.86072432747237e-05
2.80385650366811e-06
3.57633957514369e-05
-2.24827071358178e-05
4.5919036191264e-07
2.93578845020433e-05
1.38919299360447e-06
-2.96281056981988e-06
-8.27797353843401e-06
-5.53425687244405e-07
6.81345063992592e-05
-1.33435215236024e-05
1.55805550995823e-06
8.57767933336112e-05
-1.62779584541016e-05
1.64879357970141e-07
7.37647343312214e-05
-2.48524335758219e-05
1.77718827949297e-06
2.36658921914274e-05
-1.61867027917663e-05
2.94101432851058e-06
-6.74258446046261e-06
4.09144998818567e-06
0.000108488349316608
-1.02050470588616e-05
1.02189491462997e-05
0.000137982081122702
-1.54201892082317e-05
1.21044058704461e-05
3.66807450875233e-05
-2.30694307862367e-05
-2.22146005493991e-05
-7.74766057253389e-06
4.85422774733075e-07
3.31682870198941e-06
3.88414196182071e-06
7.99581496521558e-06
3.40443545974006e-06
2.6338312023114e-05
-8.62714847717249e-07
1.59811634932505e-05
-8.53073456791225e-05
2.96711897360614e-05
1.64854839778147e-05
2.71987614971154e-05
-5.73401381031456e-05
7.87509061148359e-06
-7.96288169952944e-07
-1.49814120195667e-05
9.11723094269019e-05
-0.000105836483722916
1.22354088446769e-05
1.10159080485779e-06
9.79343941062984e-05
-7.54108235063835e-05
-1.07422980111964e-05
1.7332949607411e-05
4.64162289348661e-06
9.00626543507899e-05
-3.27778349459576e-05
-1.08678973126726e-05
-3.91010045949438e-06
-6.69851495374996e-06
4.4606575777397e-06
8.10329409928286e-06
8.54087732767193e-07
-8.27205737894923e-06
-3.74681095240651e-06
9.66510434975905e-06
-1.71116455084428e-05
2.00447539128417e-05
1.7167559538485e-05
-2.09129534928374e-06
1.60768977860769e-05
7.44237003030632e-05
-5.76438116868929e-06
-0.000130341688407361
0.000130830812368715
1.06088177188045e-06
1.55349066928224e-05
7.98930373760011e-05
-1.09802511845692e-06
1.10137755514563e-05
1.15615261080017e-05
-7.06304405553467e-06
3.38894966665345e-06
5.86603102457127e-05
3.40286740935567e-05
1.99514029710293e-06
-1.75414844063418e-06
-1.3209295287278e-05
9.20374471428937e-06
5.59986806983064e-07
4.27566932231255e-06
3.50068007772937e-06
5.59092404513796e-05
7.34477397539413e-05
5.80664968440877e-06
2.95956727995656e-05
-1.30387291123973e-05
2.34597089565296e-06
2.66194690827361e-05
-1.94569099518677e-05
2.61593334944737e-06
1.98866707493095e-05
-5.81587064909852e-06
-7.33106093124252e-06
3.93978092232748e-05
2.16522397789492e-05
4.47588429872129e-07
4.99155313366996e-05
-9.75258914815658e-06
3.75219027280465e-06
4.45169632832414e-05
-1.82497277028702e-05
2.64936342542323e-06
4.64159319397209e-05
-3.03510895807428e-05
-3.17138137063355e-06
3.6212386878656e-05
-2.60009464689561e-05
-5.30353775494997e-06
3.29680412763096e-05
-4.45337369140626e-06
3.93905741039591e-06
-1.38580841750483e-05
6.23392482879692e-06
8.7708753885294e-05
-1.74179571160088e-05
5.33861369924475e-06
9.12199012232076e-05
-2.88527884736667e-05
2.28608492937107e-06
3.35450458385952e-05
-2.49132666829408e-05
-8.71830527328714e-06
1.33205241234375e-05
-1.64324343698434e-05
6.11895394941274e-06
-8.99825151219575e-06
1.20485477609095e-05
0.000134267601732341
-1.59060193233466e-05
1.33191180198378e-05
4.23602558991054e-05
-2.59761731438801e-05
-1.22432268827e-06
1.26414500880187e-05
-2.18841198496919e-05
-3.35095276502107e-06
-2.22568063472078e-05
3.76689927920894e-06
-5.69991675360193e-06
1.48462826203534e-05
1.62351664047304e-05
4.88795242024307e-06
-0.000116417522143129
7.8542721155876e-06
1.8640501209103e-06
-1.17355790734104e-05
-5.26592001458964e-06
-1.27569751508048e-05
-5.33251234624453e-06
-3.08795470194968e-06
3.20379252722678e-09
-0.00015239017116562
1.73456165183128e-06
9.12397161389698e-05
-9.77530271051622e-05
1.1029781378138e-05
7.71893741681762e-06
6.96945764768014e-05
-0.000101614570629563
1.35558955340696e-05
8.7233935995665e-06
3.23012908224313e-05
2.4067387319419e-05
-4.79364146635547e-05
-1.96721073361594e-06
-4.3791914547745e-06
-6.45782919942427e-06
1.44088564614636e-06
5.63703152080168e-06
-3.11035767576383e-06
-8.37111145969504e-06
-5.48054362268667e-06
5.87275668624144e-06
-1.47271772794118e-05
1.1883889232779e-05
7.44622009856837e-06
-1.04346061525548e-05
3.23685419305693e-05
4.68189416922109e-05
-6.8550694481864e-06
5.36533641123242e-05
6.8701765391985e-05
2.71131332215554e-06
-5.7273801623826e-05
9.96375232229496e-05
-9.00155227647092e-06
8.21848118882972e-06
8.65168847562616e-05
1.20392573563063e-05
1.51407889673446e-05
7.50662177120659e-05
6.99802987774892e-07
1.71261144973242e-05
3.97793219936576e-05
1.50800599021205e-05
1.17787609800933e-05
7.21499857146701e-06
-5.43709371651528e-06
1.28108745505165e-05
3.21823251543879e-05
1.58078045914737e-05
5.81217839987191e-06
1.28895407131835e-05
4.28950165504184e-05
1.57196950863258e-06
9.98923760380844e-06
-7.50870662188443e-06
9.9326709760502e-07
-9.28225056478819e-08
-1.12037818293842e-05
8.37518930989997e-06
1.60244956660424e-05
3.84011676106165e-05
4.27472817469117e-06
7.41262866888441e-05
4.13690246631033e-05
5.92752813058617e-06
3.34752746288047e-05
-9.35953989599345e-06
6.67048711539162e-06
2.90918184164274e-05
-1.84293698342958e-05
-1.42079476552352e-06
2.55697631428818e-05
-2.10698423337118e-05
-3.79996434371128e-06
3.11305573487412e-05
3.07995390222004e-06
-6.66274428467236e-06
4.60305964045999e-05
9.34938430528413e-06
4.08890525204881e-06
5.49382465114744e-05
-7.25091629844694e-06
6.54132552228458e-06
4.8035321962041e-05
-1.58732144475359e-05
5.67324994659357e-06
5.52153730012822e-05
-2.64884926617441e-05
-3.36200464305725e-06
4.75416902778969e-05
-3.29797782089942e-05
-5.80305591839276e-06
3.19876010159106e-05
-1.69313691598665e-05
-9.43900420758144e-06
1.8500511618505e-05
-1.03492949302984e-05
9.9265118476827e-06
-1.43425851107573e-05
9.5821455198466e-06
0.000101209647591653
-2.49413043703278e-05
3.75979695982435e-06
4.17564545471417e-05
-2.75048710572823e-05
-7.92480571320809e-06
1.67455703793689e-05
-2.16378260711657e-05
-8.18107383917922e-06
7.12764163819925e-06
-1.52225159910751e-05
1.22297609829438e-05
-1.04271047268583e-05
1.18502627248757e-05
4.73498330897969e-05
-2.45450994941358e-05
8.18503189982765e-07
1.41315971346861e-05
-2.36926986557639e-05
-4.91821762969625e-06
6.51550666943074e-06
-1.82133169748054e-05
1.10301357794661e-05
4.64580778993296e-06
6.41422532068948e-06
-4.87082877179362e-06
3.89311121366502e-06
2.25224497791283e-06
4.27957251590527e-06
-0.000102916228115306
7.15067894815719e-06
5.86679389332401e-06
-0.000106165549456787
8.56629405256962e-06
-7.41718716489763e-06
1.66328907822901e-05
-7.43897049121862e-05
-2.93336819509159e-06
-3.16391679138068e-05
-7.26717939776736e-06
2.02434723729034e-05
-1.77194735386274e-05
4.77804575852248e-06
3.72773788832276e-06
7.065721537539e-05
-8.10222895480841e-05
1.42946796998499e-05
1.7345226805368e-05
1.04154042162454e-05
-4.22553822290796e-05
3.28642697051157e-05
5.73189250762505e-06
-4.39555572774528e-06
-5.23598003775041e-06
5.40705020931753e-07
2.29910936794334e-06
-4.78144109623368e-06
-7.08584713252876e-06
-4.36204241664597e-06
1.74007283503597e-06
-1.25815607611222e-05
7.05542910337813e-06
-1.47309793762262e-07
-7.83300169368087e-06
1.92128644421854e-05
1.96367975338732e-05
-2.46533335591466e-06
2.34427525353907e-05
3.66251051326117e-05
1.77882851590248e-06
3.67094674094096e-05
5.93215481402754e-05
6.31782277314442e-06
-6.72591711700108e-05
6.28813429359391e-05
5.79168039196916e-06
1.447526586046e-05
1.18354333245488e-05
2.1512500961271e-06
9.57708277126512e-06
8.0407805533624e-05
1.16727858547365e-05
1.41676427584457e-05
6.22212756339755e-05
2.34336667655265e-05
1.26868574429243e-05
7.18467626481775e-05
2.31135873633677e-06
1.44095550427015e-05
3.8610059080111e-05
2.70382451961237e-07
1.15845357008818e-06
-2.49667833679594e-05
2.44518439793183e-06
8.391138368794e-06
4.33822059142859e-06
-3.94238918158507e-06
1.27928813748558e-05
1.24637637574507e-05
2.48184733640697e-06
1.06716291870588e-05
1.70766785330795e-05
9.32422681612957e-06
1.23465659946852e-05
2.51660015223616e-05
4.63666470953858e-05
4.31432602116274e-06
1.66276689005582e-05
-5.02523106011583e-06
-2.93202096357081e-07
6.6414738453188e-06
-7.27931339206931e-06
4.81853652118265e-06
4.58267095236107e-06
-6.00128772211477e-06
1.46451269277591e-05
5.5696832473668e-05
3.83855185736468e-05
5.07094280270446e-06
2.99552842887733e-05
2.31228063884772e-05
6.42406430117676e-06
3.74307191862177e-05
-6.29060532023862e-06
9.18636402867903e-06
3.13777707168406e-05
-1.42905290895544e-05
3.34565026252916e-06
3.1692044666442e-05
-2.22240505038413e-05
-8.29306950502204e-06
3.03245868046464e-05
-1.53328055623498e-05
-7.17756512036197e-06
4.46784562076014e-05
5.80660564977641e-06
-3.88210371084427e-06
2.48333138900104e-05
-1.82797164234375e-06
9.28993569311852e-06
5.6832831279689e-05
-3.09501660225686e-06
9.85498021938399e-06
5.04009265010678e-05
-1.1591938684277e-05
9.56793747637803e-06
5.9476926431791e-05
-1.97761969063507e-05
9.81739685875097e-07
5.88171383202723e-05
-2.91635298615069e-05
-6.57735625458428e-06
3.18546455029114e-05
-2.2509673474403e-05
-1.15818607134666e-05
2.10272264829771e-05
-1.58010285028961e-05
-8.10397595179734e-06
9.03237352529951e-06
-1.24033362492574e-05
1.32034920361152e-05
-1.66808984822909e-05
4.84164247379044e-06
4.92479141946872e-05
-2.54241398288954e-05
-5.49582330260816e-06
1.87336615397802e-05
-2.31786354484981e-05
-9.10952826311387e-06
8.22756346672021e-06
-1.85464332037456e-05
-6.28550357405066e-06
2.11977673744347e-06
-1.3119716738473e-05
1.07096264669534e-05
-1.91073267798613e-05
8.19995883425215e-07
1.58481827264065e-05
-2.18876893381068e-05
-3.31470296122256e-06
5.385625004945e-06
-1.86135977638922e-05
-4.42157588474133e-06
1.37077583479697e-06
-1.48804022685716e-05
2.8620993383288e-06
2.4087943354541e-06
1.80355913263744e-06
-6.72545818222866e-06
3.63644644591107e-06
4.91318598577625e-06
-2.56854975228068e-06
-1.02194025859845e-05
-6.42705399843268e-06
6.07766267416977e-06
-8.40961245756453e-05
1.24541012047484e-05
5.05282269524444e-06
1.62680051457917e-05
-8.18754063262689e-07
7.0644632637722e-06
-6.37151263877036e-05
5.45678048806552e-06
1.02897854046784e-05
2.10548071260017e-05
-1.06164323889902e-05
-1.59501114719479e-05
-3.0711686723897e-05
3.48813654257605e-05
2.78286320868901e-06
1.10698756380296e-05
1.57703646139531e-05
9.25659524826548e-05
-0.000109887567281494
2.4628370271017e-05
-3.77575367581002e-06
-4.82722305100399e-06
1.94707445936046e-07
8.06277257890758e-07
-4.55843334858799e-06
-6.26527658397785e-06
-3.50717358535264e-06
-2.33498768659386e-07
-1.03387988565165e-05
2.94407726859141e-06
-3.03325437266365e-06
-7.14396909351805e-06
9.64028270108038e-06
5.69845045788058e-06
-3.53493877588932e-06
1.52278896445094e-05
1.85576604135461e-05
3.74223985591679e-07
2.29918179523316e-05
3.01686191134986e-05
7.9399354143413e-06
2.23154889403289e-06
6.79083429527597e-05
-9.40728636911478e-07
-9.02298466488836e-06
8.33902102651864e-06
2.22460091443159e-05
1.44638220203429e-05
1.93600809097664e-05
-9.0588577023667e-06
7.71229368772851e-06
1.5228162478741e-05
-1.52794035988939e-06
2.99590578674285e-06
-9.83560952793314e-06
-7.55308837906038e-06
8.95397135888684e-06
7.42976405546605e-05
9.84305376432743e-06
1.32181836519375e-05
5.97696842301534e-05
1.53157488726782e-05
2.56667927537886e-05
6.05154244561261e-05
3.09758552568561e-05
1.0069419712978e-05
6.75631868599313e-05
2.60529505035278e-06
1.11760534023975e-05
4.55153990421356e-05
-2.97715224355208e-06
4.52795550643895e-06
-7.01858432938417e-06
-1.15341465996777e-05
5.23865610019884e-06
-4.4023166823639e-06
1.6186949488656e-05
5.15615276008532e-06
3.79763527787381e-06
-3.01237709118768e-07
8.48778873495244e-06
2.19696310699276e-06
-2.45657594828585e-06
1.26839690522822e-05
1.64125274161655e-05
-4.71943189102899e-06
1.07557098490694e-05
1.84249379811175e-05
1.99547044082459e-05
8.74618543514267e-06
4.03572945718089e-05
2.53259299716171e-05
4.76790848503848e-06
2.14626181849367e-05
-3.17879332433253e-06
4.02177402977813e-06
1.21019661801902e-05
-5.32112847428755e-06
5.84952829815486e-07
6.91395919163982e-06
-6.84989849907106e-06
1.04012959036479e-05
2.32102981505986e-05
7.79087886446706e-06
9.3770432848907e-06
2.7387372891702e-05
2.4398807046449e-05
1.33965463763584e-06
2.63027302397484e-05
6.82619582822643e-06
9.34546605208562e-06
4.00644057386003e-05
-2.68921461334174e-06
1.02813193048147e-05
3.3857747485185e-05
-9.19691880787024e-06
8.10435877996097e-06
3.57363938615292e-05
-1.68712966296097e-05
-4.02743670148963e-06
3.33767411845808e-05
-2.02670237163734e-05
-5.7649184095427e-06
3.51691625643131e-05
-6.63595620465583e-06
-8.67968164066231e-06
3.1192578082394e-05
-3.45483589167736e-06
-4.50179369406782e-06
1.14767947885846e-05
-7.26666486015298e-06
1.40625359886045e-05
5.5663297775259e-05
7.28323606051579e-07
1.46020607437677e-05
5.10715634470709e-05
-5.55356294146892e-06
1.38996761998445e-05
5.9302615624767e-05
-1.21033819638472e-05
6.8845887877179e-06
6.66776172222577e-05
-2.13177731626492e-05
-5.69197303344914e-06
3.59998986055359e-05
-2.27751661015416e-05
-1.04144019688819e-05
2.15305947127571e-05
-1.80944729259825e-05
-1.13039600911922e-05
1.04836277135574e-05
-1.50578454584369e-05
-6.78510545322755e-06
2.57673011855495e-06
-1.15363980785906e-05
6.68681596914466e-06
-2.00020567707143e-05
-5.04603242414886e-06
2.06159526658887e-05
-2.14404064624086e-05
-7.94211197200472e-06
8.5961048408588e-06
-1.89197676615632e-05
-7.40764186682325e-06
1.6472123802431e-06
-1.50878063692791e-05
-4.89316795370895e-06
-5.62013829629603e-08
-1.08712369602626e-05
3.98478314434198e-07
-1.66622827119507e-05
-2.30561901833337e-06
3.2237956433344e-06
-1.57926200203502e-05
-4.28241246494291e-06
-5.52551092425951e-07
-1.4032914838053e-05
-3.46209209515395e-06
-9.79502531502664e-07
-1.23502278333875e-05
-6.38648353522305e-06
2.16369331192457e-06
7.24043334080838e-06
5.2485572233157e-06
4.78550037611334e-06
1.69189370905081e-05
-3.79158278303126e-06
2.99304564212847e-05
-7.57026868864086e-06
-7.732434214046e-06
4.58770884521536e-05
-6.91602581382707e-06
1.44520687545595e-05
7.73949020363776e-06
-0.000119123702440047
1.36139336393895e-05
-2.05342468522653e-05
2.47075350165805e-05
6.00736728660545e-05
-1.9871328793064e-05
-1.35018072832277e-05
-3.73169730402925e-05
1.5664848972897e-05
-3.48138352239873e-05
-2.68715417152282e-07
6.25044954559998e-06
2.62047521513758e-05
-5.75229746039585e-05
6.63264024300745e-05
6.90064397514358e-07
-2.69156567152155e-06
-4.63406828392639e-06
-3.32865493768062e-07
2.13766939243862e-07
-3.83650284840272e-06
-5.76292342243e-06
-3.23701667699823e-06
-1.1735527815255e-06
-8.11050548279131e-06
8.84297839519192e-07
-3.53090700828881e-06
-6.6519246370529e-06
3.70883399625475e-06
1.51528286417967e-08
-5.16950709357696e-06
8.32845081483742e-06
7.64746286721701e-06
-9.53198205800631e-07
6.61321091555425e-06
2.22233477131856e-05
1.70628012465858e-06
2.93390874250508e-05
4.19971434163982e-05
4.51203967788011e-06
-1.88366852107438e-05
1.864188137453e-05
7.59309515115632e-06
7.85375480098628e-05
-3.16825699648716e-05
1.59578058369016e-06
5.3105826942824e-05
4.31109938446156e-05
-2.16793340968247e-05
2.25186248583053e-05
4.97808213328182e-06
-4.24335779026354e-07
6.17128267563404e-06
2.06280077157314e-06
1.36781260494217e-06
7.33247643885615e-08
2.37388874001065e-05
3.69922485432235e-07
7.31902449827495e-07
1.0782543398694e-05
-9.65981248320991e-06
8.69241471120102e-07
-1.92806824916788e-05
-2.09978318391332e-05
8.36611317932163e-06
6.84854941507965e-05
7.51545174910626e-06
1.24294351321308e-05
5.93345209121973e-05
9.02483655322353e-06
1.2758636924718e-05
5.94222787300698e-05
8.17821613892825e-06
1.62166201531625e-05
7.24451595084416e-06
-6.08331806796655e-06
8.6975374346656e-06
6.02245886537827e-05
3.79721561221115e-06
9.6086959740928e-06
4.8341349740495e-05
-1.34156180647413e-06
5.39329448420375e-06
1.33512296628114e-05
-1.60562937244824e-05
2.31710350990899e-06
4.76534375750223e-06
-1.2263199806942e-05
6.57809722319495e-06
2.659126161464e-05
2.11028563810227e-05
2.07494393001376e-06
5.70328330309791e-06
7.8731958215061e-07
5.87184511059404e-06
2.63254476987758e-07
-2.17591517842641e-07
8.69365680160594e-06
1.07402848788797e-05
-4.89303440454671e-06
1.09299427720101e-05
1.36567123230422e-05
-4.79851479209887e-07
1.06647044159986e-05
4.24608408070203e-05
1.65635001768895e-05
8.29948955092253e-06
1.08029251435192e-05
1.41763854364199e-05
6.09743803857799e-06
2.55482486296111e-05
-8.37603366714026e-07
5.91837051704326e-06
1.71104107507856e-05
-3.82429176465604e-06
1.16674723569026e-06
1.1334425688406e-05
-2.80398387883454e-06
1.98959319483577e-06
9.77633451414911e-06
5.67033739995516e-07
2.84275259528899e-06
2.43068513944317e-05
2.26372900658825e-06
1.2555432333906e-06
2.89097742470113e-05
1.18565374104952e-05
4.6223084504782e-07
1.29327961852603e-05
-2.74216261050007e-06
1.29166652264696e-05
4.09001110154997e-05
3.10165934296921e-07
1.32404136438269e-05
3.62524271947722e-05
-3.72224446673146e-06
1.13310022964555e-05
3.84511856816291e-05
-9.34303719303078e-06
3.56388245327692e-06
3.66379258888153e-05
-1.68117740900675e-05
-7.28579578003646e-06
2.93185303879798e-05
-1.28225696661826e-05
-9.1607612748701e-06
3.19850538544215e-05
-8.68208974084371e-06
-8.42019401342069e-06
1.37414832150237e-05
-8.6032924121093e-06
-5.01990458959197e-06
3.2246301926902e-06
-8.54765064393154e-06
1.74423947937708e-05
5.16624827556172e-05
3.7281505163413e-06
1.86758790872016e-05
5.029384571182e-05
1.45223014886205e-07
1.88128503902953e-05
5.64749456946657e-05
-4.69922391520609e-06
1.38985127335809e-05
6.7555811299275e-05
-9.81570423375991e-06
-1.34004203531356e-06
4.28540895721663e-05
-2.01451068445295e-05
-1.12975944259282e-05
2.24403567531115e-05
-1.74333686652851e-05
-1.12152347989698e-05
1.12083309238127e-05
-1.5546056535956e-05
-8.68124948617028e-06
1.90811027594441e-06
-1.31156065597365e-05
-5.42669040737047e-06
3.97480763651438e-08
-1.01583201215132e-05
-4.43826595275854e-06
-1.78174397050942e-05
-7.18522729046884e-06
8.49177265865241e-06
-1.64564641361633e-05
-7.26246736535922e-06
-2.47378352846692e-08
-1.42677656140497e-05
-5.29894178066897e-06
-7.36830838669512e-07
-1.25703297217194e-05
-4.1448598394113e-06
-1.00423072830948e-06
-8.74538871406643e-06
-2.17522523348216e-06
-9.9878844170684e-06
-3.54340715701641e-06
-3.2277627300984e-06
-1.10703116153431e-05
-4.2429728028843e-06
-2.40121526534925e-06
-1.09311197458503e-05
-2.91211921878426e-06
-2.14886749980278e-06
-1.02899429107115e-05
-1.06119168997722e-06
1.2356310845803e-05
5.16564131377891e-06
7.42915875368344e-06
-2.06102695927808e-05
-6.4667801283895e-06
1.92374940815937e-05
1.37043397170838e-05
-9.19165551301131e-06
-3.1954283333567e-05
-8.31030816185035e-05
-2.50615423542212e-05
5.87023326223198e-05
9.21201472105724e-06
8.51381891448485e-05
4.22039682190344e-08
0.000109974964568427
2.4821337320239e-06
9.27228714326048e-06
-3.69441355789183e-06
-1.90796839663987e-05
1.65701913259281e-05
-4.44860466599042e-05
-3.29268325449525e-06
-6.37715313217777e-06
2.7028522368042e-05
-3.69089059965357e-06
-1.24390081267471e-05
-3.95810871777613e-06
-1.32804746886277e-06
-4.86815684091537e-06
-7.10711495362221e-07
-1.94270250257511e-07
-2.77798905235294e-06
-5.49832637992831e-06
-3.21324123620106e-06
-1.5126312808794e-06
-6.37365263604813e-06
1.05018605041041e-07
-3.21271530798278e-06
-6.18613892427857e-06
1.0413351404433e-06
-1.90404189055303e-06
-5.77405376083017e-06
3.25202054561215e-06
2.85475112866771e-06
-3.62881024530133e-06
7.53499537670381e-06
1.33860333688456e-05
3.49123216672084e-07
1.61556127981675e-05
1.94867629664505e-05
8.06104171036833e-06
-7.76325511858304e-06
1.82623327685432e-05
1.26548408115898e-05
-2.30444153062422e-05
7.7370808658908e-06
-8.78213851800779e-06
-2.88307172850843e-05
3.96971092461102e-05
1.77579147289269e-05
-3.00416615149941e-06
4.05715431609494e-05
2.79070674232677e-05
-1.23686146826801e-05
4.19249381779412e-05
1.28016549694415e-05
1.09030232886942e-05
2.04290777854944e-05
-1.25762888450711e-05
-6.79065077769624e-06
6.43260776033751e-06
7.09654446512922e-07
-2.09085356720654e-06
1.24662134986725e-05
-1.71191575008483e-06
-8.38393595405301e-06
1.71281939158602e-06
-1.31520972364846e-05
9.9854419832501e-06
2.08840103728455e-06
2.93701566659805e-05
6.4644182822208e-07
7.21292978876524e-06
2.30669575220824e-05
-6.69798786055609e-06
8.00800954415021e-08
8.28980978913266e-06
-2.45517449432429e-05
2.7120840118134e-07
-1.22422176671215e-05
-1.58546200007738e-05
9.75831171950871e-06
6.11365421915583e-05
6.28817857031055e-06
1.12340197825747e-05
5.83769898648224e-05
6.84766172908662e-06
7.42923972711534e-06
6.26799322479208e-05
3.73123746172479e-06
4.44910433981564e-06
2.63080371684824e-05
-1.30173114139104e-05
3.49691115767184e-06
1.74814101469301e-06
-1.25135208192066e-05
8.02587909866286e-06
4.89038756015713e-05
5.36977654870709e-06
8.59950131269393e-06
4.65190871744888e-05
2.89182259524801e-06
6.07567398978926e-06
2.54177360650836e-05
-1.0790082952372e-05
4.03800948786304e-06
1.42817393953304e-05
-1.86807594096547e-05
4.4143163532759e-06
2.26429539649248e-05
-2.06450412175148e-06
1.04287286987601e-05
2.19808510488913e-05
1.31484130321302e-05
1.30517006317149e-06
9.49512541467876e-06
1.00042240509491e-06
3.45025119720131e-06
2.25821560708352e-06
1.2604741685847e-06
5.94210307987756e-06
5.89141435219441e-06
-1.44081305790429e-07