/*--------------------------------*- C++ -*----------------------------------*\
  =========                 |
  \\      /  F ield         | OpenFOAM: The Open Source CFD Toolbox
   \\    /   O peration     | Website:  https://openfoam.org
    \\  /    A nd           | Version:  12
     \\/     M anipulation  |
\*---------------------------------------------------------------------------*/
/*   Windows 32 and 64 bit porting by blueCAPE: http://www.bluecape.com.pt   *\
|  Based on Windows porting (2.0.x v4) by Symscape: http://www.symscape.com   |
\*---------------------------------------------------------------------------*/
FoamFile
{
    format      ascii;
    class       volVectorField;
    location    "600";
    object      U;
}
// * * * * * * * * * * * * * * * * * * * * * * * * * * * * * * * * * * * * * //

dimensions      [0 1 -1 0 0 0 0];

internalField   nonuniform List<vector> 
10107
(
(-0.0103478604332147 -0.0641689334803807 -0.00142998469581731)
(0.00322525799255818 -0.101109704159468 0.00442886401167925)
(-0.00975742555587208 -0.0445064379609684 -0.0016278428684224)
(-0.0154266356321177 -0.0216196982640403 0.00640223270422766)
(4.10433951159796e-05 -0.086744599675237 0.00191059277970263)
(-0.000261201154584806 -0.0700617704736614 -0.00383708231869214)
(0.00691055668061744 -0.0496658977815201 0.00345253228299341)
(0.001279957887157 -0.0823222587037283 -0.00223083557084776)
(-0.0150399541451409 -0.00781868681007414 -0.0107560282831194)
(-0.0235262043737694 0.000242103320884451 -0.0116162192337883)
(-0.00300229808889344 -0.087278818106447 0.0065414912728541)
(-0.00358762817361557 -0.0345895643402048 0.00411787513827173)
(-0.00122314035440116 -0.0366323601604877 0.00255697147336576)
(-0.00169859782082366 -0.0236709534072595 0.0132958863710092)
(0.00532736700744389 -0.0319585248296946 0.00309740347133549)
(0.00118260978298721 -0.0270085393571142 0.00373599430993675)
(0.00420834305445829 -0.0420748678852287 -0.00216199277691493)
(-0.00122386669928617 -0.0169096689962814 0.0154126359265198)
(0.0017440688442699 -0.0907450035833673 -0.00127391827345886)
(0.00347586540564348 -0.0693676601549673 -0.000765405438736725)
(-0.0192134874337454 -0.0138775555881262 -0.00662302176981114)
(-0.021039261547912 -0.0125634521455406 -0.0076301166071072)
(-0.0218838544361945 0.00372817295336286 -0.0089020266333625)
(-0.0222067109037809 -0.00198394368154763 -0.00810393562466421)
(-0.0214148973040546 0.00118038638542847 -0.00942709393813483)
(-0.00559815939102991 -0.0432358796207431 0.00214482353719511)
(-0.00127927945823395 -0.0429488052973362 0.00929094971533693)
(-0.00165602796199895 -0.031364677389701 0.0120937959535422)
(-0.00474493155639567 -0.0384751885941552 0.00702731902057909)
(0.000207783814258418 -0.0351724639262986 0.000452591522235158)
(-0.00212957610155264 -0.0217811474729571 0.00508048204230378)
(-0.00202341800833221 -0.0203307372857324 0.0127103055831099)
(-0.00846767589206013 -0.0225590014492341 0.00909126170167871)
(-0.00672539449785223 -0.0136244409582423 0.0166412485753188)
(5.45113672474368e-05 -0.0428852468295607 0.000394885101737741)
(0.00533130122215029 -0.070730319008487 0.00138928239667466)
(0.000867902847561103 -0.0454814837180268 0.00458292864551355)
(-0.00522654822047707 -0.028599999012199 0.00238947285151964)
(0.0037800577127328 -0.0600416714927497 -0.00476886562872407)
(-0.00326226022845109 -0.00685583412430412 0.00671165699843876)
(-0.00217353747767608 -0.0166844550125124 0.0125590868554638)
(-0.00262917587870791 -0.0105980360110514 0.0181033288439666)
(0.000468993362802827 -0.0968569520519476 -0.000889689078675535)
(-0.00173172763245598 -0.0632633070076103 0.00177799981184393)
(-0.00470513098300575 -0.032991016892433 0.00877505256819043)
(-0.00474934823368334 -0.0545743880443487 -0.0001622077855307)
(-0.00236521638084797 -0.0635817533932776 -0.000345082788454169)
(-0.00315344084891451 -0.060906083667031 -0.000556197689844402)
(-0.0196352045363099 -0.0195177307884437 -0.00478493198587296)
(-0.00154751614598136 -0.0630278568854225 -0.00207637474507499)
(-0.0216254445690654 -0.00932300202403276 -0.00552065762466185)
(0.00164043008763865 -0.0425288944319994 -0.000550543446022447)
(-0.00158727358892174 -0.0410485475806652 0.00306250285248936)
(-0.00019535320795374 -0.0394773706363836 0.00393198968890305)
(-0.000960105421699425 -0.0388659473747842 0.00237591403197827)
(-0.00196161830666304 -0.035485341828714 0.00719149290740445)
(0.0021548403394345 -0.0449636851768812 0.00703881120299682)
(0.00140956951706663 -0.0657704784137773 0.000663250677031732)
(-0.00300266680836904 0.0104523084448262 0.00409455362869177)
(0.000776415789081203 -0.0265239462743408 0.00607158594431357)
(0.00128350784259564 -0.0264985835852058 0.00889439331772526)
(-0.00833812773256773 -0.030750291209349 0.0082316879200933)
(0.00258698461013633 -0.0547144235804558 -0.000834708508838543)
(0.0052907288936146 -0.0249151591694447 0.00265539814622602)
(-0.00299148295460343 -0.0443048329545982 0.00540789650610003)
(-0.00499153847755206 -0.0434123059002163 -0.00071548439110297)
(0.00203184772468544 -0.0670629174286182 -0.00384415158460689)
(-0.00586202353880873 0.014699076939952 0.00343344234031884)
(-0.00512160796755825 -0.00179059357946418 0.00697292617787765)
(-0.00259607076957019 -0.0100755925483355 0.00669800583312324)
(-0.00299758314395444 -0.0256300615566967 0.00749134608654766)
(-0.00425194745289801 -0.0123745273576677 0.0117219405070207)
(0.00189775340010255 -0.0213291665265063 0.0077864344395451)
(0.000157892344973297 -0.101359665336341 -0.000576669221584865)
(-0.0014596636990589 -0.0640308356335494 0.000871001201821904)
(-0.00556216778583459 -0.046219141357863 0.00202694440946184)
(-0.00864815957159589 -0.0393439082835659 0.00249041172991908)
(-0.00104191540324011 -0.0537014918116859 -0.000299632673125125)
(-0.00486054048716052 -0.0628377877738419 -0.00212189807064675)
(-0.00416888020022113 -0.059312686730679 -0.00143256898535826)
(0.00168894357143212 -0.0666139687015272 0.00116589806191362)
(0.0037407974387141 -0.0521960851844784 0.00552660634509745)
(-0.000795315502612038 -0.0385016811988108 0.00225276310288392)
(-0.000640336944556243 -0.0394863469355087 0.000755160972807293)
(-0.000975888871739594 -0.0068254099804012 0.00359506736526181)
(-0.000625248268472518 -0.0377118706378485 0.00286159577473244)
(0.00132927552837791 -0.037046665417243 0.00732683679635242)
(0.00141155344318795 -0.0284713492648784 0.00506318494416303)
(-0.00247354554631766 0.0211730978056256 -0.00219140443368667)
(0.00238575571694342 -0.0216868360487247 -0.00214629287344372)
(-0.00593842286932091 0.0155723310306473 0.00551108631323042)
(-0.0276788983581352 -0.00117750636874217 -0.0080442147582611)
(-0.00514534299870249 -0.0108641233847276 0.00634147816324144)
(0.00121610796550193 -0.050514661311696 -0.00114587558263532)
(-0.00779188766256583 0.00637444158148348 -0.000695014620173668)
(-0.00153992028794973 -0.0529398525559039 -0.00220411374590254)
(-0.00728495025024736 0.0289602028793514 -0.000511176891264072)
(-0.00815583251668181 0.0119091073257952 0.00305967883339072)
(-0.00523152467134542 -0.00486473168153706 4.10795735396386e-05)
(-0.00487948468351902 -0.00933912868968066 0.004560984638167)
(-0.00653114841787683 -0.00501320043975405 0.00511998287665784)
(-0.00822251695438825 0.00263763225074686 0.00178536189874433)
(-0.00286555676996662 -0.0346089085544404 0.00349733284723716)
(-0.00477347181664364 -0.0212499666354276 0.00408114067769334)
(-0.0022161583794585 -0.0261784160065075 0.00194127135280195)
(-0.008654120263215 -0.00356941005569708 0.00340164994783464)
(0.000575776853199543 -0.103047420922015 -0.00047459638192753)
(-0.000656342177839071 -0.0654496087345451 0.000214532298427195)
(-0.00614556794815747 -0.0485053262406181 -0.000124470504796295)
(-0.00199445731403674 -0.0534697743254366 -0.0042409619753917)
(-0.000647327859827694 -0.0307163035136413 0.00494408270404091)
(-6.97169775617343e-05 -0.0407067873490729 0.0030551368659566)
(-0.0015577398866774 -0.0355864431705723 0.0012655939803603)
(6.24186295300923e-05 -0.0163385891272671 0.000903667611233045)
(-0.000593837784297536 0.000737161723991782 -0.00325697127322976)
(0.00248172592332028 -0.038448087967068 -0.00332883141883942)
(-0.00241440303781596 0.0153113170840202 0.00761603755923226)
(-0.0116280764128977 0.0197272606964662 0.00500707181013281)
(-0.00488882135847488 0.0357995052188876 0.00430688677086919)
(0.00640590408794104 0.00494057977755014 -0.00661055702391329)
(0.00154020287404913 0.00660446279199675 -0.002222382406504)
(-0.0139736830182821 -0.00352059368281826 -0.00671585001870776)
(-0.0203833218244415 -0.00232444571438447 -0.0038202769227985)
(-0.0191048006006426 -0.00450261939680794 -0.00998876465259525)
(-0.0164054941410772 -0.00189413503498419 0.00538321923647639)
(-0.00668682999717064 0.0126603408638619 0.00145994374743176)
(-0.00292458077305758 0.0264513667443707 0.0030899700396509)
(-0.00634480228579263 0.0247778187389166 0.000690482370233132)
(-0.00101034713273513 0.00776269334264613 -0.00204365220016309)
(-0.00687536907319044 0.000910186268090059 0.00292693109953128)
(-0.00854575800654659 -0.00107229145917596 0.000665602868844104)
(-0.00575817631481644 -0.000228275751303334 -0.000629212549014581)
(-0.00375948395462571 -0.0159716399816036 0.00190780781958362)
(-0.00707430238793713 -0.00972644694393989 0.000469606531618783)
(-0.0119060692565836 -0.000887881652820815 0.000565117297677375)
(-0.017301892720553 0.00351682081167429 0.00579625365978906)
(-0.00235293797787401 -0.0420936666125315 0.00023639835044122)
(-0.00424666225439282 -0.0289008335391689 -0.000349999421446041)
(-0.00475900566790078 -0.0324360485961339 -0.00169733003136308)
(-0.0122860854609057 -0.0186473937811432 -0.00301622012842022)
(-0.0211604398800196 -0.00313248357634707 -0.00504587906920264)
(0.00123089905693635 -0.0635058126632296 -0.000146107131915778)
(-0.00588589833202503 -0.0482679692349834 -0.00128809309446941)
(-0.00351579431329284 -0.0552020570100672 -0.00567334167634434)
(-0.0153057164597698 -0.00853014116522233 -0.00989261465128352)
(-0.0135012929777739 0.0427983353020068 0.00763905323544031)
(-0.00849050209057021 0.025579483979612 0.0129558036028111)
(0.00065490513139592 -0.0390810688052887 -0.00168405894045901)
(0.00075807468657604 -0.0151918250871702 -0.00310751664075411)
(-0.00543560128211676 0.0459189518218776 0.00454529931033205)
(0.0102419413255943 -0.0124944424778351 -0.0085566138108781)
(0.00645666153422228 -0.00373652496834105 -0.00510273271534364)
(-0.0119958525257208 0.0213412315260585 0.00440053009465105)
(0.00143808517976144 -0.036249891553293 -0.00519446805808904)
(0.00383932750070513 -0.000544814472341386 0.000992769356993051)
(0.00108001631341308 0.0043219502348816 0.0011030105068847)
(-0.0141260016094101 -0.00215903662049627 -0.00448745418823708)
(-0.0119765189743931 -0.00432901497749581 -8.84371945647825e-05)
(-0.0176817758190355 -0.00297630332311042 -0.00606274071820713)
(-0.0115889044238015 -0.00745457459949534 0.00297749737551835)
(-0.0107122692384166 0.00313297496320387 0.00227136076876448)
(-0.00571740160147553 -0.00311010542998713 -0.00244441169042353)
(0.000905772992801325 -0.0315086605950012 -0.00477826626508694)
(-0.000748318839338076 0.0168257610610098 -7.15722126981219e-06)
(-0.00129484718754218 0.0087261180152917 0.0019239235501962)
(-0.00385185844209624 0.0148744556129168 0.00129501368369677)
(-0.00528921408453995 0.0133800209217601 0.00136789604876265)
(-0.000190844049912662 -0.00196500560356035 0.00300437846181901)
(-0.0043562021219429 -0.0059681575251138 0.00142683735811076)
(-0.00836712307661701 -0.00196017095173945 -0.000161458817823578)
(-0.0104678656031319 0.00379742660010816 0.000256133103198401)
(-0.0100020357268736 7.92441680905788e-05 0.0033578076691209)
(-0.0027513431708173 -0.0215794862045277 -0.000685358707586609)
(-0.00571853903502271 -0.0147602631850299 -0.0024771915272807)
(-0.0107514413484939 -0.0102291432769725 -0.00223088434882776)
(-0.0176011608505384 -0.0027743510893726 0.0027292721342116)
(-0.0152169380930014 -0.00877763368838561 0.00407895656852715)
(-0.0031437477532913 -0.0334653085397167 -0.00301074076425456)
(-0.00536325763627143 -0.0363750844860864 -0.00365127884552061)
(-0.010888158719667 -0.0304363083857436 -0.0058502618178685)
(-0.0187338312218832 -0.00556578958200698 -0.00590044589450056)
(-0.0185597911117397 -0.00326771702761559 0.000312347834053639)
(-0.00468616236420274 -0.0447450453034704 -0.00161380739734205)
(-0.00322854719411446 -0.0549403974526675 -0.00591036501465078)
(-0.0127728798721984 -0.0103107822600393 -0.00882915578493728)
(-0.0168585506225382 -0.00119942003866299 -0.00503572096748027)
(-0.0127455453907065 0.0363567549568241 0.00536908741259939)
(0.00196544012535287 -0.00725617547131074 -0.00306275391349934)
(0.0046218589808079 -0.0204274057757711 -0.00450047203919476)
(-0.00307211924028657 0.0475839134220168 -0.00314665991107468)
(0.00116363146513973 -0.039306832096316 -0.00525077863713872)
(0.000693098640054898 0.0288967644848169 -0.00600579197227221)
(-0.00648136141007112 0.0287311478627914 -0.00140849936298216)
(-0.0117312138675457 -0.00224127073111144 -0.00250728851362963)
(0.00255733948152711 -0.0326201266753942 -0.00854468141758487)
(0.00388073520022921 -0.0165755632725585 -0.00376462787361012)
(0.00784034629188114 0.0133719144201368 0.000441660490065087)
(-0.0119310513861275 -0.00115790445523466 -0.00334759417353099)
(-0.0137867831952452 -0.00200738890255973 -6.78046526332555e-05)
(-0.0166256183557233 -0.00274546232138827 -0.00325123298380011)
(-0.00806497194686716 -0.00559478249177201 0.00425635961304551)
(0.00259982223375717 -0.0145640742377645 0.00205367714443894)
(-0.0064474605477202 -0.00799719094222149 -0.00198625735311727)
(4.44576550448772e-05 -0.000886637094208657 0.00568204995351874)
(0.00320029745342236 -0.0352548562260425 -0.0106814529414025)
(0.00057470238661384 -0.0351662685503307 -0.00468367591633161)
(0.000947601431434729 -0.00115524164391202 -0.00328457648932669)
(-0.000300656491573225 0.0128417529507649 -0.000906563566215321)
(-0.00157329754778562 0.0059394947355886 0.00161530947685208)
(0.00202093156374036 0.0135745528350836 0.00129878523580728)
(-0.00171218930186733 0.00551357351480605 0.000116612487278882)
(-0.00293442421450799 0.0119755261599417 0.00285755635137454)
(-0.00332595101946372 0.00480297014201087 0.00383319885352295)
(-0.000491723530608803 -0.000891221609573119 0.00296603759713951)
(-0.00247457526925405 -0.0121223435672623 -0.0011827618151211)
(-0.00550493134387301 -0.00490983143831246 -0.00190390507980098)
(-0.009423113682029 0.000734574445501744 -0.000258831319673693)
(-0.0100342722662269 -0.00167177484195485 0.00445774123230725)
(-0.00798955950619622 -0.011508365349226 0.00399221596974227)
(-0.00150837448692567 -0.0288083194357242 -0.00405208481311055)
(-0.00400657953079834 -0.0185149414426846 -0.00479198080906052)
(-0.00824414909761983 -0.0177532240907988 -0.00455114922774055)
(-0.0152615755352976 -0.00966142658625167 -0.000721221724011724)
(-0.0164451444631388 -0.00567131571128935 0.00339118451824621)
(-0.0157577702558572 -0.00502216171999872 0.0045577138634901)
(-0.00439647568157596 -0.0369497883366164 -0.00501606257837567)
(-0.00825195389950079 -0.0374462051276695 -0.00694112973457122)
(-0.0152247649920903 -0.00900449977258671 -0.00605485740311058)
(-0.0181364181249721 -0.00165476265143906 -0.000233541253653946)
(-0.0172283794844112 -0.00217815067493712 0.000453967884284898)
(-0.00190930672765593 -0.05279246172774 -0.00547241580338795)
(-0.00956980449509017 -0.0117497702149969 -0.00774778511463737)
(-0.0145625008644009 0.000538175178717758 -0.00441527909450929)
(-0.0150804563119911 -0.00109255753283733 -0.00226693263477945)
(-0.0165384848803551 0.0151591598854167 -0.00553615153327443)
(-0.00611746972785446 0.0417392514379755 -0.0074500176972076)
(0.00360743403681402 0.0344608771748148 -0.00925876738177836)
(5.92750663852454e-05 -0.0409053807232304 -0.00308194773803888)
(0.00203361300742443 -0.0333730677228849 -0.00317389316151026)
(0.00272680410258261 -0.0341046429511173 -0.00516617416701527)
(0.00763154086123814 -0.0122301056174786 -0.00393596468059322)
(-0.0069845333585737 0.0125937470601636 0.00280283217414397)
(-0.00586622665714311 0.0102576466460633 -0.00530038808828836)
(0.00516271307008503 -0.0131819535607798 -0.00482454033083472)
(-0.00627662793479047 0.0462923655849214 0.000610013812609848)
(-0.0107237577124832 -0.000868756537209512 -0.00340955155557938)
(-0.0121197728912555 -0.000782620803391754 -0.00123815526856848)
(-0.0133587414534137 -0.0015861061477421 -0.00268642063045707)
(-0.0113422249961783 -0.00195976201310445 0.0017710747426045)
(-0.00393771627288804 -0.00659863918391117 0.00211003488019358)
(-0.0015818737417885 -0.00698576429535279 -0.000705454186713287)
(-0.0060880825911509 -0.000924751840759713 0.00219000700737843)
(-0.00688888174857889 0.00598282334995501 0.0030144823934681)
(-0.00284111630697225 0.00992800361285715 -0.00579001750667008)
(0.00313372614911341 -0.0400103356628559 -0.0102552287410155)
(0.00423988684173764 -0.0130406778255048 -0.00837522104440792)
(0.00121104593369197 -0.0376739985168269 -0.00472438167810514)
(-0.000504925668126224 -0.00551665617555007 -0.00264437088262614)
(-0.00726690503166496 0.0297342567272288 0.000236345025030273)
(0.000757337430322625 0.00754426932249726 -0.00253862383349329)
(0.000439638654138459 0.00655778585492498 0.00128667266156958)
(-0.00204142991971444 0.00847175641527368 0.000830522160921202)
(-0.000556894685158439 0.0112780565389282 0.00207714362987878)
(-0.000517787230025202 -0.00258306155940608 -0.00242520710957744)
(-0.000171357169984066 0.00597016248698549 0.000251017425524629)
(-0.0036078910281479 0.00898211480577141 0.00423957716098427)
(0.00650041154641515 -0.00543834052486226 0.00313490231526285)
(-0.00285443271913555 -0.00383048702787221 0.00226778464594862)
(-0.00119853685832353 -0.0181389229576995 -0.00426186734096662)
(-0.00282711166640865 -0.00876752348954896 -0.00425879492128267)
(-0.00675357013521588 -0.00409722819090397 -0.00225278119074331)
(-0.00969204031062585 -0.000984211755717926 0.00379117814311781)
(-0.0074015355343965 -0.00803736041622625 0.00530906802859696)
(-0.0124495516538681 -0.0061876881150926 0.00315619454082241)
(-0.000360425870651183 -0.0340837196348354 -0.00739544912515437)
(-0.00159210548642797 -0.0231941678351683 -0.00732651670524698)
(-0.00552978174768202 -0.0222491221863162 -0.0066479014263015)
(-0.0111595797639541 -0.0165824796129616 -0.00380051967028579)
(-0.0145537055031926 -0.00393537540056724 0.00119152889345926)
(-0.0161044320543192 -0.00308019954932466 0.00419366533439078)
(-0.0156512726628862 -0.00238505271601165 0.00245582384472361)
(-0.00524097467692549 -0.0408756190916542 -0.00749896803602435)
(-0.0112315843845031 -0.0121238541904397 -0.00613055752496302)
(-0.015537880128068 -0.000235259009360762 -0.00132340184258763)
(-0.0156890712621236 -0.00110309114014096 0.000780843678120861)
(-0.0136637665143718 -0.00120115357304444 -0.000632685777489531)
(-0.00517294191316915 -0.0150254791364716 -0.00671206296917622)
(-0.0108333459016196 0.00177248243745375 -0.00391406977281174)
(-0.0126151693713287 0.00126496436168029 -0.00199056751406664)
(-0.0120995321417193 -0.000400640208766102 -0.00154985744998228)
(-0.00904445491190211 0.0328672382750056 -0.00155340405404773)
(0.0024409821891662 -0.0181840764555724 -0.00318685494244969)
(0.000540939024623279 -0.0361630067830565 -0.002728188821831)
(0.000821322389652631 -0.0333414908006768 0.000965704814116512)
(-0.00718423485979269 0.0256647823637314 -0.00176647153710029)
(0.00423611079368525 -0.0193844324514682 -0.00116786772030058)
(-0.000552809217442978 0.0354455157027289 -0.000516113910546668)
(-0.00447431446836869 -0.00518157214677155 0.000621916663445239)
(-0.0183440576469072 0.0311473516200059 0.00729670507761606)
(-0.00294176465225589 0.0312710542296846 -0.00402877998071276)
(0.0013406842907675 -0.0163680263982199 -0.00342957603601689)
(-0.00972129989311644 -0.00070344826449234 -0.00329473922227998)
(-0.0107078725115213 -0.000542430140198692 -0.00176540063925644)
(-0.0112600971205452 -0.000735418915501508 -0.00242561039053955)
(-0.0108342602524255 -0.000688525042932658 0.000153473280726893)
(-0.00808292698374649 -0.00237292111680901 0.00143408631488381)
(-0.00509659059328968 -0.00420496209992193 -0.000540932333793764)
(-0.00230280409523763 -0.00142679579220891 0.00283178834979207)
(-0.00692938929027867 0.000552732961983231 -0.00160801691826357)
(-9.60684306655539e-05 0.0245545756495639 -0.00635684123343502)
(-0.014637873563396 0.0167603354198663 0.003289236558769)
(-0.00156390391433605 0.00394960219621945 -0.00544296555718231)
(-0.00790574722295993 0.0192045766617844 -0.00495114224383253)
(0.00307827333714845 -0.0407668923835705 -0.00938568292114499)
(0.00266055249432436 -0.0211823410187551 -0.00897591484062878)
(0.00239389615089356 -0.0107141337059115 -0.00384371492456033)
(0.00162673395621977 -0.0383682561711608 -0.00470144798767005)
(0.000130598653028764 -0.0157756014045826 -0.00326270377668225)
(-0.00723901365080674 0.0242379741964822 0.000769482323804342)
(-0.00827740235794912 0.0205578869219961 -0.000327672204235719)
(0.00107302593279028 0.00303212217137406 -0.00377180260624391)
(0.00199521066044564 0.0075597166577444 -0.000397686148945602)
(-0.00169421176806768 0.00379812069439379 0.000228088191453901)
(-0.000440181722623449 0.00687262975785372 0.00147958912423348)
(0.00239340717765266 -0.00142319877079988 0.00218784603968233)
(7.29614660597555e-05 -0.00873559185119862 -0.00472150898009897)
(0.00111465166920199 0.00114774746878105 -0.00283787604671023)
(3.50989087220049e-05 0.00616428212496831 0.00154571770970802)
(-0.000810417761213894 0.00353627104625305 0.00368957682833994)
(0.000270341947521123 0.000959917034757906 0.00274558809746573)
(-0.00955564703499712 -0.00461663002292489 -0.00011703760804718)
(-0.000237830904120702 -0.0231836115613819 -0.00742550050012014)
(-0.000644453806380841 -0.0136054530140046 -0.0070483950189009)
(-0.00347984500194707 -0.00886671130665318 -0.00498233912495952)
(-0.0071725017188622 -0.00359923260743891 0.000945780215996217)
(-0.00847097571771356 -0.00271051192614018 0.00463081555898402)
(-0.0115456638083067 -0.00518119966973995 0.00430776835537562)
(-0.0129070933085438 -0.00332889941775518 0.00173894675994583)
(0.00036183557600305 -0.0363795519056854 -0.00972032812527888)
(0.000787577872994695 -0.0273082198047373 -0.00987396059552114)
(-0.00277408954168378 -0.0252272388339644 -0.00873885776571043)
(-0.00691316227152873 -0.0221258297338428 -0.00649299031230716)
(-0.0109724922099263 -0.00546389459938389 -0.00132842972091806)
(-0.0138816160427625 -0.000803302565529823 0.00221390891794431)
(-0.0142847130538877 -0.00169758845746916 0.00289581855940418)
(-0.0127447822258354 -0.00103048774449633 0.000650467138428245)
(-0.00646551138578965 -0.0158302699092433 -0.00643602748087649)
(-0.0117845310702093 0.000604891286896663 -0.00218607988958487)
(-0.0130168677304162 0.000986007236079608 5.86565120515566e-05)
(-0.0124276568993275 -0.000191442013566202 0.00031613813668334)
(-0.0116536875851836 -0.000429057995383355 -0.00123623264154462)
(-0.00583292634322605 0.00099111573155349 -0.00334860636872573)
(-0.00895041533152532 0.00342067082579469 -0.00186429441862655)
(-0.0100686623174748 0.00126859279679378 -0.000963350087200722)
(-0.0097109051196838 9.22381238753644e-05 -0.00124476344877289)
(-0.00129953213709428 -0.0124195977817406 -0.00274584567761531)
(-0.00215960658291304 0.0112984670778847 -0.00447519767116435)
(0.00371494869302231 -0.0225757033067419 0.000827450584428481)
(-0.004263249798135 0.0388942663386882 0.00204177964172655)
(-0.0186715189640158 0.0422486368114696 0.00444932550546349)
(0.00116957757167903 0.0376596367938255 -0.000932911602622507)
(0.00237737764376091 -0.0375785069755956 0.000132159469441912)
(-0.00460833634773094 0.019617678353124 -0.00297934536080707)
(-0.025818827627838 0.0363919821441135 -0.00846384448999237)
(-0.0150068208397082 0.0232115241421967 0.0106702945309499)
(-0.00146624531888941 0.036156694901 -0.00848251701876402)
(-0.00836803936548208 -0.000613177953661681 -0.00308586875127833)
(-0.00994612663620202 -0.000448181175202714 -0.00209333238762389)
(-0.00944679542400387 -0.000426330562345088 -0.00219350113904868)
(-0.0100865346094138 -0.000397405097813511 -0.000447444618904653)
(-0.00898265906504676 -0.000951567314013622 0.00082407651767796)
(-0.00825167465400954 -0.00237144345575653 -0.000341927257002475)
(-0.0045548555229734 -0.0019716031397021 0.00113740906271551)
(0.00701110799003661 -0.00674411117825631 0.00176677708525986)
(-0.00508297034474718 0.020575630590353 -0.00622975719850432)
(-0.0126096725835445 0.0436321893795333 -0.0132409225446238)
(-0.0207538968153337 0.0118000405592652 -0.0056882609689521)
(-0.00399578020977137 0.0122667250918464 -0.000263282974994145)
(-0.0144556605613836 0.0139946675879319 0.00827659883576864)
(-0.000315202356204628 -0.00606118143188059 -0.00441411465116518)
(-0.00659337773018549 0.00580960498222605 -0.0068896066629068)
(-0.00883350585120527 0.0244601606044713 -0.00675722073772487)
(0.00286107885005864 -0.0401472865368806 -0.00868128383230775)
(0.00234209573021668 -0.0269095946871755 -0.00868493610468631)
(0.000828136032758828 -0.0183879153791424 -0.00473150550416342)
(-0.00437586144104477 0.0179148926812256 -0.00465396805554425)
(0.00213914709685814 -0.0377617987353366 -0.00456580364963392)
(0.00169757658241039 -0.0218710147561496 -0.00382537727661378)
(-0.0038440858431855 0.005436937711927 -0.000132065787749753)
(-0.00633355905254583 0.010892241308415 0.003067517022129)
(-0.00154607568826474 -0.000877718165685323 0.00378417053062448)
(0.00113824326962814 -9.1058831794631e-05 -0.00375218154886255)
(0.00379872430386829 0.00485315336601896 -0.00298554315008999)
(0.000593747236798136 0.00320183625887637 -7.74328198173231e-05)
(0.00145445134056974 0.00477538287278968 0.000340188768126341)
(0.00183351587256348 -0.000482981550192343 -0.000286013788172009)
(-0.0058062715366259 0.000257589569945502 -0.000398001823544782)
(0.000454562350957702 -0.0140592310253159 -0.00701579812583426)
(0.00183899844317598 -0.00446126525743544 -0.00553662154196808)
(0.00223324352979033 0.00251548718433607 -0.00150128516721324)
(0.00135946845569892 0.00506684052066027 0.00192631304076319)
(-0.00131276257400287 0.00484684983856152 0.00221834478786703)
(-0.00527077356525382 -0.00357841187857317 0.00183403343292208)
(-0.0120153234201163 -0.00366242187965196 -0.000923801112532131)
(0.000438067235227251 -0.0261319779711172 -0.00979790639463462)
(0.00105995590779709 -0.0183408935806186 -0.00970750117171846)
(-0.000854344430970974 -0.0136570228686063 -0.00791436381856754)
(-0.00378363480823232 -0.00731635672708848 -0.00285313266778925)
(-0.00639903983170887 -0.00101491001980358 0.00269270279943267)
(-0.00957407190901221 -0.00203182239958687 0.00351836491527677)
(-0.0120088144151568 -0.00285014264644397 0.0025094378416408)
(-0.011391191698972 -0.00125396690369143 0.000804002821911524)
(0.00100776598862535 -0.0355365634742174 -0.0111434914740822)
(0.00242717919301724 -0.0294694255641737 -0.0114090459798084)
(-0.000165126322833223 -0.0269727407140834 -0.0106168273656468)
(-0.00286142657399983 -0.0264938252415247 -0.00907292008594784)
(-0.00675712249588921 -0.00840818177784534 -0.00393918770768006)
(-0.0108622060088648 0.000814604750392648 0.000251773697525652)
(-0.0118636790872181 0.000413940032101923 0.00182176486304181)
(-0.0117004587168679 -0.000186049199717491 0.00154636136304736)
(-0.0113590684431187 -0.000263655252443716 -0.000405037733927753)
(-0.00699006668567372 -0.000361824164806664 -0.00317037664771288)
(-0.00954308865070815 0.0029451020768171 -0.000759224880261575)
(-0.0103999824016028 0.0014173489906195 0.000394604149711066)
(-0.010121116548745 0.000184690148386477 -0.000282649366502547)
(-0.00999752120223374 -0.000245165435841771 -0.00155148885694985)
(-0.00431163453814881 0.00422000701154964 -0.00167239137362953)
(-0.00706764454336865 0.00309428232507969 -0.000592555358747767)
(-0.0078878419666275 0.00108701345338323 -0.000411462320105082)
(-0.00785948829919938 0.000389945218462275 -0.000972463959369625)
(-0.00272864463278638 0.0108151419841336 -0.000188151096389353)
(0.000976691344250237 -0.0396765909604697 0.000811329402656761)
(0.00328558478438671 0.0555855412423239 0.00221875565493468)
(-0.0151855024093363 0.0501442463110352 -0.00564501467655696)
(-0.0313465027200286 0.0504210433704619 -0.0292910175857714)
(-0.00804428497651062 0.0344613348634077 0.00951993246461079)
(0.000804300195916822 0.0515203971167899 -0.00424866040197986)
(-0.0113439585982338 0.0584216001785698 -0.0122366640746712)
(-0.0220989172602223 0.0574810859526877 0.0239648694153422)
(-0.0321984112507742 0.0140943788187924 -0.000865791851361223)
(-0.00414757143438951 0.0358476583448677 0.00736392442731155)
(-0.00700830235962833 -0.000652020234156236 -0.00289629089219953)
(-0.00862809499788857 -0.000353512842212128 -0.00227446667100943)
(-0.00788572182561462 -0.000252712042851504 -0.0019900186847609)
(-0.00957448427330692 -0.000303207404687952 -0.00106051767365771)
(-0.00925406968327557 -0.000435641349208364 0.000109836928839176)
(-0.00818233210897211 -0.00107857321332944 0.000116443184643193)
(-0.00687411649109735 -0.00274009338286577 -0.000789053750903692)
(-0.000741431139647584 -0.00359289922605522 0.00185044149908971)
(-0.0112269997965905 0.0143341916465809 -0.00396937393780705)
(-0.0161633070594926 0.0246111768452676 0.000698981035011037)
(-0.00929938020216062 0.0301843684833349 0.00213283215758063)
(-0.0034880299677448 0.0371541793012916 -0.000820368560657892)
(-0.00825792889005185 0.0138067677256173 -0.0054021129482651)
(-0.0220560625400565 0.0107765015234186 -0.000713085180107845)
(-0.000722199669389531 0.00936422505961372 0.00236611055051394)
(-0.00992995089237243 0.0105541047331939 0.00569913973051996)
(-0.0110517805997024 0.010579377245864 0.00514068846282399)
(0.00023841225850123 -0.011783478403522 -0.00428654502216836)