/*--------------------------------*- C++ -*----------------------------------*\
  =========                 |
  \\      /  F ield         | OpenFOAM: The Open Source CFD Toolbox
   \\    /   O peration     | Website:  https://openfoam.org
    \\  /    A nd           | Version:  12
     \\/     M anipulation  |
\*---------------------------------------------------------------------------*/
/*   Windows 32 and 64 bit porting by blueCAPE: http://www.bluecape.com.pt   *\
|  Based on Windows porting (2.0.x v4) by Symscape: http://www.symscape.com   |
\*---------------------------------------------------------------------------*/
FoamFile
{
    format      ascii;
    class       volScalarField;
    location    "100";
    object      k;
}
// * * * * * * * * * * * * * * * * * * * * * * * * * * * * * * * * * * * * * //

dimensions      [0 2 -2 0 0 0 0];

internalField   nonuniform List<scalar> 
10107
(
0.000116040825946635
5.98547519333257e-05
0.000536568678374172
0.000102512648871208
3.29793469707238e-05
0.000163920569184225
5.36789775558809e-05
0.000439640055947815
0.000567575072286153
0.00034407279911383
1.33558252676644e-05
9.16167339500031e-05
3.61713777744116e-05
0.000237107873158303
0.000121892102080411
7.43400225063844e-05
8.76336653402691e-05
0.000495811848181246
0.00109814787826403
0.000471797671807988
0.000508863017700613
0.000776497160716984
0.00060163972487537
0.000394100572239415
0.000531132993925341
1.44198827510742e-05
3.97812898082877e-05
0.000129712027839672
6.18698821284426e-05
4.91713825542147e-05
0.000284387365142859
0.000205427450676496
7.71889067363504e-05
0.000143465984370375
0.000175867124212766
5.48723036101272e-05
0.000189453038006344
0.000127352434906764
0.000145724568287004
0.000577953879615736
0.00105813082814584
0.000460613915786659
0.00179521962698386
0.00115299295404415
0.000457780320088075
0.000289825316435426
0.000470902883607532
0.000603978379828973
0.000550180301173457
0.000340707496693439
0.000470195540781392
2.35585344571836e-05
2.45509377288943e-05
5.53317413939389e-05
0.000141632192853411
8.96592129725575e-05
9.50309055884264e-05
3.32075593151844e-05
0.000332755896663362
0.000246121449908142
0.000186179807408056
0.000188640068888701
8.31110477782022e-05
3.81184283589025e-05
0.000382999735413842
0.000183185905000457
0.000239263328820791
0.000635725369863495
0.00109182703776503
0.000528554196496133
0.00172159177655946
0.00104565637449731
0.000377839956595751
0.00235667035831386
0.00180336549211851
0.00107219090586937
0.000270594054059514
0.000434175846080466
0.000521839970115664
0.000441036014259383
1.03871346955216e-05
3.55024093104282e-05
1.9759108963255e-05
5.66221375570349e-05
0.000169529966953977
0.000109382320819173
7.95066371690827e-05
2.37453206914572e-05
0.000356240665639873
0.000310398996301546
0.000213579031898672
0.000136378326732739
6.19308709672083e-05
0.00038351806735536
8.10259087376015e-05
0.000264351739182383
0.000661580147431844
0.00111733011645099
0.00059764437070771
0.00168901919620127
0.00107160998998082
0.000451114920350796
0.00228953747335347
0.00172230158507918
0.00100567302073051
0.000355943987986415
0.0028235541140804
0.00235841553232979
0.00179043519233001
0.00109335960692955
7.22948972018605e-06
1.77019875218433e-05
2.91221085979817e-05
7.06498219555876e-05
0.000181773465061473
0.000158758278932115
9.81260401518064e-05
4.9156084696235e-05
0.000346986585599331
0.000340086690439913
0.000271186694874461
0.00020082321316738
0.000112343571331382
0.000523632708725323
0.0001040530256832
7.89723305484916e-05
0.000653981930293475
0.00112539223999724
0.000627007226248852
0.00167417262367522
0.00110275203348501
0.000520290418336259
0.00224160969714969
0.00168855378498771
0.00104775595355504
0.00046232388888876
0.00276747252119935
0.00229135767361005
0.00171568510489845
0.00103464453924266
0.000483823014758354
0.00282191383428567
0.00235044408414771
0.00179388069114757
0.00120387466108965
1.90442763025954e-05
3.46600086701242e-05
6.53553741329508e-05
7.4075781848629e-05
0.00017293648869171
0.000177865452509838
0.000144897786651037
4.54844626200251e-05
0.000303866320843309
0.000320893395937871
0.000297227883194906
0.000253833503060888
0.000179188538920527
0.000697319134887445
0.000141516042552208
0.000102936522539678
0.000102940210929135
0.000617234936545427
0.00111513826986796
0.000612904654691766
0.00166217659089996
0.00111242025715994
0.000546895912714505
0.00220873825517275
0.0016751724843245
0.0010824547347487
0.000505634738272953
0.00272153441553393
0.00224382819557278
0.00168754006378453
0.00107326104286539
0.000554518517073635
0.0027665688601307
0.00228630240509372
0.00172729276858099
0.00114402293839107
0.000649053460435624
0.00280817712865231
0.00233894742896393
0.00182241978396402
0.00131118504856393
1.77468078726917e-05
6.22746246920215e-05
7.431820072566e-05
7.04775389482162e-05
0.000136785204012907
0.000161184130428269
0.000162506147239492
6.36745929428851e-05
0.00027016027130085
0.000246088455101531
0.00026994701348872
0.000287619604611953
0.000233381516150789
0.000822411766750454
0.000191351833466311
0.000143975117243151
0.000119558555555573
0.000104151408172152
0.000577445876549618
0.00108842917515718
0.000550927496567259
0.00164844072293187
0.0010996492874196
0.000522896569950572
0.00218558723342375
0.00166371022385858
0.00109132888721978
0.000528468820182563
0.00268517111310299
0.00221155984758516
0.00167601988229519
0.00109507857700795
0.000577348744318593
0.00313860885717488
0.00272121474918291
0.00224137104586422
0.00170173372687308
0.00115159953592935
0.000668233824110846
0.00275499252800125
0.0022799880277635
0.00176234653044449
0.00125461703770708
0.000775010360255959
0.00278384984097691
0.00232617992856219
0.0018475136292244
0.00137275933054931
2.61716446229823e-05
7.21830370655637e-05
6.66127800291995e-05
5.45604888929115e-05
0.000129323182470848
0.000100613156355767
0.000142772525999724
6.50513906529172e-05
0.000272375303159847
0.000193567914758862
0.000176335388225338
0.000301643778410726
0.000270508017672935
0.000881654470281724
0.000235523045280735
0.000193687198263025
0.00015366255969277
0.00011928753726853
9.20703792670911e-05
0.000559606120857428
0.00105748628315116
0.000489358554133732
0.00163249399141732
0.0010627150950812
0.000437686257623737
0.00216895959108613
0.0016494940480787
0.00107415170949999
0.000522679041947943
0.00265828017369174
0.00218881001193733
0.00166459163250392
0.00109999327485239
0.000585892955689312
0.0031036886269874
0.00268538050842243
0.0022106846346375
0.00168791077804632
0.00115415325172638
0.00067172136293805
0.00350369865689227
0.0031355354179806
0.00271148395689209
0.0022384235494868
0.0017321400812144
0.00123714460082605
0.000763780911235877
0.00273438593566955
0.00227345546003875
0.00179501716386932
0.00132465194979711
0.000843719846797265
0.00275006649776585
0.00230655980672638
0.00185089023825437
0.00138880892281785
2.89966878651707e-05
6.14423104813467e-05
2.42957277109882e-05
5.12107377963649e-05
0.000132404543220163
5.76090033288784e-05
5.92183645580712e-05
4.77386182615605e-05
0.000287053565828947
0.000191808314060736
0.000116331331939236
0.000301122189500486
0.00028938234968308
0.0008924616921161
0.000265316476725287
0.000235217396611939
0.000196739731710809
0.000154980683186178
0.000107775287378864
5.70067452972387e-05
0.000553701885223825
0.00103891136807443
0.000458768217076976
0.00161870368855221
0.00101761792651044
0.000355789359995482
0.0021577747833004
0.00163142180588752
0.00102287208465205
0.00047578012260834
0.00263979132394512
0.00217235683694315
0.00164936949126669
0.0010868254050473
0.00058553527573617
0.00307672760362929
0.00265888389800203
0.00218871358523995
0.00167530786784219
0.00115018307628691
0.000669465317382549
0.00347225636551586
0.0031011593719419
0.0026770764639268
0.00220921661494812
0.00171311929002428
0.0012254304157051
0.00075650568086053
0.00382575512227853
0.00349869574868044
0.00311906933513067
0.00269385051277802
0.00223476281202346
0.00176193867244302
0.00129774534097286
0.000824462989582436
0.00270541553775119
0.00226059758449689
0.0018069551978561
0.00135075672840322
0.000865141790080314
0.00270601934072267
0.00227310484812093
0.00182839425875465
0.00137007012940905
1.5991894161695e-05
1.13170272262644e-05
1.42801282155999e-05
5.3811924365803e-05
0.0001478275622477
8.26734263041668e-05
3.22879983794203e-05
2.65770777223396e-05
0.000261251362180606
0.000225652685759741
8.67486448648261e-05
0.000291129759692594
0.000293183492593609
0.000872894983045384
0.000283187164926645
0.000262892009774729
0.000234353519747831
0.000200081297636456
0.000142424328362025
7.08806398679569e-05
1.56255047506461e-05
0.000510447046154566
0.00104013659969944
0.000476495333663012
0.00161703158771631
0.000989974487905293
0.000314678431990606
0.00215327158156173
0.00161440228284009
0.000957511182139913
0.000383786839081394
0.0026289387119631
0.00216102715987718
0.00162809292235559
0.00104892378335103
0.000560755869644164
0.00305751127582326
0.00264065661692382
0.00217257335571596
0.00166104791346073
0.00114062892264269
0.000672623381652013
0.00344689320571267
0.00307456403886507
0.00265154490715181
0.00218804974021688
0.00169833197730563
0.00121554872548159
0.000749389096779943
0.00379803574924153
0.00346773181018658
0.00308593171154831
0.00266154365810397
0.00220660495444498
0.00173945761240721
0.00128040156431307
0.000813758849824872
0.00411018334585498
0.00381941433860563
0.00347717401503986
0.00309027718027684
0.00266848380207522
0.00222509171349339
0.00177522203526913
0.00132474913600882
0.00084788887666672
0.00266668975180171
0.00223405409361714
0.00179275692599824
0.00134107027479043
0.000854056923523375
0.00264917648359659
0.00222195963235628
0.00178171676742938
0.0013254232770942
9.26983306293291e-06
5.10892819716095e-06
2.60549803544772e-05
6.08116193556692e-05
0.000139785308572478
0.00010780403042831
2.49639548630489e-05
5.82222164438167e-06
0.000120788218339558
0.000167669610029556
0.000125163751912662
0.000275148240375904
0.000286130209340969
0.000834165936423329
0.000288262515373005
0.000280150959466661
0.000260617902042224
0.000237838031990332
0.000190200018644883
0.000107885298552444
3.24325352779948e-05
3.61578300006763e-05
0.000524813763610767
0.00105243288890202
0.000473061344646369
0.00163722394917429
0.0010010209873507
0.000374079050013531
0.00215939894729638
0.0016112245756638
0.000916572111584459
0.000304789729147862
0.00262567331635695
0.00215612232991478
0.00160600366724761
0.00098199973862517
0.000490543308680097
0.00304557313330545
0.00262990322779562
0.00216101891079575
0.00164273702153886
0.00111814369557821
0.000662918988175983
0.00342784846322856
0.00305556824515885
0.00263389373127936
0.00217273360195527
0.00168573482403993
0.00120904268330567
0.000753341508068791
0.00377483506057253
0.00344267711478503
0.00306021841285054
0.00263739964677732
0.00218616838572159
0.00172346408519469
0.00126855626676863
0.000805719434624983
0.00408596145593366
0.00379210033506115
0.00344721835638571
0.00305904524453598
0.00263861009320779
0.00219833990117641
0.00175260161995048
0.0013072439015376
0.000837608974374728
0.00436043144978578
0.00410285789216937
0.0037941645730578
0.00344009822366986
0.00305000312842179
0.00263366050734275
0.00220253310572501
0.00176497353321646
0.0013192005325324
0.000840834315790138
0.00261525371632246
0.00218945606884023
0.00175333941903673
0.00130362919513382
0.000820901828446739
0.0025769336909745
0.00215170905012243
0.00171331621277217
0.00126064644966097
1.39212256545846e-06
6.11022189454898e-06
4.1169990769088e-05
5.5916185806005e-05
7.54422399166405e-05
5.10387076726224e-05
3.95676957405552e-05
1.53314370254039e-05
0.000135824001209626
0.000119559206655344
0.000220694430440917
0.000178858552539502
0.000255985458157555
0.000271968067957586
0.000782073543696464
0.000282648054179582
0.000285400002714252
0.000277583624732677
0.00026292556084666
0.000232687059649329
0.000163476198189677
8.35464589302354e-05
5.33089525105128e-05
0.000117697061333853
0.000690298531697911
0.00113080393647455
0.000561258201516239
0.00168202547887273
0.00105529413036395
0.000528431704607891
0.000558579088578214
0.00217967062316698
0.001637951479027
0.000969315052774905
0.000511163086809401
0.000347202019428334
0.00263062932549539
0.00216207840894383
0.00159965020278772
0.000916048317015168
0.00043204656805643
0.00304041199095943
0.00262654695912625
0.00215530985367697
0.00162118076614461
0.00107604601682449
0.000624871103888446
0.00341484373735842
0.00304369762234881
0.002623321325019
0.00216205993329977
0.00167277177250934
0.00119832725396573
0.000751863064800019
0.00375649760637601
0.00342380513364133
0.00304174629928921
0.00262062386348613
0.00217189939589107
0.00171256839489562
0.00126332614212008
0.000807325876908281
0.00406502420953427
0.00376915125210655
0.00342288684607323
0.00303467625754132
0.00261606121789515
0.00217890226447417
0.00173689397622125
0.00129560373324131
0.000829900051340321
0.00433942501799178
0.0040789799287306
0.00376765665211958
0.00341169468593825
0.00302113806979427
0.00260641655262212
0.00217802348124805
0.0017442966718285
0.00130360997446443
0.000831869695340702
0.0045789322081347
0.0043523406439456
0.00407479210551061
0.00375085010125548
0.00338887559733798
0.00299797115768656
0.00258626889256045
0.00216232648184499
0.00173010260928642
0.00128618554955782
0.000810935469388226
0.00254819074468478
0.0021250530422203
0.00169092165232654
0.00124411406299428
0.000772361233854237
0.0024873872136822
0.0020620572869116
0.00162521912246962
0.00117904706940444
3.37326913612279e-06
1.08485297905008e-05
1.60943525225615e-05
3.39248714603006e-05
7.7469796239518e-05
5.27384179513237e-05
7.24061535967205e-05
0.000170315558099698
0.000141355456472519
0.000153963494251613
0.000321389644474567
0.000128680786391422
0.000224719136558894
0.000284656845428141
0.000196545697989277
0.000245542830669744
0.000254897576530939
0.000719483725824651
0.000269666199542563
0.000280235164780308
0.000282977681537062
0.000278257107977283
0.00026051388264283
0.000216095271717997
0.000146262391566589
0.000105114923100513
0.000132921999413086
0.000797586895502516
0.001264250873755
0.000720059744337535
0.00175030634356964
0.00120605870087109
0.000596126926225641
0.000360957424436029
0.00071958110424915
0.0022126547048223
0.00169477053839383
0.00113175614436998
0.000555508683817806
0.00042651554420337
0.000694809705188826
0.000601019262412569
0.00264372845945964
0.0021834290569352
0.00163797493686386
0.000973317662407957
0.00039382129454247
0.000567011047325115
0.000477764935691283
0.000498227257024304
0.00304138598473081
0.00263123903379042
0.00216037089509962
0.00161130062015927
0.00104279760322119
0.000589600787951792
0.00340726550363528
0.00303843068138803
0.00261967007162859
0.00215644128211682
0.0016591784173959
0.0011796441667211
0.000738612952714332
0.00374281079312939
0.00341084001812401
0.00303002324097727
0.00261044245683503
0.00216259621472028
0.00170423666771055
0.00125873869399509
0.000807469613909714
0.004047658267047
0.00375095161924235
0.00340443243164133
0.00301699924546342
0.00260027701936599
0.00216572797851048
0.00172715504494084
0.00129026536213587
0.000828595609217682
0.00432071387622521
0.00405824801623059
0.00374528113685527
0.00338849010122752
0.00299840627235052
0.00258557976123863
0.00216000159807577
0.00172971879718989
0.0012927965512246
0.000824694307969858
0.00456098406282354
0.00433163126989558
0.00405156101192171
0.00372557120185087
0.00336245390441875
0.00297169464186344
0.00256182396501738
0.00214057814842914
0.00171206936518108
0.00127290980160825
0.000803240017162709
0.00476762474107053
0.00457023071879424
0.00432209951596302
0.00402668164859019
0.00369125332804665
0.00332411021404306
0.00293263738956738
0.00252320292558891
0.00210218944051612
0.00167190369088261
0.00123029009552292
0.000764703473172654
0.00246339044949838
0.00204041473514147
0.00160754694554545
0.00116626386918958
0.000712122376110588
0.00237935814445732
0.00195316740040353
0.00151886095008705
0.00108238220296367
4.22260454002594e-05
2.40364514267011e-05
3.72523571648742e-05
0.000102951867304861
0.000228608186443292
0.000178156927762008
0.000216010999307737
0.00020057122721645
0.000366015362005408
0.000344164945775104
0.000209779082221432
0.000243592240242361
0.000647857416918766
0.00025938660531549
0.000267783479534287
0.00027806869780303
0.000282286299479732
0.000276644367520792
0.000251755410584069
0.000207224238737883
0.000170202247907464
0.000167594844490031
0.000224757081683147
0.000878701370001313
0.00134794386946605
0.000818156783614974
0.00181621564048645
0.00131905094527606
0.000740181263678507
0.000513865375575449
0.000904319989670433
0.000644968130397897
0.00225124841608686
0.00176959002427751
0.00125421333444202
0.000664610312258472
0.000492465068024993
0.00266242043873704
0.00221773449437919
0.00171231180381854
0.00112657781515035
0.00058301154718905
0.000590166551699244
0.000456980253695748
0.000614864383212829
0.0030471937165639
0.0026440505375693
0.0021824570630702
0.00164849104338978
0.0010907603428783
0.000436760858369736
0.000635909847561461
0.000611041066754704
0.000646044743612352
0.00340410338367746
0.0030391132385156
0.00262354020543493
0.00216005717433866
0.00165571120771578
0.00116981284501359
0.000728279747670504
0.00373315035492704
0.00340316292424165
0.00302448117137301
0.00260647238339072
0.00215812265848573
0.00169799522144193
0.00125323169058207
0.000805291144976208
0.00403365230012125
0.00373729804286407
0.00339156481919791
0.00300551022302623
0.00259051425306125
0.00215765723686429
0.00172128274225871
0.00128735627669764
0.000827287590029966
0.00430442474707941
0.00404099572096082
0.00372740750418331
0.00337069664432321
0.00298167454144235
0.00257080811913744
0.00214780317485795
0.00172059993324608
0.00128687061816233
0.000821015813781813
0.00454451752213562
0.00431309045981068
0.00403128363240494
0.00370409904751741
0.00334067539947764
0.00295073335241828
0.00254279154443029
0.00212420398132354
0.0016988512353362
0.00126301801314152
0.000796584670093562
0.00475288952389461
0.00455254310499521
0.00430191653097676
0.00400442291046974
0.00366756962269563
0.00329990882547459
0.00290901926937167
0.00250160483095823
0.00208328546136679
0.00165650253300046
0.00121906324366789
0.000757956797779523
0.00475845596454267
0.00453829952290779
0.00427024652243786
0.00396053024095615
0.00361660012047184
0.00324508513870287
0.00285185372269873
0.00244216184572689
0.00202139482676462
0.00159206626737951
0.00115517583350934
0.000706802858272784
0.00235956243952145
0.00193569066115496
0.00150483071729961
0.00107225882689474
0.00064135493365999
0.00225223278740789
0.00182539042252484
0.00139520336821014
0.000971269298318212
5.82525333441776e-05
0.000268580388454651
0.000247762243791451
0.000255681734296929
0.000476137666587814
0.000494578529542986
0.000161085731617058
0.000207157724939021
0.000561000146728657
0.000242383230424454
0.000252410899880448
0.000266035030148237
0.000276593432632423
0.000280609658118804
0.000272179935685365
0.000248897719740555
0.000223587499656984
0.000215536833654376
0.000231011322942886
0.000269567075572713
0.000919206352909466
0.0014096755110486
0.000887920270046082
0.00185690292481171
0.00136673152406094
0.000848036890588953
0.0022829559915967
0.00182751304587221
0.00131607913965582
0.000719584430567206
0.000549001913175105
0.000696997791015922
0.00268149433834211
0.00225567355358907
0.00178114645232534
0.00124191650292925
0.000812119412228912
0.00305525280308323
0.002662291512394
0.00221722098887114
0.00171781254927873
0.00119321235661822
0.000621564402896837
0.000677838009039192
0.0006480863231526
0.0034037657979206
0.0030444944562165
0.00263522939387084
0.0021794289776012
0.00168342572508091
0.00120366062765805
0.000760388744489348
0.000725959631201949
0.000735675629919296
0.000777391729648958
0.00372645010132197
0.00339976861617351
0.00302443160444686
0.00260899612500209
0.00216103497222204
0.0016995356600866
0.00125410595928612
0.000806957994322801
0.00402239931840936
0.0037275699076164
0.00338364942365449
0.00299956792352227
0.00258620587717188
0.00215420167909116
0.00171869144210452
0.00128636620632192
0.000826224406859792
0.00429035628394011
0.00402702524631759
0.00371382734295023
0.00335800218359771
0.00297044195145179
0.00256140720937679
0.00214041291864914
0.00171541965641861
0.00128357125922777
0.000817599067160706
0.00452929447780745
0.00429689757663202
0.00401428873449098
0.00368675827002115
0.00332372129652881
0.00293500786415858
0.00252900903552645
0.00211282193178762
0.0016900543530006
0.00125647738176992
0.000791549131904552
0.00473889962724908
0.00453621753761436
0.00428374067474366
0.00398486408776922
0.00364727370624635
0.00327972049406477
0.00288987185561376
0.00248440145109494
0.0020685818378086
0.00164462281041049
0.00121005546594323
0.000751955225192788
0.00474393079396072
0.00452104666536525
0.00425083986503255
0.00393954761305644
0.00359474679233668
0.0032231901730581
0.00283086135571758
0.00242331098068268
0.00200515748336652
0.00157898941560331
0.00114558764136403
0.000699817730712131
0.00472524842838293
0.00448351654605799
0.00419889936452487
0.00387800545511726
0.0035267179788276
0.00315020303228385
0.00275359225640412
0.00234173045371939
0.00191996854884408
0.00149217930027136
0.00106324468116046
0.000635757477977203
0.00223605141649612
0.00181129738612504
0.00138394350568504
0.000962903790974595
0.000554790318463681
0.00210580835016471
0.00167915448200985
0.00125486047121538
0.000845609293321685
0.000297130795813702
0.000281746737749511
0.000287366789524501
0.000751971814362443
0.00010816133290803
0.000158260643139398
0.00045993047084211
0.000204664317540707
0.000239115897162496
0.000257774200831453
0.000264266107523111
0.000274758847726111
0.000278013391226426
0.000271872840501109
0.000261835314556535
0.000253827270578542
0.000256360724206132
0.000274547190704833
0.000296175599021711
0.000935007407342803
0.00143745424387118
0.000924648081739727
0.00188137834393438
0.0014146102665565
0.000908017603708153
0.00230094970559181
0.0018609107045877
0.00136854577872368
0.0008721197006103
0.00269459245195419
0.00228484716649443
0.00182711875741253
0.00131663539750687
0.00306180232726966
0.00268051201793907
0.00225175562307045
0.00177732282764514
0.0012805635123649
0.00340390308203459
0.00305203273525293
0.00265188108714382
0.00220959358476136
0.0017324042748367
0.0012638208802262
0.00372113613052373
0.00339910010777281
0.00302870585133096
0.00261829275740073
0.00217539831722492
0.00171832906315598
0.00127517084765635
0.000826378328498199
0.000809941670894772
0.000807889522840402
0.000829873217687319
0.00401286941538459
0.00372071133688998
0.00337968628432443
0.00299839980443235
0.00258720279545789
0.0021563544261781
0.00172148604436463
0.00128968830470112
0.000829762212985185
0.00427794128384991
0.00401573607987315
0.00370392044083464
0.00334975092491825
0.00296401563606772
0.00255669358919622
0.00213717086626053
0.00171353802842498
0.00128249982979963
0.000815084142861096
0.00451529968175653
0.00428286748965672
0.00400038174138929
0.00367332354266463
0.00331126515723126
0.00292403919980947
0.00251986392870565
0.00210562777301239
0.00168466949799867
0.00125209647682299
0.000786824473631848
0.00472452748075804
0.00452107867335193
0.00426775438665817
0.00396829767173558
0.00363064570672821
0.00326371039657644
0.0028751707116052
0.00247156640107896
0.00205789791253795
0.00163605394524657
0.00120319916245712
0.000746506027384813
0.00490639638072392
0.00473003150475174
0.00450501445820367
0.00423323989703301
0.00392094411513827
0.00357580335120225
0.00320465711974846
0.00281351594294496
0.0024078862035069
0.00199204192975453
0.00156835652621144
0.00113745481251323
0.000695423028958344
0.00471106646687175
0.00446689081329625
0.00418051849895714
0.00385851710804043
0.00350680518233717
0.00313060467602291
0.00273511467543254
0.00232542429747392
0.00190610110524796
0.00148104800167363
0.00105481426737596
0.000629778250979097
0.00466820563564661
0.00440803818875672
0.004110029736756
0.00377932437594135
0.0034203589026211
0.00303768441481618
0.00263631060883769
0.00222119256585704
0.00179831892204661
0.00137351059671098
0.000955171911076233
0.000549103582912343
0.0020926653625849
0.00166776413640839
0.00124567474736012
0.000838403497413958
0.000453653211561929
0.0019401510839337
0.00151489380650004
0.00109842599277789
0.000705523665396246
0.000312196442417815
0.000304681266593904
0.000304635463073983
5.84896139602866e-05
0.000105443610708637
0.000348293519861938
0.000155504369706831
0.000201773983111597
0.000238238809963549
0.000255599384262656
0.000262378414353523
0.000272887558334422
0.000278004760804914
0.000280747104962743
0.000280405282153744
0.000280622365015376
0.000288342993937579
0.000303243532397402
0.000315337150572373
0.000935389917261975
0.00144310730321974
0.000939170868824534
0.00189000135012883
0.0014397297578644
0.000936125078577625
0.00230626192449195
0.0018822302587814
0.00141719611122044
0.000922616016181833
0.00269785294824346
0.00230078741895302
0.00185598362701393
0.00137928287003684
0.000894063306922133
0.00306280059901151
0.00269261209273237
0.0022765425154641
0.00181761413199658
0.0013424457620305
0.00340154277545506
0.00305801244625209
0.00266783637436522
0.00223820427457316
0.00177736908091819
0.00131892931363963
0.00371510879609233
0.0033988564252354
0.00303486645905954
0.00263164617164175
0.00219744530706873
0.00174857242564703
0.00130719724330825
0.00400358814958237
0.00371517281724059
0.00337818244207629
0.00300088778894463
0.00259338102155266
0.00216567177276592
0.00173294434156501
0.00130155930682578
0.000842037634072864
0.000851297790795423
0.000854783000888644
0.000868117076350399
0.00426620872610568
0.00400610809215203
0.00369664943039861
0.0033449442257953
0.00296154280646119
0.00255615335700593
0.00213802957600408
0.00171532197349761
0.00128470311660831
0.000816293322039339
0.00450204592950935
0.00427043995292286
0.00398896908018502
0.00366317341836872
0.00330264163056464
0.00291711805500863
0.00251463309978048
0.00210191071721709
0.00168209440354247
0.0012497145917615
0.000783167894794209
0.00471061100784138
0.00450712424994365
0.00425378193781257
0.00395451985802344
0.00361744342822538
0.00325155196303736
0.00286447843956346
0.00246259345757933
0.00205064708724954
0.0016301884809462
0.0011979625308058
0.000741365143740987
0.00489222225328583
0.00471574881380836
0.00449004384711683
0.00421760058826838
0.00390497237389739
0.00356001609366714
0.00318964684761497
0.00279983919971978
0.00239595845346678
0.00198200524845966
0.00156008322174267
0.00113065020360754
0.000690100138507532
0.00504737409640572
0.00489697760599392
0.00469737627197685
0.00445132139104439
0.00416369517498542
0.00384104125338923
0.00348930579477083
0.00311373325966063
0.00271951663306111
0.00231168042642171
0.0018944545902818
0.00147156475370317
0.00104758916582313
0.000624572718141937
0.0046545220976713
0.00439224348000014
0.00409287012635506
0.00376145394163772
0.00340241162306142
0.00302030955051141
0.0026201814012774
0.00220717557915162
0.00178649449518079
0.00136396256319191
0.000947833769851353
0.000543369638811728
0.00458946756278823
0.00431403706347263
0.0040041394261466
0.0036634823445352
0.00329592151215095
0.00290602101793399
0.00249901625016852
0.00208034641001188
0.0016570267691611
0.00123694805410902
0.000831548710946068
0.000447830838176442
0.00192951403686403
0.00150563509180279
0.00109077788644701
0.000698983791266059
0.000342028467812535
0.00175542712623096
0.00133308374100277
0.00092670853889777
0.000553662117129886
0.00031844537208529
0.00031732684817081
0.000317729143462176
2.08399291871673e-05
5.62820591503994e-05
0.000231791321742643
0.000102750021127191
0.000152677234687554
0.000199366352155739
0.000235482603510207
0.000253246835168405
0.000260750730228759
0.000272497532792396
0.000283387737155238
0.000291610113660432
0.000295900938085067
0.000300970395226097
0.000310061263909069
0.000320295664900734
0.000325678283565659
0.000923300190699401
0.00143127025667069
0.000938697650952965
0.00188138645084987
0.00144433068796878
0.000945389641701588
0.00229842219577591
0.00188990179503259
0.00143937672219776
0.000943820529962091
0.00268988792003967
0.00230502177763402
0.00187567442101501
0.00141792440192652
0.000929603900957571
0.00305516866653955
0.0026951284344555
0.00228974379312952
0.00184566112047946
0.00138721464087967
0.000907592900528796
0.00339357249791668
0.00305850583435372
0.00267772648483817
0.00225828815790197
0.00181043834151819
0.00135974348506326
0.00370585860218404
0.00339611954558924
0.00303934705519814
0.0026439311287804
0.00221853428391455
0.0017778403278797
0.00133754607326948
0.00399265991949742
0.00370888864246753
0.00337694295316693
0.00300479224408876
0.00260242935843774
0.00217959508927822
0.001749816484426
0.00131771644627251
0.00425378468785874
0.00399668345116864
0.00369051437900857
0.00334216248504072
0.00296189355930553
0.0025591970296281
0.00214306458937234
0.00172134183355347
0.00129104834944946
0.000823520089247634
0.000855327090231053
0.000873134428594015
0.000888017860607449
0.00448861523987318
0.00425865183460238
0.00397904964362052
0.0036552951297132
0.00329686333238467
0.0029133448011997
0.00251258593897168
0.00210115948531362
0.00168212445573456
0.00124979708601973
0.000781824487234626
0.00469674319218578
0.00449387372182712
0.00424127201115761
0.00394294353534798
0.00360704926199338
0.00324258831617968
0.00285710194052531
0.00245678653949638
0.00204618262466914
0.00162657781599852
0.00119437257502371
0.000737278231464268
0.00487833591538863
0.00470187891318031
0.004476141870516
0.00420374407474257
0.00389141566374141
0.00354713376399998
0.00317784493971463
0.00278944768497091
0.00238713529371205
0.00197465568394704
0.00155384633542415
0.00112502449904137
0.000684903761863856
0.00503407514467751
0.00488297073224958
0.00468324221186965
0.00443663331344069
0.00414855043393063
0.00382579762928016
0.00347444129644314
0.00309974918935322
0.00270685488010332
0.00230063498403117
0.0018850749205011
0.00146371351043412
0.00104108884198324