/*--------------------------------*- C++ -*----------------------------------*\
  =========                 |
  \\      /  F ield         | OpenFOAM: The Open Source CFD Toolbox
   \\    /   O peration     | Website:  https://openfoam.org
    \\  /    A nd           | Version:  12
     \\/     M anipulation  |
\*---------------------------------------------------------------------------*/
/*   Windows 32 and 64 bit porting by blueCAPE: http://www.bluecape.com.pt   *\
|  Based on Windows porting (2.0.x v4) by Symscape: http://www.symscape.com   |
\*---------------------------------------------------------------------------*/
FoamFile
{
    format      ascii;
    class       volScalarField;
    location    "100";
    object      nut;
}
// * * * * * * * * * * * * * * * * * * * * * * * * * * * * * * * * * * * * * //

dimensions      [0 2 -1 0 0 0 0];

internalField   nonuniform List<scalar> 
10107
(
2.20189865595553e-05
8.22377974571981e-06
0.000255096863394522
1.71763038476502e-05
7.94822710980299e-06
7.8473777993814e-05
5.87263213965636e-06
0.000256031012406156
0.000253044091356601
9.30719780476892e-05
3.53294816716513e-06
4.82628531750745e-05
7.74705503301569e-06
0.00022661897205277
5.03045098901789e-05
8.09661261618001e-06
2.4439758458975e-05
0.000462532406874727
0.000937170743015952
0.000252164067898846
0.000212057550012131
0.000408238907673214
0.000265455565665112
0.000133800782091532
0.000231444049926575
3.5371842904442e-06
3.17356097035719e-05
0.000140743360157283
2.85738161404262e-05
9.64955893908568e-06
0.000363505912529413
0.000231223388693878
3.98000567550495e-05
8.36067553214792e-05
4.72015840345832e-05
1.23840164377949e-05
0.000108115515600425
5.88226783778904e-05
4.05309375063717e-05
0.000685067059398274
0.001114165643842
0.000446900717148523
0.00210783186727352
0.00102638605590453
0.000297415860697769
0.000116913084016894
0.000205225287943495
0.000364304120052192
0.000247444223767813
0.000117669758862355
0.000196069771251958
5.18084402854163e-06
1.34981895122587e-05
6.84673115825652e-05
0.000233143010763707
8.37725480468233e-05
4.24525056631576e-05
8.40033794503708e-06
0.00046286071598698
0.000323481295438329
0.000133725761429993
7.81103149648207e-05
1.74691311695502e-05
8.64146849140877e-06
0.000240929077437858
5.62025378990887e-05
7.0380859346162e-05
0.000828136670158855
0.00133896092332916
0.000601912142202923
0.00217143799888716
0.00108604626179077
0.00031318013541934
0.00337460822879736
0.00211887078380933
0.000908085134034842
0.000122557550159335
0.00023947884242709
0.00024346700838254
0.000193664622956957
2.46651870578027e-06
3.0483017588189e-05
2.01627949057253e-05
0.00012845266463971
0.000292361251141691
0.000118642742946361
5.38299152880291e-05
6.87152912984957e-06
0.000522438374301498
0.00040120712814961
0.000217774585002856
4.29111053979386e-05
1.19967919728725e-05
0.000156624592465084
1.82332443968865e-05
0.000109361393558742
0.000904109743695652
0.00148397917754859
0.000716218961876854
0.00229527960497227
0.00125902459839463
0.000419181117720586
0.00336465143240058
0.00214037438587653
0.000949383860578717
0.000139803644927513
0.00459343326797996
0.00336749248081592
0.00205601270823358
0.000789969158243452
1.97187443436102e-06
3.78595863629323e-05
3.07390488963488e-05
0.000155129912765761
0.000327619835465371
0.000225561692588868
0.000121224885645087
1.48157708202189e-05
0.000515350995619446
0.000449010939042781
0.000267259326749487
5.59441892623654e-05
3.44117547243995e-05
0.000253867236680207
1.98727562767209e-05
1.75173616843881e-05
0.000898967169760678
0.0015558054446334
0.000776288697831119
0.00239828576867671
0.00138526095399643
0.00049528898358317
0.00341047696857729
0.00224244960491339
0.00110001845415584
0.000234627315888234
0.00454819028618868
0.00334428661457539
0.00204846478538577
0.000751040648336129
0.000227364539219998
0.00458577934722216
0.00333506401548705
0.00198056396087819
0.000957196443099448
5.61530578755664e-06
3.81772008750514e-05
0.000110135656176726
0.00016796549190727
0.000320905767110976
0.000261871368551011
0.000184751573444251
1.38723713598923e-05
0.000462664532317543
0.000428847326554151
0.000292127928269094
6.68668232266575e-05
5.96163119286051e-05
0.000395192206606935
4.29435753818546e-05
1.95803051908429e-05
2.28302748193168e-05
0.000843042490212578
0.00154905255489718
0.000761098716729181
0.00245229063311806
0.00144581928243196
0.00052974188189877
0.00346297007888715
0.00233576344361417
0.00119987924360857
0.000264430478314189
0.00454520233007219
0.00338156802070316
0.00213707787015866
0.000906545291415692
0.000303748975968484
0.00453579318038881
0.00329487610279431
0.00192754647487314
0.00090145771291968
0.000366956895169318
0.00456349621919045
0.00330442429945105
0.00209461202043852
0.00117928548637148
5.40975450495434e-06
0.000102662670790621
0.000145541458163942
0.000165043012643833
0.000267584957041873
0.000267048368261844
0.00020505243835295
1.95501889367354e-05
0.000413166270445755
0.000304679612871423
0.000271097784440998
7.34576074258479e-05
6.37007633754999e-05
0.000517631017558739
6.34204596645072e-05
4.35385163606869e-05
2.27217148368677e-05
2.29570872439794e-05
0.000773208123318073
0.00148737461469376
0.000695258309941631
0.00244653821338869
0.0014308531395052
0.000512737357334688
0.00349399294320067
0.00238282675839318
0.00124200728103583
0.000285134509589445
0.00455781071080719
0.00342863958670835
0.0022142024045382
0.0009766743996234
0.000325881259242032
0.0056153524803695
0.00452894211134923
0.0033214489485766
0.00201643428551496
0.000995255166895352
0.000407489019841036
0.00450559753531041
0.00324249941790425
0.00202500969009287
0.00111992827136715
0.000482953178438299
0.004540412920204
0.00335201327009539
0.00226403176820469
0.0013512258879654
8.08428911414276e-06
0.000100589498729339
0.000124001331287613
0.000102500963526031
0.000118012659886053
7.10243214955975e-05
0.000152689997283829
1.99617801149761e-05
0.000357776004314493
0.000105810627734065
0.000150133456192782
7.6625906547729e-05
7.09604289396716e-05
0.000584713769388154
6.45697927993139e-05
6.40571811116687e-05
4.63467137560228e-05
2.24463966742827e-05
2.02589126918923e-05
0.000670613535433754
0.00140001688719522
0.000612534554339488
0.0023941416284639
0.00136082124902114
0.000444547371878398
0.00349076931971384
0.00237064400011734
0.00122377864329408
0.000298567704026365
0.00456734684988196
0.00345534853594249
0.00224787895150926
0.00100866958307106
0.00033533733450361
0.00560182705086529
0.00453847498537829
0.0033579102175164
0.00207560617656328
0.00103599461240894
0.000417794083665518
0.00658087601258275
0.0056041900741886
0.00449190614485873
0.00325834968102964
0.00206636626605541
0.00115272138963836
0.000490160120712235
0.00447306624002195
0.00327876756705135
0.00219172408782055
0.00129378857094489
0.00055572525690096
0.00454259026377374
0.00343539124724057
0.00239725498530072
0.0014443106307118
8.99289502254095e-06
0.000114987052590934
1.56030408114454e-05
4.58802653781393e-05
0.00017162508321208
4.61419305842448e-05
4.10846048964036e-05
1.45549827900727e-05
0.000357765689916655
0.000112516734471972
8.49080433740463e-05
7.73837083642021e-05
7.48994504082143e-05
0.000607483267197727
7.07504382283903e-05
6.45709407446979e-05
6.49253062832802e-05
4.65178505250873e-05
2.01222655879985e-05
1.2363410840329e-05
0.000632908852230976
0.00128846542318072
0.000478892782132364
0.00231799602719263
0.00125464932627137
0.000250708596106111
0.00345768113136058
0.00231064314004112
0.0011438050394447
0.000301704615394665
0.00456347684618155
0.00344812929194737
0.00222820607444524
0.00101161714845779
0.000346791923621853
0.00559455604770706
0.00454547482013846
0.00337529777357452
0.00209837579608
0.00104960545371167
0.000417584772492995
0.00655341850257515
0.00558909906756641
0.00449485573782514
0.0032810073622593
0.00209524511222746
0.00116623775104241
0.000490922745399441
0.00742923870385527
0.00657121115774385
0.00557494661012224
0.00445046974350503
0.00327064413480612
0.00218976796851452
0.00128802364606521
0.000548656735845764
0.00446993757479548
0.00336069792247352
0.0023300647984939
0.00139651203398083
0.00058712586233919
0.00455736476195274
0.00349978165334656
0.00246667216330401
0.00147484780200792
4.92060121371851e-06
1.14847453237676e-05
2.04430518948191e-05
6.37098721888979e-05
0.00021414969817796
3.98363729999925e-05
2.56261133547884e-05
7.9713950134323e-06
0.000282537810695226
0.000182519891349088
4.11303184454775e-05
7.65586089911772e-05
7.63272345013838e-05
0.000606745975747043
7.42250898544315e-05
7.05328361895464e-05
6.44942353405959e-05
6.58342817894016e-05
4.25238179099674e-05
1.28793378165596e-05
3.41411315164215e-06
0.000504339724247381
0.00123665883341627
0.00048303530322666
0.00223953086766722
0.00111652554671493
0.000144459453499672
0.0034099528364769
0.00222202595167145
0.00101116057614376
0.000224328409252027
0.00454564676238882
0.00341066025787924
0.00215724216668483
0.000974064455746852
0.000348973112301509
0.00558640433839449
0.00453950669767312
0.00336093456642938
0.00208253273477545
0.00105162686583017
0.000429052118898597
0.00653507550973279
0.00558050582628533
0.00449602886811363
0.00328813387565739
0.0021024099153377
0.00116598297774431
0.000485225879741911
0.00739636642772315
0.00654309750121024
0.00555638538954945
0.00444416066931478
0.00327362323226857
0.00219198227464929
0.00128427944443898
0.000545718400585345
0.00816184048271633
0.00741936630737564
0.00654251846585724
0.00553565635081802
0.00443605509933476
0.00333176704270816
0.00230463855457564
0.00137650615036247
0.000578485172175213
0.00448550539722985
0.00343076942978735
0.00240986792166352
0.00143864985869954
0.000593348253198421
0.00455712708816348
0.00352031902837684
0.00247838321001002
0.00146625448054629
2.80585796860469e-06
3.83320793973336e-06
1.12179880693619e-05
0.000135097201938342
0.000113172204168431
7.36160005914784e-05
3.78224765558659e-05
1.7059328878069e-06
3.92334019872497e-05
0.000134447407383419
4.40658480086561e-05
7.46864588519035e-05
7.59608403114787e-05
0.000594690842441087
7.57311822725971e-05
7.38670874017109e-05
7.01863452945951e-05
6.48600286709049e-05
6.23576096940536e-05
3.19128658616057e-05
5.69955573592533e-06
9.33575310830704e-06
0.000235342984177398
0.00113853287530735
0.000475568113957601
0.00220958250680947
0.00109240460122116
0.000202906117422157
0.00336792276537703
0.00213283901746034
0.000863016528217971
0.00012773692650237
0.00452088295669435
0.00335796241696041
0.00204677989886826
0.000832081451871662
0.000288161881134935
0.00557480467859817
0.00451986552200135
0.00331566389405254
0.00202068262273447
0.00102616605010546
0.000432441028066779
0.00652150800115782
0.00557136867807328
0.00448536669608395
0.00327001412908588
0.00208862316457735
0.00116860738250499
0.000495683040361495
0.00737214061723184
0.00652417043079705
0.00554467494321307
0.00443801171469548
0.00326974498986457
0.00218722684177489
0.00127693577030415
0.00053920312999818
0.00812877710499289
0.00738633105023957
0.00651301124888248
0.00551210149408474
0.00441882474460745
0.00331787140987212
0.00229136909747239
0.00136590442150196
0.000574960048587471
0.00878691977079562
0.00815096840840512
0.00738838998492725
0.00649766522891105
0.00549912958786443
0.00444337502339023
0.0033919404948728
0.00237763510542972
0.00141798297099717
0.000586496032202817
0.004491155370417
0.00346108542089424
0.00243327793796128
0.00143975277198297
0.000585221184765477
0.00452321044465587
0.00349292457105544
0.0024459057394024
0.00143362069135923
4.05550458733638e-07
6.94132414355597e-06
3.26874195038693e-05
0.000101801749083538
3.00195903242559e-05
3.66028373142612e-05
1.98654708378856e-05
4.50147042933681e-06
2.43877376888516e-05
4.02826617173166e-05
6.90059128052701e-05
7.4388613564534e-05
7.21460287443011e-05
7.43742252005481e-05
0.000575998916426318
7.55550232037931e-05
7.53867098976598e-05
7.35008266389993e-05
7.04928499683766e-05
6.35043198167235e-05
5.34018789725284e-05
2.4484299418565e-05
8.92286327427067e-06
3.54612330860435e-05
0.000339801124744285
0.000935001778161267
0.000276191552918015
0.00218548708144144
0.00111876396229545
0.000347846641978628
0.00042481906879702
0.00335401284190002
0.00213130004136522
0.000887455795874795
0.000304922500551185
0.000128168479755453
0.00450013483733016
0.00331514769793146
0.00193624377306958
0.000621978796478955
0.000204500842148522
0.00556130248860248
0.00449389939300125
0.00325284975994172
0.00189601435287173
0.000925834814535624
0.000395482739814145
0.00650991813788284
0.00555914506362036
0.00446169560403587
0.00322369746749808
0.00204367925651547
0.00115452281487656
0.000501556747609359
0.00735418275554881
0.0065101932853066
0.00553304055956472
0.00442317041520174
0.00325194131033521
0.00217715080014944
0.00128014748674917
0.000545846398566441
0.00810256888256716
0.00736192549548241
0.00649273075097993
0.0054962218839242
0.00440565578902353
0.00330601998644355
0.00228062848014844
0.00135671831098796
0.000569128416130829
0.0087564188662728
0.00811797333586223
0.00735508125094613
0.00646616640471511
0.00547037594733649
0.00441757407073151
0.00336878926437245
0.00235865120110157
0.00140628025318766
0.00058278620880793
0.00931536960350296
0.00877474199213535
0.00811677086137728
0.00733577203799808
0.00644145317821917
0.00546427583369338
0.00444662650809455
0.00342148890849014
0.0024031357458788
0.00142258416773543
0.000579867368692056
0.00446609008581166
0.00344454501562356
0.00241103385668364
0.00141358086183918
0.000568922611142182
0.00444710416907122
0.00342058392071948
0.00237896277205132
0.00138342160662491
9.04770198084778e-07
5.86526837475668e-06
1.87331861646241e-05
1.36528237692721e-05
2.98586124973048e-05
2.80539248487211e-05
1.90844428705912e-05
4.04682614006122e-05
2.00622614339264e-05
3.47904615018696e-05
0.000206964736655345
3.94745650634972e-05
0.000123704494649487
0.000184052619617821
0.000118345752444477
8.17170019767863e-05
7.22549834937153e-05
0.000553438627778636
7.41494144378068e-05
7.52715453155307e-05
7.50828730204038e-05
7.36530311338305e-05
6.98089083832839e-05
5.98418430292175e-05
4.76469220879824e-05
3.04467963305866e-05
2.47287925693902e-05
0.000449496425603705
0.00110490627867747
0.000364451795107325
0.00213832435139615
0.00113811544656392
0.000276865000589773
8.85092753220087e-05
0.000439764973858549
0.00335441807334082
0.00217616119314548
0.00110128753697261
0.000255844550937312
0.000202411399299569
0.000529498667683568
0.00038873604148106
0.00449218812678297
0.00331669773338681
0.00197795871827326
0.0006519747140564
0.000159825091188071
0.000327740077922105
0.000213875453552378
0.000207649920416963
0.00554987757408956
0.00447452617556363
0.00320500294005287
0.00174480481875131
0.000784696910941053
0.000328400041467938
0.00649937066054921
0.00554555719668237
0.0044326871491494
0.00315500267208349
0.00195454906071189
0.00109796080601763
0.000491258020739221
0.0073402145088518
0.00649841920598736
0.00551906130959218
0.00439757978901864
0.00321568073867713
0.00215093170604499
0.00127673637356902
0.000550185985350891
0.00808205987698991
0.00734384238556046
0.00647765273171202
0.00548189135807061
0.00438948983853708
0.00329130234961461
0.0022740590851211
0.00135842285283896
0.000571621218218109
0.00873073044178629
0.0080917848906774
0.0073302967271864
0.00644403485671897
0.0054506319298995
0.00439965208632851
0.00335307245381499
0.00234609140234373
0.00139715769707004
0.00057765109158275
0.00928862616192269
0.00874439710428081
0.00808400492213441
0.00730213375806166
0.00640817273321148
0.00543210632692288
0.00441680218735498
0.00339569139952103
0.00238391308615215
0.00141166125985481
0.000575893180918946
0.0097587187289012
0.00930184434871361
0.00873719550009249
0.00805629988448906
0.00726222523392955
0.00637292489209336
0.00541749561476809
0.004424032660824
0.00340908762642547
0.00238574861221835
0.00139976411964855
0.000565074769584581
0.00439968997574894
0.00338211110774838
0.00235186726484133
0.00136778035578245
0.00054877561849509
0.00432507589698494
0.00330581289021858
0.00228140022284268
0.00131800048010196
9.82264994980519e-06
1.31858228017918e-05
1.36550593387108e-05
3.27907673526527e-05
5.8090986445373e-05
4.02326258019499e-05
4.40941691539124e-05
4.24839438099772e-05
0.000210596850477429
0.000158435865606186
7.00305464120475e-05
8.10700592173173e-05
0.000538438530568098
8.62382160671567e-05
7.38655118501394e-05
7.50311881796978e-05
7.50887876528044e-05
7.33264677240087e-05
6.78321972005528e-05
5.68767736998558e-05
5.54776967002638e-05
4.82726704856019e-05
5.65422223824061e-05
0.000545841967787465
0.00126905099165189
0.000457715795591135
0.00225007850964782
0.00125868889516386
0.000381934863127521
0.000179717294373396
0.000541247266325985
0.000300793390209717
0.00336474143687183
0.00221509269326924
0.0012120324416529
0.000334946005080156
0.000160381576532839
0.00449527615052137
0.00334532445736495
0.00213092253767337
0.00089271980725151
0.000248625392189872
0.000282098148229377
0.000268810948533465
0.000369165039908029
0.00554386888767957
0.00447331437154924
0.00323253361581899
0.00180556533163699
0.00082105340774532
0.000241828609358302
0.000352099761348445
0.000310386554249187
0.000325691424989165
0.00649037059245319
0.00553517317661434
0.00441489051846897
0.00309894100301344
0.00185986560981771
0.00101846673057143
0.000456849039197514
0.00732859100535527
0.00648797688262383
0.00550490350137203
0.00436761767538116
0.00316490262079949
0.00210233058285076
0.00125598781601266
0.000552467417074152
0.00806560955558015
0.00732984679914974
0.00646521054380156
0.00546672994562386
0.00436770763365285
0.00326873945549481
0.00226260790640185
0.00135940615528531
0.00057257038856755
0.00870935750083817
0.00807128698706351
0.00731186672747065
0.00642766130334954
0.00543486962509953
0.00438446634458334
0.00334156661231783
0.00234096298944512
0.00139627938907817
0.000576681525813861
0.00926484040318202
0.00871881454264701
0.00805789799643528
0.00727686610847691
0.00638442195291492
0.00540996818594172
0.0043968108908674
0.00337898399886717
0.00237131728580465
0.00140292352391917
0.00057117118739954
0.00973598692193524
0.00927527228787017
0.00870725591656988
0.00802396032974315
0.00722861047781593
0.00633906527261074
0.00538460325413701
0.00439413903517398
0.00338445105833642
0.00236831456290789
0.00138968306505501
0.000560032361670749
0.00974394594963722
0.00926118136845989
0.00866952065223008
0.00796778978122126
0.00716617863907178
0.00628395557517921
0.00534364051151437
0.00436274118421424
0.00335229401667347
0.00233127284788484
0.00135684822423876
0.000558020833638894
0.00428678200229592
0.00327548552159499
0.00226008020943109
0.00130578536386498
0.000531496194538754
0.00415395613922685
0.00314784015280332
0.00215208143781985
0.00123658603943136
1.81286747040338e-05
6.79281687720245e-05
5.97497267550386e-05
5.47740278704832e-05
0.000158650302992247
0.000184396523662179
5.39035915453444e-05
6.91562163128825e-05
0.000484941791012986
8.06692630809562e-05
7.15439614637131e-05
7.36957283878947e-05
7.49366067647134e-05
7.48959327781141e-05
7.23647585300812e-05
6.65648700975326e-05
6.0724576279484e-05
5.82987754497187e-05
5.99187029193891e-05
7.28317022350317e-05
0.000590499154460543
0.00140457947305662
0.000550875576547917
0.00236826505528402
0.00132535581236648
0.000501760412037456
0.00342968816323857
0.00231072318564252
0.00125592231374344
0.000354936391579163
0.000204488886969642
0.000346573254815595
0.00451108984623894
0.0033829400852647
0.00224675735333736
0.00111669606106283
0.000494973310430055
0.00554439040204235
0.00448668855623277
0.00331080367111461
0.00202622896289659
0.00100906852373773
0.000272722496082108
0.000339791323064299
0.000352102044339403
0.00648370536783285
0.00553183159930014
0.004426491107695
0.00314461633070691
0.00191368329263151
0.00105798428186315
0.000478064501754866
0.000429276429353191
0.000427244401090825
0.000458766596308552
0.00731836757244726
0.00647951266399989
0.00549643939415414
0.00435186774993798
0.00313097325960667
0.00205878922080639
0.00122379614728996
0.000543473272106875
0.00805158401154764
0.00731832046050576
0.00645478714581439
0.00545290867475261
0.00434499054191913
0.00324093663476533
0.00224357007119025
0.00135717866149093
0.000573632059789073
0.00869116638289519
0.00805487103531267
0.0072976838363095
0.00641469519408504
0.0054207199786241
0.00436912815269001
0.00332976220323043
0.00233701280994511
0.00139670781784697
0.000574323992548533
0.00924376049557453
0.00869751331282308
0.00803740987141704
0.00725804639880523
0.00636724513610946
0.00539412849432536
0.00438317241231588
0.00336928990885679
0.00236583730607253
0.00139927378696377
0.000568030754799199
0.00971460001080848
0.00925161427611176
0.00868193412225335
0.0079980452766137
0.00720309552691063
0.00631458532069433
0.00536177451661145
0.00437401980254874
0.00336815460126145
0.00235620118773085
0.00138128464051918
0.000556387194270787
0.00972135210072302
0.00923504209050919
0.00864027290342372
0.00793627766940702
0.00713340766076116
0.00625111275242481
0.00531231952287963
0.00433513265397563
0.0033303256204459
0.00231590795176868
0.00134705113580206
0.000539275484926152
0.00970056106429212
0.00918719137565984
0.00856824985961182
0.00784900060487354
0.00704190218117397
0.00616358244732371
0.00523063567249968
0.00425569784174696
0.0032510459210687
0.00224337557952721
0.00129996492352766
0.000527679900755079
0.00412352721070406
0.00312394472343277
0.00213505124894326
0.00122454091741172
0.000476945303423442
0.00392877000086555
0.00294169552525551
0.00198389372346943
0.00111223011450523
7.44610620705754e-05
6.99955290002485e-05
6.92168798756863e-05
0.000377485720757159
3.60522974147072e-05
5.29585056317824e-05
0.00040830043978426
6.83243663349191e-05
7.95827536052553e-05
8.57034177620228e-05
7.35534097917433e-05
7.47766040510124e-05
7.44233844432523e-05
7.19419952040553e-05
6.88758167797284e-05
6.72148259345012e-05
6.78613871613799e-05
7.03713784115185e-05
7.28443592527216e-05
0.000609494900883134
0.00147183780113875
0.000594794778528024
0.00246200428868755
0.00142345743248234
0.000584856159797992
0.00350394566334572
0.00239846624007427
0.00135116161975369
0.000564053449395766
0.0045482817776568
0.00344867977370066
0.00233707516626277
0.00127432379503513
0.00555301906980735
0.00451150729664645
0.00338670914170938
0.00221472958483552
0.00120273556616733
0.00647994705862216
0.00553598614013829
0.00446001118793799
0.00326194295098077
0.00208624991206552
0.00118643570240035
0.00730892704815294
0.00647386815984004
0.00549877473433594
0.00437482410597857
0.00317534574754345
0.00210412105730415
0.00125475852227446
0.000557802230107384
0.000526466387470054
0.000515403609552603
0.000531499916811862
0.00803851512802036
0.00730834484600996
0.00644741667924241
0.00544708878987434
0.0043372485486202
0.00322879741927978
0.00223115218801395
0.00135116621118255
0.000574528465399631
0.00867471415195683
0.00804091863207467
0.00728625256846217
0.0064046781822234
0.00540966952705584
0.0043561485047765
0.003318628201787
0.00233301363911902
0.00139790033418836
0.000572189863437523
0.00922463631691691
0.00867938258917999
0.00802100708782797
0.00724374536148848
0.00635449436496191
0.00538226323576143
0.00437310863298591
0.003363125556656
0.0023636104535764
0.00139695869259344
0.00056396902108959
0.00969449097759233
0.00923063094831636
0.00866078274065257
0.00797764369920446
0.00718412767370494
0.00629729969608185
0.00534647177821177
0.00436145944650228
0.00335891307927446
0.00234955353800574
0.00137566209618994
0.000552422134169044
0.0100896152645698
0.00970007301968726
0.00921167815306085
0.00861541312036709
0.00791082049613469
0.00710821406726615
0.00622695728917792
0.00529010312634128
0.00431595633645455
0.00331498443005886
0.00230443826929134
0.00133965486822888
0.000549865016743186
0.00967834429223344
0.00916178325643755
0.00854009243758396
0.00781892016632366
0.00701095274123366
0.00613310299837057
0.00520228063153552
0.00423134805458104
0.00323199984845324
0.0022298014504845
0.00128716763622531
0.000519654148513764
0.00962119160696198
0.00907513456784643
0.0084305537901132
0.00769523887860195
0.00688081204343341
0.00600100022403254
0.0050692636357714
0.00409799813035089
0.00310406023428491
0.00212172389209115
0.00121549313297739
0.000470492827116315
0.00390482957352827
0.00292275396617871
0.00196924157551829
0.00109984990406933
0.000399198460518961
0.00364147687937083
0.00267726826041454
0.00175935672373723
0.000942676878775956
7.77300107882803e-05
7.54065545897772e-05
7.49922576073218e-05
1.92890018664987e-05
3.51464859813437e-05
0.000312652918582748
5.20362526094612e-05
6.7359822897587e-05
7.92906700971919e-05
8.49780006156142e-05
7.3405336345046e-05
7.45271832531418e-05
7.43187608025222e-05
7.34907982351079e-05
7.2751108285223e-05
7.29143413373006e-05
7.4304718488606e-05
7.62032120580827e-05
7.79224716429504e-05
0.000618714249372055
0.00150210966386657
0.000613471191235251
0.00252024110181953
0.00148301622918709
0.000615519864513489
0.00356450321154867
0.00247722353583688
0.00145298181503739
0.000618506030613376
0.00459039605778193
0.00351647437126904
0.00242074894257681
0.00140604927569863
0.000602709207949555
0.00556995977502057
0.00455115624542807
0.00345961925750306
0.00234509366441355
0.0013505358064563
0.00647917675823165
0.00554776621429317
0.00450098160095681
0.00337246210363531
0.00225465712414293
0.00131977277352923
0.00729962456503031
0.00647138240897475
0.00551072064601065
0.00442611769279266
0.0032787543973018
0.00221821137647473
0.00132977959907067
0.00802499050583617
0.00729928952182361
0.00644408722265456
0.00545534089586609
0.00436275812431762
0.00326509674238048
0.00226430595437598
0.00137253899923989
0.000586760862329035
0.000582553296824744
0.000575891298069384
0.000582792776796688
0.00865837602824843
0.00802796626461216
0.00727675916183081
0.00639886797472199
0.00540728613936044
0.00435572011376502
0.00331897545727696
0.0023346807050162
0.00140110127234634
0.000573121981494239
0.00920619644398403
0.00866299093481098
0.00800712940036649
0.00723258621501383
0.00634556659891367
0.00537475611652798
0.00436721123642321
0.00336026982346131
0.00236393259095881
0.00139649009048011
0.000560539307681464
0.00967505381003327
0.0092115780227569
0.0086427356307133
0.00796133257157663
0.00716997587787324
0.00628526684954533
0.00533656229870777
0.00435412923166593
0.00335434193772457
0.00234624717976587
0.0013711596363355
0.000548032610426433
0.0100711015039354
0.00968007612136925
0.00919088115300563
0.00859454843158523
0.00789070036652836
0.00708947737597959
0.00621003345319678
0.00527540863685994
0.00430390302607592
0.00330552510800482
0.00229678067556953
0.00133323011455015
0.000546074702121591
0.0104001471076843
0.0100739337659849
0.00965731951789717
0.00913893712536294
0.00851597749839374
0.00779433766212954
0.00698674640037244
0.00611013155597913
0.00518147557054308
0.00421361770618306
0.00321782984933281
0.00221928030573577
0.00128424709447708
0.0005165344365458
0.00959963751631728
0.00905082665278738
0.00840396578765384
0.00766723637543588
0.00685250185907626
0.00597372108201142
0.00504446139703649
0.0040770592840627
0.00308770433414949
0.00210912150714575
0.00120523598626921
0.000463512575496204
0.00950009345410726
0.00892168851309578
0.00825218070257915
0.00749921741048872
0.00667317341768666
0.0057862519080559
0.00485154922545184
0.00388412713033619
0.00290653284348814
0.0019568676596456
0.00108950614414308
0.000391447669938043
0.00362274297281895
0.00266187544472996
0.0017459210036847
0.000929806585791678
0.000303062880931357
0.00328035319881987
0.00233927927619835
0.00146686871200006
0.000725528069454541
7.92869740752477e-05
7.82127110963761e-05
7.81554369735344e-05
6.8336508507003e-06
1.85610613227573e-05
0.000202563214277644
3.42484414435114e-05
5.10902934688254e-05
6.65559706961638e-05
7.83725777304607e-05
8.41921518575618e-05
7.32525713641284e-05
7.44659623088857e-05
7.52649020626589e-05
7.56470306976891e-05
7.60578553389174e-05
7.69413233927415e-05
7.82746612652982e-05
7.95850468374035e-05
8.02087994300476e-05
0.000621677301475129
0.00151295849827788
0.000622127810468426
0.00254657462580168
0.00151089401875947
0.000626456142688132
0.00360148189484565
0.00253072793617837
0.00150420086457425
0.000635971166034308
0.00462248923707518
0.00357259107632085
0.0024955030345301
0.00148765703063788
0.000636571515800449
0.00558650436951116
0.00459273448271645
0.00352551680525985
0.00244343024365707
0.00145387760651137
0.000624322100977902
0.00647930335331903
0.0055661531935253
0.00454619773601947
0.00346063993533403
0.00238120932689331
0.00142164321770097
0.00728915926355705
0.00647171153469295
0.0055288633427035
0.00448190861858712
0.00338375553620715
0.00233601558973162
0.00140733925811789
0.00800939889958713
0.00729042379218023
0.00644447563555327
0.0054749248630667
0.00441347980264936
0.00333857924519519
0.00233212467138248
0.00141251028593067
0.00864031251157752
0.00801458883269895
0.00726854466614276
0.00639823720354386
0.0054181465693662
0.00437792547691571
0.00334558016045507
0.00235743585016965
0.00141692691039255
0.000582601388052236
0.00060134830849579
0.000606588732146942
0.000612113822701039
0.00918677621024705
0.00864671676462186
0.0079943428151037
0.00722380925401655
0.00634133841476894
0.00537488351570942
0.00437047169049181
0.00336523517116234
0.00236934741589687
0.00139984279953025
0.000559099515141152
0.00965513623268111
0.00919319441309721
0.00862639087632066
0.00794762297773158
0.0071592934214357
0.0062775473301758
0.0053314858039431
0.0043515033081689
0.00335380603318739
0.00234613980872491
0.00136881301483605
0.000544719688218389
0.0100518117870798
0.00966071773906902
0.00917192425373276
0.00857667675850518
0.00787463132470284
0.00707567941764296
0.00619865779443642
0.00526645848148246
0.00429725061710811
0.0033005096663361
0.00229197928124966
0.001327737270302
0.000541199313601051
0.0103830697335313
0.0100555119506294
0.00963751014267643
0.00911847830788766
0.00849560001860803
0.00777476325346444
0.00696857552509344
0.00609381176125682
0.0051673392912603
0.00420181732545123
0.00320813891189776
0.0022112045235895