/*--------------------------------*- C++ -*----------------------------------*\
  =========                 |
  \\      /  F ield         | OpenFOAM: The Open Source CFD Toolbox
   \\    /   O peration     | Website:  https://openfoam.org
    \\  /    A nd           | Version:  12
     \\/     M anipulation  |
\*---------------------------------------------------------------------------*/
/*   Windows 32 and 64 bit porting by blueCAPE: http://www.bluecape.com.pt   *\
|  Based on Windows porting (2.0.x v4) by Symscape: http://www.symscape.com   |
\*---------------------------------------------------------------------------*/
FoamFile
{
    format      ascii;
    class       volScalarField;
    location    "100";
    object      omega;
}
// * * * * * * * * * * * * * * * * * * * * * * * * * * * * * * * * * * * * * //

dimensions      [0 0 -1 0 0 0 0];

internalField   nonuniform List<scalar> 
10107
(
5.27003482348185
7.27825328304519
2.10339190860351
5.96826009719384
4.14927083928547
2.08885787552049
9.14053124380136
1.71713595089954
2.24298883741293
3.69684631541332
3.78036264211066
1.80020668944518
4.66904877017909
1.04628430272418
2.42308497481671
9.18162026892896
3.58570095884428
1.07195050727663
1.17176927091218
1.87099484767689
2.39964583987462
1.90206554574302
2.26644230784136
2.94542801677955
2.29486562343617
4.07665577109734
1.08141292461612
0.785346399274446
1.29518658822272
5.09571296103964
0.782345913341499
0.888437159566352
1.93941700162418
1.71596163275
2.6576975479417
4.43089718798029
1.75232053377544
2.16502271604538
3.38130528589636
0.843645701084183
0.94970692553135
1.03068511217801
0.851690144198256
1.12335212214866
1.5391926947476
2.47898102143594
2.29456558851162
1.65789609994651
2.22345178560205
2.89545504288816
2.39810317408476
4.54723869844334
0.745367246182598
0.517231336907874
0.607490622984863
0.59520786189695
1.37728826272127
3.95312183062866
0.718911510893315
0.7608521833531
1.0569187165838
2.18481034004904
4.75759480946997
4.41110540376318
1.58967833806871
2.52358589504044
3.08793160028727
0.767657553120488
0.815428604929217
0.87812516052873
0.792834875986214
0.962810159461473
1.2064620768167
0.698353763913429
0.851097436379015
1.18071628494276
2.20789379118397
1.81300294289109
2.1433703629189
2.27731842566521
4.21125316065085
0.83657429676533
0.285779590777449
0.440801580222968
0.57986469236929
0.52753995846182
0.681707573071054
3.45560940552646
0.681880740702035
0.773662715647961
0.980734422686974
3.17815925430089
5.16228597672177
2.44864526904265
4.4438557929623
2.41723089456052
0.73174761365535
0.752928432794268
0.834443658321446
0.735866424527254
0.851143012890476
1.07618139577436
0.680467953175152
0.804673049931804
1.05929020124429
2.54602795349842
0.614693617900779
0.70034767583456
0.870828854880112
1.38405353616679
3.66630328696804
0.322821079993451
0.307052277703311
0.45542359107921
0.554830463189969
0.619076974456871
0.74070644022738
3.31782161675668
0.673301475205762
0.757412928880806
1.01469497125784
3.58970638086406
3.26468592581607
2.06262421087813
5.23596345843017
4.50823200270357
0.727481439024717
0.723350238861277
0.807698512165196
0.698070532519973
0.796060865141408
1.05047847939644
0.657271612681436
0.752995198325952
0.952489432878736
1.9704606308883
0.608477734452587
0.685155890533913
0.837546789741542
1.37761456924447
2.12796162681378
0.615361887395443
0.7047673067842
0.905742367619453
1.25770908340554
3.39149407407109
0.528173872420653
0.484806637518064
0.441017860320526
0.538901155465695
0.608178295253987
0.784284452628817
3.27878063814882
0.656774616634661
0.748269549716666
1.01745795054937
3.79610531519454
3.00569648010294
1.76450629144367
3.29539497570583
5.25714597072873
4.50893437524619
0.732151633768528
0.719884077749691
0.805289302451752
0.677805708855365
0.769404773249934
1.03238186634262
0.637816153433975
0.717184134765155
0.90213639457024
1.9121651236896
0.598770795642601
0.663546668833887
0.78964837329921
1.18390228599539
1.82558151942929
0.609941580249377
0.693896320761428
0.896109531519685
1.26908109165294
1.76874578180673
0.615356514779906
0.707822972174757
0.870051239170532
1.11184701560119
3.2805200044547
0.549917644715373
0.466089400196257
0.427025281587101
0.511184206784473
0.593499710471163
0.792510191757755
3.25698095035996
0.653877846827574
0.695016842751459
0.995755144385813
3.91545021259088
3.6637161594919
1.58879923894269
3.0171940487117
3.30684481874429
5.26186321824533
4.53678670404781
0.746818171117526
0.731778776109659
0.792406920837107
0.673784988891965
0.768527011653944
1.01981367745212
0.625527088621319
0.698208637282751
0.878681553549041
1.85340182408467
0.589136162837146
0.645025466123245
0.756940683859812
1.12123198624865
1.77165371725103
0.558933543022817
0.600849973852332
0.67481725011151
0.843932152462132
1.1570897336024
1.63988179208247
0.611459968718986
0.703157575040411
0.870290418394821
1.12026552930529
1.60473187641517
0.613127019480825
0.693965011807962
0.816028138460893
1.01593622707772
3.23734644487135
0.560972019338396
0.456344601605764
0.398434955142421
0.536089683688439
0.544466031979764
0.77054560090311
3.25879707512224
0.761301204874611
0.650008941429741
0.883925378725462
3.93657696203356
3.81209670960293
1.50783941894218
3.64757319282024
3.02366096824299
3.31550065235858
5.31432902124554
4.54468513030997
0.83446887259064
0.755338234004963
0.798907670868332
0.681870266991991
0.780936582115853
0.984566067220981
0.621341427185434
0.695799980088556
0.87773366154574
1.75062150024702
0.582018458650769
0.633455638170609
0.740516579589967
1.09053875849341
1.74717484576119
0.554049348329665
0.591692257217235
0.658351323125183
0.813213410667871
1.11405333377428
1.60778093611259
0.532406118910785
0.559498406812081
0.603637714023823
0.68698076284417
0.838254141905333
1.07323817528377
1.55822736073684
0.611300121425462
0.693387199167432
0.818997780717135
1.02385504057258
1.5182319614234
0.605396115008895
0.671411097230653
0.77208734556962
0.961572180725003
3.22439968358239
0.534341120125304
0.331013922871317
0.423448825570366
0.595556973690191
0.396566955478092
0.597225031603145
3.27988146396991
0.802350739378666
0.901525953688436
0.840093330941493
3.89128662693795
3.86361112272385
1.46911320904847
3.75003298027379
3.64277481323908
3.03024726371563
3.33163896088872
5.35602151296243
4.61092380035489
0.874852489852291
0.806316839694281
0.957976887925143
0.698320303211498
0.811077569805615
1.00783112064347
0.624052566250182
0.706046631613778
0.894271356898933
1.57697329882065
0.578460549472043
0.6300102615109
0.74022304767181
1.07434458451417
1.68843400279023
0.549950269045976
0.584951848423404
0.648450516684948
0.798383145179167
1.09582421872863
1.60318421906484
0.529838948046954
0.55485854418612
0.595586737389288
0.673334854520672
0.817622377461631
1.0507552294631
1.5409872285404
0.514959240748748
0.532427837835861
0.55947967814929
0.605295770566555
0.683279109531106
0.804623456812306
1.00754776120559
1.50269364379809
0.605246827831812
0.672657179147198
0.775495685366378
0.967236010528898
1.47352015227786
0.593768434625628
0.649499046875493
0.741239263958609
0.928956959181672
3.24998785049072
0.244889165149266
0.200468111159869
0.438557728561506
0.616164885233627
0.73196162744424
0.544939445030205
3.33405604383619
0.924659823539223
0.891117987560776
0.829964887034624
3.80270440553779
3.84113867754888
1.43864981052516
3.81524852960132
3.72722867783519
3.63371266455371
3.03916579930953
3.34928365706884
5.50343821068362
4.57673898216596
1.01210953968835
0.84108613596044
0.986460679954526
0.722040321507454
0.886656369680053
1.13659180723405
0.631466675587939
0.726545197019733
0.946942755414328
1.71082583949597
0.578342059861586
0.633609622912402
0.754710318340189
1.07685254005781
1.60687413980386
0.547312920908618
0.581705632966107
0.646419414830819
0.797609509672285
1.08463273400899
1.56769621224265
0.52744504643889
0.550947196288773
0.589752642817061
0.66543815518443
0.80780249603838
1.04250983820807
1.5444128766968
0.513500214781909
0.529983208953431
0.555384750192523
0.598885561559668
0.674055869561946
0.793554597828817
0.996980501289884
1.49116989449508
0.503585356092022
0.514789832496709
0.531473320738156
0.558249462111241
0.601544332142175
0.667841324129544
0.770282190994589
0.962399721686666
1.46570546221349
0.594512661482604
0.651181648705437
0.74392331209617
0.932172805412627
1.43938558665946
0.581326004815065
0.631181326023394
0.718902855794516
0.903951731898804
3.30374280047492
0.228377827133425
0.429080014420622
0.450132337925279
0.722841742994632
0.675422166409919
0.340232893609214
3.41292537707422
3.07870875889917
0.812775053795516
1.08870248738409
3.68404453237631
3.76681205957816
1.40268838342834
3.80639132683013
3.79263579113547
3.71322799254364
3.66694305975572
3.05014928535692
3.38062081357103
5.69036198270097
3.8730490814397
2.22999536376734
0.924376372195584
0.994728895319809
0.740965292822832
0.916346366750648
1.27971318365212
0.641166409602815
0.755436562475471
1.06205626614947
2.3860737649908
0.58078772255516
0.642092454348098
0.784648934717221
1.18017260980435
1.70231852578167
0.546310285093482
0.581854308495251
0.651760546258043
0.812961423558859
1.0896323216533
1.53296968869848
0.525622058980835
0.548441221846325
0.587219264275302
0.66444165565812
0.807103384004193
1.03460127105649
1.51980488886485
0.512040566853694
0.527680438655316
0.551920255775568
0.594275052957648
0.668605164163624
0.787967691451763
0.993437803427243
1.49427811115952
0.50265389284988
0.513394310283203
0.52928180601211
0.554968961986415
0.59712938297176
0.662575377284178
0.764870933226679
0.957053715442364
1.45681248015843
0.496241181611581
0.503358335671941
0.513530631273946
0.529436051639488
0.554633797892777
0.592716233376427
0.649343085191004
0.742323129897374
0.930335948678346
1.43365729625152
0.582312011191817
0.632592323674734
0.720566850043347
0.905453505978203
1.40272062908268
0.569713419816477
0.616019328889274
0.700483336365522
0.87934448578985
3.4326741234752
0.141192932441531
0.450898585913868
0.51037821957572
2.51310024892921
0.483725227651082
0.574420533306322
3.40587309548597
5.56935632745119
2.96800662017695
1.34008319799497
1.368173439949
3.54815729448969
3.65675161286361
1.3577691231586
3.7409564869989
3.78581321696746
3.77660548086125
3.72981885346684
3.66411387951048
3.06124431078117
3.41224625226103
5.97442220864581
3.31903464970527
2.03147806593457
1.20941367480427
2.03213384184434
0.769634143873936
0.943267897366594
1.51915137545113
1.22709461911888
0.649869492429318
0.768522238651014
1.09224037668199
1.3904469388188
2.70895012635556
0.584566778682589
0.652181623851298
0.826161573783528
1.47279669693075
2.11268845407809
0.546708616765686
0.58446946169218
0.662591270036274
0.855046673928991
1.16224406333673
1.58002117660584
0.524560165739502
0.547511818367017
0.58796510516003
0.670677057973977
0.818509933580018
1.03794159675731
1.49905881714029
0.510797423893456
0.525914513378398
0.549742273989131
0.592476350103866
0.66787779625309
0.786609909969521
0.986859838570779
1.47903490620908
0.501695729891325
0.511978999844464
0.527187554413314
0.552138600229622
0.59379609828188
0.659071110703756
0.761585673133485
0.954954114460102
1.45819471988822
0.495570744646079
0.502462838934339
0.512252213615577
0.527622469389351
0.552272476129407
0.590010831938472
0.646530046946637
0.739531419912299
0.926991594676448
1.42740113401493
0.491545950727799
0.496007819699603
0.502021330292819
0.511309522955008
0.526104204063296
0.548649308514169
0.581624943730367
0.631984068830198
0.719935447780432
0.904119122600146
1.39848440035066
0.570564116648729
0.616932869967329
0.701326382306548
0.880115242488203
1.35758575723265
0.559327400284777
0.60283780041797
0.683162906777321
0.852268797710133
3.72831592294191
0.264358726335936
0.236925779731905
2.48482453400255
2.59455446050988
0.991196007083072
3.79398833320395
4.20862058821044
7.04583862283236
4.42545133364611
1.53609693626746
1.26007334949868
1.80091093893321
1.54660578056005
1.66077526171873
3.00479489861237
3.52775080978477
1.30002441049783
3.63679472841619
3.72298939267941
3.76887125057352
3.77794509871127
3.73181430101278
3.61110655653586
3.06971332369608
3.45241325094409
5.3751916532156
1.77440097422644
1.14421548519777
1.9757338391638
0.818541089160226
1.05969803372083
2.15313212199369
4.07818754726911
1.63628562305784
0.659624011212954
0.778789063848788
1.02766635086159
2.17127424360865
1.5850392684592
1.31220293382126
1.54103809614253
0.588516861904649
0.658314152343818
0.828113813362999
1.49287639754041
1.61966732610637
1.60446404129501
2.23384651092875
2.39936165650273
0.548009563117208
0.588048640358882
0.674062063438851
0.9234847375722
1.32891768615555
1.79537367083237
0.524245451073775
0.547903587254635
0.590989163792281
0.683499035103116
0.848880414795826
1.07439551599272
1.50351326906155
0.50990482479985
0.524872266624691
0.549010614488202
0.593608889906595
0.67251583427089
0.792324862254319
0.985903370541859
1.46763028395704
0.500820128612375
0.510761454605495
0.525565752386598
0.550357358144593
0.592387068888307
0.658015505249487
0.759503152860632
0.949826012893814
1.44955362538961
0.494885726347221
0.501526927749418
0.510931722990813
0.525833608378835
0.550102503877161
0.587678232393209
0.644185781198437
0.737276815158148
0.925304676727403
1.42766857015749
0.491028918950425
0.495360768528574
0.501182402898881
0.510203089300821
0.524713369068883
0.547061206651088
0.580017817495137
0.630380649057532
0.718176084156034
0.901710514985142
1.394772578972
0.488550277297248
0.491325219758841
0.494678128229736
0.499817745903778
0.508281306231166
0.521598837319917
0.54132713676279
0.570340031151339
0.616642829659481
0.700787871077505
0.878926726477184
1.35327838780491
0.559900916445606
0.603296186948707
0.683519418624122
0.852668971490244
1.29765673275253
0.550130957497416
0.590828176084215
0.66575821939498
0.821230507351514
4.29884457005381
0.753448921930111
2.72809925177456
3.11198871262333
3.93534695194526
4.42817052605534
4.89885632165427
4.72110659296529
1.73799067353401
1.71685055830317
2.99553684740839
3.00471274591505
1.20321518639318
3.00779187168594
3.62528428798509
3.7060415081934
3.75936685494201
3.77277640813199
3.7114441367678
3.6433894761933
3.06794005574955
3.47183702090853
3.97503090987601
1.60980910567041
1.06216683043718
1.78747771323542
0.807178786295207
1.04795629034634
1.93797774211403
2.85929841848051
1.67080749582165
2.14422308265556
0.669070256459237
0.798878543392142
1.03480178528191
1.98423119600852
3.07058378319507
0.592270719214492
0.662935545608051
0.803554222899209
1.2619612626484
2.34493967834071
2.09206106244758
1.70000610536463
1.6655542013567
0.549651115187057
0.591071925189462
0.675153709891818
0.91300548061321
1.32848890533639
1.70348000870524
1.80605020896947
1.96864541453089
1.9836099265857
0.524485210079629
0.549054770563567
0.594248078057605
0.697030750904326
0.89023163769239
1.14860192277193
1.59413654223675
0.509395373844589
0.524533762343703
0.549415838192113
0.596772102577237
0.681892278234001
0.807672796701386
0.997805611332007
1.45762649540674
0.500105078522006
0.509873963982111
0.524586909617279
0.549782091473561
0.593106148658289
0.660088473321798
0.760751669517503
0.946999005185064
1.44486617985898
0.494229883968497
0.500663119455131
0.509775087964808
0.524404831749099
0.548619331671227
0.586344589533334
0.642753362132787
0.734996640700378
0.921642637016888
1.42369016004653
0.490512229500985
0.494687716858034
0.500289732407674
0.509023938643375
0.523254168367177
0.545425268874228
0.578326338690599
0.628651684067074
0.716416670812456
0.900275739630617
1.39465135438693
0.488177476202882
0.490825817690424
0.494061110893758
0.499058164037299
0.507368550837139
0.520567099968593
0.540247652812054
0.56930488792765
0.615546044382984
0.699443629213914
0.877223932796244
1.35341606959695
0.488349995898718
0.490034623267776
0.492558550090012
0.497067612186563
0.5046762441496
0.516408033105855
0.533691163646508
0.559776925242185
0.60298852568143
0.682917174977604
0.851367023129974
1.26662449798455
0.550427439104137
0.590962972784681
0.66583066876127
0.821160089986748
1.20669713207744
0.54218983347934
0.579886631441316
0.648304169020454
0.785444172380314
3.21328140612594
3.95388825151523
4.14666739493595
4.66793741919994
3.00117716517114
2.68214671144816
2.988404427218
2.99550403396536
1.1568401757184
3.00465407972314
3.52805316782004
3.60991113009931
3.69103225478134
3.7466608360448
3.76122219176925
3.73917532439954
3.68199357419846
3.69710739190862
3.85541261221348
3.70123266792263
1.5566598969125
1.00362815923893
1.61183451916723
0.784077323046518
1.03121856886158
1.69012315488462
0.665645354019873
0.790883588838033
1.04789852465721
2.02736165588902
2.68475182837984
2.0111124598659
0.594422729260818
0.666779043298538
0.792763156946879
1.11213475737278
1.64073374284223
0.551052970937579
0.593375599626951
0.669692681633611
0.847787974969536
1.1824889277077
2.27910939444359
1.99486556315308
1.84062073359588
0.524972312099106
0.550359207717327
0.59533145549299
0.693066736415272
0.879678331081646
1.13769235355591
1.59055680080435
1.69112390423062
1.72190818192349
1.69452557336173
0.509191437083809
0.524695110955272
0.550252879648516
0.599511813069061
0.690211890373512
0.825502505507059
1.02476704315771
1.48481633916325
0.499578631066931
0.509347729131664
0.524207746470558
0.550085853704189
0.595215536655596
0.664684911140555
0.766052045431645
0.947823777975391
1.44033861559899
0.493645627632192
0.499949065436684
0.508904938368548
0.523485852717383
0.547979228435583
0.586251334330801
0.642812545764553
0.734022359277911
0.918997690731335
1.42358508049203
0.489983971347577
0.494037481988896
0.499450544231513
0.507954629585729
0.522003036710423
0.544111596015227
0.576981418394681
0.627082260340282
0.71435780840155
0.897949631784572
1.39349696335433
0.487812120105467
0.49031632774911
0.493408567079963
0.498229748638829
0.506348096123423
0.51938810349373
0.538976759776184
0.567990444315612
0.614158814750924
0.697997615387995
0.876036285677087
1.35149628340803
0.487990841686302
0.48955344448419
0.49197981505285
0.496397401547922
0.503931215386771
0.515618626748944
0.532886123194463
0.558993501262374
0.602090519634547
0.68180145691776
0.850441093820788
1.29769987747165
0.487110837926337
0.48801819432394
0.490053328663679
0.49407633536292
0.500818938987257
0.511099358077331
0.526435490600362
0.550257687645913
0.59056949531274
0.665149123440951
0.817902592537014
1.20481655084355
0.542266681469122
0.579810959053936
0.648201539129339
0.786338600273039
1.16321581213082
0.535996851355711
0.570811787825665
0.632524039151092
0.760282680979059
3.99041844893477
4.02521049235174
4.1516865545025
1.99205366723314
3.00012317284131
2.98838951838587
1.12645107873293
2.99548065381921
3.00461954795575
3.00774703696448
3.59284645363615
3.67439590515064
3.73556501503114
3.77905616503925
3.80155658108433
3.77635837108153
3.77771122768955
3.90140419162082
4.06586868303939
1.53406928587592
0.976639030984958
1.55456657509337
0.764165339832656
0.993784734461352
1.5525485856587
0.656673911830803
0.775875296260193
1.01286608405378
1.54616499827196
0.592441845883699
0.662528073472777
0.781797172717506
1.03320318009959
0.551376159307135
0.594149990609919
0.66488013255662
0.80250105467261
1.06470910845813
0.52529797716563
0.551307871442159
0.594590680470889
0.677385723161407
0.830391538816896
1.06522492341497
0.509122078522334
0.525049325047854
0.550796495157157
0.598490977916715
0.685090220146226
0.816649335451039
1.01626793125492
1.48148982541556
1.53844896876886
1.56748906656221
1.56137976966245
0.499205307382788
0.509104512073117
0.524192316467679
0.550459138835061
0.596507847418833
0.667850641016399
0.77156818508961
0.95450011555009
1.44424908939545
0.493150691643816
0.499412599930393
0.508343679557129
0.523016274918497
0.547910666491461
0.586916076527882
0.643992257134956
0.734474072372778
0.917447258887931
1.4244994449296
0.489482677325283
0.493453013005312
0.498738088320599
0.507102798255986
0.52109026573212
0.543273168131436
0.576218004212968
0.626092525402484
0.712752600772087
0.896301718484231
1.3951554858664
0.487341469673676
0.489790860306961
0.492767745647965
0.497427288226886
0.505370432100888
0.518271410618603
0.537769735046999
0.566683338775754
0.612667807701194
0.696325458765764
0.874632779219207
1.35133257921989
0.486281810759719
0.487628443121168
0.489054695935805
0.491356576624922
0.495643165845323
0.503052288150563
0.514642540638261
0.531845197674027
0.557903281636282
0.600920448280706
0.680580837035718
0.849065561204607
1.26471589896242
0.486763678230813
0.487556918589793
0.489516773912091
0.493484653374412
0.500189533686702
0.510443844959826
0.525753005105616
0.549570554697412
0.589759032990108
0.664206223989951
0.819484764602426
1.21191806662238
0.485200360448976
0.485727033114702
0.487515985198502
0.491125023610438
0.497086518427031
0.506196350843481
0.520057901552899
0.542018931001037
0.57934408043499
0.647355955141391
0.785830775313811
1.16708173061392
0.535917207954877
0.570613933197008
0.632565736396393
0.762289012629768
1.13641022305591
0.532792366450206
0.565835642583491
0.624333870418619
0.748425766326583
4.01642093255551
4.04051435914842
4.06222552558866
3.03227789416475
3.00011815589781
1.11399414226085
2.98838524891312
2.99546486959106
3.00462601301671
3.00783005496708
3.57437793241895
3.66158422233029
3.74070770022149
3.8201667651587
3.85430942239954
3.84865802623412
3.88054755879055
3.97940617209505
4.04680631817331
1.51182863205643
0.960720337491903
1.53091275065985
0.749928786084915
0.970811869438263
1.52086899635245
0.647007952474237
0.759814458223903
0.975370852238759
1.49168475409507
0.58771681447179
0.654288123852502
0.766698105024596
0.980963394296052
1.48340741294426
0.549878405360692
0.591632531938948
0.658032675279754
0.775071017238502
0.994009751990938
0.524996137994458
0.551215088763739
0.592723234815734
0.663670696895455
0.788310143429827
0.999360905220568
0.508945187933362
0.52521334862266
0.550720432772538
0.594572118117651
0.670207353401366
0.788280343429641
0.98301797096436
0.498890079268102
0.508977319797066
0.524229782334431
0.550082542269472
0.594436122208423
0.663279511646872
0.765331353837557
0.948285846556335
1.43506100718878
1.46132172873365
1.48427837641273
1.48958104992652
0.492726200870341
0.499019049172047
0.508007664976581
0.522739996982143
0.547694856557281
0.586849772309273
0.644183605309999
0.734713731865834
0.916923809837737
1.4242924689629
0.489023448163688
0.492952143787051
0.498177171959084
0.506481818462736
0.520464418595818
0.542744264439862
0.575798367344372
0.62551843382981
0.711566146165029
0.894896856254709
1.39716855546419
0.486882150769679
0.489289048934823
0.492180036456986
0.496715822693022
0.504526582772603
0.51732918281307
0.536764733404702
0.565576565727499
0.611341099184599
0.694806794017702
0.873685673834033
1.35277560064194
0.485768339379175
0.487160302737508
0.48853246738464
0.490729748263279
0.494882861154117
0.502154941029801
0.513627965397355
0.530734089518101
0.556694339754047
0.599603749389147
0.679247800339412
0.848053303978236
1.26374676546337
0.485317567544441
0.486103812050937
0.486405804765139
0.487072110244725
0.488927451460594
0.492798929157477
0.499417839838129
0.509601672424492
0.524853701621539
0.548621300653249
0.588736719772366
0.66308196846513
0.815722434045828
1.20915988161141
0.484864359696877
0.485286443824163
0.487016514556478
0.490587971656722
0.496521079896515
0.505599359100716
0.519417474939287
0.541364602614319
0.57858340755702
0.646697005635175
0.786430027521297
1.17228672432465
0.483097096355828
0.483544909367799
0.485221975919061
0.488515286863307
0.49390616815313
0.502228569393615
0.515096546286363
0.535602038811695
0.570104264561656
0.632106135543699
0.763234530999454
1.14403756253632
0.532611353148972
0.5656294304768
0.624757869425343
0.751751818009456
1.1285726142424
0.535133572464846
0.569869427120824
0.631759700998881
0.763116053588574
4.01636429942538
4.0572285977888
4.06534920366151
3.04960403194021
3.03226513676743
1.14429128985354
3.00013713898965
2.98838045979743
2.99546907768607
3.00465558655069
3.00796249508925
3.55961197502
3.65935689734422
3.76520435673077
3.85487851897061
3.89047175688189
3.91168726965891
3.96119585696028
4.02457091663357
4.06038097914297
1.48517597233898
0.946007612436048
1.50885016737345
0.738791014324818
0.955944407771664
1.50910746544029
0.638187907890183
0.746781891492657
0.956904597050052
1.4840618260218
0.581913290022427
0.645196085527873
0.751621775273934
0.953125870227323
1.46032908775168
0.546883787152016
0.586824351505167
0.649477486453438
0.755356583340422
0.954148158460421
1.45372540729728
0.523755767073064
0.549482870487908
0.589003523454903
0.652563745463449
0.760302053696479
0.956459024411334
0.508406863972899
0.524763739450319
0.549723671359901
0.589911877679888
0.655642601888817
0.761056705141235
0.950407704151059
0.498496824737152
0.508734299705008
0.524005853096381
0.548828033122206
0.589654756520135
0.65285108700506
0.750310009536803
0.932889805757624
0.492318383410197
0.498676043724471
0.507737731350702
0.52235676463973
0.546661763646605
0.584568431583053
0.640565906835375
0.730175471552959
0.911160865094858
1.41352236046131
1.42234887526426
1.43941748720532
1.45073976060358
0.488595252256881
0.492516633831086
0.497733176528646
0.506006595852569
0.519900235052318
0.542029384020087
0.574900403642459
0.624372258830246
0.709952641157027
0.892812454683572
1.39836373679781
0.48645022493707
0.488826138107649
0.491662396472185
0.496116077271871
0.503827549684371
0.516537454141166
0.535892253227464
0.564583401530306
0.610107622331543
0.693299610683705
0.872560796893626
1.35350024500799
0.485319066723775
0.486700785611963
0.488026475872205
0.490136703656677
0.494171155865288
0.501313521236607
0.512666619952289
0.529662902456929
0.555502926501061
0.598288108072444
0.677949555711926
0.847324635833621
1.265529620329
0.484834954774537
0.485601405102396
0.485939017706607
0.486554133665363
0.488317531998211
0.492078987430953
0.498587018814947
0.508671634568821
0.523839199930518
0.547533318522862
0.587591426764618
0.661953019188854
0.814624785755307
1.21092301995707
0.484725697157996
0.485154397912688
0.484921194076707
0.484512224809988
0.484816974315939
0.486458849500117
0.489955452741062
0.495821897190974
0.504840710601223
0.518605295239886
0.540506756040577
0.577654204356077
0.645475878813147
0.785518144745613
1.17565221300977
0.482771735516754
0.483122103827671
0.484747958048837
0.488007348533249
0.493366004142926
0.501646398623088
0.514461642406536
0.534958372099716
0.569401965821346
0.631602706197124
0.764203155815178
1.15190111089818
0.48120374365941
0.48175221047881
0.483446113734576
0.486627952604609
0.49180578449876
0.499865555370101
0.512401131161154
0.532252789123655
0.565187129532328
0.624727039066273
0.753962066330105
1.14068495042969
0.534903937824049
0.569762120806284
0.632651075556661
0.767617829159695
1.16035776874369
0.548114285556821
0.592522975088188
0.673801358535155
0.848745935649972
3.99525780051697
4.0556358867008
4.07244470626584
3.73006693002183
3.04959415554777
1.35290751433891
3.03228292887633
3.00012142561296
2.98838437108533
2.99547885057045
3.00470379617671
3.00809964913782
3.55244559850334
3.6708188033339
3.79209926323811
3.87441690070707
3.92033724867114
3.96153404875841
4.00813049519874
4.04319103803343
4.06189426202894
1.45298110516037
0.929393000190374
1.48223227504907
0.72806288056705
0.941703286241896
1.49223357943052
0.630027407523786
0.736052595458961
0.944819708094838
1.48100140616921
0.575884305820454
0.636634541636301
0.739743541419481
0.93986852911562
1.45922348061283
0.543020837292524
0.581050079198075
0.640649037371776
0.740814449263376
0.934366161326374
1.44358105138186
0.521648711983713
0.546390241730116
0.583849163663198
0.642754998796388
0.74164344403266
0.931846726654201
1.43533123175463
0.507346677829697
0.523424341226073
0.547472687576509
0.584715624671404
0.643787010912162
0.740988184642874
0.927520115907833
0.497887934479184
0.508135407551545
0.523208559122608
0.546797230376076
0.584085272796415
0.641778469795621
0.734787312021952
0.917055095537756
0.491851235457995
0.498251995574553
0.507329382735738
0.521638700079757
0.544745060802124
0.580390552704119
0.633896271765975
0.721945452487196
0.902072593260534
0.488166117662622
0.492094143467878
0.497319333586109
0.505533395386851
0.519149165640715
0.540682226958678
0.572760504419258
0.621470705217323
0.706247665085196
0.887335567472722
1.38934486657696
1.39705396725859
1.41063229087567
1.42516941044375
0.48603572771283
0.48839145433553
0.491197350019053
0.495594976672864
0.503199745292533
0.515737508493804
0.534868129375854
0.563300634734924
0.608501701278288
0.691280042905879
0.870548451299217
1.35392792376439
0.484907733180352
0.486266481581182
0.48755174811198
0.489592698438932
0.493525583958128
0.500541744967871
0.511759163267631
0.528617135231047
0.554303843110949
0.59691474909038
0.67648277176458
0.846167182941504
1.26603135730673
0.484412473070509
0.485153709657749
0.485475933395485
0.486041184132933
0.487718646663418
0.491368319735345
0.497754429010837
0.507722198029889
0.522785526476285
0.546389043585351
0.586387259689827
0.660808614643834
0.814017418198414
1.2131435729923
0.484291252297822
0.484683844345811
0.48442400925903
0.48404582187814
0.484303970423087
0.485865790212753
0.48927046086821
0.495045671496373
0.503982674379036
0.517679529306689
0.539527881111271
0.576636728420793
0.644454345808579
0.78520149873897
1.17888612173242
0.484337341082868
0.484577683026809
0.484017027193339
0.483116955475274
0.482425683948391
0.482666378068408
0.484214605813293
0.487410494646658
0.492711116402034
0.500936886200584
0.513702121075605
0.534159667319809
0.56853532690914
0.630831983068943
0.764673927009518
1.15841942107214
0.480887081990773
0.481341003337595
0.482984226081367
0.486128301133906
0.491266179584066
0.499275837394599
0.511757317766541
0.531619338675699
0.564575532817538
0.62453324325615
0.755922240881658
1.15281565208873
0.479807436281888
0.480617003030897
0.482550785750024
0.485987462254508
0.491515740338607