/*--------------------------------*- C++ -*----------------------------------*\
  =========                 |
  \\      /  F ield         | OpenFOAM: The Open Source CFD Toolbox
   \\    /   O peration     | Website:  https://openfoam.org
    \\  /    A nd           | Version:  12
     \\/     M anipulation  |
\*---------------------------------------------------------------------------*/
/*   Windows 32 and 64 bit porting by blueCAPE: http://www.bluecape.com.pt   *\
|  Based on Windows porting (2.0.x v4) by Symscape: http://www.symscape.com   |
\*---------------------------------------------------------------------------*/
FoamFile
{
    format      ascii;
    class       volScalarField;
    location    "100";
    object      p;
}
// * * * * * * * * * * * * * * * * * * * * * * * * * * * * * * * * * * * * * //

dimensions      [0 2 -2 0 0 0 0];

internalField   nonuniform List<scalar> 
10107
(
83333.327147413
83333.3299868239
83333.3274054798
83333.3269411703
83333.3315650087
83333.3304141812
83333.3294677011
83333.3290399109
83333.3271507698
83333.3269895457
83333.3326498808
83333.3316731111
83333.3309867184
83333.3307024684
83333.3302470261
83333.3288098396
83333.329772245
83333.3297120369
83333.3279886291
83333.3288252423
83333.3275638766
83333.3268362623
83333.3264155179
83333.3276148018
83333.326820521
83333.3321777472
83333.3326326889
83333.3317747155
83333.331387071
83333.3302572683
83333.3308988666
83333.3304981553
83333.3305885176
83333.3302302406
83333.3296120075
83333.3287729074
83333.3293101954
83333.329698946
83333.3292936586
83333.3299923069
83333.3286843793
83333.3295001809
83333.3272320627
83333.3277122319
83333.3289003696
83333.3292461224
83333.3280817934
83333.3282975609
83333.3275320231
83333.3283266522
83333.3274602573
83333.3321364379
83333.3325428921
83333.3327019163
83333.3319466937
83333.3316498539
83333.330909587
83333.3303512462
83333.3310001541
83333.3307452987
83333.3300688604
83333.3295685392
83333.3275319097
83333.3299119419
83333.3281936041
83333.3292601193
83333.3288818072
83333.3301724367
83333.3290467938
83333.3297697336
83333.3278420814
83333.3284827002
83333.3290382062
83333.3266090417
83333.32707028
83333.327472987
83333.3292500383
83333.3283857719
83333.3278835796
83333.3278849264
83333.3319573156
83333.332222109
83333.3326510662
83333.3328275826
83333.3320188421
83333.3318480297
83333.3313080245
83333.3311583648
83333.3311446758
83333.3308017534
83333.330339319
83333.326738591
83333.3284792793
83333.327616664
83333.3298556877
83333.3289536473
83333.3303706354
83333.3293064073
83333.3299186277
83333.3282500371
83333.3288606484
83333.3293444319
83333.3271455224
83333.3276911179
83333.328150801
83333.3283028325
83333.3260729594
83333.3265172668
83333.3268692211
83333.3270689773
83333.3321594941
83333.3323867618
83333.3327431776
83333.3328630891
83333.3320989737
83333.3319005475
83333.3316218293
83333.3312064157
83333.3312596002
83333.3309393151
83333.3304317944
83333.3259831178
83333.3274363198
83333.3267319474
83333.328444871
83333.3301056551
83333.330528093
83333.329550386
83333.3301217874
83333.3285556171
83333.3291197917
83333.3295117595
83333.3275568214
83333.3281105283
83333.328523069
83333.3285179656
83333.3265548811
83333.3270508528
83333.327456297
83333.327645549
83333.327309056
83333.3260174571
83333.3263661892
83333.326570715
83333.3265007108
83333.3325012921
83333.3326100489
83333.3327797455
83333.3329153827
83333.3321454416
83333.3319842655
83333.3316431306
83333.3313747388
83333.3313704462
83333.3310767767
83333.330597457
83333.3254440977
83333.326523199
83333.326025967
83333.3276093297
83333.3287577555
83333.3302509713
83333.3306537934
83333.3297431981
83333.3302972804
83333.3288202669
83333.329373098
83333.329753821
83333.3278765978
83333.328421172
83333.3288006949
83333.3288045122
83333.3269483096
83333.3274622746
83333.3278689576
83333.3280106099
83333.3276275807
83333.3264947385
83333.3268837236
83333.3271096183
83333.3270348774
83333.3265327998
83333.3259131384
83333.3261452289
83333.3261805706
83333.3259450073
83333.3326057883
83333.3326731539
83333.3328514085
83333.3329265901
83333.3321856909
83333.3320286468
83333.331747373
83333.3314694865
83333.3314720928
83333.331325202
83333.330760817
83333.3250564857
83333.3258965449
83333.3254957121
83333.3268637154
83333.3279231778
83333.3290061732
83333.33040624
83333.3307843052
83333.3298665089
83333.3305041166
83333.3290227087
83333.3295738665
83333.3299411135
83333.3281421545
83333.3286907483
83333.3290719251
83333.3290544803
83333.3272637862
83333.327784341
83333.3281853191
83333.3283302816
83333.3279475481
83333.3264065898
83333.3268854489
83333.3272908394
83333.3275121249
83333.3274142478
83333.3269069744
83333.3263788193
83333.3266376587
83333.3266844868
83333.3264332605
83333.3259371507
83333.3257505866
83333.3258613966
83333.3257657981
83333.3254694684
83333.3326691474
83333.332742035
83333.3328500362
83333.3329221989
83333.3322481707
83333.3321114489
83333.3318108345
83333.3315768788
83333.3314986708
83333.3315052925
83333.3310191321
83333.3247468845
83333.3254460879
83333.3250903245
83333.3262565342
83333.3271882214
83333.3282383066
83333.329164955
83333.3305065431
83333.3308498684
83333.3299887255
83333.3307126467
83333.3291515066
83333.3297322095
83333.3301904419
83333.3283469014
83333.3288944815
83333.3292829311
83333.3292062152
83333.3275215032
83333.3280520856
83333.3284594854
83333.3286008646
83333.3282369644
83333.3267073434
83333.3272008083
83333.3276132734
83333.3278369222
83333.3277405904
83333.3272355858
83333.3259292516
83333.3263635104
83333.3267636153
83333.3270342634
83333.3270795101
83333.3268152224
83333.326304941
83333.3261981997
83333.3263242108
83333.3262266696
83333.3259027053
83333.3254771533
83333.3255338194
83333.3255394258
83333.3253708428
83333.3250811358
83333.3326674238
83333.3327563345
83333.3328183597
83333.3329189702
83333.3322506944
83333.3321947832
83333.3319277027
83333.3316967353
83333.3314310564
83333.331558831
83333.3311727175
83333.3244871517
83333.3250871645
83333.3247639904
83333.325774612
83333.3265697462
83333.3275116055
83333.3284013977
83333.3292766275
83333.3305406116
83333.3307809229
83333.330053362
83333.3308064977
83333.3292511214
83333.3298960391
83333.3304300092
83333.3284863054
83333.3290313949
83333.3294762002
83333.3293103041
83333.3277223307
83333.3282565341
83333.3286637727
83333.3287922075
83333.3284056363
83333.3269530454
83333.3274589084
83333.3278819446
83333.3281076902
83333.3280133899
83333.3275260266
83333.3262097507
83333.3266631481
83333.3270765068
83333.3273542543
83333.3274012901
83333.3271381683
83333.3266168298
83333.3255137247
83333.3258981718
83333.326274975
83333.3265723014
83333.3267054975
83333.3266044381
83333.3262656103
83333.3258111985
83333.3259582109
83333.3259673522
83333.3257852469
83333.3254642277
83333.3251049927
83333.325279419
83333.3252117545
83333.3250194085
83333.3247592438
83333.3325199397
83333.3326463152
83333.3327240415
83333.3329393564
83333.3322359877
83333.3322021706
83333.3320057178
83333.3315623574
83333.3314568433
83333.3314347703
83333.3314523734
83333.3242670427
83333.3247869939
83333.3244945919
83333.3253827583
83333.3260584778
83333.3268627513
83333.3276840205
83333.3284946858
83333.3292037016
83333.3309971664
83333.3307356351
83333.3299854038
83333.3307224096
83333.3293000809
83333.3299932977
83333.3306229874
83333.3285770744
83333.3291427323
83333.3296806842
83333.3294925204
83333.3278618445
83333.3283957092
83333.3288064665
83333.3289226354
83333.328498584
83333.327145662
83333.3276589589
83333.3280853031
83333.3283033147
83333.328197253
83333.3277031062
83333.3264406006
83333.3269082384
83333.3273333405
83333.3276191273
83333.3276681257
83333.3274118799
83333.3268905425
83333.325772055
83333.3261773425
83333.3265712666
83333.326879662
83333.3270174213
83333.3269165676
83333.3265711853
83333.3260949385
83333.3251540911
83333.3254903459
83333.3258319408
83333.3261301957
83333.32631722
83333.3263280621
83333.3261373417
83333.3257953849
83333.3254049266
83333.3256759971
83333.3256026666
83333.3253903635
83333.3250982498
83333.3247961003
83333.325011365
83333.3249044194
83333.3247151061
83333.3244898514
83333.3325710016
83333.3327193367
83333.3327452599
83333.3329162684
83333.3322500649
83333.3321872092
83333.3321754496
83333.331854555
83333.33134539
83333.3316541486
83333.3313222361
83333.3240814501
83333.3245341597
83333.3242701399
83333.3250524258
83333.3256383287
83333.3263151927
83333.3270415297
83333.3277932181
83333.328490184
83333.3291624379
83333.3309526493
83333.330262888
83333.3298517975
83333.3308467913
83333.3292455376
83333.3299215626
83333.330509004
83333.3286117693
83333.3292120905
83333.329855058
83333.3296749087
83333.3279484657
83333.3284891153
83333.3289342708
83333.3291102543
83333.3286324682
83333.3272833917
83333.3277976744
83333.3282219627
83333.3284267876
83333.3283061522
83333.3278109463
83333.3266232773
83333.3270999818
83333.3275316211
83333.3278171322
83333.3278582734
83333.3275963757
83333.3270695044
83333.3259868514
83333.3264072933
83333.3268141593
83333.3271322266
83333.3272758133
83333.3271775956
83333.3268324473
83333.3263430768
83333.3253906396
83333.3257474261
83333.326107844
83333.3264203288
83333.3266151292
83333.3266276975
83333.3264322121
83333.3260757533
83333.3256618793
83333.3248444274
83333.3251361379
83333.3254397348
83333.3257210551
83333.325931443
83333.3260159732
83333.3259388862
83333.3257127048
83333.3253970833
83333.3250647482
83333.3253772909
83333.3252586103
83333.3250464284
83333.3247903595
83333.3245388478
83333.3247507809
83333.3246285731
83333.3244548335
83333.3242641069
83333.3322940759
83333.3324437185
83333.3327993933
83333.3328360117
83333.3320327723
83333.3323895829
83333.3321306923
83333.331864226
83333.3308419196
83333.3313813602
83333.3314445461
83333.3313337807
83333.3239250795
83333.3243220289
83333.3240826632
83333.3247737911
83333.3252846752
83333.3258654811
83333.3264910629
83333.3271615499
83333.3278235212
83333.3284897192
83333.3295007028
83333.3304465532
83333.3287691916
83333.3293982621
83333.3301928462
83333.329071081
83333.3298083586
83333.3304856859
83333.3304127943
83333.3285622555
83333.3291612485
83333.329744134
83333.3301921079
83333.3296487205
83333.3279761072
83333.328530948
83333.3290512821
83333.3292872284
83333.3287474045
83333.3273695213
83333.3278846807
83333.3283195572
83333.3285522782
83333.3284402711
83333.3279067817
83333.3267570318
83333.3272368607
83333.327668573
83333.3279455597
83333.3279729897
83333.3277087609
83333.3271861453
83333.3261589159
83333.3265891906
83333.3270040321
83333.3273263445
83333.3274686263
83333.3273660027
83333.327015779
83333.3265175077
83333.3255896179
83333.3259613565
83333.3263355026
83333.326658783
83333.326860799
83333.3268770737
83333.326680618
83333.3263159335
83333.3258856273
83333.325060579
83333.3253716069
83333.3256939288
83333.325991196
83333.3262122622
83333.3263011299
83333.3262218243
83333.3259857429
83333.3256527559
83333.3252986092
83333.3245786138
83333.3248303933
83333.3250969653
83333.3253538715
83333.3255657811
83333.325691587
83333.3256950695
83333.3255678847
83333.325338641
83333.3250586692
83333.3247806785
83333.3250850151
83333.3249475402
83333.3247504962
83333.3245322996
83333.3243242892
83333.3245094393
83333.3243867691
83333.3242338961
83333.3240755382
83333.3325571295
83333.332637434
83333.3327348613
83333.3327349053
83333.3320971025
83333.3324354086
83333.3317954353
83333.3286926739
83333.3306048532
83333.3313634609
83333.3311471813
83333.3319019855
83333.3313546186
83333.3310744023
83333.3310289945
83333.3237973105
83333.3241442076
83333.3239259492
83333.3245396705
83333.3249860355
83333.3254893705
83333.3260345955
83333.3266181577
83333.3272072247
83333.3278541866
83333.3285633439
83333.3289628145
83333.3279526824
83333.3285580843
83333.3286283175
83333.3287188189
83333.3291979278
83333.3296341585
83333.3304402922
83333.3298597139
83333.3284069382
83333.3289778653
83333.3293009386
83333.3300352923
83333.3308650982
83333.3298197667
83333.3298435303
83333.3279343277
83333.3284839721
83333.328994747
83333.3292365922
83333.3307665913
83333.3296633696
83333.3287346044
83333.3291463517
83333.3273990641
83333.3279144069
83333.3283783123
83333.3286779082
83333.3285745663
83333.3279892512
83333.326843704
83333.3273229113
83333.3277563634
83333.3280410263
83333.3280763693
83333.3278064525
83333.3272640591
83333.3262881631
83333.3267225015
83333.3271396137
83333.3274594592
83333.3275934333
83333.3274846333
83333.3271344518
83333.326638703
83333.3257513135
83333.3261328116
83333.3265157191
83333.326845151
83333.3270496475
83333.3270650719
83333.3268648484
83333.3264924513
83333.3260527144
83333.3252446818
83333.3255698323
83333.3259058028
83333.3262147037
83333.3264440049
83333.3265374738
83333.3264584131
83333.3262164642
83333.3258715982
83333.3255015977
83333.3247761277
83333.3250456524
83333.3253299899
83333.3256030234
83333.3258274303
83333.3259602162
83333.3259643702
83333.3258310522
83333.3255890565
83333.3252914534
83333.3249940627
83333.3243508282
83333.3245674618
83333.3247997138
83333.3250298953
83333.3252319878
83333.3253751961
83333.3254299066
83333.3253785101
83333.3252292832
83333.3250140339
83333.3247736922
83333.3245433033
83333.3248124443
83333.324673057
83333.3244983548
83333.3243164784
83333.3241453953
83333.3242924232
83333.3241779377
83333.3240477983
83333.3239181613
83333.3327527776
83333.3329217137
83333.332709934
83333.3322896958
83333.3278815287
83333.3285738153
83333.3297928873
83333.3298674538
83333.3308426603
83333.3306853207
83333.3236984135
83333.3239977132
83333.3237969283
83333.3243441405
83333.3247341508
83333.3251728651
83333.325650976
83333.3261624901
83333.3266837648
83333.327216628
83333.3278460993
83333.3282846701
83333.3284693777
83333.3273657174
83333.327876464
83333.3278210206
83333.3281836029
83333.3284190496
83333.3282675517
83333.3285895784
83333.3284770551
83333.3292583676
83333.3281381966
83333.3285981519
83333.3288018431
83333.3295239128
83333.3297322575
83333.3278086528
83333.3283284282
83333.3287354686
83333.3288727153
83333.3295637238
83333.3298534582
83333.3305215272
83333.3296771119
83333.3273703536
83333.3278737879
83333.3283365971
83333.3286472433
83333.3285630247
83333.3303898719
83333.3279709768
83333.3284534726
83333.3286009789
83333.3268803861
83333.3273534248
83333.3277918708
83333.3281066284
83333.3281738772
83333.3279004453
83333.3273157714
83333.3263753505
83333.3268089472
83333.3272255783
83333.3275463051
83333.3276819813
83333.3275730622
83333.3272157286
83333.326716934
83333.3258758642
83333.3262617746
83333.3266481621
83333.3269784352
83333.3271799127
83333.3271909024
83333.3269879328
83333.326613681
83333.3261751861
83333.3253966333
83333.325731052
83333.3260758744
83333.32639197
83333.3266255388
83333.3267203639
83333.3266396863
83333.3263923087
83333.326038918
83333.3256613169
83333.3249465004
83333.3252291227
83333.3255264546
83333.325811253
83333.3260448086
83333.3261831459
83333.3261888482
83333.3260521135
83333.3258014489
83333.325491362
83333.3251798762
83333.3245314824
83333.3247642489
83333.3250129486
83333.3252586359
83333.3254737362
83333.3256258331
83333.3256838855
83333.3256297037
83333.3254716904
83333.3252427707
83333.3249860291
83333.3247384017
83333.3243418647
83333.3245431546
83333.3247468682
83333.324933684
83333.3250803164
83333.3251633021
83333.3251648115
83333.3250810732
83333.3249283375
83333.3247360928
83333.324534769
83333.3243456264
83333.324565934
83333.3244349098
83333.3242854006
83333.3241362987
83333.3239969879
83333.3241012393
83333.3239997567
83333.3238920112
83333.3237883892
83333.3329193245
83333.3273253864
83333.3278096464
83333.3282336306
83333.3296579091
83333.3296094217
83333.3236242052
83333.323883145
83333.3236951063
83333.3241821156
83333.3245245729
83333.3249059247
83333.3253263454
83333.3257784045
83333.3262475642
83333.3266998548
83333.3272078367
83333.3276902045
83333.3279251335
83333.3279183213
83333.3269159655
83333.3273276965
83333.3273155054
83333.3276658862
83333.3278024559
83333.3276901952
83333.3277619816
83333.3280985987
83333.3282208315
83333.3284555867
83333.3292911663
83333.3292493709
83333.3276045333
83333.3280599349
83333.3283806578
83333.3284367347
83333.3292261055
83333.3272761245
83333.3277505611
83333.3281729566
83333.3284221986
83333.3283278236
83333.3292307039
83333.3290191917
83333.3291045069
83333.3268666239
83333.32732558
83333.3277557271
83333.328079541
83333.3281683428
83333.327894455
83333.32730623
83333.3277923061
83333.3280637676
83333.3280333724
83333.3264194981
83333.3268462421
83333.3272590854
83333.3275859778
83333.3277399698
83333.3276449832
83333.3272795236
83333.326759872
83333.3259637571
83333.3263489845
83333.3267346584
83333.3270641132
83333.3272648724
83333.3272752292
83333.3270700009
83333.3266940263
83333.326261
83333.3255165654
83333.3258554169
83333.3262041991
83333.3265228375
83333.3267563333
83333.326849143
83333.3267659998
83333.3265159052
83333.3261600547
83333.3257847456
83333.325089357
83333.3253806813
83333.3256865345
83333.3259788746
83333.3262178738
83333.3263588931
83333.326364602
83333.326224707
83333.3259677385
83333.3256501433
83333.3253320105
83333.3246892084
83333.3249340973
83333.3251949365
83333.3254519771
83333.3256765938
83333.3258352498
83333.3258961093
83333.3258405462
83333.325676728
83333.3254382648
83333.3251698556
83333.324909681
83333.3245219325
83333.3247382877
83333.3249565208
83333.3251561146
83333.3253124807
83333.3254008879
83333.3254024541
83333.3253133268
83333.3251505425
83333.3249450815
83333.3247289957
83333.3245257464
83333.3243224139
83333.324501157
83333.3246704469
83333.3248125657
83333.3249090179
83333.3249439324
83333.324909403
83333.3248105208
83333.324666
83333.3245005683
83333.3243351477
83333.3241809761
83333.3243478526
83333.3242310745
83333.3241068163
83333.323987067
83333.3238788746
83333.3239355884
83333.3238494172
83333.3237633858
83333.3236849856
83333.3269022489
83333.3272954188
83333.3276501231
83333.3282144389
83333.32357395
83333.323797332
83333.323618316
83333.3240537972
83333.3243504955
83333.3246840247
83333.3250509662
83333.3254513854
83333.3258701274
83333.3262816752
83333.3267023637
83333.3271317244
83333.327444311
83333.3275663005
83333.3274513773
83333.3265568133
83333.3268909674
83333.3268861451
83333.3272021124
83333.3272878359
83333.3272218755
83333.3273711174
83333.3276133153
83333.32768983
83333.3275211883
83333.3273322243
83333.3277026614
83333.3279535624
83333.3279810476
83333.3271235777
83333.3275502881
83333.3279163131
83333.3281126076
83333.3279965959
83333.3268016044
83333.3272336166
83333.3276363962
83333.3279347411
83333.3280114117
83333.3277411705
83333.3264212158
83333.326833583
83333.3272343673
83333.3275591394
83333.3277265297
83333.3276446829
83333.3272800397
83333.3267657877
83333.3272046463
83333.327531602
83333.3276574283
83333.3260149178
83333.3263936821
83333.3267735289
83333.3271006245
83333.3273052748
83333.3273251734
83333.3271261998
83333.3267454601
83333.3263082489
83333.3256048741
83333.3259433994
83333.3262915718
83333.3266093807
83333.326841559
83333.3269331833
83333.3268494001
83333.3265986595
83333.326243736
83333.3258744339
83333.3252047051
83333.3255004627
83333.325810406
83333.3261060244
83333.3263466712
83333.3264874324
83333.3264918314
83333.3263499394
83333.3260903119
83333.3257715634
83333.3254540498
83333.3248235375
83333.3250766228
83333.3253455339
83333.3256100048
83333.3258406409
83333.3260030918
83333.3260651522
83333.3260081602
83333.3258402348
83333.3255957068
83333.3253207414
83333.3250539241
83333.3244674319
83333.3246792316
83333.3249069008
83333.3251358556
83333.3253448354
83333.3255083579
83333.3256008012
83333.325602659
83333.3255100407
83333.3253403763
83333.3251256112
83333.3248989605
83333.3246847521
83333.324501136
83333.3246933284
83333.3248747866
83333.3250268079
83333.3251298624
83333.3251671073
83333.3251300488
83333.3250242224
83333.3248695014
83333.3246919305
83333.3245139095
83333.3243482379
83333.3242887541
83333.3244400625
83333.3245733166
83333.3246739547
83333.324728475
83333.3247279442
83333.3246719062
83333.3245701941
83333.3244407098
83333.3243026452
83333.3241694063
83333.3240488312
83333.3241583258
83333.3240587049
83333.3239589686
83333.3238676141
83333.3237899004
83333.3237943234
83333.3237247024
83333.323660208
83333.3236065681
83333.3265503178
83333.326877767
83333.3271965888
83333.323546483
83333.3237387004
83333.323565659
83333.3239579231
83333.3242108072
83333.3245002085
83333.3248212115
83333.3251721882
83333.3255461779
83333.3259265625
83333.3262916469
83333.3266620905
83333.3269865276
83333.3271770841
83333.327190356
83333.3270439972
83333.3262609478
83333.326539218
83333.3265349105
83333.3268056224
83333.3268646894
83333.3268193209
83333.3269937412
83333.3271660651
83333.327206456
83333.3270798707
83333.327036648
83333.3273267833
83333.3275149686
83333.3275080035
83333.3272503498
83333.3269228894
83333.3272873423
83333.3275911613
83333.3277497215
83333.3276318729
83333.3266913621
83333.3270844001
83333.3274458669
83333.3277071431
83333.3277624104
83333.3275060133
83333.3263818116
83333.3267704926
83333.3271472251
83333.3274533583
83333.3276144731
83333.3275360001
83333.327187198
83333.3260304907
83333.3263964063
83333.3267636052
83333.3270822503
83333.3272886089
83333.3273189374
83333.3271300394
83333.3267557065
83333.3263232883
83333.3267109396
83333.3270398764
83333.3272390136
83333.3256619498
83333.325995043
83333.32633751
83333.3266505975
83333.3268808374
83333.326974777
83333.3268965807
83333.3266503494
83333.3262970058
83333.3259333525
83333.325292893
83333.3255888596
83333.3258985662
83333.3261936124
83333.3264332566
83333.3265727228
83333.3265764421
83333.3264346906
83333.3261757185
83333.3258590503
83333.3255467167
83333.3249342957
83333.3251918294
83333.3254648918
83333.3257329247
83333.325966087
83333.3261295829
83333.3261913397
83333.3261332208
83333.325963523
83333.325717086
83333.3254410169
83333.3251728553
83333.3245936991
83333.3248132705
83333.3250486051
83333.3252847042
83333.3254998173
83333.3256678313
83333.3257625644
83333.3257642794
83333.3256692548
83333.3254952567
83333.3252749057
83333.3250421624
83333.3248213895
83333.3242762307
83333.3244593512
83333.3246574239
83333.3248596992
83333.3250501752
83333.3252095061
83333.3253174404
83333.3253564482
83333.3253177433
83333.3252072234
83333.3250454252
83333.3248592272
83333.3246718854
83333.3244970718
83333.3244650448
83333.3246277975
83333.3247707288
83333.3248785099
83333.3249368316
83333.3249361261
83333.3248758171
83333.3247665255
83333.3246273574
83333.3244786252
83333.3243348338
83333.3242046107
83333.3242395829
83333.3243618126
83333.3244609262
83333.32452569
83333.3245474394
83333.3245230482
83333.3244569623
83333.3243607043
83333.3242497372
83333.32413845
83333.3240362004
83333.3239494959
83333.3239963324
83333.3239153998
83333.3238400967
83333.3237767997
83333.3237281393
83333.3236763284
83333.3236241585
83333.323581339
83333.3235518564
83333.3262560368
83333.3265296022
83333.3268085496
83333.3235266172
83333.3237059267
83333.3235367242
83333.3238922615
83333.3241068225
83333.3243518519
83333.3246305845
83333.3249379282
83333.3252672567
83333.3256137525
83333.3259466503
83333.3262680987
83333.3265740325
83333.3267992621
83333.326893876
83333.3268475029
83333.3266946684
83333.3260119411
83333.3262476534
83333.3262436532
83333.3264752677
83333.3265187757
83333.3264857344
83333.3266543493
83333.3267790848
83333.3268038823
83333.3267102096
83333.3267380436
83333.3269597604
83333.3270919396
83333.3270704063
83333.3268796468
83333.3266987175
83333.3269998057
83333.3272414442
83333.3273555017
83333.3272443002
83333.3269349902
83333.3265443572
83333.3268891815
83333.327200062
83333.3274208875
83333.3274582529
83333.3272288605
83333.3263060085
83333.3266627792
83333.3270055295
83333.3272818339
83333.3274252505
83333.3273479786
83333.3270287795
83333.3260122757
83333.3263584999
83333.3267046301
83333.3270050396
83333.3272026074
83333.327235734
83333.3270579698
83333.3267034942
83333.3256889484
83333.3260114049
83333.3263424067
83333.3266454377
83333.3268705786
83333.3269668566
83333.3268970981
83333.3266609076
83333.3263158331
83333.3259584749
83333.3262964036
83333.3266075619
83333.3268367266
83333.3253544676
83333.3256462979
83333.325951172
83333.3262414233
83333.3264773772
83333.3266153815
83333.3266208927
83333.3264837024
83333.3262295909
83333.3259180911
83333.3256130916
83333.3250217697
83333.3252800752
83333.3255534141
83333.3258212794
83333.326053879
83333.3262164526
83333.3262773896
83333.3262193086
83333.3260504184
83333.3258053449
83333.3255318172
83333.3252664691
83333.3246998579
83333.3249238919
83333.325163423
83333.3254032323
83333.325621286
83333.3257911601
83333.3258865078
83333.3258878052
83333.325791724
83333.3256162639
83333.3253942691
83333.325159707
83333.3249364823
83333.3243949936
83333.3245853705
83333.3247907599
83333.3249998954
83333.3251964045
83333.325360523
83333.325471524
83333.3255115026
83333.3254716614
83333.3253582484
83333.3251921811
83333.3250007709
83333.3248076724
83333.3246267746
83333.3241112405
83333.3242696231
83333.3244417325
83333.3246194692
83333.3247908115
83333.3249409532
83333.3250540395
83333.3251151899
83333.3251144164
83333.3250511841
83333.3249366912
83333.3247907219
83333.3246342487
83333.3244824239
83333.3243445599
83333.3244121919
83333.3245437239
83333.3246501105
83333.3247195269
83333.3247427479
83333.324716364
83333.3246450517
83333.3245412463
83333.3244215366
83333.3243011898
83333.3241903384
83333.3240968571
83333.3241762234
83333.3242704404
83333.3243392292
83333.3243747401
83333.3243727039
83333.3243343118
83333.3242667188
83333.324181227
83333.3240906424
83333.3240061631
83333.3239349413
83333.3238802782
83333.3238607565
83333.3237996609
83333.3237489981
83333.3237127765
83333.3236929805
83333.3235808514
83333.3235470623
83333.3235259903
83333.3235206275
83333.3260078663
83333.3262391292
83333.3264795532
83333.3235329007
83333.3236830909
83333.3235238154
83333.3238543811
83333.324035702
83333.3242416232
83333.3244761134
83333.3247425592
83333.3250323336
83333.3253393902
83333.3256480938
83333.3259365062
83333.3262146637
83333.3264477321
83333.3265902506
83333.3266193699
83333.3265454713
83333.3263950264
83333.3258006439
83333.3260015799
83333.325998318
83333.3261970683
83333.3262313695
83333.3262064074
83333.3263599386
83333.3264546484
83333.3264728512
83333.3264031353
83333.3264579932
83333.3266282365
83333.3267228071
83333.3267004945
83333.326561035
83333.3264656338
83333.3267084719
83333.3268930843
83333.3269674449
83333.3268748866
83333.3266434489
83333.3263754806
83333.3266700596
83333.3269284255
83333.3271031013
83333.3271214602
83333.3269310008
83333.3266157434
83333.326200481
83333.3265192392
83333.3268209332
83333.3270607931
83333.3271810882
83333.3271080374
83333.3268306899
83333.3259640457
83333.3262845823
83333.3266025012
83333.3268767173
83333.3270568084
83333.3270869518
83333.3269235433
83333.3266014241
83333.3256877197
83333.3259943137
83333.3263076757
83333.3265937934
83333.326807261
83333.3269012235
83333.3268390592
83333.3266176312
83333.3262914426
83333.3253905124
83333.3256739041
83333.32596919
83333.3262499678
83333.3264786303
83333.3266138259
83333.3266224124
83333.3264933312
83333.3262490313
83333.3259463205
83333.3256496527
83333.3259506658
83333.3262346764
83333.3264702661
83333.3250865327
83333.3253419177
83333.3256115608
83333.325875353
83333.3261041795
83333.3262640712
83333.3263243793
83333.3262685358
83333.3261040858
83333.3258643863
83333.3255967136
83333.3253371911
83333.3247860894
83333.3250113895
83333.3252517257
83333.3254918622
83333.3257098117
83333.3258792215
83333.3259739601
83333.3259750322
83333.3258795425
83333.32570533
83333.3254849358
83333.3252520568
83333.3250298651
83333.3244966105
83333.3246913945
83333.3249010182
83333.3251139587
83333.3253136447
83333.3254800875
83333.3255923928
83333.3256326385
83333.3255922823
83333.3254778875
83333.3253104519
83333.3251171915
83333.3249216373
83333.3247376976
83333.3242231155
83333.3243881877
83333.3245671648
83333.3247515033
83333.3249287366
83333.3250837398
83333.3252003348
83333.3252632935
83333.3252624573
83333.3251974572
83333.3250798658
83333.3249297704
83333.3247684323
83333.3246112853
83333.3244680828
83333.3239689444
83333.3241058051
83333.3242552806
83333.3244110013
83333.3245637923
83333.324702325
83333.3248141699
83333.3248870725
83333.3249114207
83333.3248836515
83333.3248087071
83333.3246996572
83333.3245737014
83333.324446601
83333.3243290534
83333.3242301465
83333.3243439618
83333.3244453974
83333.3245192665
83333.3245573138
83333.3245549703
83333.3245134366
83333.3244402934
83333.3243477655
83333.3242496571
83333.3241578974
83333.3240805593
83333.324021762
83333.3241016869
83333.3241704905
83333.3242137424
83333.3242268813
83333.3242092258
83333.3241648141
83333.3241018842
83333.3240307196
83333.3239619393
83333.3239047286
83333.323863384
83333.3238396475
83333.3237508765
83333.3237107217
83333.32368463
83333.3236753129
83333.3236766711
83333.3235077164
83333.3234932029
83333.3234942882
83333.3235084466
83333.3257973112
83333.3259944084
83333.3262015897
83333.3236794141
83333.3235225314
83333.3238318273
83333.3239925614
83333.3241663258
83333.3243610994
83333.3245837346
83333.3248355222
83333.3251069631
83333.3253862819
83333.325653301
83333.3259044956
83333.3261314781
83333.3262978294
83333.3263777585
83333.3263679612
83333.3262809058
83333.3261379921
83333.3256202148
83333.3257922871
83333.3257899148
83333.3259601751
83333.3259887617
83333.3259695268
83333.3261057966
83333.3261808265
83333.3261960854
83333.3261434076
83333.3262056592
83333.3263395569
83333.3264113486
83333.3263938769
83333.326289492
83333.3262394979
83333.3264346154
83333.3265764687
83333.3266270355
83333.3265546206
83333.3263816655
83333.3261954078
83333.3264419523
83333.3266509026
83333.3267828252
83333.3267883271
83333.3266399302
83333.3263943739
83333.3260749838