/*--------------------------------*- C++ -*----------------------------------*\
  =========                 |
  \\      /  F ield         | OpenFOAM: The Open Source CFD Toolbox
   \\    /   O peration     | Website:  https://openfoam.org
    \\  /    A nd           | Version:  12
     \\/     M anipulation  |
\*---------------------------------------------------------------------------*/
/*   Windows 32 and 64 bit porting by blueCAPE: http://www.bluecape.com.pt   *\
|  Based on Windows porting (2.0.x v4) by Symscape: http://www.symscape.com   |
\*---------------------------------------------------------------------------*/
FoamFile
{
    format      ascii;
    class       surfaceScalarField;
    location    "100";
    object      phi;
}
// * * * * * * * * * * * * * * * * * * * * * * * * * * * * * * * * * * * * * //

dimensions      [0 3 -1 0 0 0 0];

internalField   nonuniform List<scalar> 
28758
(
-0.000114377821480004
1.27176093655362e-05
2.14689558583449e-05
-0.000123131673551812
-1.66925887812751e-06
1.04231068095191e-05
-7.06488567460418e-05
7.26012781896661e-06
-9.58112230056396e-05
8.3435781051163e-06
-0.000160400981000874
1.39990455456804e-05
2.32702570339868e-05
9.04738596484367e-05
-8.53010791962746e-05
-9.08181505712294e-06
2.2397726472529e-06
-9.59951181358117e-05
2.09202083382026e-05
-1.03132083153372e-05
-2.5024460871891e-05
4.45458901025442e-05
3.03565437846418e-07
5.46644017507823e-07
-2.18641830989044e-06
3.44940194415032e-06
5.45049839834383e-06
6.93715681417338e-06
-1.26124836456317e-06
3.21431061107849e-06
1.74184314851032e-05
1.06321503010993e-05
-7.44463002458259e-05
-5.18704326657458e-06
8.33130270697268e-06
-6.74588528117779e-05
-2.30158969391213e-05
1.7749884611155e-05
6.98194604689102e-05
-8.07240737551609e-05
-1.00370098140376e-05
1.18598021640503e-05
6.89507535753734e-06
-7.1626384270901e-06
-1.30053588019766e-06
3.80786509172587e-06
-7.64539355520545e-05
-7.76224992961235e-06
-1.6159880510471e-05
-9.14754514255662e-06
8.79418948276038e-07
4.84998777683571e-06
-8.42704514054252e-06
4.22934697188907e-05
1.09285655018038e-05
-1.79480202364046e-05
2.03379416562487e-05
1.2968378662756e-05
-2.4672169479191e-06
-3.59408139474369e-06
9.29868871948168e-07
5.43499264801879e-06
-9.14365043942799e-07
-1.53232842030104e-06
2.60274729128621e-07
2.51859661453224e-06
-2.28468948561305e-06
-3.54344464004891e-06
-6.26082268133922e-06
-3.03664849863584e-06
8.61034635808452e-07
-2.65290511123464e-06
5.29062531541028e-06
-6.61632450156836e-06
6.51627015334934e-06
-2.66920509089374e-06
-8.54213370893966e-05
-1.41729560474445e-05
1.36831672359376e-05
4.19121952376755e-05
-8.56881037953745e-05
-1.19712683336615e-05
4.10625795106885e-05
-4.97502290506772e-05
-9.82531250760524e-06
8.71491185442892e-07
4.64044255662301e-05
-6.20957894451538e-05
-5.40514317947375e-06
1.10594934699929e-05
8.38567938110661e-06
8.35046811321329e-05
-0.00011852963563893
-1.55222549646264e-05
5.40213231996201e-05
7.96641485823933e-06
1.76355933292421e-05
1.02927322592257e-05
4.75882069863707e-06
1.02958077148201e-06
3.0702912341262e-06
-2.92007872908384e-07
-9.48603254960435e-06
-0.000122145981093386
0.000183345585360207
-5.94758207174889e-05
-2.47835923253501e-05
-8.26076460331115e-05
-6.54734616204441e-05
0.000147218800165098
4.02414809785496e-06
4.84785657500583e-07
5.39478196047194e-06
-4.22932848217991e-06
3.19884500420801e-05
1.02182541981041e-05
-7.28416549840071e-06
2.30637890565349e-05
8.56582128564067e-06
1.59473437683403e-05
-1.38176969634936e-05
5.46507997352606e-05
3.76527902048582e-05
-9.90277099221233e-06
1.36754104400657e-05
3.50866626142967e-06
-2.28305965868713e-05
-2.90446507446954e-05
2.26918974135212e-05
9.96149037696373e-06
1.22120179632304e-05
-3.6603087925644e-06
4.92841461623533e-06
-1.20455431628037e-08
-5.11745678747083e-07
-1.13544925178715e-06
5.32989053893018e-07
-5.41539193963178e-06
2.31801243319668e-07
-1.11433976845061e-06
-2.16883048843619e-06
-5.67887698632261e-06
1.50677904163158e-06
-2.90621046509061e-06
1.18616729074347e-06
-6.84602737359063e-06
9.04377526004076e-06
-6.73944161394322e-06
1.14316487131405e-05
-1.12047746962399e-05
-8.26433364233464e-05
-6.76277100948626e-06
1.31373577543124e-05
-0.000142659845763059
-1.95478849709765e-05
4.53899863032027e-05
1.35603897163283e-05
-3.85850857434868e-05
-2.63456834803133e-05
-7.3911135264816e-05
-3.38029535947963e-05
4.00068166967915e-05
-5.3419682872627e-05
-3.4817696729596e-06
1.14894905075367e-05
7.43367836910279e-05
-0.000104979234387064
-7.38220137164215e-06
3.35618842209083e-05
6.49117951238935e-06
0.000186343226092654
-0.00017308392041772
-3.12026311884133e-05
3.67485477331574e-07
4.0993267420614e-06
0.000110848490293898
-7.56547068012859e-05
6.30248511354404e-05
-0.000367995656905916
0.000328895127770238
-1.38840907745468e-05
-9.0294569031014e-05
5.17258604903132e-05
-1.21709290500693e-06
7.10064614708288e-05
4.87641825904436e-06
-2.96141974713767e-07
-3.2381087120405e-06
2.87237688201166e-05
1.02918260376268e-05
-4.1260392002326e-06
2.24601941447118e-05
6.37012571586917e-06
-7.66089887135759e-06
4.54888038919836e-05
3.29094301793336e-05
-6.38324263260908e-06
1.59249005424369e-05
3.61935680946928e-06
-1.29378002914368e-05
2.90120579902884e-05
1.80976996632048e-05
-2.69299365279477e-05
6.86677817478918e-05
9.19636055425375e-05
-7.67350576354671e-06
1.05123711993915e-05
1.50387491927005e-06
-1.4867614079042e-05
1.66283888874108e-05
6.09043108433903e-06
-4.09198356716461e-05
2.71307613420973e-05
2.38048691589196e-05
-7.27294921339009e-08
2.80347279430173e-06
-4.50754601754582e-06
-1.40404080467443e-06
-5.41084555100809e-06
9.63066728985348e-06
-7.584425893693e-06
2.77343191612814e-05
-1.26093705528035e-05
1.02381521708024e-05
-5.15446525345771e-06
-6.81583164679577e-05
-2.97390885513529e-06
1.09497706990526e-05
-0.00012163769176828
-9.63517073972117e-06
1.98831051423582e-05
3.12039523499111e-05
-0.000156401859237081
-2.88416944193886e-05
-0.000340866765884629
-2.97278682381413e-05
3.76039016856193e-05
-5.04594161621534e-05
-3.23853168854966e-06
1.26122767223954e-05
5.87930525874606e-05
-7.74798837596313e-05
-5.46828866454649e-06
2.82624114996695e-05
2.32547706526118e-05
0.000125049732061032
-0.000136532186157975
-9.41305156669913e-06
7.73852057766225e-05
-5.16960988781964e-05
2.50223311512542e-05
9.88313486312471e-05
0.000173215694500867
-1.88065968381541e-05
-7.61453374239335e-05
4.37310071729319e-05
7.23042738917423e-05
-0.000166754091136731
0.000180758142846881
-4.6333577316055e-06
-3.38903329593473e-06
2.76673153635905e-05
1.008750929571e-05
-3.15940885369867e-06
2.17529532121072e-05
6.0041820559969e-06
-6.64152321700962e-06
3.89893745510817e-05
2.90761261797179e-05
-4.31477993053094e-06
1.68676239592399e-05
3.5241047364103e-06
-7.34969371847912e-06
2.8771738901006e-05
1.7499076593468e-05
-1.22016120377615e-05
5.2902162288869e-05
9.03286833736175e-05
-5.86197402977378e-06
1.23489805459128e-05
1.7643862192681e-06
-9.68185741582112e-06
1.96165452795394e-05
7.82910559520459e-06
-1.78130917231269e-05
3.31553933333582e-05
3.05033387483484e-05
-2.78037856093755e-05
5.52949738371983e-05
8.71584523686119e-05
-6.74473870748392e-06
8.01910547545468e-07
-1.0307692724651e-05
1.27641965013255e-05
3.30132231979389e-06
-1.80434769323276e-05
1.8777954028273e-05
1.04045701279636e-05
-3.44881302292677e-05
2.74867281989198e-05
3.17373697140108e-05
-5.92107027693336e-05
-4.05146585698452e-05
-2.36699839139554e-05
7.76826097571196e-06
-6.53040990221864e-06
6.88953420246499e-06
-3.03472809484041e-06
-6.45873320864304e-05
-1.71894897802259e-06
1.28729554624567e-05
-9.52838837646015e-05
-3.42077682779663e-06
2.25393810826246e-05
3.53156365452904e-05
-0.000179176099213641
-1.63030405606946e-06
-0.000158142527665661
-3.02377539173574e-06
3.71026546906941e-05
-4.87794331451788e-05
-3.64433078000111e-06
1.20825776348405e-05
5.5651670860597e-05
-7.37062056369596e-05
-5.8248261433235e-06
3.10233507048618e-05
1.86287850527431e-05
9.79719207733522e-05
-9.067051465229e-05
-7.08082235678142e-06
6.21163927615092e-05
-4.22317492604057e-05
9.27899698121965e-06
3.61758539458894e-05
0.000109839071103982
-2.44953091977158e-05
-4.38983226234594e-05
2.72160169341956e-05
5.82721580365494e-05
4.29512415556472e-05
0.000136185222914104
-1.71849024563729e-05
-0.000168176940706718
0.000185032953206753
-2.86056995392317e-06
-3.76102966897841e-06
2.78982191211921e-05
9.57642963321377e-06
-2.89823408279235e-06
2.16263686495161e-05
5.77976974193164e-06
-6.80803656842601e-06
3.71016535710736e-05
2.88040368941042e-05
-3.22539061511757e-06
1.72553621557096e-05
3.40819948311219e-06
-5.81877479258374e-06
2.73408117195637e-05
1.61218196396129e-05
-1.11986056233138e-05
4.47968194877426e-05
8.12482268249241e-05
-4.42864006320766e-06
1.35446081978507e-05
1.88967985294851e-06
-6.48993012289064e-06
2.06880144653848e-05
8.4158951198843e-06
-1.01622820487861e-05
3.21454541335814e-05
3.0604968760244e-05
-1.9277581832541e-05
4.46279648009283e-05
8.01257747263725e-05
-5.56633085989352e-06
9.71554548744985e-07
-7.88149082307794e-06
1.4945634829915e-05
4.00908963341881e-06
-1.19106430151172e-05
2.20442996089202e-05
1.28073578286318e-05
-1.87869535880695e-05
3.25741773434906e-05
3.75229588202509e-05
-2.23186294082487e-05
3.33725321335637e-05
6.83820950853271e-05
-8.52422858493681e-06
1.87121580187079e-06
-1.21366668940843e-05
1.43739126296304e-05
5.36766201894076e-06
-1.88413459848422e-05
1.93597874583006e-05
1.43136245693127e-05
-2.64308216868884e-05
2.20141382032822e-05
3.03605975397978e-05
-2.72309624369929e-05
1.25054374257114e-07
-1.75953852532523e-06
1.16578694754231e-05
-1.73278614553697e-06
7.94130611408244e-06
-7.14734878075804e-07
-6.4653165861734e-05
-2.52576060602108e-07
1.4407356919045e-05
-8.78677058273203e-05
-2.66218243663554e-06
2.62758635591315e-05
1.73361339994942e-05
-8.63643172611623e-05
-7.33245954769511e-07
-0.000153849558563244
-1.5007307778653e-08
3.92077709809604e-05
-5.33584408355472e-05
-4.19217025582751e-07
1.09255549564147e-05
5.52502798460873e-05
-7.19656196144311e-05
-9.03712247460555e-06
3.20102109938704e-05
2.71274936782922e-05
9.77384631866589e-05
-9.23254566233402e-05
-8.59796615987017e-06
5.43155015850387e-05
-4.05974803669558e-05
3.95939178599795e-06
1.43930961185041e-05
8.41847350618114e-05
-3.09704935847751e-05
-3.27966429901393e-05
1.50084249889389e-05
4.50834426159682e-05
2.10155827630543e-05
0.000113048328268582
-2.23739750205747e-05
4.05082699980447e-05
0.000138935650936639
-1.15958543299695e-05
-0.00016838500991127
0.000196228960504211
-3.57701666469252e-06
-1.62753138890906e-06
2.93044806602387e-05
7.76978702351547e-06
-2.57937896863469e-06
2.20502143393614e-05
5.52914674957017e-06
-8.58285084153249e-06
3.74586203345525e-05
2.9142896660252e-05
-2.51292218540166e-06
1.75739477378271e-05
3.33995032753952e-06
-5.29904277991927e-06
2.69930059597798e-05
1.53686784615323e-05
-1.13340227439267e-05
4.36613503940666e-05
8.30165697656065e-05
-3.37157162796092e-06
1.42821961836645e-05
1.91609602154544e-06
-4.96605336296325e-06
2.09770408726918e-05
8.24808811573015e-06
-8.220194034686e-06
3.05195526182755e-05
2.84569933788302e-05
-1.52057996736573e-05
4.06803332700455e-05
7.70043943540499e-05
-4.47362348262997e-06
1.13728726700214e-05
1.07902710272841e-06
-5.9628933706194e-06
1.62816649144373e-05
4.37742768429511e-06
-8.14521950678176e-06
2.31498200534823e-05
1.36460977577421e-05
-1.21558436683346e-05
3.14224914722193e-05
3.71793270843192e-05
-1.60045048932215e-05
2.88578220603458e-05
6.59694244310902e-05
-7.02518680495965e-06
2.25992394483462e-06
-9.33580249404356e-06
1.67978886780141e-05
6.4546294002214e-06
-1.28921898463549e-05
2.25479459507633e-05
1.68844226255022e-05
-1.64767455582055e-05
2.57784338289521e-05
3.51629760704163e-05
-2.14578817825838e-05
1.85974105590032e-05
5.28390271215071e-05
-9.85636788881684e-06
3.06410638857853e-06
-1.30580566860523e-05
1.49337651276331e-05
7.35122288313323e-06
-1.69344488334187e-05
1.71726969522054e-05
1.54881307938616e-05
-2.05190369686306e-05
1.54483344393155e-05
2.53554365578634e-05
-8.53805191827809e-06
1.15418097963569e-06
2.788859342346e-07
1.37526804457328e-05
-7.01569050114916e-07
1.00169913130651e-05
5.41160311725338e-07
-8.40488584559769e-05
3.56210117832545e-07
3.00816270108329e-05
-9.5616673399943e-05
6.06142773723484e-06
2.93348003173031e-05
2.36217395001239e-05
-8.87165722690884e-05
-1.68799938939775e-06
-0.000142197094137423
-2.58117068301793e-06
4.39385022533605e-05
-6.71388768557472e-05
5.94822570270875e-06
1.68329284342493e-05
6.903001780033e-05
-0.000115122691184312
3.78010288574953e-06
4.42009974022559e-05
3.22469450810473e-05
0.000101172048193391
-9.74328272061334e-05
-1.25739174128957e-05
4.85081571120785e-05
-3.95353518632832e-05
2.72118894409531e-06
6.46053504235094e-06
7.05932151836323e-05
-3.34664884999024e-05
-2.68766515699661e-05
8.92594341392048e-06
3.53116227970752e-05
1.20408729750744e-05
9.47101160514573e-05
-2.46731379729738e-05
1.92258533673437e-05
0.000113874478254097
-1.65386383564059e-05
3.78310169075201e-05
0.000151636850621048
-4.83474881379189e-06
-0.000137582294204143
0.00017024377893997
-3.99155018931087e-06
3.44279352945926e-06
3.13442956979102e-05
7.52387495770599e-06
-9.78259627006129e-07
2.27686052266428e-05
4.93475188252912e-06
-4.66467692857245e-06
4.12531223167316e-05
3.16284966518899e-05
-1.74101387615078e-06
1.79609658443377e-05
3.31733781843954e-06
-5.07211971632263e-06
2.74868367666696e-05
1.52739994367128e-05
-1.47318784226986e-05
4.47769312366273e-05
8.89358653341512e-05
-2.50472823340735e-06
1.47845115242983e-05
1.9225915438332e-06
-3.99087145288428e-06
2.12885078296648e-05
8.06926080724366e-06
-7.47339411698313e-06
3.03626752297627e-05
2.79205463648499e-05
-1.11088102139163e-05
3.98504186719992e-05
7.69001826333853e-05
-3.51833447729711e-06
1.21954505615474e-05
1.13145558820756e-06
-4.6110641348596e-06
1.70683746919143e-05
4.47292894415002e-06
-6.33898497158935e-06
2.34567305535649e-05
1.35046677998057e-05
-9.54904269645928e-06
3.05126678829481e-05
3.60178504306623e-05
-1.21215887043185e-05
2.75337234179053e-05
6.48136168859096e-05
-4.48443468060013e-06
9.8088924768553e-06
6.78607164730623e-07
-5.6539304649085e-06
1.34814756191777e-05
2.5079570269568e-06
-7.1217608560753e-06
1.82667333615972e-05
7.04646623610614e-06
-9.23040528862977e-06
2.36401760519356e-05
1.77666180860718e-05
-1.16725319326482e-05
2.56580061113806e-05
3.55749224740265e-05
-1.54623652928362e-05
1.80303518347882e-05
5.39844396171999e-05
-8.14271157599605e-06
3.6766621611271e-06
-1.0174010320368e-05
1.74169230040448e-05
8.7015951292594e-06
-1.22962692701916e-05
1.99601592463079e-05
1.80645021080535e-05
-1.44161891989733e-05
1.81465507941832e-05
2.95109778221091e-05
-2.00110619730318e-05
1.09958991815867e-05
4.14380763067632e-05
-1.06269021115745e-05
4.21385068053264e-06
-1.26152099901573e-05
1.38345426564814e-05
8.44523512616534e-06
-1.45219253098818e-05
1.36514414464697e-05
1.44448622652848e-05
-1.67610336251539e-05
1.06675002174046e-05
2.04919960503792e-05
-1.17642622485898e-05
-3.36162355696519e-06
-3.62501702025127e-07
1.6751234862395e-05
7.19028891207735e-06
2.29580780948094e-05
1.67616746553757e-06
-0.000111067442196919
8.99185880609997e-06
3.52929108351712e-05
-0.000141327501439954
1.29755132183342e-05
4.93723446183652e-05
2.49964805924142e-05
-0.000101038659153629
6.25615549733436e-06
-0.00011062440610112
-4.54257337148845e-06
4.826537600036e-05
-6.50601640667271e-05
1.39354269307666e-05
8.80758256157994e-06
8.61057457748527e-05
-0.00013278618971349
4.96933835401482e-06
6.23241265485055e-05
4.95745846602838e-05
0.000136109093383581
-0.000162204227526305
8.1476273736924e-06
4.31642403643615e-05
-3.77247804460995e-05
2.35835030171655e-06
3.94875147801208e-06
6.0597193145536e-05
-3.34880732122362e-05
-2.2967674207973e-05
6.08215377095807e-06
2.84853524373968e-05
7.01262280824627e-06
7.96453240982659e-05
-2.54143040214826e-05
1.19973403140174e-05
9.49942752541643e-05
-1.77902597473935e-05
1.96176659690177e-05
0.000122814949520348
-7.33438929007176e-06
3.11738100424218e-05
0.000134961775377234
-7.26549617974968e-07
-9.76978458675183e-05
0.000150201876572139
-6.92099910543301e-06
1.13820830252613e-05
3.37566326188003e-05
6.56944409051798e-06
2.26676332895782e-06
2.37102332884974e-05
4.38903399184572e-06
3.44738263018552e-06
4.71101997450163e-05
3.84073397900842e-05
-5.22419095520177e-07
1.83270311658659e-05
3.22297621305418e-06
-2.95999968881069e-06
2.87965288708265e-05
1.52792133692777e-05
-8.21881341794045e-06
5.28886149974653e-05
0.000108335895833938
-1.63646458202118e-06
1.51475183939994e-05
1.94518238366989e-06
-3.00712296292549e-06
2.17251779730965e-05
8.09524126199261e-06
-7.46578012032284e-06
3.10664112470292e-05
2.89768944303743e-05
-8.90382932120202e-06
3.94427371757904e-05
7.84619493064944e-05
-2.65238546901003e-06
1.27575280404578e-05
1.16103365539481e-06
-3.5253498928753e-06
1.76229528519474e-05
4.50242841454473e-06
-5.19487350836789e-06
2.38598701661926e-05
1.34279461737321e-05
-7.9784440055539e-06
3.05622206222176e-05
3.56381363881416e-05
-8.22734068648394e-06
2.75684576403778e-05
6.50551461438087e-05
-3.63689208919741e-06
1.06182375316098e-05
7.29669433941091e-07
-4.48608763148133e-06
1.43945469983632e-05
2.63743761896692e-06
-5.57434547558439e-06
1.91325867982587e-05
7.24965086762981e-06
-7.20644056474681e-06
2.41188913993764e-05
1.78744671515309e-05
-9.00938513455005e-06
2.55607575009245e-05
3.53276602459432e-05
-1.13082491416798e-05
1.81750023824949e-05
5.44818424397376e-05
-4.47237223364584e-06
8.59641904202118e-06
4.63690310757474e-07
-5.4718441340671e-06
1.14947989769434e-05
1.58621750991407e-06
-6.5803322779535e-06
1.51347200684677e-05
4.0775865010027e-06
-7.88271605794683e-06
1.89445612271375e-05
9.45077596095069e-06
-9.18721267507692e-06
2.11720972387977e-05
1.91434533769652e-05
-1.06401271648638e-05
1.8875580172746e-05
3.09536210568749e-05
-1.47769179189834e-05
1.16347043549923e-05
4.41282200267993e-05
-8.82866026535044e-06
5.01984621247013e-06
-1.00405070065638e-05
1.61525139399278e-05
9.93452177632738e-06
-1.11317228783302e-05
1.59344487190468e-05
1.68863816114274e-05
-1.28270763705706e-05
1.25941483361784e-05
2.39787604298672e-05
-1.83348090354724e-05
7.41065545765068e-06
3.33433123799955e-05
-1.04858835039972e-05
4.98677213971167e-06
-1.14118037716039e-05
1.17425668088333e-05
8.48162198570924e-06
-1.23688473956106e-05
1.04229786905446e-05
1.25707331849058e-05
-1.41445032255919e-05
7.68316433728365e-06
1.66500242542475e-05
-1.01157606070473e-05
-6.10759025147414e-06
7.41104588687145e-06
2.39789977495054e-05
7.99225397660133e-06
3.00138822069086e-05
5.80199556609829e-06
-9.5491029554312e-05
9.88217731413759e-06
2.9540536630173e-05
-0.000141788725532175
7.34673239050296e-06
4.99242166486515e-05
3.54211589543071e-05
-0.000157822310798961
1.58254231715485e-05
-6.10592313844014e-05
-5.76002869917057e-06
4.87885455193289e-05
-6.08024293728509e-05
1.91637543243512e-05
6.7855503424138e-06
0.00010685001608474
-0.000167495384635325
2.35861678106246e-05
5.08361007452665e-05
6.38596975363924e-05
0.00018771762528001
-0.000199087139985465
1.79815553666043e-05
3.80883848965876e-05
-3.55427045287559e-05
2.19608711351679e-06
3.09601426519073e-06
5.21563497515441e-05
-3.23799437091745e-05
-2.0170051920758e-05
4.61634819934331e-06
2.35618906561379e-05
4.45374058279009e-06
6.76531370708169e-05
-2.59496156659285e-05
7.14326099524827e-06
8.04761811407782e-05
-1.80394578141892e-05
1.3007685282884e-05
0.000101086244033162
-9.06923174015301e-06
1.67974194327308e-05
0.000113052839207355
-2.22287063935118e-06
1.91271264620491e-05
0.000131423311143525
-1.07511160225841e-06
-0.000155156685262339
0.000208500884543398
3.59448443412496e-06
1.80252300309128e-05
3.45068764084051e-05
7.63850788403752e-06
7.42406358442201e-06
2.42857538231917e-05
4.3135697099175e-06
1.74069309126836e-05
5.50578843983249e-05
4.44019934472808e-05
1.46591831299787e-06
1.86249063667615e-05
3.09698555509156e-06
1.85310503707801e-06
3.07516770028808e-05
1.59344345153897e-05
1.49190402454587e-05
6.44555727196293e-05
0.000138531506057504
-6.20682723217788e-07
1.53516944446375e-05
1.95955317674497e-06
-1.46601706853069e-06
2.22790484024903e-05
8.19934269308912e-06
-5.02211590501331e-06
3.32057648567078e-05
3.25183839816336e-05
-5.33955340253138e-06
4.05805047187313e-05
8.33182171981493e-05
-1.80486981775474e-06
1.31121733010805e-05
1.18782849426209e-06
-2.45791341599259e-06
1.80417926498089e-05
4.56112696006581e-06
-4.15373000326596e-06
2.43846416148495e-05
1.37358566349119e-05
-7.03705366318418e-06
3.09787789947102e-05
3.64994477679628e-05
-5.73935811123384e-06
2.71235604238099e-05
6.56478185701198e-05
-2.82618648648568e-06
1.11839262956942e-05
7.62895254730023e-07
-3.44008934037618e-06
1.50274826739566e-05
2.71050322520328e-06
-4.33774042918087e-06
1.97636753828679e-05
7.36201072360608e-06
-5.76308898954439e-06
2.46032180556713e-05
1.79435824840866e-05
-6.9486013238975e-06
2.58697214088045e-05
3.52760744363244e-05
-7.29523068630505e-06
1.87401564233948e-05
5.53096574849487e-05
-3.7198638948088e-06
9.35714129497881e-06
5.08586579816852e-07
-4.45492471233782e-06
1.24040103436069e-05
1.70328349494487e-06
-5.25848890583824e-06
1.61462197638834e-05
4.30195661566453e-06
-6.202879555125e-06
1.98941121449961e-05
9.79458103152414e-06
-7.13582993830045e-06
2.18433855678857e-05
1.95404353313868e-05
-8.01867965063302e-06
1.93410515694197e-05
3.15401491846331e-05
-1.07659170452491e-05
1.20835737225423e-05
4.55305286735934e-05
-4.44578749582865e-06
7.60227605104612e-06
3.39431469009971e-07
-5.33944203949071e-06
9.9801270340632e-06
1.08160194234547e-06
-6.28781685004249e-06
1.28994900947491e-05
2.59739281083164e-06
-7.17892321440395e-06
1.58146413840571e-05
5.55776172520773e-06
-7.90440065089188e-06
1.76614300234545e-05
1.08253186090039e-05
-8.53934763041646e-06
1.72125115241509e-05
1.82141237817597e-05
-9.72685408284002e-06
1.35804748343221e-05
2.59076156831778e-05
-1.4121168660428e-05
8.08765237911355e-06
3.62806732094836e-05
-8.78892881493511e-06
5.92678537346098e-06
-9.2962014213582e-06
1.3759106662961e-05
9.9942420185711e-06
-9.89262117635747e-06
1.22338886588045e-05
1.47703937048374e-05
-1.13841911370029e-05
9.09045341992268e-06
1.95386388316109e-05
-1.67163734206681e-05
5.52959564862275e-06
2.74560579745696e-05
-9.71886656179287e-06
5.23679644059164e-06
-1.00409215861546e-05
9.55786912919808e-06
7.84941809094205e-06
-1.0587547964993e-05
8.00735344171764e-06
1.06492860380819e-05
-1.21607766998405e-05
5.85184710881087e-06
1.37237009191654e-05
-1.06154946663867e-05
-5.43565259299462e-06
6.51826927182956e-06
1.83249252918144e-05
3.96133127481304e-06
2.47386849761972e-05
6.12548068929405e-06
-7.48458078708933e-05
1.51127160897688e-05
8.8128276008649e-06
-0.000189967211952599
1.24995480202029e-05
4.68595284325372e-05
3.47451165604263e-05
-0.000176813842510279
8.7312154737676e-06
-0.000128768780983917
2.59718167915925e-06
7.45973305804916e-05
-7.49758497242546e-05
2.09133624996447e-05
-1.37109785060831e-06
9.84249736895986e-05
-0.000114365171678494
1.47026702656501e-05
3.16092238481721e-05
2.50199165618626e-05
0.000200499408957651
-0.00018876906178026
3.2067373546314e-05
3.33595908377357e-05
-3.33278899013881e-05
2.04595410324324e-06
2.62685005621052e-06
4.49828821826898e-05
-3.09960785622382e-05
-1.79974688732934e-05
3.77520500721473e-06
1.98500061167904e-05
3.35503890920467e-06
5.77610448075462e-05
-2.58428783778112e-05
4.45539759914305e-06
6.92336249769674e-05
-1.9162447226401e-05
8.00381915814187e-06
8.52655511308307e-05
-1.02225767719087e-05
1.1261156213121e-05
9.58971371656635e-05
-3.17468051867251e-06
1.26281349065822e-05
0.000114771174768747
1.80112120475662e-06
2.75683421997903e-05
0.00015113672256149
2.8720699618954e-05
-0.000201455025042712
0.000213225740809731
1.68436727667128e-05
4.98589584556198e-05
4.14793692544847e-05
1.28420954368383e-06
1.27243366363244e-05
2.35285605405502e-05
5.67802975318815e-06
1.98481407970836e-05
5.8368521984443e-05
4.52537010107549e-05
4.24960463557029e-06
1.84547711218928e-05
3.04729094456578e-06
1.12729115969893e-05
3.25610602721161e-05
1.73905616027839e-05
3.07152863870806e-05
7.87811409197804e-05
0.000150323975760385
7.04148455580811e-07
1.53652019115271e-05
1.93487101554998e-06
1.25933159815368e-06
2.28615801323436e-05
8.26172235741539e-06
2.1537342815334e-06
3.63222411088902e-05
3.68918927374729e-05
1.53985775291048e-05
4.80795410588288e-05
9.72821311982521e-05
-9.18646673978933e-07
1.32588735790198e-05
1.2065964928897e-06
-1.18192380756872e-06
1.83247646741548e-05
4.63784218869279e-06
-2.37567092230144e-06
2.51575804834393e-05
1.44694551059891e-05
-4.93983533448331e-06
3.21227644728554e-05
3.88788873683192e-05
-3.39198659443373e-06
2.66071476651155e-05
6.69918199988991e-05
-2.0313055355034e-06
1.15305518069666e-05
7.86739646595302e-07
-2.4184212438327e-06
1.54385668969142e-05
2.76938329605154e-06
-3.14960270062341e-06
2.02475892212751e-05
7.51003353193942e-06
-4.44854699352031e-06
2.50859203058774e-05
1.83141567120275e-05
-5.166503746034e-06
2.60930911255979e-05
3.57478016847921e-05
-4.08304555215406e-06
1.82861609055255e-05
5.54106227066121e-05
-2.97656180141466e-06
9.90114017177244e-06
5.39482732826121e-07
-3.48936601619565e-06
1.30451669125023e-05
1.77964943342326e-06
-4.08035926540527e-06
1.68552878953624e-05
4.44075617254302e-06
-4.80728365830263e-06
2.05756653714591e-05
9.99395456478775e-06
-5.48017506714033e-06
2.24008883992334e-05
1.9756737211353e-05
-5.73382137907924e-06
1.98410987260635e-05
3.18902555088932e-05
-6.85949366550993e-06
1.26825716574149e-05
4.67244802836252e-05
-3.77052871326332e-06
8.30473376117816e-06
3.77147180035795e-07
-4.44689318432981e-06
1.08386455079582e-05
1.18139855356248e-06
-5.13946542318136e-06
1.39107831729404e-05
2.79036481558228e-06
-5.75548139694794e-06
1.6889642317326e-05
5.88297613550867e-06
-6.21913888011202e-06
1.86441281796402e-05
1.1308556506948e-05
-6.55993781559767e-06
1.80086741609218e-05
1.88933761371062e-05
-7.24372033042254e-06
1.42026541431537e-05
2.69379195133569e-05
-1.05275328830145e-05
8.47112514974715e-06
3.79211659197356e-05
-4.4047558087776e-06
6.75288819976837e-06
2.63491825002232e-07
-5.22940122570485e-06
8.76097605001481e-06
7.84538886659335e-07
-6.09510166082251e-06
1.11924366072642e-05
1.77323849081092e-06
-6.80123545756399e-06
1.35411905073858e-05
3.56918684683169e-06
-7.19607881285833e-06
1.50499981857627e-05
6.57633240839845e-06
-7.41780068597911e-06
1.51685670949158e-05
1.09908402256225e-05
-7.72831758362904e-06
1.34323339414121e-05
1.61979370058131e-05
-8.84819946472534e-06
9.99891537897152e-06
2.14603482596292e-05
-1.32785386897963e-05
6.09275950872921e-06
3.01051230079013e-05
-8.23104437189955e-06
6.23756226864986e-06
-8.34598767152955e-06
1.12433709543314e-05
9.28980535607612e-06
-8.71926249509366e-06
9.43136461507548e-06
1.25611767426852e-05
-1.00938045735301e-05
6.90084271393464e-06
1.61004107599611e-05
-1.53068798276534e-05
4.40355488898807e-06
2.29887735014222e-05
-8.72158377091428e-06
5.06744017280979e-06
-8.74703400117466e-06
7.71509532979165e-06
6.95139178418697e-06
-9.10397636737495e-06
6.30228241241355e-06
8.96367874399567e-06
-1.05775092979297e-05
4.68649526874972e-06
1.14862329136028e-05
-5.44115830057378e-06
3.65863511018753e-06
6.25999486064821e-06
2.79196633121512e-05
3.95785697418955e-06
7.59505557553325e-06
1.02676027974436e-05
-8.43394567039131e-05
2.01933816962003e-05
4.28292784928558e-06
-0.000132886543873723
1.03597317072818e-05
2.94739928080195e-05
2.97831251860159e-05
-0.000170948888982015
7.98743783953046e-06
-0.000179997271894874
1.09225511582945e-05
-0.00016898620992015
0.000184792738951116
5.10681262883973e-06
9.74321455887384e-05
-0.000113870279086529
2.11360472012507e-05
8.63362929781767e-06
5.08901899279593e-05
0.000163929274429039
-0.000166781503098914
1.56386109238924e-05
2.90040647711031e-05
-3.12634655584944e-05
1.91890693211636e-06
2.35507855636431e-06
3.88081951561572e-05
-2.95082782357315e-05
-1.62609588646562e-05
3.21589181900944e-06
1.69344371677519e-05
2.77235132083121e-06
4.95545865249745e-05
-2.55619566203e-05
3.33167026978743e-06
6.00143812671238e-05
-1.9955293707602e-05
4.98671184234501e-06
7.32882301078802e-05
-1.21718318197983e-05
6.84580570292128e-06
8.32971565455448e-05
-4.46840036665151e-06
9.72459357424652e-06
9.99151150459598e-05
1.9567810678348e-06
1.23253810786445e-05
0.000119944298342657
2.06681416537212e-05
5.33455055404036e-05
0.000173374611017534
1.52263110862344e-05
-0.000282552998439511
0.000328894415969303
2.13924271287007e-05
-3.82111809269001e-05
4.45840569236172e-05
3.78244044433845e-05
5.66166044806751e-06
2.23546200081104e-05
2.21142189016718e-05
9.7348500397321e-06
6.26681032516652e-05
3.19522634729364e-05
2.39440767616677e-05
6.9249366750699e-06
1.74155446145085e-05
3.43767633246112e-06
2.26266035846471e-05
3.09289185686302e-05
2.17639048933784e-05
7.19818269212218e-05
2.83234966934606e-05
0.000139592884355136
2.27513691630313e-06
1.49807280007876e-05
1.90305184429083e-06
5.73381022113343e-06
2.29934113294289e-05
8.14044667717903e-06
1.69117357542897e-05
4.05506239236869e-05
4.08630438202981e-05
4.06595266022074e-05
6.54014100022621e-05
0.000113007043813604
8.11033483776138e-08
1.31718416850045e-05
1.19360885823013e-06
5.38778472133062e-07
1.84354562400634e-05
4.64028632405316e-06
9.73511959545941e-07
2.60464590259165e-05
1.51883063708463e-05
1.48550370019281e-06
3.48569387441229e-05
4.36891262615264e-05
6.04975692836687e-06
2.84059796153402e-05
7.17597606143899e-05
-1.23256342948174e-06
1.16603256293545e-05
7.99804734973743e-07
-1.33449367934051e-06
1.56335915775121e-05
2.81383862838661e-06
-1.68159173400681e-06
2.06123474343469e-05
7.71505542945365e-06
-2.59567531767771e-06
2.56687438480949e-05
1.90705835813101e-05
-3.10029715029054e-06
2.64851514656762e-05
3.69346535189383e-05
-1.15904408020194e-06
1.79156278015214e-05
5.58767684673903e-05
-2.24335571594567e-06
1.02376749234859e-05
5.59669602104781e-07
-2.54201154345929e-06
1.34464198790947e-05
1.8315290443135e-06
-2.93433821972862e-06
1.73236331087575e-05
4.54731324731382e-06
-3.47081730298719e-06
2.10656739085627e-05