/*--------------------------------*- C++ -*----------------------------------*\
  =========                 |
  \\      /  F ield         | OpenFOAM: The Open Source CFD Toolbox
   \\    /   O peration     | Website:  https://openfoam.org
    \\  /    A nd           | Version:  12
     \\/     M anipulation  |
\*---------------------------------------------------------------------------*/
/*   Windows 32 and 64 bit porting by blueCAPE: http://www.bluecape.com.pt   *\
|  Based on Windows porting (2.0.x v4) by Symscape: http://www.symscape.com   |
\*---------------------------------------------------------------------------*/
FoamFile
{
    format      ascii;
    class       volVectorField;
    location    "100";
    object      U;
}
// * * * * * * * * * * * * * * * * * * * * * * * * * * * * * * * * * * * * * //

dimensions      [0 1 -1 0 0 0 0];

internalField   nonuniform List<vector> 
10107
(
(-0.00279648809264112 -0.0110512887764019 0.00915272594327203)
(-0.0031455573471099 -0.0141706366417922 0.00028474679206094)
(0.00102482177719853 -0.00432932251857042 0.0120140316153438)
(-0.000706256589209787 -0.00889142898705735 0.00968194664130583)
(0.000364536831548718 -0.0165997396173971 -0.00850003650367043)
(-0.00317876931893271 -0.0139573398268382 0.000711503709132943)
(0.00287612488880445 -0.0088558199061365 0.00028102938855306)
(-0.000722967360554775 -0.013230386231212 0.00613624235994765)
(0.000182084866147843 -0.00404305494716562 0.00295497398519837)
(-0.000857571325058405 -0.0017514937796772 0.00167692648869149)
(0.00372020051270929 -0.0154924949326867 -0.0113713852296585)
(-0.00218760117926678 -0.000983089548644133 -0.000814245832575175)
(0.00870201589113429 -0.00347142315024817 -0.00862770789514035)
(-0.00232095662400797 -0.0102961437064766 0.000698886093562488)
(0.00566009042945987 -0.00350326505732949 -0.00249171602318222)
(0.000107212478076986 -0.00788023839358927 0.000390561267793554)
(0.00208138367049036 0.00237633452548062 -0.000938978270856936)
(-0.000924948893685767 -0.0114069346289884 0.00117904030601702)
(0.000402782969254475 -0.00948360785597599 0.00449472426640733)
(-0.000661473242758098 -0.00836714506831331 0.000173826671293928)
(-0.00358989934981274 -0.00632497024701018 0.0028868740286716)
(-0.000781629634629542 -0.00570941187168407 0.00407816409247939)
(-7.54270131472518e-05 -0.00390862415593146 0.00834453741708419)
(-0.00239596627295763 -0.00447088146548932 0.0038543896197726)
(-0.000747295578480021 -0.00386735374308615 0.0037556906946891)
(0.0048311698457553 0.035775674453749 -0.00327069054998665)
(-0.00122592848425775 0.0123817230553615 -0.00134110382512551)
(-0.00343389320969304 -0.00449907058784167 0.00389039774015976)
(0.00553535240831 0.00184960104226069 0.00794718457990401)
(0.00313512670244092 -0.000863728449104373 -0.00253338903209099)
(-0.0012194657743443 -0.00902788524614702 -0.00132420604247561)
(0.00111671346127376 -0.0117103815898505 0.00183361800867477)
(0.00118696078686926 -0.00838055698197886 0.000912933037252176)
(0.000324054966124001 -0.00229493947365979 0.00492522199990082)
(-0.000700419339910932 -0.00579531865907031 -0.00272813756523928)
(0.00447858470849924 -0.0194180099680734 0.00172855644575331)
(0.00792747075031512 -0.0128442423915794 0.0102481834733137)
(0.00811734804377947 -0.000175162226849591 -0.000513823810610971)
(-0.000411844583650724 -0.00733457084951926 -0.00581515893565579)
(-0.000319969063161541 -0.00967326703758041 -0.00104422204978376)
(9.50044804097975e-05 -0.0102352306965876 0.00179002902407746)
(-0.000310624615425051 -0.0119026429267486 0.00177919011868935)
(0.000133704562908506 -0.00691928455470169 0.0036100362065707)
(0.000293452076307859 -0.00894669101617195 0.00494309554406886)
(-0.00271682282899301 -0.00948279609807876 0.0026787215896108)
(-0.00404267995914821 -0.00728129094237782 -0.00197179356674769)
(-0.0020322484339489 -0.00790892211072067 0.0023980012234123)
(-0.00147659932508747 -0.0105367936725855 0.002815859087671)
(-0.00276294361078294 -0.00745433591637325 0.00365709419883715)
(-0.0026077087946914 -0.00979523593834967 0.00387599300525028)
(-0.00130078307389799 -0.00652663435461347 0.00361721714072846)
(-0.00021332569355604 0.0229932599769654 -0.00308264249618015)
(0.00226841811878772 0.0100600023222078 0.00797545048860758)
(-0.00344419497215944 0.000974879330403713 0.00484658700654297)
(-0.00191145733740072 -0.00575120798632417 0.000681119081397819)
(0.00310692598536763 -0.0146999673834467 0.00705925180541085)
(0.00803908886520564 0.00643688786491881 0.0126901261172828)
(-0.00604394434699571 0.00537481916553332 0.00655529821155429)
(-0.000595620799129102 -0.00851876378464507 -0.00182026806305758)
(0.00160020727227303 -0.0104851358092715 -0.00153843509641338)
(0.00616954192592477 -0.0153491012629074 0.00711821857464562)
(-0.00428135100081928 -0.00541713152994394 0.00121437459518682)
(0.00630456012394551 -0.014861515181454 0.00583165639243374)
(0.0169592384295776 -0.0440327584058115 0.0129389130338282)
(0.00101497168275493 -0.0118752085267497 0.00893182899870087)
(-0.00399102981027686 -0.00366518166425693 -0.00120904429557275)
(-0.00174424878272801 -0.0104290586218153 0.00130716362355197)
(-8.02897697692443e-05 -0.00878157320290823 -0.00111318929178926)
(0.000130169305780282 -0.00982560449255715 0.000351939105141061)
(0.000607292348309028 -0.00999433851798076 -0.00160558248282516)
(0.000165948654502706 -0.00800014902852997 0.00223582481567022)
(0.000577103779591686 -0.0104241277836533 0.00220886624751711)
(0.00324380365701131 -0.012651813015403 0.00214131300307967)
(0.000101330487492118 -0.00552334813316737 0.0033422854085701)
(0.000485502336358504 -0.00687747898231743 0.00383504425502262)
(0.000586646312327428 -0.00876603587779897 0.00535517109228551)
(-0.00450541729233506 -0.0066139188176048 -0.0018827535005993)
(-0.00302551570916899 -0.00662035307186326 0.000826449746124083)
(-0.00291913525836678 -0.00735136082281403 0.00254547016558941)
(-0.00317808639099461 -0.00808004281641725 0.00271839534885062)
(-0.00544415080229681 0.0229274932785331 0.00542611931482653)
(0.00463249062914909 0.0231362599909521 0.00914633939346845)
(0.00192073181804731 -0.0131955612500069 0.0067454102195978)
(-0.00119547190964337 -0.0064150719267749 0.0022800424693139)
(-0.00118606445754391 -0.0061873058205081 -0.00134380374824828)
(0.00226839706378942 -0.011458992185174 0.00162670227144673)
(0.0109058332149704 -0.013847366518598 0.0119503748420916)
(0.00764856646461462 -0.0358215341578306 0.019637879129133)
(-0.000253150453797519 -0.00838198776373339 0.000313547653190224)
(0.00125237514069363 -0.00717188190492104 -0.00261148927275664)
(0.00870985590447584 -0.0093812974921947 -0.00222692285819796)
(0.00755472836611934 -0.00771951959993181 0.00367650306182513)
(0.0159144076429099 -0.0225887418787635 0.00205329618141368)
(0.00603547363974924 -0.00861587666816165 0.00781756871633305)
(0.0101841996238768 -0.0144242724094618 -0.00691747547917401)
(-0.00267718403001413 -0.00656171605732612 -0.0014539647810945)
(-5.82999855427282e-05 -0.00850871408239443 0.000460986327569731)
(0.00015286635526246 -0.00936708038533591 0.00011630288152622)
(0.000694882789098531 -0.00805578415822064 -0.0015143306718274)
(0.000195909781604533 -0.00839631201409264 0.00136922238536994)
(0.000855531057984315 -0.00976945375727878 0.00024528648608785)
(0.00439420620859302 -0.00963656081416176 -0.00252923105901739)
(0.000132690624445522 -0.00650509445468919 0.00255165668388219)
(0.000668784801877604 -0.00799666621215477 0.0023618573382946)
(0.00167310585794414 -0.00992924887476372 0.00182230183627936)
(0.00755963099575391 -0.0104861801868432 -0.000102225593665289)
(6.84454585596308e-05 -0.00464316545313446 0.00325140845465357)
(0.000377682087874282 -0.00546649050271665 0.00342210037404923)
(0.000911100029280015 -0.00660500239243934 0.00379183117129953)
(0.00314179111086652 -0.00848744174250295 0.00453777150132147)
(0.00832481615061966 -0.00147526194222011 0.0142187050885739)
(0.00949349415571814 -0.0100481770789832 0.00985778743552352)
(0.00174624269265069 -0.0111499081401226 0.00325967021868442)
(-0.000483665772044046 -0.00592239327959472 -0.000293963290767908)
(-0.000609278732840099 -0.00712098065907299 -1.14784389139736e-05)
(0.00132301927813425 -0.00536402239049945 -0.00199601622108949)
(0.011585510956507 -0.00884487575755453 0.000809737168029532)
(0.00838312670058872 -0.0108942636498281 -0.00527280535314531)
(-0.000609360423653407 -0.00796191425851669 0.00317776966563177)
(0.00130649257517559 -0.00715418099305642 0.000826110136441122)
(0.00554000043165165 -0.00546596584538016 -0.00328772724213994)
(0.00880144605330066 -0.0036265484940425 0.00292477507866794)
(0.0124956500442092 -0.0102939569055334 -0.000175751139454529)
(0.00899646634159178 -0.00758618578425637 0.00488230521173481)
(0.0101890813793143 -0.0102082397050713 -0.00649414591766767)
(0.00744556504974725 -0.0151209095765426 -0.00359993427774975)
(-0.00027748597594925 -0.00860579266296146 0.00244425134157042)
(0.000141483926129086 -0.00924104947154688 0.000772988377999375)
(0.000437426615027405 -0.00758017977531546 0.00103960388376101)
(0.000195638402622021 -0.00848529608533615 0.000976612525523782)
(0.000794960301704108 -0.00895881443972217 0.000115707079292941)
(0.00315168791217398 -0.00733712186353261 -0.0018647507026037)
(0.00015471989310385 -0.00712087959300063 0.00193514160033133)
(0.000768704079736473 -0.00827077750354878 0.00139562933142175)
(0.0021035691650271 -0.00901633543546215 4.8522977598378e-05)
(0.00847343609061369 -0.00564427953233294 -0.00310950282305284)
(9.13243051727747e-05 -0.00551158221553724 0.0027246043603248)
(0.000489533737801055 -0.00642146748663813 0.00260329509921851)
(0.001300692819004 -0.00759045503268513 0.0022502307012898)
(0.00388472665761021 -0.00926919821079676 0.00110437737329988)
(0.00984023078710793 -0.00868321255972893 2.36148734489962e-05)
(0.000244606575662499 -0.00457289691145849 0.00327850238008648)
(0.000671587418979696 -0.00522022171110764 0.00333621455541606)
(0.00175898552929262 -0.00617787401242061 0.00349871702486209)
(0.00472593867342603 -0.00657387359523567 0.00355144303565476)
(0.00524660049605901 -0.00542440777272572 -0.00188685559426066)
(0.0088915656707935 -0.00908432813643988 0.00386325248301578)
(0.00162450551694137 0.000524908033044514 -0.00054875346319817)
(-0.000265580259240619 -0.00686542662123598 0.000160335904943955)
(-0.000765791823615587 -0.00621163781624288 0.00252055606942781)
(0.00163591076539837 -0.00621931573271474 0.000278041625941465)
(0.007257929693315 -0.00125692078299592 -0.0033787345324226)
(0.00347546526795171 -0.0106928611632719 -0.00421200639573473)
(-0.00179912487262142 -0.00788287330142363 0.00420307983970729)
(0.000412884816526632 -0.00695783544839811 0.00578810876106613)
(0.00594030371919726 -0.00608757035422026 0.00127006424979223)
(0.00776435126648813 -0.00174026812554191 0.00312735668963088)
(0.0124241657499326 -0.00531206043037476 0.000925966815230389)
(0.00815517088825247 -0.00420873978653225 0.00361803156139143)
(0.0112202357220768 -0.00621412952667683 -0.00380058688558067)
(0.00997456565779273 -0.0107701198523792 -0.00221360164697833)
(0.00830041615773137 -0.0150175521218078 0.000817041888394303)
(-0.000838553321596094 -0.00903106480477777 0.00341240567674689)
(3.41447217578454e-05 -0.00946000319968193 0.00163053071045586)
(-9.51363397409663e-05 -0.00786155006948174 0.00435458502475526)
(0.000186030640290782 -0.00859686795735721 0.00102011965186268)
(0.000657958886394765 -0.0087599821152032 0.00120510167309694)
(0.00298062034658644 -0.00718656973885305 0.00150947031962521)
(0.000161212378025913 -0.00747604476477436 0.0015047672166143)
(0.00073756157483189 -0.00823881366908194 0.00107079766153825)
(0.00180751682601276 -0.00816235864504717 0.000125514069210826)
(0.0070869287561313 -0.00464873449479097 -0.00121007238934533)
(0.000108148360460524 -0.00615640998763361 0.00223960722132653)
(0.000552122605343681 -0.00697499008238461 0.00196857713157165)
(0.00147470011274694 -0.00777264034927784 0.00134536085319896)
(0.00399355593970997 -0.00798574528920696 -5.34431854796351e-05)
(0.00877315537077158 -0.0055367147462636 -0.00163016987351045)
(0.000318700679169934 -0.00541341638180249 0.00274324550154846)
(0.000875656552071206 -0.0061034350268984 0.00253096529647907)
(0.00218114681730179 -0.00695896719373541 0.00205747282097759)
(0.00522312681975702 -0.00714894648762875 0.00113105002544243)
(0.00896690525856584 -0.00481763313017287 0.00106942989836573)
(0.000434622132941016 -0.00435836670332674 0.00318161813955546)
(0.00104633561186938 -0.00482066517064329 0.00313860480714676)
(0.00241411340364924 -0.00520333414978115 0.00305103033955822)
(0.00463236208147803 -0.0044690760557672 0.00285635707072948)
(0.00192458300154751 -0.00518332205096183 -0.00348362264059301)
(0.00437275442644375 0.00508094542103857 -0.00161625042972935)
(0.00156817924562268 -0.00263456226586044 0.000431179645233566)
(-0.000256272559499862 -0.00637784938757573 0.00137777398423044)
(-0.00144264447539122 -0.00649645523491849 0.00282565983240304)
(0.000965715875636119 -0.00557391232894775 0.004562132265479)
(0.0083295159783954 -0.00306352932252637 3.37373770116103e-05)
(0.0050083624925621 -0.0113376123934868 0.000440345327452581)
(-0.00251767476798528 -0.008691047568895 0.00189340675584529)
(-0.000118022761095429 -0.0107729256240156 0.00762411951678369)
(0.00578126928373939 -0.0070126762354609 0.00799048429613571)
(0.00669723148281611 -0.00112680853961857 0.00336544365176977)
(0.0103238702840231 -0.00263450428544956 0.00219482180429112)
(0.00636848190205069 -0.00231865430353981 0.00294818185736983)
(0.0120587479868577 -0.00413342943118232 -0.000793322383616233)
(0.0104481649374973 -0.00518101130644988 -0.00110886961316611)
(0.0110242778312966 -0.0104996259735026 0.00100085923185095)
(0.00691637149521183 -0.0126933466346359 0.0082404953754639)
(-0.00141027431112323 -0.00940652666490353 0.00220072195910614)
(-0.000160561871611999 -0.00991956133045407 0.00205791219094675)
(-0.000993252661294898 -0.00952653703819051 0.0063312413415826)
(0.000163670248909326 -0.0088370979837943 0.00118902138162735)
(0.000387858763191077 -0.00906151550463025 0.00263263640841389)
(0.00312882886034394 -0.00793988798113851 0.00587806990574281)
(0.000161400244207358 -0.00772808514381261 0.00127304518798305)
(0.000684981577784901 -0.00834127979959599 0.00128782026121951)
(0.00159148538118322 -0.00810241524198153 0.00147603335327217)
(0.0066119183978945 -0.00468330166827818 0.00144171874650332)
(0.000117061560969511 -0.00659978173743277 0.00182141161067283)
(0.000561335617427048 -0.00727676257966257 0.00158211443043339)
(0.0014228463482379 -0.00772435013713182 0.00109643658158731)
(0.00350438732161355 -0.00743627912761049 0.000280255700486527)
(0.00782271068942125 -0.00469944778872003 -0.000451745449660597)
(7.55649646970217e-05 -0.00542978430542384 0.00241089687999091)
(0.000367737261658372 -0.0060168686166958 0.00225913339368188)
(0.000985267651452855 -0.00660403181575382 0.00192587848763146)
(0.00234804697086569 -0.00705370645813162 0.00129483982513233)
(0.00500881285367941 -0.00643780481528385 0.000294905741994413)
(0.00824288198559752 -0.0038048840351026 -0.000141708014768907)
(0.000564159991094452 -0.00515239630684621 0.00266305317663701)
(0.00131271390898747 -0.00560253794977682 0.00239488755948105)
(0.00282340772838683 -0.00586738935300918 0.00191897470753535)
(0.00515559824901713 -0.00494596536062269 0.00139352775002673)
(0.00723714547727545 -0.00272155571504565 0.00156636223600236)
(0.000643391641014913 -0.0040328819944594 0.00300862377104661)
(0.00134774707824792 -0.00420441679020145 0.00284068972165253)
(0.00252981176159103 -0.00403003719964628 0.00259863891859981)
(0.00386278446423732 -0.00301611289487662 0.00233449367056562)
(0.00342702971690676 -0.00214304431246688 -0.00038102707743325)
(0.00556305357052962 0.00313774442155873 0.000160678513750188)
(0.00116834797112192 -0.00376848500882578 0.00239131135871142)
(0.000212876285558502 -0.0107307727273373 0.000979735180226594)
(-0.00124074055036579 -0.00973027430303332 0.000584218215896335)
(0.00372991526857779 -0.0194793029800186 0.00322210100902609)
(0.00821405354910347 -0.00406049006249957 0.00608344077591747)
(0.00465760253372783 4.73041637101407e-05 0.00919882930584521)
(-0.00347000299034455 -0.00782883667985232 -0.00192557368255302)
(0.000611443158310679 -0.0183027268723142 0.00345015402137383)
(0.01050828881031 -0.0147338487206348 0.00974021484603678)
(0.00600211510481907 -0.000906634434314574 0.00337028734038845)
(0.00867115247713612 -0.00167620409143986 0.0026449030410943)
(0.0048687260556146 -0.00156571537713635 0.00249214311896008)
(0.0104465178025955 -0.00258511635866808 0.000698633476003132)
(0.0105371088811334 -0.00351191985769481 -0.000107705128035107)
(0.0110558462073866 -0.00538564060239537 0.00129417242175974)
(0.00974166112620149 -0.00930634103756484 0.00558803788685465)
(0.0085492523279858 -0.0111312949176863 0.00841867574129029)
(-0.00183455378807465 -0.00944589640277537 -0.000854064318569148)
(-0.000405845438799596 -0.0104101217980372 0.00132725322802078)
(-0.0015998605335954 -0.0117707861260042 0.00488113324599793)
(0.000120793365371788 -0.00914933719313598 0.00119542597702747)
(-1.83162900866929e-05 -0.00993681502228517 0.00354437584944184)
(0.00473091735238888 -0.0112095716304278 0.00867433576962161)
(0.00016076652224463 -0.00795143830466708 0.00111482576473935)
(0.000629339828103014 -0.00862033052339573 0.00167536128385086)
(0.00156907374095524 -0.00850493738072073 0.00329171887344866)
(0.00737257474821515 -0.00508634925366902 0.00478062088822329)
(0.000121496081252258 -0.00690862500833172 0.00149039259021068)
(0.000555112025798108 -0.00751921233097153 0.00143323989721615)
(0.00136263729579049 -0.00786828159621862 0.00139783944771562)
(0.00325421358443145 -0.00746053184093512 0.00143666162809332)
(0.00724685062730208 -0.00490135826805256 0.00115306241911229)
(8.41122840436554e-05 -0.00588605863705214 0.00201978241933936)
(0.000391494683890178 -0.00642742362567218 0.00186874680588897)
(0.00100726007044002 -0.0068800342344833 0.00157887861044177)
(0.00228521472802334 -0.00708124836025706 0.00111527771960678)
(0.0046639256377211 -0.00615929407714956 0.000493820157702007)
(0.00759442037482415 -0.00346215119491321 0.000180244200772576)
(5.51975140644458e-05 -0.00484653054949568 0.00250817528926151)
(0.000249087493067469 -0.00530582353543829 0.00241817161873369)
(0.000648128738843551 -0.00571795056253238 0.00220011097965253)
(0.00145834672319152 -0.00605300571230637 0.00185131701892496)
(0.00295345875078303 -0.00603194824054245 0.00129958726794777)
(0.00511627298160502 -0.00482338268872612 0.000709434395701403)
(0.00716103935384221 -0.0025525713725366 0.000602654551822765)
(0.000821527915559223 -0.00476303268217984 0.00252729259322923)
(0.00164738206659497 -0.00489649510182563 0.00221270416756364)
(0.0029638551050009 -0.00460701433637357 0.00179869199625595)
(0.00444882966677681 -0.00342257779103842 0.00145817861646417)
(0.00567608488455415 -0.00184988541192056 0.00163319610163245)
(0.000809638695212736 -0.00359330627743923 0.00276157701924053)
(0.00145328486605849 -0.00349208412550074 0.0024961666263196)
(0.00228675080562007 -0.00303248616643222 0.00217702155490658)
(0.00304522543465499 -0.00216554755937466 0.00191047703199263)
(0.00372125032578669 0.00633589796049334 0.00599247081008502)
(0.00600651804128447 0.00229771997223239 0.00297705153018009)
(0.00400184073716554 -0.0202680510275395 -0.00153965940478707)
(0.00202873840223238 -0.0160140494327526 0.000113208385910254)
(-0.00202837585782058 -0.00478793898964858 -0.00242485529213465)
(0.00581664552403514 -0.0362937915232839 -0.00152420527543502)
(0.012067464344155 -0.0311896454528821 0.00208577023364213)
(0.00947927767990074 0.0147397378133603 0.00734347018157157)
(-0.00294327375647711 -0.00601177755852732 -0.0044928101374862)
(-0.00344258125683476 -0.0196968402165881 -0.00144248269338342)
(0.0195275668224676 -0.02378435689115 0.00811783173686689)
(0.00540921065775412 -0.000777661733252785 0.00319875332335447)
(0.00743240638259618 -0.0011957904595192 0.0027220260596442)
(0.00384767184606591 -0.00125914216353277 0.00211788118787786)
(0.00914887150827041 -0.00168741616757534 0.00128946015805675)
(0.00943452522396614 -0.00207320578874701 0.00044411034964704)
(0.0110725810379303 -0.00370811941500468 0.0010958281137467)
(0.0103174858973106 -0.00465285305929619 0.00228724224477332)
(0.0107166713146984 -0.00700367773341173 0.0050601287280045)
(0.0174583595386238 -0.0170230512685805 0.0116427311942286)
(-0.00157283172872446 -0.00856810956711657 -0.00317998456444886)
(-0.00053762439385144 -0.0105838658664879 -0.000504300929576543)
(-0.00293069483672982 -0.0143238778936408 0.000242449160280729)
(5.6997784889537e-05 -0.00945894719863608 0.000680676844595937)
(-0.000528220546904224 -0.011038583962066 0.00289113422179239)
(0.00752855618879346 -0.0147526258772978 0.00790385405993583)
(0.00015733376031823 -0.00813220744226096 0.000905913917450916)
(0.000549019421294467 -0.00909335101784774 0.00187812161095449)
(0.00170874684151793 -0.00969653650450417 0.00461560635653174)
(0.0099690600714359 -0.00538042253453573 0.00745184502597799)
(0.000124893333876923 -0.00712396529583685 0.00119888118391473)
(0.000553958464191961 -0.00776315334848566 0.00137067436121689)
(0.00137386409497129 -0.00818394123074255 0.00192140506448345)
(0.00354644031349236 -0.00766998298651164 0.00299729644798983)
(0.00771971643621141 -0.00484421956341877 0.00281394752479416)
(8.9593759461232e-05 -0.00620861551752059 0.00166268010504574)
(0.000403013677342036 -0.00672731053879399 0.00158402482531325)
(0.00101880414254967 -0.00712165654564091 0.0014742045353111)
(0.00223695261300494 -0.00723259077501 0.00137705572262025)
(0.00445096201260293 -0.00630798822019918 0.00119138221183668)
(0.00739258517226259 -0.00380882366615299 0.000862195280403902)
(6.26384142504242e-05 -0.00528716634157115 0.00214593331115809)
(0.000274014287766136 -0.00573944593133252 0.00204501645432026)
(0.000692390856307572 -0.00610353345925527 0.00183699652277738)
(0.00150459948573874 -0.00632928965795163 0.00153731353260577)
(0.00293082604938179 -0.00612793499882947 0.0011076417426359)
(0.00495994950407555 -0.00479719647583185 0.000665148604640599)
(0.00693031671365084 -0.00243674270238457 0.000501614671788854)
(4.28430935967457e-05 -0.00435215491045951 0.00256051298962592)
(0.000177717381431607 -0.00473463641616667 0.00250512227549142)
(0.000438038917640464 -0.00505814799445884 0.00234920514328865)
(0.000938814460002029 -0.00528810460995106 0.0021002179330401)
(0.00181763137617632 -0.00532369446090623 0.00174108971550188)
(0.00315206352250347 -0.004869302584229 0.00129117736822445)
(0.00464975130145968 -0.00355104954048585 0.000902544618648918)
(0.0059762521606545 -0.00185813544843246 0.000885781961944281)
(0.00102250760667472 -0.00425039680615953 0.00233741338846059)
(0.00177469048337791 -0.00409231111585763 0.00199908299140593)
(0.00273045656568053 -0.00351825173591615 0.0016268945715801)
(0.00360707305183897 -0.0024958831751114 0.00135037375650183)
(0.00454233186554091 -0.00145065565722247 0.0015310411894507)
(0.000883218148054518 -0.00309794171563778 0.00247028168921165)
(0.00137944755294646 -0.00282775374086233 0.00214542058556415)
(0.00191105798192637 -0.00232410928704567 0.00180009830927655)
(0.0023993297191885 -0.00167029277456714 0.00154946231180578)
(0.0100902035481267 0.0302137021308857 0.00454991313942698)
(0.00756372105871854 -0.0288433751060802 -0.00181579524594465)
(0.00407214162171246 -0.0379734310066112 -0.00198854902530846)
(0.00140582865244868 -0.00670207308482035 -0.00196096707069439)
(-0.00218736698182492 -0.000715858244431581 -0.00505489283800141)
(0.00171155255227764 -0.0250888330582031 -0.00293058257041811)
(0.0164413709537964 -0.0361839712888066 -0.000146125946724159)
(0.00976355787178055 -0.00338254106271052 0.0102842624357845)
(-0.00270232922283521 -0.0067953097620582 -0.00878171724371141)
(-0.00428974928330566 -0.0128186765611861 -0.00486838302535848)
(0.00920858978395633 -0.0485340206390122 -0.00221321586899991)
(0.00486115608968522 -0.000679570594709732 0.00298499006735961)
(0.0064743450590209 -0.00090711941651567 0.00268965387847589)
(0.0031563884266382 -0.00109669284629654 0.00179307709620705)
(0.00792354925726986 -0.00120981678625329 0.00165983199232715)
(0.00860740785213401 -0.00129450021074537 0.000875612357249349)
(0.0100174481891253 -0.0022879189385974 0.000894945292984249)
(0.0102633407132902 -0.00290564871108257 0.001309896162615)
(0.0118734880743662 -0.00323907639641669 0.00257637774003384)
(0.012964819074235 -0.00835933055317244 0.00399756597888298)
(0.0175658001432428 -0.054373692432729 -0.00374756517507507)
(-0.00122557181657477 -0.00983115719796734 -0.00676542368796292)
(-0.000374679754099433 -0.0100820960450863 -0.00211721720633699)
(-0.002541014307943 -0.0117499059375134 -0.00336632160985331)
(2.02904187564128e-05 -0.00944404999306763 -0.000319154414548054)
(-0.000958023876547321 -0.0118707210514265 0.0003675365234545)
(0.00666353868762384 -0.0274705875889466 -8.96757763068163e-05)
(0.000145405131317426 -0.00823588959616937 0.000488480048253454)
(0.000413675216929286 -0.009642167247952 0.0014213940891781)
(0.00181356145356954 -0.0112158675941369 0.0041954559070022)
(0.0149838711998833 -0.00519142475330587 0.00780601013813765)
(0.000126428184992878 -0.00724525902957831 0.000897925886026706)
(0.000555041680407413 -0.00801046791301925 0.00124426833931538)
(0.00143238262064592 -0.00877877688028766 0.00227748266593215)
(0.00440154186513482 -0.00820109710600706 0.00439902904053768)
(0.00899061608003911 -0.00451844387989046 0.00455076061703147)
(9.3393015035438e-05 -0.00641768080075548 0.00132572443891721)
(0.000413749847647639 -0.00695399027121192 0.00134326181028017)
(0.00104453064777093 -0.00737424796344919 0.00146438911719345)
(0.00234888326407806 -0.00748472461838784 0.00183675816860162)
(0.00472752920780799 -0.0064109624744244 0.00211122539323357)
(0.00759231197523076 -0.00357644432553722 0.00154178154439176)
(6.78660403351088e-05 -0.00560447496041221 0.00179178006744605)
(0.000290346025935164 -0.0060543468905673 0.00171583597846452)
(0.000720183514267331 -0.0063931590571118 0.00158324148507498)
(0.00153292596533405 -0.0065590267358098 0.00143319609561155)
(0.00291319477593788 -0.00629258670141679 0.00122600607505842)
(0.00487367060428764 -0.00498109584662767 0.000922804050474281)
(0.00696897933540515 -0.00269616227506603 0.000683272788657919)
(4.9156577380786e-05 -0.00476603351147161 0.00222384265161468)
(0.000200273799884878 -0.0051604006074271 0.00215593274491968)
(0.00048193250325162 -0.0054690021058265 0.00199678139535117)
(0.00100560158964752 -0.00565299089442964 0.00176354047185679)
(0.00189200378524475 -0.00559901688175141 0.00144722771448355)
(0.00320044269238433 -0.00503555405109267 0.0010609626924083)
(0.00468394181621207 -0.00362643283737861 0.000711708892412691)
(0.00600699388387493 -0.00180060334164758 0.000660450345160222)
(3.522230314245e-05 -0.00391683427839398 0.00258094382735129)
(0.000135505286405378 -0.00425118044016545 0.00254946841343255)
(0.000310606193835839 -0.00452329769244416 0.00243135172653279)
(0.000630493740230284 -0.00470913755238124 0.00223702809464894)
(0.00116650798666987 -0.00473320500215802 0.00195524933976093)
(0.00197368795715148 -0.00449725965766087 0.0015992881574996)
(0.00298314166160298 -0.00381442711756136 0.00121379767619903)
(0.00392185880733784 -0.00267224765717993 0.000903751790211248)
(0.0049080160154787 -0.00149044349520957 0.000960568401900299)
(0.00111708182301783 -0.0036752046607813 0.00211199680473759)
(0.00170257461984507 -0.00333457678219819 0.00176346933684082)
(0.00232543855508662 -0.00272082576682935 0.00141336850375029)
(0.00289066605041704 -0.0019285997738761 0.00116946379774918)
(0.00372875304789004 -0.0012240268173694 0.00137746392291157)
(0.000861438448388129 -0.00261439215462577 0.00216439409163105)
(0.0012041355240206 -0.0022873656844344 0.00181258939572717)
(0.00154867782532562 -0.00184029279490179 0.0014669990464467)
(0.00192632247852071 -0.00136071636203394 0.0012425251805237)
(0.00620687509921851 0.007612092012371 0.00752282562503453)
(0.00516246000704382 -0.0335422344438158 -0.00244077703391145)
(0.00715470441790066 -0.0196106548406799 -0.00293286660737451)
(5.07814129741403e-05 0.000205310936609516 -0.00506762779862748)
(-0.00138000469655831 0.00113629062873138 -0.0108965611101432)
(-0.00379801264295386 -0.00771948345099883 -0.00469025709376785)
(0.00743424938126661 -0.054602819825186 -0.00227966817647971)
(0.00705410067946405 -0.0517576422436201 -0.00343553612189468)
(4.7674416362866e-05 -0.00814653842043862 -0.0108611792425676)
(-0.00155384690588305 -0.019553025203616 -0.0116369186497618)
(0.00509266995087865 -0.0346432717423995 -0.00904949096383957)
(0.00435322760087378 -0.000591273363534105 0.00277810546648671)
(0.00566818165486244 -0.000746692749070149 0.00260343866227539)
(0.00267614746396784 -0.000968534810605645 0.00152568329752126)
(0.00694422649035685 -0.000906695214212886 0.00190780374543995)
(0.00772656481058147 -0.000982056978831716 0.00123862848444333)
(0.00918163970331504 -0.00141568635096346 0.00105090001668119)
(0.0094222238345853 -0.00173571637271956 0.000929667008190232)
(0.0109193360122968 -0.00173910117098891 0.00197227065159996)
(0.00997976364208536 -0.00214403908472839 0.00278069898222874)
(0.021448834549796 -0.0373823752163841 0.000430765983909429)
(0.0161147061846598 -0.0516041359142485 -0.017612124256267)
(0.00194118508230041 -0.0115597549214151 -0.0102808980546414)
(5.9355995916704e-05 -0.00991616044460067 -0.0040151221299029)
(0.00099640005138396 -0.013841391472023 -0.00840512618861797)
(7.26325286333396e-05 -0.00894736659390111 -0.00131809069084961)
(-0.000465171234958312 -0.0110280318176833 -0.00230067261833926)
(0.00424962601449113 -0.0206937197277895 -0.00822201519840877)
(0.000130631266623759 -0.00809305258888915 -0.000116272946222351)
(0.000261523062475457 -0.00986390255875019 0.000187125051024471)