/*--------------------------------*- C++ -*----------------------------------*\
  =========                 |
  \\      /  F ield         | OpenFOAM: The Open Source CFD Toolbox
   \\    /   O peration     | Website:  https://openfoam.org
    \\  /    A nd           | Version:  12
     \\/     M anipulation  |
\*---------------------------------------------------------------------------*/
/*   Windows 32 and 64 bit porting by blueCAPE: http://www.bluecape.com.pt   *\
|  Based on Windows porting (2.0.x v4) by Symscape: http://www.symscape.com   |
\*---------------------------------------------------------------------------*/
FoamFile
{
    format      ascii;
    class       volScalarField;
    location    "200";
    object      k;
}
// * * * * * * * * * * * * * * * * * * * * * * * * * * * * * * * * * * * * * //

dimensions      [0 2 -2 0 0 0 0];

internalField   nonuniform List<scalar> 
10228
(
1.14255491988179e-06
2.39307160153973e-06
1.57264457204473e-05
4.03473023032077e-06
7.19012001404255e-06
3.14705882533972e-06
1.76382427512746e-05
3.9735780518164e-05
4.13005735053359e-05
9.63374071406669e-06
4.36193666087979e-05
8.49623059320538e-06
1.48934943261212e-05
2.86085067278135e-06
1.85818159600152e-05
4.01384437998214e-05
6.79054946712829e-05
8.96022193233576e-05
7.52456232019585e-05
1.72737758224712e-05
7.72932184638312e-05
8.96983906316126e-05
4.43145638132242e-05
7.8167695529666e-06
1.70786025423492e-05
2.42506460017624e-05
2.41118117501864e-06
1.80089419703035e-05
3.92483893145707e-05
6.75715393263332e-05
0.000123748650024677
0.0001375250287418
0.000142626953752319
0.000113400507055529
2.71288430172317e-05
0.000142237621610092
7.70880467108304e-05
0.000115186048648118
8.79363228288941e-05
0.000136227536845998
4.22964553804676e-05
6.29433300749359e-06
1.58599588511462e-05
2.80074094983546e-05
3.43977423105515e-05
1.40305857227903e-06
1.57464494238203e-05
3.69588840312299e-05
6.24467902057066e-05
0.000119236344590094
0.000163560641686381
0.000188341810520015
0.00020328486855755
0.000198501583964321
0.000153202797234999
3.82912574315143e-05
0.000139287801566266
0.000201743643858545
0.000197732309686308
0.000114517333899633
7.30784608738178e-05
0.000154547936502337
8.27328972007496e-05
0.000131413731909045
0.000185503821488769
3.64229625708357e-05
3.78064399316323e-06
1.27181823765173e-05
2.71803707589272e-05
3.9580873792826e-05
4.50332164845923e-05
5.8333049519622e-07
1.06073909927786e-05
3.21863852891186e-05
5.69057840050971e-05
9.27824197318844e-05
0.000160573373634515
0.000202294151217972
0.000235165301177717
0.00026157199445893
0.000271400240473999
0.000255854544467971
0.000192711681144194
5.13612970802764e-05
0.000196589978934913
0.000193962842955701
0.000131736371021804
0.000269881141896936
0.00025927227207666
0.000254963781191039
0.000153949431757103
0.000109131424058249
6.32920651734569e-05
0.000193803910286763
7.18843725394911e-05
0.000122587255372658
0.000176448345702078
0.000232370979688709
2.48804901759167e-05
1.60645527444991e-06
8.24041025028748e-06
2.29248580274674e-05
4.03852736433697e-05
5.07353719650226e-05
5.70287865599051e-05
3.38810383339907e-08
4.1425979736796e-06
2.35550421988045e-05
4.90776907298254e-05
7.91684724904187e-05
0.000149132000141342
0.000199196627027087
0.000238688642801857
0.000280031283947419
0.000317278782888864
0.000339690692244796
0.00034171157590863
0.000313347262797067
0.000231930419356173
6.61494977672326e-05
0.000252327358443126
0.000186130053478737
0.000264432613683112
0.000250920392930932
0.000184979600950229
0.000116602681288023
0.000337682381227051
0.000340295099434621
0.000314563575136279
0.000312455865146341
0.000193429695415388
0.000148422734793725
9.68478037459482e-05
4.53446002003574e-05
0.000232752610184269
5.22914314654078e-05
0.000107474424593406
0.000163012860821524
0.000223944024478124
0.000276967869148294
1.0094068330087e-05
2.01535363670269e-07
3.79742661060477e-06
1.67260546311416e-05
3.67094498758175e-05
5.28415876253041e-05
6.24431506994007e-05
7.08156872660055e-05
9.46413871740387e-09
2.76691169338928e-07
1.08291827762563e-05
3.67706341113708e-05
6.68991375135203e-05
0.000109316633641829
0.000189893965366954
0.000235410843379994
0.000273327871485349
0.000322453290009935
0.000370344522899052
0.000404744434022383
0.000420684159685172
0.000412525475099046
0.000369969377706862
0.00027063728250587
8.31299790274526e-05
0.000330974374389928
0.000306691052167835
0.000239145664885588
0.000253114426686113
0.000167577902210941
0.000334775393802445
0.000308466610115598
0.000241608910755156
0.000167694145162735
8.9043491745513e-05
0.000418914528291108
0.000402274811228141
0.000411183021407436
0.00036726026140152
0.000369133843099749
0.000188683929671447
0.00023239474924632
0.000135707071409311
7.49333578571071e-05
2.11227388939e-05
0.000271410300599546
2.45400858392266e-05
8.18999840096947e-05
0.000143632138876278
0.000205712683785356
0.000268466608780389
0.000319129842300634
7.65628923346231e-07
3.14542739475335e-08
6.20957761124535e-07
9.70261711821912e-06
3.00693420288425e-05
5.06770055859808e-05
6.4912068614828e-05
7.5790260398605e-05
8.66150458124877e-05
3.26395513310122e-08
2.98830575730763e-06
2.05757793442903e-05
5.11835346690931e-05
8.7566398248495e-05
0.000168654229111424
0.000225629245540217
0.000269662790168907
0.000305720477433708
0.00036250269858645
0.000420443666552774
0.000466442715137592
0.000495153051552351
0.000502271391637975
0.000482305073809431
0.000425103470440425
0.00030855698039816
0.000101417915771349
0.000412334475059265
0.000394493156266115
0.000317776335065096
0.000358585335857197
0.000291310641941636
0.00021761869570073
0.000323392182978932
0.000233353617437846
0.000135816035786581
0.000405706686234469
0.000365292126307449
0.000299541745609578
0.000224378063007426
0.000137041818305989
4.48748743724138e-05
0.000500601259796783
0.000492936396672004
0.000463557977365092
0.000481007981058313
0.000417049647324443
0.000424350470619946
0.000177379995888063
0.000228275967016129
0.000271054448151751
0.000113692241522234
4.33678937149633e-05
0.000309518425559348
6.43511062933349e-06
4.39451927967514e-05
0.000114045801755206
0.000181125210312402
0.000250890538965488
0.000309959054419366
0.000358881983649534
1.45266380714464e-07
4.29964738338362e-08
1.76360631503992e-06
2.1451767805467e-05
4.52704475490246e-05
6.35252788916539e-05
7.80939162271709e-05
9.11350438253601e-05
0.000104402476400148
4.01496011901888e-07
5.64985075138969e-06
3.01615877934192e-05
6.72904458696251e-05
0.000113721753153428
0.000203815422844157
0.000259393762963917
0.000301744914629652
0.000335872108007923
0.000399899877724657
0.000467454231019226
0.000524522648390571
0.000565407232568972
0.000585995371974713
0.000582617753723066
0.000550001657842797
0.000478260519977777
0.000345698240932912
0.00012038465232204
0.000485297310743096
0.000399356688360698
0.00049407098368069
0.000379572099406133
0.000454809833948472
0.000296085117400903
0.000407594358963508
0.000341881388838355
0.000266827618468571
0.000183509007285401
0.000394637939187363
0.000304113312702447
0.000200576695069481
8.35636301592108e-05
0.000475571456617773
0.00042063898000051
0.000356917418308407
0.000283825483483249
0.000195548581547476
8.40797873472842e-05
1.09439792700621e-05
0.000583856501595607
0.000580942126505973
0.00056275162856065
0.000521314579968455
0.000548755392024304
0.000463802222870474
0.000477622102473549
0.000218621902224079
0.000158841335892773
0.000267221566838572
0.000309252897151753
8.22941910276493e-05
0.000346529178557525
4.8212035800799e-07
1.17446996131931e-05
6.80490638654303e-05
0.000147465258227917
0.000219902264862977
0.00029129067940068
0.000349043523608989
0.000396019988989076
1.42227759430259e-07
4.34566686556466e-08
4.86381085682035e-07
1.08581702803801e-05
3.76622774681406e-05
5.9021484191273e-05
7.66444633124926e-05
9.31034637878907e-05
0.000108294663111558
0.000123215411843958
2.26284296230518e-07
9.43094838447264e-06
4.16078774916718e-05
8.49546942049187e-05
0.000139328859502389
0.000238757127785662
0.000290714950188835
0.000331639138049838
0.000363793513455217
0.000434584055410271
0.000511289240692632
0.0005788862683501
0.000631378319869908
0.000664536067424197
0.000675313557583567
0.000660478866085341
0.000614962270341413
0.000529066085490318
0.000381775806172815
0.000139338095029589
0.000554100319373014
0.000576229383667952
0.000470743743731873
0.000481384675281491
0.000378591235683784
0.000574333998805235
0.000355843280584367
0.000438371140215714
0.000511733017095695
0.000262505287352373
0.000453647518873979
0.000389565470690337
0.000314686034277033
0.000230168471667417
0.000127181067347978
0.000376724870253844
0.000464838172765911
0.000274359830970539
0.000146750035977198
2.50197789162355e-05
0.00054331838272789
0.000473993385445988
0.000412641297569738
0.000342778840650923
0.000259953634906744
0.00014888681757017
3.39582504876902e-05
6.584449318551e-07
0.000661924378282291
0.000673111542918658
0.000658780685061562
0.000628383550349821
0.000575432239561933
0.00061377640974404
0.00050740734840192
0.000528523885593942
0.000258396164005713
0.000203376984647187
0.00013472170065718
0.000305518059216605
0.000346484767562925
6.30657888341562e-05
0.00038245196553706
6.55075049035988e-07
2.07329608519348e-05
9.61796225022771e-05
0.00018111464860007
0.000257232867112508
0.000329657250265876
0.000385433938790026
0.00043044286027133
1.20497095252851e-07
4.35747549901687e-08
2.85788955970267e-07
5.72056711481036e-06
2.82070858143452e-05
5.24804959856446e-05
7.21592696085947e-05
9.1200893046978e-05
0.000109844392135909
0.000126888541546614
0.000142174691814298
5.65700471628329e-07
1.45724179605359e-05
5.48212012661975e-05
0.000102796886745487
0.00020071465070001
0.000268722402803976
0.000319768987490833
0.000359326185751625
0.000389409578744436
0.000466503831785713
0.000551893896722608
0.000629524592357363
0.000693064852260163
0.000738111756902415
0.000761803695562164
0.000761793325266262
0.000735110511605382
0.000676779712423597
0.000577231492885403
0.000416122996246371
0.000157601543419654
0.00053803145138803
0.000653234626361044
0.000618865547143961
0.00066530309947992
0.000561945604255861
0.000448253588462839
0.0005617807390094
0.00046182698995692
0.000348524837751908
0.000652013329317864
0.000320743808448506
0.000412601198059103
0.000493924422823797
0.000565141838425712
0.000208267385943525
0.000496595224698057
0.000434456662876674
0.000360236601684193
0.000275093606729162
0.000171306323192666
4.7162862166485e-05
0.000351290726719922
0.000448136670494283
0.000532733114124733
0.00023107612463376
7.31887797953942e-05
1.39873549164234e-06
0.000608291395769424
0.0005249322132411
0.000466141069522252
0.000399438610160509
0.0003227718722878
0.000228091477749444
0.00010278739955071
1.40096484010882e-05
7.91737703490015e-07
0.00073513741600281
0.000759085900101466
0.000759500321245256
0.000733402404248412
0.000689824031331058
0.000625866437376175
0.000675644041188272
0.000547798206397607
0.000576723983185514
0.000244838884035122
0.000296935232262081
0.000183958234429835
0.000113332939684753
0.000342784004868139
0.000382219762035793
4.44744276708697e-05
0.000416701632472426
1.59341286993736e-06
3.38591045683377e-05
0.000126041321668546
0.000213900078863929
0.000296815634315012
0.000364880872612759
0.00041913483643719
0.000462095606538521
1.69601238376666e-07
5.20362451661374e-08
3.67686454524695e-07
3.89011400232532e-06
2.7284728915905e-06
1.94924764928214e-05
4.4617036911023e-05
6.57554800830857e-05
8.6156442120872e-05
0.000107353677242584
0.000127846974992131
0.000145730776483681
0.000160406964451201
1.12822900334444e-06
2.14943914571682e-05
6.82837256298636e-05
0.000123665314718235
0.000230041439465798
0.000296101764701554
0.000346632950564424
0.000384638421206966
0.000412451224919757
0.000495607923451567
0.000589229777865934
0.000676435732461464
0.000750526450225593
0.000806867250858527
0.000842626623220185
0.000855879578328131
0.00084466640196098
0.000806086865906351
0.000735174903531596
0.000622553998307298
0.000448180873607517
0.000174398373696054
0.000601425221418891
0.000513688997628676
0.000637407131769659
0.000725544085013992
0.000750139472983118
0.000679586944016238
0.000751399704651222
0.000651008505071686
0.00054062001129408
0.000416900702653294
0.000639354646293698
0.000543034418815473
0.000435375124245826
0.00030643893743576
0.000726432566679517
0.000266167038827191
0.000375504332439231
0.000466251502804185
0.000546110546001792
0.000614953209002848
0.000122948115812794
0.000536374882317003
0.000476271957468459
0.000403636640000831
0.000317902891716193
0.000214340263894509
7.83907658181074e-05
3.43702354906996e-06
0.000318815352578831
0.000425736529776598
0.000516609794362949
0.000597640672350143
0.000179081899323213
4.46313120223779e-05
2.39102861110804e-06
0.000670062319054063
0.000573097393265884
0.000517045768816558
0.00045325605474472
0.000381299124979556
0.000298060901722228
0.000194955346112098
7.25051870326202e-05
1.31621031352075e-05
1.06428439301276e-06
0.000839522081274168
0.000803637386891399
0.000853025379948958
0.000842297344432959
0.000804369326062124
0.000747093570946643
0.000672596458145917
0.000734068011029088
0.000584924040246514
0.000622021527959553
0.0002278219096099
0.000283905976699241
0.000334127440491189
0.000163704943052245
9.2885829931634e-05
0.000378450771639134
0.000416237471373937
3.07119045483502e-05
0.000448642447436536
3.20728748019698e-06
5.09369575563887e-05
0.000154951777929502
0.000246079505490641
0.000330862439640962
0.000397365786002877
0.000450135444176562
0.000490963148734581
2.61427372306493e-07
6.8130376073919e-08
4.9497142077121e-07
3.73100163547879e-06
3.58281694195951e-06
1.4978467793781e-05
3.55698635530566e-05
5.85051018462098e-05
7.91994730625169e-05
0.000101563665687696
0.000124656099407011
0.000146301008090162
0.000163638121010854
0.000176906076045342
1.92845265959337e-06
2.87353189934975e-05
8.1784846203343e-05
0.000143478828579525
0.000254810690094967
0.000321375289770964
0.000371165539429362
0.000407364108731537
0.000432849681855981
0.000521881598984444
0.00062330782315791
0.000719623572164464
0.000803797412325287
0.000870938528219446
0.000918106405488562
0.000943588236954787
0.000946005386217298
0.000923505098984703
0.00087314412193794
0.00078995772664833
0.000664740311168341
0.000477445654951744
0.000188634724964509
0.000575279599890341
0.000660926671018783
0.000708327253267825
0.00048049784221088
0.000614236716591323
0.000734212344046437
0.000793305420034245
0.000829625131566179
0.00084369542194599
0.000736241284660189
0.000833859689041507
0.000736804560687054
0.000630257914164246
0.000512574412220549
0.000374513844463565
0.000620783552293239
0.000713466387221022
0.000518704756487369
0.00040257158353043
0.000253704407356875
0.00079716496217267
0.000320041280417112
0.000175757969882186
0.00042698762377442
0.000516708242864335
0.000594807542512292
0.000661118855539354
8.73817228171485e-05
0.000572939241129084
0.000514967597973034
0.000443905662320684
0.000358420642010883
0.000254931951642223
0.000113081254038795
6.95771113329377e-06
6.29389694203269e-06
0.00039881353509844
0.000282930432956022
0.000495469579725288
0.000581533256249993
0.00065918364302448
0.000142441051289868
4.40283831223955e-05
3.62056034628856e-06
0.000728343285075234
0.000618252993497882
0.000565058253603558
0.00050407508154051
0.000435692872759797
0.000359356906762456
0.000271461035010922
0.000165682674266352
6.71527041314434e-05
1.84013050086688e-05
1.61001438030649e-06
0.000914733387156183
0.000940322853154297
0.00086751618928806
0.000943030002540833
0.000921066761924343
0.000871404868342978
0.000800199798589686
0.000715611080456721
0.000788847229654414
0.000618813228812024
0.000664167932868075
0.000209131821875965
0.000267698121353294
0.00032101042332655
0.000369582747227456
0.000143281561169645
7.61249249675582e-05
0.000412124805052279
0.000447869880565693
2.69408784356748e-05
0.000477689165634194
5.41402695610607e-06
6.88505259849243e-05
0.000182704846917983
0.000276632437022409
0.000361570596335383
0.000427224061839302
0.000478469298834638
0.000517059949109144
4.24771002737533e-07
9.69033409613848e-08
6.19644711105531e-07
3.3024715819194e-06
5.16410668744161e-06
1.20746229499135e-05
2.81426870324374e-05
4.99197466791683e-05
7.16114114359236e-05
9.38234831676483e-05
0.000118082827768035
0.000142540416398773
0.000163592316074744
0.000178952219063641
0.000190016847646216
2.74258162432836e-06
3.64894638583335e-05
9.5278481590217e-05
0.000159962765965581
0.000277372645983603
0.00034461444716358
0.000393240590860649
0.000427526961465117
0.000450834687818312
0.000545436837754496
0.000654190091262048
0.000759132470875356
0.000852920585050375
0.000930394063198712
0.000988453220072051
0.00102542262602413
0.00104025891965516
0.00103176778757571
0.00099805134700012
0.000936103962482817
0.000841000090373806
0.000703589471393931
0.000503481831098018
0.000198307010148914
0.000540073142994557
0.000683375435699449
0.000633084548744704
0.000716482049798993
0.00077486320109869
0.000812258135267406
0.000436947658847453
0.000584252595361654
0.000711503520023231
0.00082734012412172
0.00085656077033892
0.000904069747239442
0.000929986627111098
0.000933266834697611
0.000788797915165122
0.000912269753549265
0.000818757012962713
0.000715942572532368
0.000603866809809154
0.000478505510062835
0.000321638582926035
0.000694567359372238
0.000597056894670295
0.000783757301377773
0.000489885095324383
0.000365747906376353
0.00021466448841584
0.000863939020437151
0.00037012841238177
0.000227364520929675
0.00013127532455531
0.000475263658823071
0.00056379237630807
0.000639938537143698
0.000703612467345991
8.62150115708631e-05
0.000550520839027254
0.00060633910096774
0.000480995033878653
0.000396389459612446
0.000293105101689999
0.000147204472717296
1.17672309918661e-05
1.23074790368572e-05
9.24893359291173e-06
0.000470371383319295
0.000369385808968522
0.000251144865470959
0.00056052408279548
0.000642739633897066
0.000717130694317456
0.000132763011808199
5.10842897930942e-05
5.39125047785222e-06
0.000782941529803478
0.0006602252960782
0.000609928429342909
0.000551772419524476
0.000486393214754478
0.000414482625369254
0.000335175621927665
0.000245472893229784
0.000148928541018326
7.03683614622708e-05
2.38299908879779e-05
2.49497646962475e-06
0.000984882973335443
0.00102187903105154
0.00103684809611404
0.00092680830580092
0.00102867879878559
0.000995536054251483
0.000934329135356888
0.00084916795657752
0.00075495937831822
0.000839869711630771
0.000649539304811414
0.00070295991700617
0.000249610906998762
0.000189596976529508
0.000304721176693804
0.000356077362702603
0.000402871600907492
0.000125494257641082
6.67097702840201e-05
0.000443329379077528
0.000476455357833806
2.59990682559569e-05
0.000503239375467777
7.92822978099968e-06
8.93774664307427e-05
0.000208746764721474
0.000304142529035377
0.00038957058872364
0.000454539128424259
0.000504143652319249
0.000540481969148787
6.67639774378364e-07
1.10187317634148e-07
2.80813132929768e-06
6.56527803037201e-07
6.53327426415672e-06
9.19157147735608e-06
2.22491874373899e-05
4.14541170441762e-05
6.3042533027245e-05
8.5443488461225e-05
0.000109535998480432
0.000135280973721587
0.000159565338438538
0.00017750077809201
0.000184209385241984
0.000192823682223255
4.31107491838201e-06
4.44765978274732e-05
0.00010760689529243
0.000174651245708272
0.000298234176675658
0.000365686591622911
0.0004129013008505
0.000445378021338481
0.000466749710879035
0.000566449225937903
0.000681999508069899
0.000795038940934823
0.00089795084071364
0.000985304041543345
0.0010537967791977
0.00110168741652179
0.00112809123163325
0.00113223601421529
0.00111290393656447
0.00106811473172957
0.000994849736727572
0.000888225149696872
0.000739025527091793
0.000526217388861607
0.000203438556581982
0.000494831134285255
0.000595843464397781
0.000651364150839589
0.000787716294011691
0.000748242311081379
0.000687053766992423
0.000768028606901342
0.000837021753705569
0.000885449807475368
0.000912113278851084
0.000383423114462358
0.000548362451081071
0.000682955358645776
0.000804346931349528
0.000916262537447556
0.0009735773310026
0.000915299438081604
0.00101074275576801
0.00102601832040158
0.00101846247597257
0.000837260829378951
0.000986365066702889
0.000896539921511756
0.000797294579725176
0.000689719986339187
0.000572901321519207
0.000440258081399068
0.00027950673653108
0.000764235555839256
0.000670498538264103
0.000569169727119869
0.000850012077335111
0.000458054059091261
0.000331556584647745
0.000198921622975524
0.000926584191910238
0.000416679629194289
0.000275879138234613
0.000172777173487977
0.000126652130611663
0.000520282805303641
0.000607377371192067
0.000681471515657974
0.000742488747513802
9.12154529390434e-05
0.000583012327534031
0.00051497284666965
0.000636655429541316
0.000431193386171835
0.000328431246086445
0.000182973160662696
1.73510347098549e-05
1.95506998211848e-05
1.67692560405432e-05
1.2111219134993e-05
0.000535535203725233
0.000442541161999394
0.00034006160411791
0.000229867355545133
0.000621279170498603
0.000700153020332255
0.000771330765306431
0.000131208581977545
5.65787540713936e-05
6.93419591955803e-06
0.000833762096516546
0.00065156220403478
0.000698839216110042
0.00059619837821665
0.000533617527582527
0.000464968686232826
0.000390709277877678
0.00031009587773567
0.000223509549639063
0.000139459221424523
7.23033209860506e-05
2.66840080867736e-05
3.02743766433742e-06
0.0010979400147821
0.00105005764668351
0.00112439345995547
0.00112869149798501
0.000981566157795536
0.00110970242057623
0.00106551874125786
0.000993026660706965
0.000894052537172367
0.000790723021320336
0.000887070535292608
0.000677218825715422
0.000738319059242684
0.00028639704801064
0.000230269645747738
0.000170825139121384
0.000339294963696688
0.000388857700245045
0.000433694565492147
0.000111423788353941
6.01674399836381e-05
0.000471500922149065
0.00050095955562902
2.47777010359197e-05
0.00052499355322277
1.20795557404676e-05
0.000109807815726469
0.000232563089352831
0.000329044775175384
0.000415169902734441
0.000479404314358781
0.000527219649830478
0.000561358231718943
7.58145966207927e-07
9.31928614055913e-08
7.29734818979025e-06
2.43385646510518e-06
5.65595888390127e-07
7.06476331825485e-06
1.71841162384055e-05
3.37716836056564e-05
5.42037320633719e-05
7.63769679523219e-05
0.000100221343303782
0.000126033067949598
0.000152012360330544
0.000173727737003511
0.000182263090369947
0.000187478680938969
0.000197812749766919
5.90487546082815e-06
5.21454306219407e-05
0.000118785324684116
0.000188144641419384
0.00031752915294414
0.000384590971748722
0.000430379075965027
0.000461185041691235
0.000480809178311179
0.000585075073381418
0.000706877860309749
0.000827454426038038
0.00093896248340089
0.00103572299485092
0.00111421975098594
0.00117257855874954
0.00120993452175336
0.00122575124741817
0.00121928096699006
0.00118923052909887
0.0011335783213117
0.00104933171339893
0.000931639049608405
0.000771179749667623
0.000545785276151898
0.000201079987012694
0.000548653719294809
0.000613409759706891
0.000440163140785221
0.000647830056829242
0.000714229462191598
0.000757036944587716
0.000859218614365585
0.000887185944899086
0.000808841149889609
0.000737104859722549
0.00081555760605998
0.000894757709388135
0.000953842964947274
0.000991567045274139
0.00100740283956424
0.000337776034804969
0.000508275924868871
0.000649666372019308
0.00077571516560186
0.000892480306329471
0.00100069169303009
0.00108613836644954
0.00103818436385897
0.000969550613651723
0.00111272550437464
0.00111734598802569
0.00109902296849454
0.000881681943012769
0.00105596610253319
0.000969949869156015
0.000874212237125443
0.000770373610531029
0.000659086397635143
0.000538545284374723
0.000403213249942804
0.000257408406651504
0.000829716372454519
0.000739354604296749
0.000642134973584037
0.000538043632160719
0.000912099314031684
0.000425303702547062
0.000304521598198879
0.00018998194150831
0.000984994607929829
0.000459648038598669
0.000321703105910761
0.000212140359442941
0.000163582118032474
0.000127737724259666
0.000561834284125952
0.000647445830829819
0.00071947367212704
0.000777835904250222
9.21788925781603e-05
0.000612556835115823
0.000546011011307203
0.000462940052666761
0.00066398966554568
0.000360596676397059
0.000216296180173768
2.55196526536614e-05
2.75999764348277e-05
2.50643040727871e-05
1.99120384013475e-05
1.35298758223594e-05
0.000595646143135433
0.000507426415081352
0.000413118128666196
0.000313086104098588
0.000213872283656095
0.000677953606205057
0.000753718030551037
0.000821720900879236
0.000127484326821051
5.68910207160113e-05
7.40602354606918e-06
0.000880767937183379
0.000689862665265106
0.000637313359722727
0.000734009976843541
0.000577410864549816
0.000511536411982839
0.000440671614885441
0.000365171754769655
0.000285470111016995
0.000204696399406347
0.000130513638141931
6.99748280808784e-05
2.5973400775742e-05
2.95187825665169e-06
0.00116865766931786
0.00120602683281357
0.00111032428196463
0.00122190649974093
0.00121559774363193
0.00103184141728323
0.00118590719606828
0.00113089117808439
0.00104745640569795
0.000934930084939686
0.000823012523489787
0.000930459483590373
0.000701974187834972
0.000770369777574558
0.000266533072053213
0.000320279834048062
0.000210472618763446
0.000153320545580156
0.000371427388459507
0.000419184130541999
0.000461491636177493
9.90693182491246e-05
5.34275408483748e-05
0.000495490746834664
0.000522656271035875
2.26936516443607e-05
0.000544323181886815
1.6445928385154e-05
0.000128228607868156
0.000254137410525792
0.000351743953657258
0.000438537694780019
0.00050184371029231
0.000547791673465276
0.000579846293997113
6.84454694833408e-07
6.26325920660261e-08
1.37725413222719e-05
5.96142111004349e-06
1.88863194102018e-06
3.98304610645776e-07
6.46657355871955e-06
2.69282239826816e-05
4.56023157008516e-05
6.69769695529062e-05
9.03628198093238e-05
0.000115885489002719
0.000142371631853751
0.000166740089626603
0.000181148274925607
0.00018522902748872
0.000192694481008781
0.00019944069680381
7.32041762344046e-06
5.92883452275606e-05
0.000129034363710921
0.000200871721057487
0.000335223085865127
0.000401660018629129
0.000445913280617163
0.000475131084787467
0.000493161147843621
0.000601480811176384
0.000728968158089232
0.000856509162805142
0.000976057364884975
0.00108171883219692
0.00116977570912192
0.0012381936904582
0.00128603883090631
0.00131285721534087
0.00131818413024247
0.00130121796951066
0.00126061974798034
0.00119437790048982
0.00109955213843613
0.000971323353033273
0.000800140668702918
0.000561662183502245
0.000203523973879371
0.000598533575196979
0.00067412510379941
0.000492565820417313
0.000721388870485388
0.000571211676967147
0.000391100172733616
0.00077288553649389
0.000695959839755451
0.000826492100452075
0.000856274709225887
0.000926045437498656
0.00096488395161126
0.000981559380202365
0.000865119541573984
0.000783235922099875
0.000859122363125406
0.000948084987133804
0.00101743810227282
0.00106581532733434
0.00109274359863006
0.0010978637102124
0.000309823109939066
0.000468230784009571
0.000612674715665575
0.000742386477952164
0.000862909237374833
0.000975863037565757
0.00108043270529965
0.00115627035139943
0.00119366808106049
0.00109793244141491
0.00101935953512688
0.00120968266301934
0.00120372774527573
0.00117476325411428
0.000922140578351894
0.00112095899216213
0.00103884159634268
0.000946637292555342
0.00084618476211308
0.000738838364995732
0.000624778321857867
0.000502350934804685
0.000370955978642506
0.00024169586730106
0.000803810023908296
0.000890959296847073
0.000709925406788513
0.000610145960825067
0.000504522704948734
0.000969940568749751
0.000393213344793469
0.000281217015495719
0.000178484806324344
0.00103914537186742
0.000363451887797817
0.000498977654108007
0.000251087427271318
0.000198781484006815
0.000160528817275349
0.000123664341210611
0.00059994361633361
0.000684098070467154
0.000754047088151766
0.000809760833547327
8.69292443109788e-05
0.000639237500575839
0.000574273683770781
0.00049188567939367
0.000389726734517452
0.000688429715806293
0.000245441261295254
3.39626571661625e-05
3.82061265091605e-05
3.45136453783062e-05
2.81435858323422e-05
2.05772662663087e-05
1.30037220389721e-05
0.000566526201036934
0.000651341683530351
0.000476845464663611
0.000383020529166767
0.00028776396442406
0.000197605742288475
0.000730644374541783
0.000803421760537883
0.000868305461372223
0.000118582435418826
5.13200246059072e-05
6.65833028872122e-06
0.000923973379097886
0.000724696411401568
0.000675073427824701
0.000617824706488575
0.000765997933694315
0.000554491275334322
0.00048629764369297
0.000414055770512927
0.000338506720215548
0.000261318542993155
0.000186352264809763
0.000118930263287494
6.298489490409e-05
2.18490417655829e-05
2.40199173479428e-06
0.00123411212325153
0.00128195422850902
0.00130879676416043
0.00116573213192153
0.00131418788524887
0.00129738915559584
0.00107770293168763
0.00125716952686129
0.00119159713349538
0.00109762364310893
0.000971903069011594
0.000851951635564337
0.000970112674598534
0.000723945086413535
0.000799230653974904
0.000245529400726138
0.000299464971875544
0.000351532186768881
0.000190497646528055
0.000136327921479491
0.000401192194741699
0.000446664100613198
0.00048584778397515
8.63426407263913e-05
4.61010822290371e-05
0.00051689309402355
0.000542097210909672
1.89359791084411e-05
0.00056134870393267
2.04721900480586e-05
0.00014477149489051
0.000273736243407782
0.000372550968637615
0.000459798230060294
0.000521813294330362
0.000566017950513872
0.000596122425985919
4.9929230144568e-07
3.53644782655976e-08
2.18407372459151e-05
1.11158106057352e-05
4.48301878653611e-06
1.22688793486903e-06
2.26876134950949e-07
4.87627352175459e-06
3.75260033670504e-05
5.75494847679878e-05
8.02708830569601e-05
0.000105160783685992
0.000131522731656139
0.000157496867137185
0.000177176385804397
0.000181920408647227
0.00019033603935195
0.000198033261548107
0.000203423297847576
8.64005596888972e-06
6.59480070244818e-05
0.000138560407486016
0.000213340529082163
0.000351747005062513
0.000417208509998456
0.000459558891272356
0.000487373116071299