/*--------------------------------*- C++ -*----------------------------------*\
  =========                 |
  \\      /  F ield         | OpenFOAM: The Open Source CFD Toolbox
   \\    /   O peration     | Website:  https://openfoam.org
    \\  /    A nd           | Version:  12
     \\/     M anipulation  |
\*---------------------------------------------------------------------------*/
/*   Windows 32 and 64 bit porting by blueCAPE: http://www.bluecape.com.pt   *\
|  Based on Windows porting (2.0.x v4) by Symscape: http://www.symscape.com   |
\*---------------------------------------------------------------------------*/
FoamFile
{
    format      ascii;
    class       volScalarField;
    location    "200";
    object      nut;
}
// * * * * * * * * * * * * * * * * * * * * * * * * * * * * * * * * * * * * * //

dimensions      [0 2 -1 0 0 0 0];

internalField   nonuniform List<scalar> 
10228
(
4.65350174351741e-07
9.69865307854823e-07
4.58681938539161e-05
1.63039818476316e-06
2.94377721648973e-06
1.29468051305002e-06
4.81746067437712e-05
0.000138046294163734
8.31088390751509e-05
3.92868986470618e-06
8.52876990347613e-05
3.53350377333581e-06
6.14065249392708e-06
1.15221972450592e-06
4.97478278696946e-05
0.000139883395008023
0.000210120581889178
0.00026257557891124
0.000130855660706345
6.8923016346699e-06
0.000134298093117874
0.000263263308107761
8.62907585270858e-05
3.28622554212893e-06
7.22080933654279e-06
1.00259990617657e-05
9.95722469221714e-07
4.85253550092356e-05
0.000140580766406878
0.000213416678367752
0.000301229982194732
0.000415519412454822
0.000391003091639808
0.00018012359901653
1.09677056844435e-05
0.000391667403956146
0.00013486016424824
0.000186179585759634
0.000262648616544186
0.00041679656752781
8.36251744289963e-05
2.66967451536993e-06
6.86380323437252e-06
1.20131827130061e-05
1.43026948876149e-05
5.67786014152662e-07
4.40733473153245e-05
0.000136499648084754
0.000211589912997584
0.000306426886724247
0.000388494238100208
0.000531625139940866
0.000630426361680531
0.00051575165468892
0.000227808852888285
1.53470622223054e-05
0.00038769117238457
0.000629571545338171
0.000517650922375071
0.000188943995005124
0.000130095442305303
0.000234761455740263
0.000251821060516438
0.000416141350040011
0.000532080278751964
7.36913341871879e-05
1.59072856310418e-06
5.54522114548581e-06
1.19982806503284e-05
1.70923363774734e-05
1.87162735253009e-05
2.41495839361629e-07
3.17866951217573e-05
0.000119280992650031
0.000204130785349483
0.00027139564214656
0.000374737102466044
0.000453908969218396
0.000639106555485072
0.000817754912510291
0.000841477056454558
0.000629288010461063
0.000269992936342422
2.07341415309126e-05
0.00062100612848248
0.000513356565467105
0.000369428573050699
0.000839533883586566
0.000814530407306438
0.000632809911030323
0.000240662005165864
0.000184003610810275
0.000114261274130578
0.000277785583018798
0.00021693201306804
0.000398636488965283
0.000526703366196999
0.000629304601137783
5.06948770401611e-05
7.00480285014634e-07
3.55329797462219e-06
1.02158887061273e-05
1.79789428829994e-05
2.1947515209676e-05
2.37627666862761e-05
1.37658297588374e-08
1.43955044060673e-05
6.23775905920432e-05
0.00018008158154959
0.000252162946872686
0.000353163077148991
0.000438427564204755
0.000507792473634936
0.000729681082944989
0.000972378729119548
0.00110986657679125
0.00103531451476853
0.000729565405085461
0.000309898858439818
2.67006579534218e-05
0.000800719206484186
0.000589280179782806
0.000825990106887975
0.000631054556567371
0.000491939270634579
0.000319196904273891
0.00110423639479133
0.00103375683694156
0.000963854627871649
0.000734623409069096
0.00028607571251305
0.000238159197852477
0.000165388009777939
7.97737565083597e-05
0.000317540036581861
0.000141110389253932
0.0003425537057573
0.000503601273861527
0.000611629231554914
0.000716680420926075
2.05564129910362e-05
8.58032837250448e-08
1.72827805523245e-06
7.37958291341392e-06
1.65299126559254e-05
2.35656522935248e-05
2.70482201181561e-05
2.95638990972048e-05
3.899641674815e-09
4.84715021024309e-07
3.65212549621866e-05
0.000104089463732205
0.000222611627950177
0.000297779138826381
0.000417501767176842
0.000495281929809873
0.000561016765442782
0.000807425035082039
0.00110226333032026
0.00132780518891659
0.00138437097951744
0.0012080963579873
0.000819407337160689
0.00034734180754964
3.36445170291295e-05
0.00108265892545712
0.000941425291371988
0.000760435927531818
0.000785584626130601
0.0005079406133644
0.00102010697448339
0.000736189086499457
0.000612473818886511
0.00043514948462022
0.000212139555474894
0.00137800113731677
0.00131840822107353
0.00120775940369754
0.00109071273341457
0.000825604980028056
0.000287275000999993
0.000326753273514935
0.000221118914389604
0.000124898193372311
3.30774281562924e-05
0.000355642754636287
4.97550004845375e-05
0.000219917436484224
0.000440761143095906
0.000582531192041167
0.000693113925840449
0.000794167113835647
9.40768739251364e-07
1.27133449314273e-08
2.56453416450043e-07
4.51695155826106e-06
1.34986997708071e-05
2.28787207462695e-05
2.8981286148379e-05
3.29087552579579e-05
3.62470852611362e-05
1.36040858906062e-08
3.46162313538126e-06
3.69582698848008e-05
0.000159676410836914
0.000259911524450398
0.000379804841695595
0.000470749310448173
0.000547435667163384
0.000608260053301622
0.00087715738655439
0.0012132961126105
0.00150791990608139
0.00167208175063159
0.00163272592791284
0.00136159253740157
0.000901213772056028
0.000381917778997876
4.10820228391345e-05
0.00135391070518088
0.0012895184716116
0.00102890212773339
0.00106217453124708
0.000894192030212251
0.000665146027409752
0.00098047533480522
0.000692910520990686
0.000345325225249411
0.00119682413180049
0.0008298402881737
0.000723461363964702
0.000561289419489087
0.000317669736945477
7.0674181215287e-05
0.00162681900030059
0.00166174113614265
0.00149585257905288
0.00136271853559052
0.00120031196248019
0.000908621807335962
0.00027499852491309
0.000330058331553185
0.000365632807366614
0.000183482025882414
6.37861664147932e-05
0.000392232692226162
9.54674877242433e-06
7.06453785834745e-05
0.000305572483095897
0.000520319822998981
0.000653119822189274
0.000766929113581503
0.000862908880736448
5.99519108520722e-08
1.28623592593172e-08
7.34611430394759e-07
9.92150186908374e-06
2.04312260393903e-05
2.87082850194058e-05
3.49521288132103e-05
3.96734281904256e-05
4.37611169361838e-05
1.70865025137941e-07
6.30820186244645e-06
6.08731323300961e-05
0.000198380599099149
0.000300467726819786
0.000431887988191111
0.000521723452580668
0.000594512923132756
0.000652055282617232
0.00093844544797456
0.00130956130177428
0.00165954468505543
0.00190944777882931
0.00198964585980863
0.00185448348972231
0.00149871052805722
0.000976147631580929
0.000415633324574502
4.87937844151397e-05
0.00162944628984071
0.00129733851099357
0.00160404041279787
0.00122634916900216
0.00146140053199175
0.000915920616934612
0.00116791712714444
0.00100675872503087
0.000795527532164806
0.000480266184916883
0.0011635901493564
0.000894253319348235
0.000517354950682313
0.000132265764148857
0.00135519286280634
0.000915070447484614
0.000822386473010547
0.000684548007891805
0.000457302701985678
0.000140854733698031
8.46469156148025e-06
0.00197911318201192
0.00184969566963847
0.00189629947098771
0.00164581430526686
0.00150137653048449
0.00129550108023086
0.000985072307672324
0.000322117574842042
0.000247157388321098
0.000369980546618064
0.000403514696792226
0.00012367635038382
0.000426066488291583
2.05860544063626e-07
8.96259479781852e-06
0.000115665492225662
0.0003882807853337
0.000588857790784468
0.000721064995502528
0.000832203727902237
0.000923117450684554
4.27262965919414e-08
9.5492900584084e-09
2.07321737846306e-07
5.05556152114435e-06
1.68546916123984e-05
2.66568675904568e-05
3.47203092193425e-05
4.17901134700984e-05
4.72383162862156e-05
5.16964413718173e-05
9.43754020896215e-08
1.01481839408807e-05
9.52046941450869e-05
0.00023345810375821
0.000341346781401441
0.000459919796937596
0.000558907758821782
0.000637410530473796
0.000693593863667861
0.00099306962370924
0.0013932138099215
0.00178893344458391
0.00210769796602273
0.00228629567869462
0.00227635442313548
0.00205194554604717
0.00162191201153122
0.00104506422475091
0.000448849902075676
5.64831831887145e-05
0.0018579776424482
0.00194685507996028
0.00156061917231145
0.00155232312811131
0.00118716669643539
0.00182993398704756
0.00110354238111856
0.00139067799720627
0.00160746982174685
0.00071252011188218
0.0012597019036536
0.00110641575389722
0.00090527982627303
0.000606012696452688
0.000222612813230324
0.00109370847204328
0.00132943556014026
0.000738273104121955
0.000268336758621447
1.66006536043297e-05
0.00149708213870773
0.000993596271731999
0.000911426667598721
0.000794667233479928
0.000609029899407771
0.000286489865602893
3.22302263698469e-05
2.18124265905604e-07
0.00227251091104215
0.00226640632405895
0.00204858033832843
0.00209272141360667
0.00177405312691068
0.00162605466123284
0.00137807411477015
0.00105516874278402
0.000364000351393853
0.000302430241616612
0.000204350007764943
0.000408770174309751
0.000439661374330388
7.65442302658099e-05
0.000459220681240637
2.6974998210095e-07
1.63184628945878e-05
0.0001770594002009
0.000460956521513204
0.0006518010692357
0.000772814040871446
0.000886969904789449
0.000976531564545994
2.40268965887227e-08
1.40469588510537e-08
1.25670599406233e-07
2.65503791351662e-06
1.24725486253014e-05
2.35928861740263e-05
3.26763190606601e-05
4.14440261879454e-05
4.94192907839495e-05
5.54181616093084e-05
5.96779943184545e-05
2.38953697599271e-07
1.65871831018492e-05
0.000127164962772535
0.0002660479021686
0.000387293820959106
0.000476798282389294
0.000591247500134932
0.000675427927502987
0.000728779584920785
0.00104224357693297
0.00146633690317627
0.00190026573380368
0.0022754324228809
0.00253412446564395
0.00263072394401647
0.00253290726864666
0.00222791817682527
0.00173286813054685
0.0011084659431714
0.00048049398397878
6.38893091618778e-05
0.00178017577943733
0.0022333199577006
0.00205013540181342
0.00223634398451828
0.00188078793850544
0.00143521321534492
0.00178586541394295
0.00145741538465478
0.0010016072866261
0.00203221213615401
0.00088819881845951
0.00126128740080752
0.00153084458335772
0.00173263312807788
0.000417826702368876
0.00133899173075855
0.00119073640271562
0.00100033107561888
0.000716390354385063
0.000320444981233036
3.43435103694233e-05
0.000974727828705324
0.0012760094852747
0.00147764191706976
0.000507697653085304
7.00333529360938e-05
4.23396662575236e-07
0.00162454217900387
0.00106569971867438
0.000992782964286415
0.000890943966667411
0.000742849896038315
0.000491532994782347
0.000138336313025827
5.54715173640971e-06
1.6994988117799e-07
0.00251824405096851
0.00261712151307889
0.00252407593282805
0.00222597496641428
0.00225921498643311
0.001884441194558
0.00173824214519509
0.00145022735756529
0.00111927652189855
0.000348269132945691
0.000403734412573782
0.000272617751771015
0.000158149409948814
0.000446145849513707
0.000473049708361268
3.99859217389313e-05
0.000491035419085535
6.60858963576059e-07
2.90045218191259e-05
0.000244378399341729
0.000524507603371159
0.000689913350844514
0.000816561129666427
0.000935519615266976
0.00102400235981249
5.32809627420643e-08
1.76403305918448e-08
1.556238216954e-07
1.77122353904975e-06
1.20287937708849e-06
8.60496538857978e-06
1.99905521392555e-05
2.96826220066953e-05
3.91449355953651e-05
4.89125696168004e-05
5.76046208087614e-05
6.36897362837535e-05
6.73439975232818e-05
4.71004344942017e-07
2.64218515993228e-05
0.00015701281309428
0.000294028939001223
0.000420967111687155
0.000501880641135648
0.000621343528880997
0.000705550609226835
0.000754417054058113
0.00108502756426174
0.00153062553394525
0.00199667727530447
0.00241882164198806
0.00274326245042229
0.00292823341208409
0.00294141528652407
0.00276168889367327
0.00238482582489553
0.00183263184458018
0.00116679661262109
0.000509769598754523
7.06981246618075e-05
0.00196561804290612
0.00164408849316044
0.00215662142286571
0.00247419925421495
0.00257940805126445
0.00221347187106812
0.00249708995652383
0.00217702222602974
0.0017674451170076
0.00123217361400694
0.00199550529958649
0.0017086071594
0.00130829342299138
0.000734976169730423
0.00221268412567605
0.000566794424584824
0.00104023533900078
0.00139561494967029
0.00165069840628612
0.00184048975614595
0.000133152360396856
0.0014085455872122
0.00126399868143202
0.00107713057055298
0.000811544479042415
0.000417380662190476
6.52776114244689e-05
1.06037869195673e-06
0.000804168196929649
0.0011900563432226
0.00143639491645549
0.00160988060999668
0.000273557415488876
2.17381213506345e-05
4.73367498643296e-07
0.00173898059803846
0.0011311483196537
0.00106718303397595
0.000976638285803115
0.000852768604887891
0.000667135001197317
0.000358062173474631
5.76037457189826e-05
6.52603044294539e-06
3.38390005849626e-07
0.00291230781173538
0.00272598818789617
0.00292869090616677
0.00275412341019912
0.00238409696524401
0.00240166371339989
0.00198007065738134
0.00183894317891386
0.00151358796577632
0.00117790946052768
0.00032546171583005
0.000389586618937194
0.000441773713411987
0.000236592636595187
0.000113540199354982
0.00048091428391067
0.000504863793792094
2.35644614816942e-05
0.000520539739032558
1.32556907248103e-06
4.82651210876983e-05
0.000305012673816838
0.000575544700980285
0.000733882955271212
0.000859669835251088
0.000979221019415657
0.00106484036206163
8.79225813293822e-08
2.3421056712244e-08
2.10223053943795e-07
1.63311261719022e-06
1.86918527693673e-06
6.67097314871438e-06
1.59470695704122e-05
2.63760524421364e-05
3.58770946910947e-05
4.627683164953e-05
5.68935980182584e-05
6.59736248614185e-05
7.15379543991065e-05
7.42760082926801e-05
8.10645562756634e-07
3.7243252513602e-05
0.000185468312852702
0.000318969802291903
0.000453931594407235
0.000527685374383614
0.000650510468828456
0.000728303456547172
0.000773201951757903
0.00112017617543028
0.0015867457884863
0.00208055234664627
0.00254228559928693
0.00292148512816837
0.00317969777729076
0.0032867728693166
0.00321981405443936
0.00296532522227162
0.00252453002436713
0.00192189574750206
0.00121938208860534
0.000535894050390525
7.64686443305051e-05
0.0018212469817438
0.00212363622889593
0.00238965487982997
0.00142930606439607
0.00202959927727185
0.00250843031313872
0.00267845179844641
0.00286925415301447
0.00289369063700031
0.00235345340721794
0.00273017816596021
0.00244513887732676
0.00208034532534998
0.0015970756432645
0.000943628070609228
0.00193278394646985
0.00218189116176297
0.00159418967768034
0.00110564388400725
0.000443672737463427
0.00237328238238602
0.000703503413850215
0.000213892183704186
0.00117011756058051
0.00150968495913638
0.00175418843898207
0.00193412315003204
5.17419166338762e-05
0.00146986942527557
0.00132966764853687
0.00114634110300637
0.000892016300441652
0.000504073505919156
0.000106201785873712
2.13685930880257e-06
1.26602264514912e-06
0.00107355837185281
0.000609999003810367
0.0013719729610879
0.0015766409783367
0.00172780010714454
0.000148111061896517
2.68458933671687e-05
1.10998250517409e-06
0.00184131559489672
0.00119029079652995
0.00113448878791608
0.00105378109614618
0.000945503142525872
0.000799762381743977
0.000575667809098447
0.00024156750216177
5.98511033284205e-05
1.16309997416946e-05
5.37775510528912e-07
0.00316224716669943
0.0032716090849157
0.00290318123866558
0.0032082425034922
0.0029588845578768
0.00252473194626651
0.00252436888874407
0.00206327521626467
0.00192879382802935
0.00156881806688694
0.0012306465223226
0.000298191109185989
0.000369691686765651
0.000428244404727321
0.000477411891640235
0.000198012284234529
8.57649482253971e-05
0.000512753244913646
0.000534196437123297
2.23489463473805e-05
0.000546370498616177
2.2469466563455e-06
6.97873137694316e-05
0.000361171130887468
0.000618638503675571
0.000777454519441287
0.000899871852235392
0.0010183730725415
0.0010986197230406
1.45870973224065e-07
3.34523345909847e-08
2.63735390081929e-07
1.45031351945944e-06
3.27056628267752e-06
5.40994469952883e-06
1.26666487547372e-05
2.25242338974473e-05
3.23979646376124e-05
4.26261873845239e-05
5.39064092443054e-05
6.51183854015773e-05
7.38002097748528e-05
7.82428142807158e-05
7.97824437391258e-05
1.15118427867159e-06
5.13293034496055e-05
0.000209771846199595
0.000343776230229587
0.000481527729447611
0.000554543135398117
0.000673747555006242
0.00074707551277054
0.000791240241415944
0.00114856688579207
0.00163477220215718
0.00215348548552784
0.00264910065291509
0.00307445319538315
0.00339392212721877
0.00357981336748559
0.00361004358320123
0.0034682608663408
0.00314617314947075
0.00264841091023592
0.00200101169742128
0.00126543350215976
0.00055742080931608
8.03891433183081e-05
0.00159731254294939
0.00225214531164655
0.00197240880668596
0.00225930354224473
0.00258791935105756
0.00278961742323967
0.00112586978471347
0.00184335649409506
0.00239659982795284
0.00282973985045332
0.00285296998153958
0.00311538844861891
0.00323101675560291
0.00317617259413088
0.00247417671259756
0.00293746131049326
0.00268454598839086
0.00236348338820514
0.00194346250493736
0.00137229967107344
0.000615987261046113
0.00212950096883592
0.00184330721182039
0.00234682753089951
0.00144707926252717
0.000878437248670225
0.000277574913052522
0.00251573949865536
0.000823116237757072
0.000301415529620409
8.57857929040845e-05
0.00128133585736623
0.00160838895519423
0.00184445368516633
0.00201571964273931
6.30439238722344e-05
0.00138816697516164
0.00152365031806527
0.00120918814540903
0.000960297770523273
0.000584541286886857
0.000148684440272485
3.64747392439645e-06
2.46040784863218e-06
2.83136824057102e-06
0.00128803445617236
0.00094018900887627
0.000460970195644776
0.00152474674412876
0.00169967096978546
0.00183257098638801
0.000156237363597779
4.03035906087575e-05
1.79019898741954e-06
0.00193221094287412
0.00124308178626174
0.00119445542942184
0.00112297361482504
0.00102630408717978
0.000903191514010545
0.000737075951691832
0.000485445518698676
0.000223054377441549
7.71125217167498e-05
1.94083009006007e-05
8.46226267246794e-07
0.00337535687196471
0.00356308366067708
0.00359600934271974
0.00305531788155279
0.00345775336420666
0.00314058657255039
0.00264927662467897
0.00263054356499007
0.00213561281150606
0.00200820699057134
0.00161611436705119
0.00127623821799301
0.000346644310208228
0.000268332180118832
0.000409356168212775
0.000464122278544566
0.000509494230625948
0.000169030070429916
7.73815041202466e-05
0.000541766245658047
0.000558469005073173
2.46459651845309e-05
0.00056453981612842
3.2960822624432e-06
9.99187821065829e-05
0.000407998716146798
0.00066044925303552
0.000816499621922716
0.000937185077129965
0.00105154039825949
0.00112664172999494
2.29355840780074e-07
3.77640838638796e-08
1.23598067669746e-06
2.79526413276814e-07
4.97655918987815e-06
4.12683595685342e-06
1.00522541126028e-05
1.87380922012296e-05
2.85298129434948e-05
3.87637028616121e-05
4.9865156519821e-05
6.18241130444333e-05
7.29301839635364e-05
8.00882445210342e-05
6.83560070557077e-05
6.86091701856017e-05
1.81422131962414e-06
6.63023692001858e-05
0.000231170777811271
0.000364717226156041
0.000505430564028226
0.000584945985170988
0.000692248986643988
0.000763783683183435
0.000808499984389551
0.00117307271870687
0.00167535373762101
0.0022165048149202
0.00274165063188463
0.00320639695917007
0.00357762562053365
0.00382990882887025
0.00394276536772798
0.00389975029450662
0.00368914522511662
0.00330616395851236
0.00275756367147313
0.00206998120142252
0.00130352216051432
0.000572464013297509
8.24692511862705e-05
0.0012819783930511
0.00174113350598038
0.00205334661615851
0.00266598622796493
0.00244205746527853
0.00210227998115121
0.00237648768024042
0.00275766152317714
0.00302917581335209
0.00315804268128313
0.000773052321004804
0.00160130095476578
0.00224189663749381
0.00273263151327937
0.00311860053857079
0.00332559577370763
0.00300294375849864
0.00351852365176867
0.00355828564536934
0.00342820006011879
0.00257871541505185
0.00312102859559258
0.00289660226061209
0.00261424736946093
0.00225227157887135
0.00177268196979684
0.00112245888509351
0.000405622606324661
0.00230128909462436
0.00205588390159235
0.00173203616855779
0.0024922776318281
0.00128515552623818
0.000707077805214534
0.000284008316249363
0.0026415274360799
0.00092969982710853
0.000384389614327179
0.000120147599770226
0.000100639846939878
0.00137645188073641
0.00169466199710997
0.00192333766075806
0.00208673589755285
8.3596810729841e-05
0.00143993912883816
0.00126502305618123
0.00156996007025103
0.00102096121561383
0.000653751521168737
0.000201918373148473
5.39085934379714e-06
3.94393661108061e-06
5.12372461031905e-06
3.99516838112247e-06
0.00145802707893172
0.00119315985636905
0.000822521074373581
0.000438408825822855
0.00165486620981619
0.00180768579652352
0.00192500265638861
0.000188076511201722
5.58494638402031e-05
2.32774398253065e-06
0.00201212643019849
0.00124736543577811
0.0012875431939152
0.00118407357433072
0.00109747394664331
0.000988864822643026
0.000853926192836837
0.000673109986800071
0.000443746936866959
0.00023298097793001
9.7806525529821e-05
2.69172945519281e-05
1.02550499187971e-06
0.00381203239878814
0.00355814649246245
0.00392719768248528
0.00388681606318818
0.00318655674992181
0.00367947588984061
0.0033011985111808
0.00275882046321069
0.00272253984543159
0.00219811290542304
0.00207711426244625
0.00165629710417473
0.00131228631649916
0.000387771353381911
0.000321489495171744
0.000241433926425007
0.000445457484381664
0.000496181371073212
0.000538729703081963
0.000152012989649666
7.44551996352462e-05
0.00056554182653802
0.000561922581976055
2.60951917210557e-05
0.00056516165772084
5.03818266818858e-06
0.00013143805488198
0.000448486435375335
0.000697654499177126
0.000851077803087379
0.000971803323556401
0.00107925499765201
0.00115087473562015
2.59303802320849e-07
3.17729328492443e-08
3.28154476157773e-06
1.07272775576223e-06
2.41054611421308e-07
6.23021312138806e-06
7.77889383590166e-06
1.52896182051932e-05
2.45487053871324e-05
3.46487326647823e-05
4.55595596746691e-05
5.74419918003551e-05
6.95073350862518e-05
7.94193597369973e-05
6.91586800765482e-05
6.97381010757542e-05
6.97029371363358e-05
2.48628812557549e-06
8.02063542027953e-05
0.000249545560862532
0.000383393906746114
0.000525222988692316
0.000612770864012676
0.000715839597293077
0.000779022774081836
0.000824104199364698
0.00119480755934686
0.00171007499025609
0.0022706452655606
0.00282172104923416
0.00332046132501048
0.00373587231712766
0.00404453384974806
0.00422763916377819
0.00426962419961318
0.00415812839530911
0.00388478288905363
0.00344711958117997
0.00285298743589173
0.00212870800170299
0.00133284685490395
0.000581483483207242
6.9367144633482e-05
0.00141704376996092
0.0017968618222387
0.000909509285183894
0.00186442824743661
0.00223302495309894
0.00249689281304449
0.00289615408916911
0.00304862823441476
0.00260489212992763
0.00221448194983803
0.00247805966526086
0.00290369306859125
0.00323415818481151
0.00343865906373973
0.00349164115812048
0.000521105485506036
0.00133270885483949
0.00205173454338625
0.00260325256298941
0.00303314516862482
0.00337559161484063
0.00376443862185712
0.00350602694892599
0.00313237727304074
0.0038854767871945
0.00385162984840166
0.00365178661458852
0.0026693311740559
0.00328289621548612
0.00308348283911085
0.00283412432539338
0.0025203660263953
0.00211761784882444
0.00158808050556837
0.000926446605290406
0.000401361023459955
0.00245110399641376
0.00223723250262473
0.00196523200996334
0.00161012844698886
0.00262000864211937
0.00114651295713944
0.000666729600430259
0.000316826446797776
0.00275181547797308
0.00102102261525451
0.000468358903383351
0.000152646669758296
0.000135322833522443
0.000123034984005699
0.0014586972618805
0.00177002546265951
0.00199211333221096
0.00214814716978909
9.94159488091057e-05
0.00148514356080547
0.00131400674596052
0.00107413723517221
0.00160942246571771
0.000711848118864609
0.000253165586273157
7.97288787037711e-06
5.58499645722835e-06
7.68755256320722e-06
6.55793959520495e-06
4.5110843925511e-06
0.0015969253532258
0.00138218130272435
0.00110208365697402
0.000765642166086478
0.000450463803224302
0.00176689139998691
0.00190212822652306
0.00200569056999271
0.000218232432629803
6.56184577547981e-05
2.47996402905755e-06
0.00208088941594633
0.00129152817358306
0.00123772932924775
0.00131923940194058
0.00115966815595205
0.00106223998974015
0.000945130878801846
0.000801844398886916
0.000623926334645843
0.000424775953668627
0.000244679914046806
0.000111714392408019
2.99403554840694e-05
9.96592237178963e-07
0.00402570628953458
0.00421094622125151
0.00371561029198531
0.00425520157558346
0.00414603686411514
0.00330001412058459
0.00387566503642005
0.00344252071494539
0.00285441688280365
0.00280212803314655
0.00225186126077561
0.00213532041615624
0.00169079575960973
0.00133799127084495
0.000364245433830559
0.000424081680609767
0.000296235464892646
0.000219003332575778
0.00047730443060483
0.000525199218698123
0.000563668947584681
0.000138884609845636
6.85274283988734e-05
0.000566819704991521
0.000570983171225262
2.58508967697956e-05
0.000573711559173622
6.87230311301591e-06
0.000158802125161388
0.000483131978882504
0.000730328042831502
0.000880912839697686
0.00100151823665683
0.00110493692726261
0.001172148007093
2.33442196183898e-07
2.14216327835548e-08
6.24019878614915e-06
2.68499949447214e-06
8.33817874760473e-07
1.69792251199664e-07
6.2201536041227e-06
1.22009338070745e-05
2.06642720466159e-05
3.03935030038769e-05
4.10717328865146e-05
5.27436124488637e-05
6.49262858387277e-05
7.62592857329294e-05
8.28182623966995e-05
7.04386459859677e-05
7.06375114896129e-05
7.06145764123428e-05
3.08389822266174e-06
9.27091133044623e-05
0.000265565069484387
0.000400398745840874
0.000539602120180518
0.000626955963696799
0.000735457225358924
0.000792573139081003
0.000837900680875358
0.00121404908355323
0.00174016107347424
0.00231721787641994
0.0028908440278199
0.00341908874509262
0.00387250831019171
0.0042294078083538
0.00447254771703456
0.0045874916122722
0.00456225457880445
0.00438756679792509
0.00405743143658418
0.00357076183653778
0.00293571017383672
0.00217779153390457
0.0013554502559631
0.000571858418486547
7.00127782755017e-05
0.00153257284682543
0.00196461375195266
0.0010310880147938
0.00229041638872226
0.00151159657518208
0.000622178004709867
0.00238713101808504
0.00197048969851467
0.00271523032511961
0.00290418999111938
0.00309342315032751
0.00331932575456354
0.00339384433099817
0.00274506721169868
0.00231170595203305
0.00256614331818868
0.0030298029248071
0.00341028207758274
0.00367907924494368
0.00381184781231743
0.00379001904847105
0.000501469141725895
0.00111220495852645
0.00184719142266961
0.0024486167250056
0.00292153386540432
0.0032984004812736
0.00360263067044834
0.00397562864517987
0.00416616211042468
0.00366150618930493
0.00324430321006412
0.00421605667670626
0.00411274192010946
0.00384920012877748
0.00274774239709164
0.00342498190335669
0.00324746685486573
0.00302605790389155
0.00275116483124759
0.00240764375233289
0.00197223240864358
0.00142786219052575
0.000863295079748385
0.000425465439209227
0.00239264844612345
0.00258151062448762
0.0021579190928714
0.00186433410822249
0.00149508671923389
0.00273145052874271
0.00106860658183551
0.00066349287557981
0.000338533167181586
0.00284774353081912
0.000542199151138978
0.00109779330064025
0.000188141442964345
0.000168355088326717
0.00015655786401325
0.000134790603309351
0.00152989843529425
0.001835577084966
0.00205166210169895
0.00220099609373878
0.000103623608422679
0.00152379802320853
0.0013562472992505
0.00112029972650716
0.000760585992486696
0.00164367925939862
0.00029437643450764
1.06382492988376e-05
7.7798147537909e-06
1.06322851644201e-05
9.29437501821576e-06
6.84971750813831e-06
4.32360772640477e-06
0.00152986118115775
0.00171338811000616
0.00130403116339124
0.00103140783554782
0.000735160933893776
0.000459607075325841
0.0018636308523369
0.00198410336847415
0.00207473154550797
0.00023134810925717
6.35299042226162e-05
2.22330278775408e-06
0.00213828101871126
0.0013222266263502
0.00128297969135329
0.00121408375210021
0.00134566080535851
0.0011253943249054
0.00102059610770377
0.000897418647111517
0.000751923493101635
0.000584308135704792
0.000407633069274358
0.000243788083768032
0.000112144096684645
2.66126243141912e-05
8.10034480379612e-07
0.00420975176498582
0.00445491104462675
0.00457199262912154
0.00385156729437429
0.00454872345123745
0.00437602668030684
0.00339811680252908
0.00404863016492747
0.00356635437023515
0.00293714990592751
0.00287084831310231
0.00229815450574736
0.0021838676429658
0.00172068163289194
0.00136089883526926
0.000339379568969577
0.000400538487599609
0.000455370060020747
0.000271453443905941
0.000197827959987611
0.000506282917341926
0.000550797688664985
0.000578704060649826
0.000121764950940424
6.06529206032345e-05
0.000575591229798363
0.000580736653166854
2.28055460327072e-05
0.000579544004235466
8.56474465251789e-06
0.000182200451470233
0.000512965106599385
0.0007584444543899
0.000905627670840579
0.00102471135967851
0.00112723341907145
0.00119081428717012
1.70068019487251e-07
1.19590229078838e-08
9.90011097868253e-06
5.04392781770491e-06
2.02352505810183e-06
5.40945622789386e-07
9.5906595550652e-08
4.78678770379156e-06
1.70065783821166e-05
2.61184390307253e-05
3.64903367446908e-05
4.78549405094357e-05
5.98972978575901e-05
7.18422886612035e-05
8.10397550656123e-05
7.03622317686992e-05
7.12702599774855e-05
7.16217306566923e-05
7.12380219196991e-05
3.6398457537917e-06
0.000104024337431244
0.000279701206806653
0.000414742076891308
0.000558852837857657
0.000640065700617291
0.000750639823272764
0.000804724455623072
0.000850173814082521
0.00123098944537388
0.00176633720274417
0.00235741529135101
0.00295047362795286
0.00350429886432
0.00399056476717452
0.00438897155236824
0.00468368514589802
0.00486142008295875
0.00491088389450419
0.00482288900047313
0.0045904948562058
0.00420927190062716
0.00367881176613053
0.00300710690353796
0.00221922871603757
0.00136928501368042
0.000577002516490407
0.00113456666894107
0.00210832564633377
0.00163077108302345
0.00249492510292148
0.00166534095398944
0.000715091695900975