/*--------------------------------*- C++ -*----------------------------------*\
  =========                 |
  \\      /  F ield         | OpenFOAM: The Open Source CFD Toolbox
   \\    /   O peration     | Website:  https://openfoam.org
    \\  /    A nd           | Version:  12
     \\/     M anipulation  |
\*---------------------------------------------------------------------------*/
/*   Windows 32 and 64 bit porting by blueCAPE: http://www.bluecape.com.pt   *\
|  Based on Windows porting (2.0.x v4) by Symscape: http://www.symscape.com   |
\*---------------------------------------------------------------------------*/
FoamFile
{
    format      ascii;
    class       volScalarField;
    location    "200";
    object      omega;
}
// * * * * * * * * * * * * * * * * * * * * * * * * * * * * * * * * * * * * * //

dimensions      [0 0 -1 0 0 0 0];

internalField   nonuniform List<scalar> 
10228
(
2.45525839003592
2.46742674694984
0.342861673832936
2.47469008983647
2.44248103211299
2.43076094342831
0.366131535750526
0.287843877004291
0.496945619322031
2.45215098310825
0.511437957671008
2.4044775775588
2.42539279675091
2.48290374824828
0.373520146622017
0.286942162059473
0.323173932133396
0.341243537174667
0.575027651045361
2.50624199840298
0.575534742671221
0.340717402954219
0.513549359973632
2.3786467035682
2.36519228612206
2.41877600948943
2.42153938426567
0.371124373368849
0.279187475767314
0.316617894361079
0.410811198550212
0.330971368893031
0.364771933526569
0.629570515327768
2.47352033303656
0.363159201336086
0.571614658342939
0.618682484323649
0.334805962376354
0.326844190809966
0.505786154340166
2.35771550848452
2.31066630402846
2.33138962150574
2.40498329726222
2.47110449589514
0.357278273219452
0.270761753233838
0.295131224929515
0.389118415373891
0.421011756792626
0.354275590768648
0.322456167625434
0.384878229976884
0.672505898223929
2.49502197077574
0.359275143433236
0.320445937165377
0.381980020008616
0.60609141823495
0.561729600813531
0.658319041407407
0.32853843531228
0.315791093330211
0.348638784214823
0.494263850323506
2.37667448793753
2.29353925530468
2.2653554747599
2.31570880181079
2.40609950606438
2.41548879988242
0.33370537428152
0.265521232995779
0.27877120007975
0.34187144273223
0.428496064515162
0.445671191662749
0.367959457088076
0.31986600197359
0.322528390277811
0.406577815268582
0.71376564051952
2.47713641790772
0.31656689027419
0.377832594347389
0.356594970264319
0.321465455026043
0.318308892769325
0.402907376681118
0.639691469582001
0.593093926677199
0.553924027672987
0.697674473169648
0.331368208513073
0.30751639342111
0.335005160449425
0.369250406351046
0.490789042770654
2.29336258109869
2.31908787530369
2.2440395238172
2.24625407100867
2.31166815378967
2.39992200036377
2.46124199758026
0.287770254992497
0.27505830486228
0.272530318245293
0.313957595563753
0.422275174815138
0.454343301585979
0.470051556875686
0.383772158128609
0.326291365069398
0.306064439949961
0.330055814956895
0.429498521466163
0.748406820611809
2.47744822927689
0.31512589731805
0.315860026969411
0.320140170539568
0.397620760867042
0.376021212357398
0.365300163399988
0.305806241145371
0.329182925107812
0.326359977988473
0.425327945296871
0.676148610157054
0.623208073137965
0.585579352916712
0.568415004947218
0.732986657965148
0.370571095026234
0.313744743633138
0.323694298013922
0.366143429588547
0.386459377235956
0.49104230074034
2.34880711927163
2.19723128411419
2.26653116136666
2.22078910154788
2.2423138119467
2.30858631091537
2.39534328787845
2.42692521687979
0.179175763110381
0.296517268847103
0.300975821733023
0.300519510726067
0.367106420122888
0.454833919987985
0.475306747957396
0.487200897230987
0.399360034677611
0.335985524249863
0.304822151171611
0.303881088168875
0.341467360920049
0.451508500020069
0.779167024019107
2.47083288357145
0.305705117842337
0.325773117610723
0.314484963462726
0.322198803625816
0.329916328408887
0.328176752219525
0.419004595113385
0.394480389699605
0.385371351890928
0.419740163715254
0.304001583849788
0.305121588896483
0.340451103215264
0.336715846574725
0.447107093621462
0.656805949054548
0.711223935865779
0.613728914977395
0.599955498425323
0.638584680589256
0.763154308815077
0.493218482569464
0.37241241676428
0.325872961185748
0.353135912026525
0.387334028031329
0.401842177472332
0.471656042817193
2.47411472882944
2.42132770044612
2.14804542246507
2.22757321367142
2.21502793569627
2.23979254345338
2.30304245191035
2.38957271152932
2.39924619658204
0.381290615928936
0.433746294007271
0.320545372987934
0.336908486199911
0.444054974018991
0.479298090368755
0.492592657628983
0.502614754617312
0.413269846601209
0.346530135704595
0.309328574585722
0.296129690647792
0.307627497702594
0.354221296431201
0.471701036559389
0.80791468050477
2.46866898858589
0.304550716292755
0.305922842480178
0.308849915360889
0.337595494251014
0.325780852545162
0.327174314711301
0.329832043192781
0.336773090274643
0.393298913186804
0.338986051045049
0.440195699718771
0.4140397269704
0.399754663488341
0.431397147313124
0.63495428741815
0.307717859026901
0.296638499192625
0.309895496291888
0.352976765557734
0.347451046361897
0.467026508932382
0.645021626730986
0.691623101716325
0.741329669249207
0.619636942504082
0.679894970218895
0.789119396964695
0.674063053583355
0.622053327165991
0.373220129639143
0.348103613021018
0.384141669631916
0.404156067269216
0.415897891030218
2.42304838411072
3.34281394003908
2.40073356072367
2.16214924801986
2.21574796645809
2.21278557213407
2.23431072380504
2.29713054762819
2.38573609883853
2.34978464187013
0.895635693750384
0.44699827653785
0.339198722935573
0.378482422578567
0.47191732212281
0.49718631907545
0.50754979898439
0.515097595191305
0.42613012678335
0.356954829366055
0.316064191048313
0.29611034082096
0.294522449352407
0.314167128988734
0.36698324829663
0.489946914283043
0.831738507221033
2.46721285846169
0.297829584054922
0.307827667934448
0.308016543560083
0.309513888051131
0.311215046109644
0.323265042763025
0.348992535078305
0.33958621896013
0.335409659226343
0.382098538370257
0.339155448682375
0.340075128738796
0.387696483439369
0.631785788990451
0.350925296074065
0.459679340707353
0.434002053805461
0.414617353656967
0.427613002718712
0.596925535548826
1.29289758410858
0.295009152029432
0.314074437239462
0.296763057296816
0.316751761301483
0.365501512033907
0.35800990824942
0.484859942517464
0.678702186092409
0.642672820633675
0.722258424885319
0.766398100515754
0.665399575361462
0.81332183609891
2.34197553591902
1.31041287463445
0.588326410548335
0.379790254367549
0.373438660920196
0.403972847409784
0.419420764298707
0.429002819408734
3.32881084425849
4.55077481046686
2.34602068617911
2.14776741119003
2.23452782965404
2.2141192693024
2.20748216348818
2.22788253146304
2.29251742283539
2.383440882473
2.39770418160054
0.92932375284224
0.437035987198947
0.363896959828413
0.408173936576633
0.519127746566773
0.520148352926221
0.520291275707864
0.524505092261636
0.437616905234745
0.366985481375208
0.323592959873778
0.299558252675707
0.290660597234571
0.296664504753781
0.321879334155662
0.379158835972142
0.506252221595682
0.850564530386035
2.46689522727588
0.298227657165397
0.295979597864936
0.301639087923449
0.310105973791156
0.318903180842716
0.313855036777513
0.322455473095363
0.315221166291807
0.318346889112725
0.368418074065228
0.360122912855998
0.352096821938893
0.347611893189503
0.379808002397828
0.571310633482683
0.344447245206067
0.349650774135203
0.371623765566864
0.546887562967934
1.50715625496275
0.36291821849994
0.477048272956722
0.452742181284753
0.431348904559535
0.426832303569212
0.519693139081379
1.05361501647596
3.01866887263268
0.291274455522301
0.296995086791485
0.321579131038183
0.300270999409732
0.32436020704971
0.377463577564292
0.36820033332282
0.500890392374068
0.7098788861501
0.672475687484342
0.659269368916032
0.747407904044129
0.788071883937103
0.823913031918303
0.832828270067939
2.4284526135421
1.27052167755403
0.543205401086569
0.392910481026533
0.394649348173268
0.426567366573911
0.434551315336365
0.440787452140833
5.01509193282196
3.10207749963617
2.27411150516158
2.15460844671457
2.26153344129887
2.22442034427398
2.2083047198382
2.20057994928845
2.22270272182021
2.28965627624323
2.38236377475462
2.36740622686248
0.878534822402201
0.431103033972168
0.386384879969257
0.518249039457831
0.563597673752882
0.540837783530344
0.531997821114727
0.534331074582397
0.447595784815009
0.376375917108227
0.331282399697473
0.304585996618032
0.291268943932813
0.289579489058467
0.300758474143939
0.329953998873018
0.390554653578874
0.520748063069854
0.866031646849397
2.46679053956172
0.302235013869298
0.292494868058945
0.301865694625122
0.297495870083344
0.298782011916989
0.312325432674553
0.314570591167374
0.316880825342951
0.347965557365211
0.320839206556363
0.361117130289369
0.327127027349152
0.322648313351597
0.326175131519423
0.498453987652654
0.370872510479756
0.364863845504213
0.360117375601195
0.383999596093526
0.534588878669589
1.37326853484596
0.360398786588992
0.351201676528138
0.360529237815053
0.455145150326181
1.04505605867792
3.30360537831067
0.374438659476613
0.492570471815514
0.469529682005876
0.448331909867031
0.434504836049883
0.464041031163012
0.74302543780764
2.52555709070178
4.65865405731481
0.291924611405348
0.290046104587802
0.300902326814824
0.329474686514475
0.305337931747773
0.33212309260888
0.38869385548838
0.377732638637625
0.515264969738896
0.70301631948905
0.735471693802707
0.674784504071292
0.716619427928526
0.76832274746424
0.80799069374733
1.11225215617747
0.848618279407334
2.4111239428683
1.16737330749617
0.51576293980179
0.407811207100018
0.430221612542624
0.44685065129394
0.448023568503775
0.451264200819945
3.1831489081328
2.94984523647159
2.3626617732365
2.19628630523527
2.26828470382013
2.26525913964641
2.23190618249149
2.21528543092499
2.20096011937425
2.19480755322473
2.21938749352354
2.28813596957624
2.3819044064877
2.39536856816751
0.813508144059028
0.434892696234045
0.420588922771716
0.546459409961592
0.589984431420864
0.557876495774712
0.545160639331692
0.546715139459169
0.456769892098345
0.384960112580358
0.338780703736069
0.310285982726997
0.29412688922065
0.287759377289691
0.290975430177879
0.305851395461675
0.338006598843193
0.401157988008229
0.533558283914449
0.879183212774004
2.46680339160775
0.30597257874663
0.312446075600961
0.295558193483339
0.293243999559851
0.290818458372801
0.307023076687349
0.300910146503988
0.299036223557045
0.30587654807035
0.338345747639865
0.320397368238605
0.317822862808422
0.332780946991502
0.416937242398154
0.328303781931624
0.469600665218537
0.360980172813519
0.334083196023614
0.330836053346945
0.334124765948483
0.923364148005726
0.38080051308712
0.376797827770577
0.374733250578537
0.391725777114896
0.51353664247313
1.20088287710728
3.2413170644985
0.396453570031845
0.357744851494785
0.359657214352832
0.371232915434254
0.654640997405149
2.05313565521499
5.05110430682481
0.385319031051802
0.506650969911122
0.484495866552737
0.464098183875718
0.447130819303184
0.446777490593799
0.544473447782137
1.25868875587247
2.01686204964546
3.14514132987044
0.288266946883583
0.294805894779618
0.291265076199333
0.3058313731744
0.337389518039085
0.311073347520844
0.339683059106301
0.39917927831933
0.386448659392259
0.52807244427844
0.699996031880027
0.728736468089552
0.756331647509298
0.691927464050144
0.818087606498097
0.786940176868257
0.824454984675225
1.30331450910552
0.86187934137431
2.41955515316451
1.05535750058175
0.508017506257956
0.427559327835893
0.450838157862229
0.462230695679599
0.459687277184039
0.461067373314091
2.97338144938118
2.90893689857734
2.35450589973612
2.2845954383097
1.91677999295561
2.24531975468491
2.23049528918166
2.2181144041383
2.2075219229548
2.19469790967696
2.19103912828657
2.21756813268145
2.28743081047476
2.38173913908047
2.37890978276077
0.77155771996559
0.440963984334598
0.449819473657326
0.561341605727423
0.609028230404075
0.570575812711849
0.559332933366564
0.559814523064616
0.465892428736918
0.392821476307508
0.345881022087455
0.316171169970336
0.298114996315413
0.288740147584349
0.287086535782128
0.293807459133542
0.311434675713999
0.345864027565617
0.411030477420568
0.545145215252944
0.890932927140753
2.46682449539986
0.315871271528216
0.311224051476272
0.296414038381235
0.336175612893595
0.302639404472478
0.292697923558315
0.296180584804397
0.289143131741943
0.291563794400839
0.312834442526955
0.305423176933303
0.301334442603355
0.30295831489333
0.320945607293104
0.396887138193939
0.321186210919785
0.326994489791388
0.325372045591287
0.364106010401257
0.57182780444739
0.33589132422212
0.454924985602491
0.821712915537204
0.364910021145725
0.342262297665018
0.339078476003098
0.341818387070339
1.68879949761927
0.389789209352164
0.387290462048684
0.387236976111655
0.401809520558563
0.50574360415425
1.0647773303291
3.25604549847162
4.9713936525135
0.371487518103133
0.463821139360381
0.361136548443643
0.368843169903835
0.381516148944964
0.961717845149129
1.64004164511211
3.26181748758348
0.395555920502637
0.519413403262691
0.498073017223469
0.478348950634986
0.460805314296325
0.449329594596379
0.471558476469368
0.685864914707771
1.1219960935884
1.58209142957025
2.99384101504179
0.289266884887726
0.287419073840396
0.29881571902373
0.293939750974041
0.311288508864729
0.345147479767736
0.316990041414987
0.346832586760895
0.408984733459241
0.394445501281074
0.539690252904295
0.701334866914239
0.724111823274481
0.749596304780558
0.774138126215684
0.723599355078089
0.887599497728324
0.803748799525756
0.838399228151947
1.20546526072951
0.874295312144533
2.40950399993545
0.986576531837829
0.505867804187566
0.447163303575236
0.465069772306712
0.474761001555972
0.469836950461138
0.470645063314631
2.9119638633319
2.89675869102122
2.34949397922304
2.27707425850259
1.578964081784
2.23193093840036
2.22179422334675
2.21626834930114
2.21036760293226
2.20107612067863
2.19051555136757
2.18894273129998
2.21669174889646
2.28713934575008
2.38168748337086
2.38240017271011
0.710889519359218
0.454200519833156
0.465310722206569
0.576026320024797
0.621438487226381
0.583661622129384
0.572267400225215
0.569782304059172
0.474884697183614
0.400172018094512
0.352513390954797
0.32196609219503
0.302620987886843
0.291242162613219
0.286445834114635
0.288156886663596
0.297488518695043
0.317227088142943
0.353458732126817
0.420287443325598
0.556006672964713
0.903234724436926
2.46683820679242
0.338113630534277
0.30343310094846
0.320970250486974
0.317125183226657
0.299415513386087
0.291171874860211
0.388097864229171
0.316950409339282
0.296880401861245
0.292373210204882
0.300234764431935
0.290194870447127
0.287830951510359
0.293833791155479
0.318812278504145
0.310564006508081
0.304989006149783
0.30291838567821
0.310716984904537
0.348688788716636
0.522151354850757
0.326164378197921
0.323905256183889
0.333964593076581
0.338533698885885
0.416362018949015
0.773356950940382
0.343413545360686
0.449667246743111
0.754322516878972
1.53026882553952
0.370912634724803
0.35053236002854
0.346952890327517
0.34906266349114
1.36753879320055
0.396581138204322
0.397951612504941
0.397783451404866
0.412777652702922
0.501427543725807
0.990046251292488
3.22613162856628
5.00221093169546
3.26659509009907
0.365185404059061
0.392884627964347
0.544818011758164
0.367617825684069
0.37815532848584
0.39132491982257
0.849751997543861
1.2674873136984
3.01153699434461
0.405204997255047
0.531119756861424
0.510633058646765
0.491349406825061
0.473926997690378
0.458908901312391
0.45473688452096
0.505665175131946
0.66767818110789
0.912541308410951
1.22782468233684
2.94835620943578
0.291786323844971
0.286796249644433
0.288332981729645
0.303342677171743
0.297499182398049
0.316990482909386
0.352673302083019
0.322810831905278
0.353509481798722
0.41821869736238
0.401914194969124
0.550806195187943
0.720077900164643
0.706575619985436
0.744391315817223
0.767205926462354
0.790728484623933
0.742437468800056
0.862089346058159
0.818303802849596
0.85314557031035
1.0549016060558
0.89141520419049
2.40534948758315
0.894501159305606
0.511635837222504
0.460508551773651
0.477122803567586
0.485004658648897
0.479433460810169
0.479728341991394
2.91093425878155
2.91778076839671
2.27198643331627
2.34871472552772
1.31280951655207
2.22726843844899
2.21335306371686
2.21229123002479
2.20970719829482
2.20421379160452
2.19664403212877
2.18815874680418
2.18791904485415
2.21631500544867
2.69485292041502
2.81046515650354
2.37626736702397
0.670814608346584
0.465486582306182
0.478867553224781
0.590059640039898
0.625163008027169
0.596463568480235
0.583120628450917
0.577303302277055
0.482876480634828
0.407077915997807
0.358690373954115
0.327521979011739
0.307293218553443
0.294551999278369
0.287653692489271
0.286116754719117
0.290335516048351
0.301669863519481
0.323067683615479
0.360771265961779
0.429098172044495
0.56694511952156
0.919214791914148
2.46684132153064
0.385990229607193
0.34221583948112
0.317220748661611
0.295469003458803
0.30639832261115
0.326813637171293
0.323178030034493
0.303525921027909
0.29230716935361
0.288822340577262
0.495985981859532
0.342448088505186
0.304632848465862
0.294348845587399
0.293805675371129
0.292752756874351
0.304800726117901
0.287263311491438
0.288346249474606
0.297083734353963
0.324681360530091
0.316038458633734
0.309514334675105
0.304980542024829
0.306233046143049
0.323183363558926
0.392226465704701
0.689080766635978
0.332090200064152
0.326136382382672
0.328613072551366
0.341058342168575
0.356419164637642
0.468911033838981
0.700407740176412
0.350775910654676
0.448187271896359
0.717707055424745
1.43804099140059
1.25846903053544
0.377988371831268
0.358406202669246
0.354317148549662
0.355813473273992
1.09113556058763
0.404886787127206
0.407085739784236
0.405523326105688
0.422340613509585
0.50237932219155
0.906173904878649
3.21860275019408
4.9571536637421
3.27286443279374
3.03146650644804
0.367301274073466
0.370898467323655
0.41343816555326
0.524321915996312
0.375425618586781
0.387320087195886
0.400690753722638
0.697634069981325
1.01305814203118
2.97893409739132
0.414368642051135
0.52235069639262
0.542769531471012
0.503514638905477
0.486223412605489
0.470204496697601
0.457544552626614
0.460691244843729
0.503686969012416
0.598586299463547
0.739248435565841
0.991333212752701
2.95214327410365
0.288019591630737
0.295113663506533
0.286309361245068
0.29038973793352
0.308033477771774
0.301592523989687
0.322767242760187
0.359946097960753
0.328389146874226
0.359728119228778
0.427068722857784
0.408875209651986
0.562620405288023
0.738571958740261
0.716258693381956
0.707544054188443
0.761677546326696
0.783700725007002
0.80503184251967
0.732988599268602
0.808102594290211
0.833715385889972
0.891509919155317
0.94951212854769
0.928926345322047
2.3976017814397
0.835433967925552
0.518550999559665
0.471644310419396
0.487816626433407
0.493314133362251
0.488503320325114
0.487766578190159
2.92377496751797
2.93308967880842
2.22375396954262
2.26884822549948
2.34633921772024
1.13395211056293
2.20906938710183
2.20879835928053
2.20800776287713
2.2043221231567
2.19978735570407
2.1940929274813
2.18699738872036
2.18747340168471
2.63543332764896
2.68832500522658
2.83793994763817
2.37497633523925
0.650140891457243
0.476006562783745
0.490734563353338
0.604560652866157
0.627626074174386
0.601222784535099
0.59200456910235
0.583432506085802
0.489681429284936
0.413360738176689
0.364413780782155
0.332762334411381
0.311921414970147
0.298248884437949
0.289916861203322
0.286196261052718
0.287086448387944
0.293228311171335
0.306125351934036
0.328847982965438
0.367801028563223
0.437654694238517
0.578595918075824
0.938608390287467
2.89877849340849
0.387181914154944
0.341378369841843
0.483956731344666
0.347468484088857
0.319848401694036
0.303191607037649
0.296675725086192
0.291011522783918
0.310508500753957
0.332856567097538
0.329111367854869
0.308144727508075
0.294927740215918
0.28835863832216
0.288518434152756
0.64819128602525
0.381385568965915
0.316642508219937
0.297979219008654
0.29424252935909
0.296449276811387
0.288525986356423
0.296114199629014
0.309525491069132
0.286380685130299
0.29009692831448
0.300954870721103
0.330300695388464
0.321656864311449
0.314563083294379
0.308459381718938
0.30565941710968
0.311239536444701
0.339117118109814
0.435225567928345
0.641338823666783
0.338507208861185
0.330477321167709
0.326747666600451
0.334161931718508
0.34812836086444
0.37095411778703
0.456739280815435
0.59964041331932
0.357943552470804
0.450183993705263
0.686873044553714
1.38974770808199
1.20882864904941
1.03822278916823
0.38516167734603
0.365783342945257
0.36116101453351
0.362096189306523
0.927204273382315
0.412456311485203
0.415531360844024
0.430987808175686
0.41256393500732
0.506564064497645
0.854366438021289
3.20080415886425
4.94180733080082
3.26037498497836
3.03632537510818
2.99925132074685
0.37299560804907
0.367120011015334
0.374851878123745
0.408919620635451
0.474782395666984
0.38369851492292
0.396249853212458
0.40969475210836
0.584167647699314
0.866997223991467
2.98634313211537
0.423265133857596
0.534144495935565
0.514905274249309
0.55638876140587
0.497910425138629
0.481563880971919
0.466254594754206
0.455414735423194
0.45753816623085
0.481892625132055
0.533405607282356
0.626372543166205
0.867504755899171
2.96197195455537
0.290298791135349
0.286402810543406
0.298826893756763
0.287155961483068
0.293195112217452
0.312677879420842
0.305988052353383
0.328506716945733
0.36695985509626
0.333650023796322
0.365481008011265
0.435747008528716
0.415173851628893
0.575765921916715
0.731740324786609
0.755231477076649
0.710490956373909
0.700083162100306
0.778177122698906
0.798143096216104
0.818728152677175
0.713321068181966
0.779651915980159
0.874159353443925
0.915361953513126
0.877867094764625
0.948774995349338
2.39307377959013
0.80747413007124
0.526020676821307
0.481624602957238
0.49782188999597
0.50108294779286
0.495767369113443
0.494686925617155
2.93200931974705
2.92380103322977
2.20706772240039
2.22026898787758
2.26504132159882
2.34583502975879
1.03961637771027
2.20706254197263
2.20681936426209
2.20366074763948
2.20012191983731
2.19714736291666
2.19281959555475
2.18648900293336
2.18729866678326
2.62965059728178
2.72793416621304
2.82435591823432
2.37375461020311
0.639509354736832
0.485886054071229
0.501679196411162
0.621241231878373
0.640651085382091
0.606307566561122
0.599479166475899
0.588567546368877
0.495433684951182
0.41890843853543
0.369628238898464
0.33763750499575
0.316376354298935
0.302071839598972
0.292758170071129
0.28754055010038
0.286181932590087
0.288932611600974
0.296569381035068
0.310694035791672
0.334488256334645
0.374543832097399
0.446013008091635
0.590313561993752
0.982170001079486
2.90695468587891
0.390541680571191
0.343133658272211
0.477714621206045
0.314959705159909
0.377886326514297
0.628598519672827
0.323771728756598
0.353191310911219
0.304391157098493
0.294841147391961
0.299359445021484
0.290686730666521
0.2892175611112
0.315154229334385
0.338812953875492
0.33479126322992
0.312919688396619
0.298344265701914
0.289696213746725
0.286670311206816
0.289672346278918
0.617830857692966
0.420993253464655
0.331679060516707
0.303186068432358
0.295361709680341
0.295859475859932
0.299901045689259
0.290839626784888
0.286515034562303
0.299858141609022
0.314199835565535
0.286922770678783
0.292682538476348
0.305196720048795
0.335599355794029
0.327289026275883
0.319892901997188
0.312828545461062
0.307573269511938
0.306871963212927
0.316787372076277
0.351820321413311
0.42969777929306
0.568074031466053
0.33594990739681
0.345130981990017
0.328986109411481
0.32727286280612
0.337453806831526
0.355100910136643
0.367968297666722
0.423843308415287
0.527229895405215
0.364901319455732
0.670329134662655
0.454527873158814
1.33456735164352
1.18072750863966
1.02536412518864
0.917455209594954
0.392146042177121
0.37268828210493
0.3675298615339
0.36790652916235
0.838894202143549
0.419502775853359
0.423428444125303
0.439066142528893
0.512403250082559
0.418834582154532
0.833766676010488
3.19250435030447
4.91093010801365
3.24611735337975
3.02802348486956
3.00410436515963
3.00760912225152
0.370312161661757
0.380148362024066
0.365670298417974
0.371357009289473
0.391429891275533
0.429944952758574
0.392054238437613
0.404929386897692
0.418514608915164
0.512571448280168
0.807808940275997
2.99479239867607
0.432110359214976
0.54808789730848
0.526176238310236
0.508881455187762
0.569235524022147
0.492708433891323
0.476483929364658
0.46138529865145
0.450187716331658
0.447227288180667
0.457156886563435
0.487842807775042
0.561642536398565
0.821002901015359
2.96529566700496
0.293155556941891
0.287762026147578
0.286263970729958
0.302664355267591
0.288913559889281
0.296476518626908
0.317147112449324
0.310517255379836
0.33412190988099
0.373703650907908
0.338542118221959
0.370711209117457
0.444217706014945
0.420731570893102
0.587281459328144
0.723465473987174
0.747655921083164
0.771970354732731
0.701769127652188
0.689123627863464
0.792426884256788
0.810940404807825
0.839544452875606
0.709092723805527
0.760080170427582
0.898021142894455
0.933464777801651
0.83032342577036
0.968604109144741
2.39028609475708
0.794572646348037
0.533635211998082
0.491204024871272
0.507712214262979
0.509229540008293
0.502130207406488
0.500600666626665
2.93583886583162
2.95713776434728
2.20611034491874
2.20380049189387
2.2154500971396
2.26804300318133
2.36559470856337
1.01869433605592
2.20655810498079
2.20340444925853
2.1997846613087
2.19749063663045
2.19580409067606
2.19225848831062
2.18628974953034
2.58548377551825
2.67062361512471
2.76498849905413
2.85554388465303
2.37374233781451
0.633967095133584
0.495387235071166
0.514393260219105
0.629408998638931
0.651821382705077
0.612222902415029
0.605639747451123
0.592751119309564
0.500275252830921
0.423719618873524
0.374286872804542
0.342101577340332
0.32057372054663
0.305853014978759
0.295875274429566
0.289627774225358
0.286719190608301
0.287169887477519
0.291364696489722
0.300165484845169
0.31525369270017
0.339918748242399
0.380950696493512
0.453917920990865
0.60316889680217
0.999538103190131
0.476539295557692
0.346535675660794
0.395225109376559
0.316044235326477
0.378101795922535
0.615886912738457
0.300224712931029
0.329639379177194
0.41613597044872
0.608664891736615
0.328343177528307
0.307099309031405
0.359003908778386
0.294666639245476
0.29063723022217
0.292131326770498
0.302840378936451
0.287545523148959
0.289367958273288
0.319974589197829
0.344544554344042
0.317642327541364
0.340152106392303
0.302138678850235
0.292072374331217
0.286889117136129
0.286623347945077
0.291844046890079
0.560874779088663
0.420252205667994
0.344044405573588
0.308889068002776
0.297005983941187
0.295459369164442
0.298642040854955
0.303859582738662
0.287909960852916
0.29372751552461
0.286072760807608
0.303722931403656
0.318696160427977
0.288461675185611
0.295812741942282
0.309622156646046
0.340525694468251
0.332833633501095
0.325329781335943
0.317716542603122
0.311001623316073
0.306763636916877
0.307946241041344
0.320207001903933
0.350823220747712
0.406381066521254
0.514956949324875
0.333310948298326
0.341984912352632
0.351792555478971
0.327208126717577
0.32646046536483
0.334831531569813
0.361929012384879
0.355139978202672
0.392888127656473
0.480361617975916
0.37161982693427
0.665503057540113
1.30970154752451
0.460045692029057
1.1531855036348
1.01846998768765
0.924637365439871
0.850370906234255
0.398866485636714
0.379176467221129
0.37342761289547
0.373167810111759
0.799134649157674
0.425899607233701
0.430868997756441
0.446845028633298
0.518927515644317
0.829258912014662
0.424342435257045
3.1868734284807
4.89532847186856
3.23124748330002
3.01425699106073
2.99546181130858
3.01213344477139
3.01563607774666
0.366737061697775
0.376259936858174
0.387841641290118
0.361376950152296
0.362394641628179
0.371892510614622
0.397283191018125
0.400290631748711
0.413459985054655
0.427334815161199
0.472922526809754
0.786921299008237
2.9947625174394
0.44057630134942
0.56094501453923
0.538623993614493
0.519422627084284
0.503179597839091
0.580354617272498
0.487091541202484
0.470533551904479
0.454934009732287
0.441998591195317
0.434369845104239
0.437301729382551
0.459969376527115
0.530380961457901
0.833879852463075
2.96780581388503
0.296286611285017
0.289864092202756
0.286815222289317
0.287162219105686
0.306458148557473
0.291285174424683
0.300033359083815
0.321356630721483
0.315051623490016
0.339537108029829
0.38010621332961
0.343017879820929
0.375377024979921
0.452049073511938
0.425556704013102
0.598275488721942
0.713672277249661
0.739614516946386
0.76446265544154
0.786024127410074
0.692515100633472
0.68879160185304
0.804655675616415
0.824724921029
0.87851861489565
0.705483398928857
0.744877487246526
0.916507713425011
0.950672893495852
0.819151663006855
0.984645623000493
2.38919053843879
0.788435652004329
0.541379790677939
0.501334809185615
0.51607572693115
0.516568278802751
0.507816916217023
0.505583874209351
2.9510659589547
2.91143612923146
2.20623425346863
2.20312084357587
2.19825999168993
2.21803832303274
2.29446168428478
2.39560718893061
1.04673722434371
2.20370316187432
2.19980729744495
2.19720843720386
2.19611674667654
2.19520613584776
2.19203835150045
2.18621991745766
2.6251974042761
2.71013283590515
2.80100016945582
2.37381029439358
0.631296448579049
0.504895214161885
0.534947961042663
0.639932789260303
0.660083912960079
0.617556969737814
0.610658285073328
0.595988451783422
0.504296435217213
0.427837638700372
0.37838073374796
0.346122210893111
0.324455175445723
0.309481269484636
0.299069401127781
0.292122218381971
0.288141015161947
0.286999024393757
0.288853358586986
0.294168358865559
0.303868544251189
0.319705354068934
0.345068153941188
0.386911942354498
0.461295118452039
0.61269423276751
0.478903142484645
0.611801617078493
0.380652008448117
0.318728527739689
0.350861375985208
0.400538622780243
0.300215355914158
0.330597640596005
0.415586353718235
0.604600381081034
0.306157257437555
0.29261896820949
0.342161674201938
0.418646432417784
0.561634161086862
0.333164225131932
0.310633550921184
0.296239812545377
0.36470199866666
0.289189413255703
0.289311955647571
0.287897875554975
0.294599317897142
0.306700813339516