/*--------------------------------*- C++ -*----------------------------------*\
  =========                 |
  \\      /  F ield         | OpenFOAM: The Open Source CFD Toolbox
   \\    /   O peration     | Website:  https://openfoam.org
    \\  /    A nd           | Version:  12
     \\/     M anipulation  |
\*---------------------------------------------------------------------------*/
/*   Windows 32 and 64 bit porting by blueCAPE: http://www.bluecape.com.pt   *\
|  Based on Windows porting (2.0.x v4) by Symscape: http://www.symscape.com   |
\*---------------------------------------------------------------------------*/
FoamFile
{
    format      ascii;
    class       volScalarField;
    location    "200";
    object      p;
}
// * * * * * * * * * * * * * * * * * * * * * * * * * * * * * * * * * * * * * //

dimensions      [0 2 -2 0 0 0 0];

internalField   nonuniform List<scalar> 
10228
(
83333.3333204933
83333.3333198052
83333.3333163405
83333.3332657145
83333.3332569938
83333.3333172937
83333.3333162539
83333.333317122
83333.3332646497
83333.3331860043
83333.3332619579
83333.3332530253
83333.3331702011
83333.3333155935
83333.3333148057
83333.333316957
83333.3333206702
83333.3332725105
83333.3331865206
83333.3331087542
83333.3331824873
83333.3332706528
83333.3332569559
83333.333248201
83333.3331661551
83333.3330897096
83333.3333121893
83333.3333132396
83333.3333156478
83333.3333198169
83333.3333216068
83333.3332833288
83333.3331996248
83333.3331066937
83333.3330178775
83333.3331959622
83333.3331771512
83333.333100609
83333.333265867
83333.3332813912
83333.3332504539
83333.3332399366
83333.3331623059
83333.3330787473
83333.3330009326
83333.3333047833
83333.3333106404
83333.3333141423
83333.3333185913
83333.333321228
83333.333322506
83333.3332877543
83333.3332155422
83333.3331190544
83333.3330135443
83333.3329198454
83333.3331904343
83333.3332121236
83333.3331142896
83333.3330942261
83333.3331690449
83333.3330063141
83333.3332593273
83333.3332768512
83333.333287218
83333.3332418006
83333.333223094
83333.3331548507
83333.3330716748
83333.3329852392
83333.3329066692
83333.333288937
83333.3333046026
83333.3333117523
83333.3333170717
83333.3333205922
83333.3333221801
83333.3333226133
83333.3332916131
83333.3332282922
83333.3331353589
83333.3330235987
83333.3329142949
83333.332817093
83333.3332061649
83333.3331084809
83333.3331816841
83333.333131509
83333.3332255765
83333.3330185944
83333.3329975192
83333.3330853162
83333.3331576081
83333.3329068622
83333.3332504
83333.3332702382
83333.3332848764
83333.3332912302
83333.3332253826
83333.3331936463
83333.3331367965
83333.3330637347
83333.3329702134
83333.3328909262
83333.3328074699
83333.3332749165
83333.3332918882
83333.3333073982
83333.3333148124
83333.3333197452
83333.3333217401
83333.3333224105
83333.3333225843
83333.3332936666
83333.3332379413
83333.3331517898
83333.3330399145
83333.3329214929
83333.3328114695
83333.3327101783
83333.3332205233
83333.3331968532
83333.3331255292
83333.3330118394
83333.3330992819
83333.3331697235
83333.3331481556
83333.3330359616
83333.3332356158
83333.33291671
83333.3328966783
83333.3329860772
83333.3330730341
83333.3331377091
83333.3328044816
83333.3332372282
83333.3332610497
83333.3332802969
83333.3332894958
83333.3332933286
83333.3331983574
83333.3332011965
83333.3331037756
83333.3330475691
83333.3329554303
83333.3328719104
83333.33279355
83333.332703248
83333.3332395536
83333.3332904341
83333.3332992975
83333.3333119187
83333.3333180597
83333.333321334
83333.3333222062
83333.3333224116
83333.3333224367
83333.3332950253
83333.3332441675
83333.3331655306
83333.3330583267
83333.3329364932
83333.3328155996
83333.3327052381
83333.3326002761
83333.3331424592
83333.3332313116
83333.3332121758
83333.3331160402
83333.333183914
83333.3330299367
83333.3329092487
83333.3330019132
83333.3330868879
83333.3331535625
83333.3330544619
83333.3331620828
83333.3329326493
83333.3332421542
83333.3328113498
83333.3328827013
83333.3327941842
83333.332972106
83333.3330543784
83333.3331050143
83333.3326991233
83333.33321457
83333.3332506903
83333.3332720222
83333.3332867158
83333.3332919868
83333.333294641
83333.3332129955
83333.3331727805
83333.3331037111
83333.3330132219
83333.3329345218
83333.332849794
83333.3327750308
83333.3326913889
83333.3325951334
83333.3332453699
83333.3332901664
83333.3333076436
83333.3333159331
83333.3333203172
83333.3333220316
83333.3333222932
83333.333322309
83333.3333222696
83333.3332959342
83333.3332483359
83333.3331755934
83333.3330750767
83333.3329549703
83333.3328282542
83333.3327071307
83333.3325963766
83333.3324880783
83333.3330486387
83333.3331567853
83333.3331333614
83333.3332384272
83333.3332240982
83333.3331991583
83333.3330205677
83333.3331030926
83333.3331690173
83333.3329265653
83333.3328039365
83333.3328982362
83333.3329886506
83333.3330708642
83333.3331239395
83333.3329512645
83333.3330711828
83333.3331723627
83333.3328248669
83333.3332464392
83333.3327033757
83333.3328651561
83333.3327797168
83333.3326894688
83333.3329526198
83333.3330276464
83333.3325912624
83333.3332059547
83333.3332358197
83333.333262095
83333.3332802277
83333.3332896796
83333.3332934161
83333.3332954728
83333.33317823
83333.3330891048
83333.3329817678
83333.3328993996
83333.3328217226
83333.3327527425
83333.3326746181
83333.3325850875
83333.3324840603
83333.3332325482
83333.3333053963
83333.3333131966
83333.3333185159
83333.3333213712
83333.3333222793
83333.3333222206
83333.3333221669
83333.3333221133
83333.3332964057
83333.3332511071
83333.3331827533
83333.3330884821
83333.3329729005
83333.3328453916
83333.3327172451
83333.3325968559
83333.3324852488
83333.3323737729
83333.3330655227
83333.3330395703
83333.3329455575
83333.3331481551
83333.3331674415
83333.3331201432
83333.3332430634
83333.333231971
83333.3332119191
83333.3331828155
83333.3329171436
83333.3330075949
83333.3330872478
83333.3331491277
83333.3328189528
83333.3326963376
83333.3327924907
83333.3328833734
83333.3329708228
83333.3330410553
83333.3330988879
83333.3329691287
83333.3328422607
83333.3330845798
83333.3331796664
83333.3327143272
83333.3332492609
83333.3325935228
83333.3327607791
83333.3328421156
83333.3326755972
83333.3325825325
83333.3329238951
83333.3324810254
83333.3332005769
83333.3332274358
83333.3332506983
83333.3332700327
83333.3332847566
83333.3332913894
83333.3332941768
83333.3332959036
83333.3330890675
83333.3329396402
83333.3328995374
83333.3328545287
83333.3327865594
83333.332725289
83333.332654155
83333.3325704523
83333.3324755388
83333.3323705735
83333.3333172018
83333.3333100557
83333.333316715
83333.333319902
83333.3333218934
83333.3333222734
83333.3333221238
83333.3333220247
83333.3333219199
83333.3332965884
83333.3332528565
83333.3331877549
83333.3330985124
83333.3329880935
83333.3328630575
83333.3327323026
83333.3326046222
83333.3324850502
83333.3323719812
83333.3322578881
83333.3330790841
83333.3329635593
83333.3330566287
83333.3329367082
83333.3330266305
83333.3328368706
83333.3331350618
83333.3331592536
83333.3331749939
83333.3331027943
83333.3332460609
83333.3332370922
83333.3332208141
83333.3331943381
83333.3331665489
83333.3329038346
83333.3328095073
83333.3329906145
83333.333064314
83333.3331117309
83333.3327086646
83333.3325869987
83333.3326851123
83333.3327767432
83333.3328635402
83333.3329437334
83333.3329836842
83333.3331289625
83333.3329843965
83333.3328599262
83333.3327297431
83333.3330947715
83333.3331847713
83333.3326020668
83333.3332510619
83333.3324820706
83333.332657204
83333.3327367654
83333.3328115664
83333.3325697597
83333.3324732505
83333.3328775888
83333.3323684978
83333.3332657976
83333.3332370195
83333.3332602534
83333.3332755315
83333.3332873156
83333.3332922329
83333.333294628
83333.3332960494
83333.3329482962
83333.3328298461
83333.3327838251
83333.3327948548
83333.3327454687
83333.3326932449
83333.3326297126
83333.3325520564
83333.332463015
83333.3323634143
83333.3322552278
83333.3333191777
83333.3333159648
83333.3333180429
83333.333320559
83333.3333220842
83333.3333222382
83333.3333219984
83333.3333218507
83333.3333217815
83333.3332964883
83333.3332539127
83333.3331911822
83333.3331058238
83333.333000083
83333.3328789545
83333.3327487455
83333.3326173178
83333.3324908033
83333.332371681
83333.33225691
83333.3321407973
83333.3330703075
83333.3329788441
83333.3330893535
83333.3328546906
83333.3329548856
83333.3330435507
83333.3328282341
83333.3329239781
83333.3330090365
83333.3327246847
83333.3331164897
83333.333146379
83333.3331671115
83333.333180237
83333.3330802952
83333.3332479998
83333.3332403798
83333.3332266963
83333.3332031967
83333.333176942
83333.3331290089
83333.3328857831
83333.3327959428
83333.332699296
83333.3329676018
83333.3330026049
83333.3331383345
83333.3325967073
83333.3324760551
83333.3325763831
83333.3326693405
83333.3327560526
83333.3328368073
83333.3328997258
83333.3329165679
83333.3329688176
83333.3329966247
83333.3328757438
83333.3327462448
83333.3326151611
83333.3331022634
83333.3331882645
83333.3324885089
83333.3332521467
83333.3323690176
83333.3326340542
83333.3325527402
83333.3327075677
83333.3327705325
83333.3324617865
83333.3323616914
83333.3328153447
83333.3322539473
83333.3332647311
83333.3332470931
83333.3332650453
83333.3332789606
83333.3332887199
83333.3332927928
83333.3332948311
83333.3332959527
83333.3328349173
83333.3327142176
83333.3326811359
83333.3327161227
83333.3327818572
83333.3327034709
83333.3326557398
83333.3326016359
83333.3325302228
83333.3324468304
83333.3323527522
83333.3322492893
83333.3321386837
83333.3333249825
83333.333316035
83333.333318416
83333.3333208059
83333.3333221974
83333.3333221248
83333.3333218389
83333.3333217185
83333.3333217702
83333.3332963145
83333.3332544616
83333.3331934499
83333.3331110907
83333.3330092987
83333.3328921519
83333.3327642391
83333.3326319527
83333.3325011971
83333.3323759165
83333.3322568091
83333.3321404091
83333.3320235462
83333.3330806159
83333.3330570565
83333.3329701471
83333.3329910082
83333.3328705104
83333.3330968622
83333.3327413794
83333.3328463063
83333.3329421847
83333.3330251138
83333.332716192
83333.3328155764
83333.3329063479
83333.3329858673
83333.3326104064
83333.3330923745
83333.3331270508
83333.3331544092
83333.3331725452
83333.3331838223
83333.3330209489
83333.333249195
83333.3332425847
83333.3332306703
83333.3332092826
83333.3331836763
83333.3331435457
83333.3331268128
83333.3328615684
83333.3327774951
83333.3326856029
83333.332587612
83333.3329237594
83333.3329226806
83333.3329543962
83333.332483488
83333.3323635226
83333.3324662451
83333.3325613314
83333.3326487761
83333.3327296933
83333.332797946
83333.3328463085
83333.3328000645
83333.3328277866
83333.3328889049
83333.3330059422
83333.3327616666
83333.3326298973
83333.3324992914
83333.333107601
83333.3331905706
83333.3323738285
83333.3332527199
83333.3322543848
83333.3326065447
83333.3325314409
83333.3324464694
83333.3326714789
83333.3327218237
83333.3323515683
83333.3322480913
83333.3327398571
83333.3321379406
83333.3332633342
83333.333250093
83333.3332677284
83333.333281051
83333.3332896278
83333.3332930445
83333.3332948007
83333.333295822
83333.3327225563
83333.3326215492
83333.3326091363
83333.3326399563
83333.3326964013
83333.3326502216
83333.3326189986
83333.332567614
83333.3325054727
83333.3324274001
83333.3323387397
83333.3322403021
83333.3321339839
83333.3320218475
83333.3333237159
83333.3333152774
83333.3333183651
83333.3333207397
83333.3333221226
83333.3333219532
83333.3333217083
83333.333321693
83333.3333217957
83333.3332962533
83333.3332546845
83333.3331948571
83333.333114763
83333.3330161572
83333.3329025475
83333.3327775932
83333.3326463237
83333.3325138061
83333.3323843097
83333.3322600956
83333.3321407173
83333.332023512
83333.3319068079
83333.3330671664
83333.3330881109
83333.3329821895
83333.3330377801
83333.3329572082
83333.3328620896
83333.3330002703
83333.3328836118
83333.3327567912
83333.3331022041
83333.3326253491
83333.3327331994
83333.3328338576
83333.3329242592
83333.333000297
83333.3327035079
83333.3326021178
83333.3327980113
83333.332882346
83333.3329429689
83333.3324948225
83333.3331008047
83333.3330394071
83333.3331345153
83333.3331600247
83333.3331762631
83333.3331861834
83333.3329331691
83333.3332498434
83333.3332439399
83333.3332332997
83333.3332132858
83333.3331879954
83333.333151429
83333.3331195827
83333.3329469234
83333.33275321
83333.3328244276
83333.3326671091
83333.3325741967
83333.3324748679
83333.3328612498
83333.3328039006
83333.332815332
83333.3323691813
83333.3322494409
83333.3323546019
83333.3324523319
83333.3325417898
83333.3326234294
83333.3326949616
83333.3327495744
83333.3327620095
83333.3327011726
83333.3327080592
83333.3328993422
83333.3327749515
83333.3330128162
83333.332644201
83333.3325120061
83333.3323825702
83333.3331112739
83333.3331919974
83333.3322581744
83333.3332529731
83333.3321385564
83333.3325740553
83333.3325063425
83333.3324273418
83333.3323380243
83333.3326307845
83333.332666599
83333.3322393122
83333.33213312
83333.3326619911
83333.3320214769
83333.3332590634
83333.3332521065
83333.3332688567
83333.333281878
83333.333290008
83333.3332930408
83333.3332947164
83333.3332958037
83333.3326211548
83333.3325494026
83333.3325453472
83333.3325819225
83333.3326141767
83333.3325945624
83333.3325770392
83333.332532583
83333.3324758657
83333.3324052794
83333.332321671
83333.3322282043
83333.3321263885
83333.3320173986
83333.3319048036
83333.3333235139
83333.3333149258
83333.3333181643
83333.3333205852
83333.3333219897
83333.3333217963
83333.3333216531
83333.3333217024
83333.3333218023
83333.3332962192
83333.3332547576
83333.3331956389
83333.3331171905
83333.3330210738
83333.3329104853
83333.332788461
83333.332659102
83333.3325266198
83333.3323949445
83333.3322669133
83333.3321436234
83333.3320242069
83333.3319071316
83333.3317867669
83333.3330470953
83333.3329688985
83333.3330744766
83333.3330934089
83333.3329912934
83333.3328750207
83333.3330110035
83333.3329386398
83333.3328494507
83333.3327486041
83333.3330070814
83333.3328939405
83333.3327699882
83333.3326396419
83333.3331058642
83333.3325077265
83333.332617372
83333.3327208398
83333.3328162766
83333.33289949
83333.3329580696
83333.3325896017
83333.3326859618
83333.3324868687
83333.3327743131
83333.3328456075
83333.3328752422
83333.3323783951
83333.3331063602
83333.3330516116
83333.3329446658
83333.3331396765
83333.3331638533
83333.3331786808
83333.3331876317
83333.3328099351
83333.3332446594
83333.3332501395
83333.3332348941
83333.3332157709
83333.333189982
83333.3331576024
83333.3331191111
83333.3329456747
83333.3328094664
83333.3326433859
83333.3327197615
83333.3327711134
83333.3325561976
83333.3324621319
83333.3323611836
83333.332771125
83333.3327017939
83333.3327016077
83333.3322539258
83333.3321342502
83333.3322414858
83333.3323420163
83333.3324343171
83333.3325180565
83333.3325921988
83333.3326523373
83333.3326866442
83333.3326730835
83333.3326137207
83333.3326130271
83333.3329072648
83333.3327857704
83333.3326568925
83333.3330176942
83333.3325247608
83333.3323932821
83333.332265305
83333.3331136639
83333.3331927829
83333.3321418793
83333.3332530558
83333.3320223697
83333.3324772628
83333.3325380007
83333.3324048507
83333.3323211443
83333.3322274553
83333.3325843794
83333.3326054158
83333.3321256461
83333.3320171734
83333.3325892447
83333.3319050376
83333.3332607703
83333.3332538213
83333.3332694747
83333.3332822292
83333.3332901472
83333.3332929253
83333.333294689
83333.3332957761
83333.3325448317
83333.3324877619
83333.3325248114
83333.3324805888
83333.3325427383
83333.3325418046
83333.3325310696
83333.3324951587
83333.3324438384
83333.3323794565
83333.3323020068
83333.3322135494
83333.332115612
83333.3320101404
83333.3318991032
83333.3317868972
83333.3333216791
83333.3333145807
83333.3333179102
83333.3333204506
83333.3333218181
83333.3333216921
83333.3333216257
83333.3333216832
83333.3333217851
83333.3332961506
83333.3332546917
83333.3331959765
83333.3331186445
83333.3330244037
83333.3329162965
83333.3327969116
83333.3326697466
83333.332538303
83333.332406017
83333.3322757758
83333.3321493235
83333.3320270307
83333.3319081534
83333.3317892688
83333.3316714634
83333.333018521
83333.3330537401
83333.3329495679
83333.3328620002
83333.3329776234
83333.3330795895
83333.3330969892
83333.3329979278
83333.3328851176
83333.3327616331
83333.3329682284
83333.3329126184
83333.3328313739
83333.3327361388
83333.3326316718
83333.3329017445
83333.3330118828
83333.3327806836
83333.332652235
83333.3325204612
83333.3331082199
83333.3323892588
83333.3325000281
83333.3326051878
83333.3327034425
83333.3327921386
83333.332862183
83333.3328870261
83333.3324748218
83333.3325723939
83333.3326628008
83333.3323709101
83333.3327411256
83333.3327896381
83333.3327817862
83333.332261446
83333.3331096787
83333.3330595652
83333.3329538624
83333.3328185004
83333.3331431349
83333.3331662934
83333.3331801197
83333.3331884103
83333.3327063696
83333.3332449497
83333.333235786
83333.3332502159
83333.3332173705
83333.3331911703
83333.333161096
83333.3331240186
83333.3329493287
83333.3328124847
83333.3327017452
83333.3325335303
83333.3326129653
83333.3326752346
83333.3327032229
83333.3324451371
83333.3323494111
83333.3322466475
83333.3326807917
83333.332615265
83333.3326127496
83333.3321380699
83333.3321273158
83333.3320186028
83333.3322302806
83333.332325821
83333.3324125737
83333.3324897807
83333.3325552314
83333.3326015982
83333.3326164581
83333.3325913852
83333.3325388782
83333.3325392206
83333.3327941673
83333.3329130009
83333.3326674638
83333.3325363531
83333.3330209574
83333.3324043066
83333.3322742124
83333.3321478466
83333.3331150603
83333.333193104
83333.3320254959
83333.3332529807
83333.3319065046
83333.3323789454
83333.3324451549
83333.3324982439
83333.332301254
83333.3322128581
83333.3321151818
83333.3325340616
83333.3325427771
83333.3320104297
83333.3319003327
83333.3325216194
83333.3317883855
83333.333253815
83333.3332551929
83333.3332698284
83333.3332824232
83333.3332900133
83333.3332928049
83333.3332946192
83333.3332956489
83333.3324843404
83333.3324410588
83333.3324861151
83333.3324636987
83333.3324313571
83333.3324788992
83333.3324836653
83333.3324551444
83333.3324095405
83333.332350932
83333.3322794179
83333.3321963723
83333.3321036248
83333.3320005167
83333.3318925624
83333.3317832843
83333.3316720118
83333.3333207296
83333.3333142124
83333.3333177088
83333.3333202938
83333.3333216124
83333.333321599
83333.3333215745
83333.3333216397
83333.3333217471
83333.333295994
83333.3332544767
83333.3331959476
83333.3331193334
83333.3330264376
83333.3329202758
83333.3328031498
83333.3326781448
83333.332548201
83333.3324162963
83333.3322851097
83333.3321566679
83333.332031941
83333.3319108664
83333.331792256
83333.3316742267
83333.331565361
83333.3330235933
83333.3329221815
83333.3329749362
83333.3330583104
83333.3329575514
83333.3328432123
83333.3328716452
83333.33274883
83333.3329838844
83333.3330829641
83333.3330992326
83333.3330025387
83333.3328926674
83333.3327720815
83333.3326441082
83333.3328954133
83333.3328741411
83333.3328062735
83333.3327183889
83333.3326194258
83333.3325127531
83333.3327889377
83333.3329073594
83333.3330150546
83333.3326626715
83333.3325319478
83333.3324002444
83333.3331095612
83333.3322704624
83333.3323819471
83333.3324882312
83333.3325881575
83333.3326799997
83333.3327583089
83333.3328044419
83333.332791737
83333.3323596
83333.3324583822
83333.3325501235
83333.3326323448
83333.3322545352
83333.3326952467
83333.3327187848
83333.3326889133
83333.3321443294
83333.3331117902
83333.333064611
83333.332959757
83333.3328258266
83333.332713364
83333.3331453125
83333.3331676904
83333.3331808342
83333.3331886946
83333.332619217
83333.3332449828
83333.3332360954
83333.3332183325
83333.3332500956
83333.333192153
83333.3331630048
83333.3331197979
83333.3329540388
83333.3328188809
83333.3327077605
83333.3326163114
83333.3324240082
83333.3325056604
83333.332574924
83333.3326209754
83333.3326301839
83333.3323338073
83333.3322359946
83333.3321315698
83333.3325984682
83333.3325420701
83333.332541456
83333.3320221239
83333.3320124989
83333.3321174399
83333.3319029759
83333.3322160471
83333.3323063132
83333.3323871101
83333.3324572431
83333.3325127316
83333.332545842
83333.3325479607
83333.3325205587
83333.3324780855
83333.3324815895
83333.3328003404
83333.3326757935
83333.3329168896
83333.3325461693
83333.3324144947
83333.3330229124
83333.3322835058
83333.3321552077
83333.3320305955
83333.3331156772
83333.3331930416
83333.3319095244
83333.3332527293
83333.3317911249
83333.3323503529
83333.3322784233
83333.3324101821
83333.332455707
83333.3321956105
83333.3321028878
83333.3320013207
83333.3324817495
83333.332482541
83333.3318943416
83333.3317850902
83333.332461024
83333.3316740007
83333.3332504203
83333.333256091
83333.3332700454
83333.3332823902
83333.3332896296
83333.3332925978
83333.3332944277
83333.3332954261
83333.3324387721
83333.3324073917
83333.3324337244
83333.3324309241
83333.3324141938
83333.3323969982
83333.3324305662
83333.3324136446
83333.3323735118
83333.3323201358
83333.3322543163
83333.3321767779
83333.3320888332
83333.3319920134
83333.3318858555
83333.3317789062
83333.331671423
83333.3315634473
83333.3333206409
83333.3333139485
83333.3333175182
83333.3333201186
83333.3333214221
83333.3333214696
83333.3333215088
83333.3333215791
83333.333321689
83333.333295742
83333.3332540844
83333.3331955863
83333.3331193853
83333.3330274065
83333.3329226883
83333.3328074213
83333.3326843748
83333.3325560712
83333.332425082
83333.3322938414
83333.3321643627
83333.3320379704
83333.3319151211
83333.3317953427
83333.3316779947
83333.3315654888
83333.3314585872
83333.3330269394
83333.3329288961
83333.3329792655
83333.3328169736
83333.3328824405
83333.3329007559
83333.3329631445
83333.3330612247
83333.3328520997
83333.3327304674
83333.3328787327
83333.3327588333
83333.3326315677
83333.3329881318
83333.3330849824
83333.3331004351
83333.3330055094
83333.3328980217
83333.3327800531
83333.3326543009
83333.3325240823
83333.3327991425
83333.3328150076
83333.3327712854
83333.3326941902
83333.3326021284
83333.3325008813
83333.332392884
83333.3327949567
83333.3326708465
83333.3329111183
83333.3330169056
83333.3325416228
83333.3324103157
83333.3322796924
83333.3331101047
83333.3321517548
83333.332263639
83333.3323707636
83333.332471891
83333.3325656724
83333.3326488221
83333.33271097
83333.332731548
83333.3326969521
83333.332344288
83333.3322441453
83333.3324374431
83333.3325220556
83333.3325930935
83333.3321380573
83333.3326382515
83333.3326429373
83333.3326055348
83333.3320274253
83333.3330673688
83333.3331130866
83333.3329615411
83333.3328304412
83333.3327194212
83333.3326248625
83333.3331465079
83333.3331682899
83333.3331810188
83333.3331885686
83333.3325450823
83333.3332447698
83333.3332359619
83333.3332187188
83333.333192842
83333.3332497747
83333.3331642788
83333.3331182411
83333.3329534961
83333.3328236515
83333.3327149253
83333.3326228811
83333.332545269
83333.3323986611
83333.3323145687
83333.3324723202
83333.3325297828
83333.3325612611
83333.3325588732
83333.3322220086
83333.3321220813
83333.332016373
83333.3325264164
83333.332481082
83333.332483758
83333.3319065281
83333.3318976351
83333.3320039337
83333.3321051571
83333.3317883379
83333.3321989431
83333.332283649
83333.3323583202
83333.3324206895
83333.3324664429
83333.3324891488
83333.3324852441
83333.3324607463
83333.3324301837
83333.3324369067
83333.3328045396
83333.3326819514
83333.3325539636
83333.3329192289
83333.3324231945
83333.3322921463
83333.3330237944
83333.3321628604
83333.3320366279
83333.3319138958
83333.3331156496
83333.3331926317
83333.3317942682
83333.3332522914
83333.3316772298
83333.3323194382
83333.3322531683
83333.3321758053
83333.3323731499
83333.3324115738
83333.3320881492
83333.3319917501
83333.3318875102
83333.3324302581
83333.3324282298
83333.331780675
83333.3316727324
83333.3324131043
83333.3315642397
83333.3332504673
83333.333256769
83333.3332700451
83333.3332821483
83333.3332891398
83333.3332922323
83333.3332941497
83333.3332951295
83333.3324055928
83333.33238501
83333.3323704885
83333.3323849408
83333.3323847538
83333.3323788419
83333.3323749376
83333.3323961535
83333.3323367419
83333.3322878352
83333.3322271518
83333.3321549187
83333.3320719995
83333.3319798925
83333.3318786741
83333.3317742919
83333.331668749
83333.3315624927
83333.3314570502
83333.3333205795
83333.3333137341
83333.3333173166
83333.3333199333
83333.3333212849
83333.3333213449
83333.333321428
83333.3333215013
83333.3333216112
83333.3332954019
83333.333253513
83333.3331949024
83333.3331188823
83333.3330274726
83333.3329237812
83333.3328099673
83333.3326885976
83333.3325618832
83333.3324320552
83333.3323012873
83333.3321715095
83333.3320441488
83333.3319199829
83333.3317991153
83333.3316811391
83333.3315670039
83333.3314580832
83333.3329817961
83333.3329334144
83333.3330289396
83333.3328247439
83333.3328880161
83333.3329040618
83333.3327053027
83333.3327806998
83333.3328221188
83333.3328040377
83333.3329667957
83333.3328584625
83333.3330628393
83333.3327397606
83333.3326137418
83333.3327663236
83333.3328836378
83333.3326413415
83333.3325119298
83333.332990751
83333.3330859407
83333.3330071528
83333.3331008229
83333.3329015196
83333.3327857773
83333.3326621879
83333.3325335162
83333.332402782
83333.3327031664
83333.3327406107
83333.3327225074
83333.3326619105
83333.3325790222
83333.3324842813
83333.332381573
83333.3322727709
83333.332676838
83333.3327989956
83333.3325492567
83333.3329133162
83333.3330176749
83333.3324188675
83333.3322882015
83333.3321593176
83333.3331099879
83333.3320334811
83333.3321454894
83333.3322532475
83333.3323554166
83333.3324507078
83333.33253689
83333.3326081594
83333.332651834
83333.3326531839
83333.3326117791
83333.3323250236
83333.3322301942
83333.3321286755
83333.3324117823
83333.3324875967
83333.3325456322
83333.3320218031
83333.3325751798
83333.3325687692
83333.3325314704
83333.3319110613
83333.333068576
83333.332963188
83333.3331137123
83333.3328329482
83333.3327229437
83333.3326289814
83333.3325483382
83333.3331469199
83333.3331682917
83333.3331807633
83333.3331880738
83333.3324822742
83333.3332442821
83333.3332355494
83333.3332186504
83333.3331930326
83333.3331650433
83333.3332492634
83333.3331193266
83333.3329540531
83333.3328253234
83333.3327191158
83333.3326280209
83333.332549397
83333.3324850543
83333.3323692175
83333.3322918094
83333.3322048674
83333.3324339037
83333.332480007
83333.3325005343
83333.3324931578
83333.3321097646
83333.3320080359
83333.3319014975
83333.3324648777
83333.3324313059
83333.332436907
83333.3317917454
83333.3317840131
83333.3318905879
83333.3319936301
83333.3320904043
83333.3316753666
83333.3321790973
83333.3322582411
83333.3323265505
83333.3323813613
83333.3324187706
83333.3324348526
83333.3324300292
83333.3324127156
83333.3323948866
83333.3324035348
83333.3328070114
83333.3326860977
83333.3325596985
83333.3324300874
83333.332920249
83333.3322995036
83333.3321699155
83333.3330237704
83333.3320427524
83333.3319187589
83333.3317980244
83333.3331150617
83333.3331918949
83333.3316802333
83333.3332516747
83333.3315660613
83333.3322869562
83333.3322259724
83333.3321537388
83333.3320712106
83333.3323351523
83333.3323677993
83333.3319793746
83333.3318795844
83333.3317755247
83333.3323828476
83333.3323834864
83333.3316696542
83333.3315629816
83333.3323780767
83333.3314570394
83333.3332512622
83333.3332570228
83333.3332698535
83333.3332817439
83333.3332887689
83333.3332917861
83333.3332938121
83333.3332947597
83333.3323834051
83333.3323716906
83333.3322994206
83333.3323282718
83333.3323432306
83333.3323508092
83333.3323563471
83333.3323621279
83333.3323734861
83333.3322551243
83333.3321986215
83333.3321312343
83333.3320530919
83333.3319655742
83333.3318697316
83333.3317662491
83333.3316643972
83333.3315603608
83333.3314557476
83333.3333204153
83333.3333134852
83333.3333171151
83333.3333197409
83333.333321167
83333.3333212157
83333.3333213296
83333.3333214054
83333.3333215155
83333.3332949835
83333.3332527706
83333.333193914
83333.3331178733
83333.3330267543
83333.3329237362
83333.3328110044
83333.3326909993
83333.3325657141
83333.3324371062
83333.3323071011
83333.3321774928
83333.3320497298
83333.3319247527
83333.3318029519
83333.3316843172
83333.3315689779
83333.3314582469
83333.3329829545
83333.3329063519
83333.3328915099
83333.3328300964
83333.3329361816
83333.3330298708
83333.3327135895
83333.3327872636
83333.3328269123
83333.3328073274
83333.3326718057
83333.3325897943
83333.332730597
83333.3327466969
83333.3327072644
83333.3329688803
83333.3328626977
83333.3327465312
83333.3330634244
83333.3326228607
83333.3324948377
83333.3326487546
83333.3327715666
83333.3328867086
83333.3325209622
83333.3323911756
83333.3329920536
83333.3330860693
83333.3330077122
83333.3329034599
83333.3331005357
83333.3327895218
83333.3326678734
83333.3325408634
83333.3324110881
83333.3322810814
83333.332616318
83333.3326604587
83333.3326616671
83333.3326197886
83333.332549233
83333.3324625222
83333.3323659171
83333.3322621819
83333.3321529048
83333.3326808127
83333.3325548206
83333.3328013058
83333.3324255962
83333.3329141917
83333.3330175325
83333.3322954027
83333.3321662268
83333.3320394937
83333.3331092996
83333.3319159099
83333.3320277994
83333.3321359936
83333.3322391078
83333.3323358144
83333.3324243451
83333.3325011146
83333.3325586755
83333.3325861545
83333.3325765583
83333.3325358472
83333.3322128019
83333.3323018469
83333.3321161764
83333.3320134398
83333.3323813323
83333.3324472525
83333.3324928656
83333.3319060741
83333.3325110429
83333.3325001592
83333.3324679245
83333.3317955348
83333.3330688577
83333.3329645046
83333.3328349481
83333.3331136793
83333.3327250582
83333.3326310903
83333.3325503869
83333.3324834022
83333.3331467333
83333.3331678315
83333.3331801082
83333.3331872445
83333.3324309587
83333.3332435964
83333.3332350113
83333.3332182542
83333.3331928069
83333.3331650474
83333.3331207596
83333.3332485798
83333.3329548807
83333.3328268253
83333.332720917