/*--------------------------------*- C++ -*----------------------------------*\
  =========                 |
  \\      /  F ield         | OpenFOAM: The Open Source CFD Toolbox
   \\    /   O peration     | Website:  https://openfoam.org
    \\  /    A nd           | Version:  12
     \\/     M anipulation  |
\*---------------------------------------------------------------------------*/
/*   Windows 32 and 64 bit porting by blueCAPE: http://www.bluecape.com.pt   *\
|  Based on Windows porting (2.0.x v4) by Symscape: http://www.symscape.com   |
\*---------------------------------------------------------------------------*/
FoamFile
{
    format      ascii;
    class       surfaceScalarField;
    location    "200";
    object      phi;
}
// * * * * * * * * * * * * * * * * * * * * * * * * * * * * * * * * * * * * * //

dimensions      [0 3 -1 0 0 0 0];

internalField   nonuniform List<scalar> 
29052
(
3.27903953276367e-07
-1.39454861413446e-06
6.71660647766251e-05
1.75205821533307e-05
-1.33563145371864e-06
-2.8223549749091e-07
-3.61915604568661e-07
-6.72690547285616e-07
1.7906810034781e-05
3.75426088086818e-06
-2.48406373942015e-06
6.5895863996087e-05
-1.95014057505451e-06
-3.46117107328511e-07
2.35710983874576e-05
1.17688001205181e-05
-3.52549358883032e-06
-2.54517919970619e-07
1.76710100317253e-05
-9.83526297472047e-07
-7.13983669543905e-07
-2.30943821656963e-07
-6.57067847773868e-07
1.10964592310437e-05
4.33542804757191e-07
-1.91854581434089e-06
1.69077473563967e-05
6.36845208161621e-06
-2.93913738336564e-06
6.24665375364942e-05
1.8223465287705e-05
-2.29158947104742e-06
2.22532103518894e-07
-1.84407812333726e-06
-3.06507712960481e-06
1.63318279566945e-05
-3.23556005308607e-06
1.59925823068044e-06
3.15758489395543e-05
1.27500352326922e-05
-4.93367494631611e-06
-1.6581355745589e-07
1.78294356329696e-05
-2.0566932635002e-06
-8.64692366810003e-07
1.29034791517418e-05
-5.89344491712664e-07
-7.05042348260261e-07
-3.24253572411196e-08
-1.60179600094559e-07
9.07439462826283e-06
1.75738843711948e-07
-1.08450455557636e-06
1.00866777412229e-05
9.67339932854988e-07
-2.06956590021502e-06
1.50708317934254e-05
8.48355320064311e-06
-2.29439685767486e-06
5.62773759042834e-05
-2.65702069416406e-06
1.00444554024577e-06
1.76078122368583e-05
1.20737161230996e-05
1.98605016663487e-07
-1.48469615902169e-06
1.92627631031371e-05
-2.53515345128917e-06
-5.19723554029837e-07
-1.76162596544811e-06
-4.89348111737798e-06
1.634006614394e-05
-3.22488254660608e-06
-1.60274987654126e-06
2.27587159502326e-05
-3.55511572576359e-06
4.88936624102548e-06
3.87251348343271e-05
1.32681194107149e-05
-6.60531298123062e-06
-2.89574724530826e-07
1.87864452207756e-05
-3.09957893139254e-06
-8.84459248299461e-07
1.40383605452051e-05
-1.26938332559705e-06
-7.54930883773993e-07
1.07205772560998e-05
-3.10128163523998e-07
-3.71864344275636e-07
-5.36652883061964e-08
-2.1781258537541e-07
7.71229864744707e-06
2.08116905888637e-07
-5.41130318225016e-07
8.32290484018078e-06
3.90498260086674e-07
-1.35008344412774e-06
8.97669652134524e-06
1.10345375282182e-06
-1.83523796623871e-06
1.35082163596008e-05
8.30120084403683e-06
-1.47329319697328e-06
4.9449469941053e-05
5.721753077411e-07
-1.85806882511349e-06
1.10930814796757e-05
-3.1106631326457e-06
1.95482850280724e-05
6.0469845273333e-07
-2.49185505658337e-06
1.26927955702314e-06
1.63787218157203e-05
1.36056952970124e-05
-3.13390400195044e-08
-1.87254746703148e-06
1.00290258001498e-05
2.89679187989016e-07
-8.74707256946754e-07
2.08190306526498e-05
-2.9167985767391e-06
-1.39713512199033e-06
-1.74277069851862e-06
-6.69590842026388e-06
1.68133161704665e-05
-3.10587224693803e-06
-3.8705618337364e-06
2.17137425810332e-05
-4.08222641150486e-06
1.21845057606381e-06
3.05118494132529e-05
-2.83932806554139e-06
7.82433771379669e-06
4.20413161134269e-05
1.51151880723626e-05
-6.18348607731658e-06
-9.3384861034654e-08
1.9442258246254e-05
-4.08495470017382e-06
-1.07235568608022e-06
1.57286893709329e-05
-2.05924515921177e-06
-8.78341268400215e-07
1.19086506545307e-05
-7.81011625086199e-07
-5.41933446126789e-07
9.19939381290785e-06
-2.31976919196995e-07
-2.70244408487662e-07
9.78165163332764e-09
-9.95497727080334e-08
7.16404959246292e-06
1.29988660218417e-07
-4.17590620025295e-07
7.45877013839425e-06
3.34585693823214e-07
-8.88853243934404e-07
7.52708783052635e-06
3.46496540293353e-07
-1.32953918340817e-06
8.12449980589506e-06
1.22587822317564e-06
-1.49128579511154e-06
1.23003278045071e-05
6.85574518906509e-06
-7.94293866082893e-07
4.33880186964953e-05
-2.31963690344126e-06
1.28592550745505e-05
5.27584091283319e-07
5.67230061074392e-07
9.20544201271074e-06
-1.26713092941769e-06
5.04415888764557e-07
-1.80073547017409e-06
1.0244040044291e-05
-3.02940864365143e-06
1.86439155253476e-05
1.12082530840488e-06
-3.67839013741092e-06
2.20277211017061e-05
-3.14793495700955e-08
-2.06784383324633e-06
1.7528471395657e-06
1.50802654294129e-05
1.55817723322042e-05
-3.9627258276882e-07
-2.40495104146126e-06
1.13897314788461e-05
1.99540752937818e-07
-1.26349259414424e-06
8.86971892451088e-06
1.97807117850236e-07
-6.12851282853674e-07
2.2253863444325e-05
-3.31716099944745e-06
-2.63435767708734e-06
-1.42859474608546e-06
-7.1266745649217e-06
1.69745541738295e-05
-2.93244645741271e-06
-6.04934848589511e-06
2.19245435108901e-05
-4.28843557466218e-06
-1.55366495864814e-06
2.87742834564758e-05
-3.99643666968998e-06
5.79291316779401e-06
3.65397003858818e-05
-1.74016023665105e-06
8.7508540542715e-06
4.18863555730567e-05
2.45187431376465e-05
-4.52772536858152e-08
-5.68850375242868e-08
2.12873072006679e-05
-4.20379291436459e-06
-1.21885019952145e-06
1.73856041379316e-05
-3.06052592711954e-06
-1.08512288643047e-06
1.35334946309706e-05
-1.38979207670612e-06
-7.20581041378565e-07
1.0648299682577e-05
-5.31186258152376e-07
-3.59273569207739e-07
8.3297111263077e-06
-1.25086494872917e-07
-1.84408256323574e-07
3.98543921672421e-08
-9.99804112657739e-08
6.67448236927569e-06
1.52977649953217e-07
-2.96785460344526e-07
6.89026651146715e-06
2.93300058380836e-07
-6.23684645907619e-07
6.90030100901881e-06
2.63160009384095e-07
-9.65516747124132e-07
6.89990458943947e-06
3.49537161137853e-07
-1.17783344641293e-06
7.46150887101823e-06
1.22255708224016e-06
-1.06209562515941e-06
1.13455707724218e-05
5.22975941522768e-06
-2.70037191659199e-07
3.84282982512997e-05
-1.66668060724326e-06
6.34435882756237e-07
1.06695677743463e-05
-2.24216383868517e-06
1.20068169688626e-05
5.69603680614859e-07
-2.90517522998829e-06
1.50078845311633e-05
3.28253721333533e-07
4.59201725122891e-07
-1.30950771554052e-06
8.51817108313704e-06
5.05211373333967e-07
8.26822514541982e-06
-8.77550510853213e-07
6.27444708157535e-07
-1.56518279335476e-06
9.46347044586967e-06
-2.66068508086858e-06
1.7146811827307e-05
1.91418535194631e-06
-3.69259195061262e-06
2.16072711332453e-05
9.45418000266695e-07
-4.26149523284656e-06
2.44436466734667e-05
-8.92212471397896e-07
-1.49426587879767e-06
2.07951737951694e-06
1.39774035116658e-05
1.7848965524223e-05
-1.14594670648626e-06
-3.03084977162125e-06
1.30314076280736e-05
5.20925638275026e-08
-1.75541493237811e-06
1.01904380116478e-05
2.1911435406396e-07
-8.26939742668e-07
8.07908093069625e-06
2.2519720215703e-07
-4.34441463973316e-07
2.45929970203635e-05
-3.50259885288773e-06
-3.8660308682584e-06
-1.20263348148251e-06
-2.59272618901924e-06
2.11874495427245e-05
-2.91263295700148e-06
-7.85167508558537e-06
2.16895151566813e-05
-4.42504066698201e-06
-3.98836267314234e-06
2.87842720690372e-05
-4.85366551170298e-06
3.89600051481151e-06
3.55248439793986e-05
-2.83481259388379e-06
8.98484258886433e-06
3.91405208982328e-05
-8.64297322504127e-07
8.03894411444984e-06
3.99414593846188e-05
7.42043420453025e-05
5.63281259472016e-06
-2.12169998606056e-06
3.02830130484459e-05
-1.04488483441625e-07
-9.96793973833358e-07
1.93582057280508e-05
-4.41426406675444e-06
-1.45520180220469e-06
1.5348183378656e-05
-2.28282689801161e-06
-8.92488139277058e-07
1.22682782351353e-05
-9.82170030667662e-07
-5.2149667869893e-07
9.48402117562519e-06
-4.13696140582235e-07
-2.35047048889982e-07
7.68988278480582e-06
-6.50301546899198e-08
-1.37024873146165e-07
6.63171528470359e-08
-4.64591894985373e-08
6.30795411002357e-06
1.69334609824794e-07
-2.1226571284964e-07
6.4206277836465e-06
2.73939743586358e-07
-4.36285700957449e-07
6.42892743792885e-06
2.44139424344688e-07
-6.9339002799243e-07
6.38403459585569e-06
2.36198793315511e-07
-8.96960031681144e-07
6.38283230486766e-06
3.91387117525962e-07
-9.2285422470505e-07
6.93087935023958e-06
1.13384486520825e-06
-6.52125935838674e-07
1.05938118327581e-05
3.89467359308302e-06
1.91569374115114e-08
3.45144632799407e-05
9.5391602778407e-06
-1.15164939035103e-06
6.41454366189568e-07
-2.15935186988461e-06
1.22989507325379e-05
6.21067756250016e-07
-1.65218627315108e-06
5.92113119253851e-07
9.94667687561644e-06
-1.94337777178718e-06
1.10890587263402e-05
8.2789316928159e-07
-2.78326603601466e-06
1.40846553370738e-05
5.83500707402522e-07
-3.59307310411822e-06
1.75213936151629e-05
-1.2594446334235e-08
4.4057733638885e-07
7.69377530801346e-06
-9.31496356594657e-07
4.60209422825231e-07
-1.1783149662411e-06
7.90729082756545e-06
4.6642079769938e-07
7.60568580125547e-06
-5.9663789635119e-07
7.96106122618443e-07
-1.22342674916049e-06
8.7879100733811e-06
-2.01361427630801e-06
2.65838712039744e-06
1.57467316825849e-05
-3.35196210165296e-06
1.99510302225931e-05
2.06870474103437e-06
-4.49608862561977e-06
2.46356093022769e-05
8.24488078469154e-07
-4.96715536728226e-06
2.8093609671637e-05
-2.33829561630318e-06
-9.5585393661027e-07
2.11473208917553e-06
1.3088068096354e-05
2.18355798726606e-05
-3.23969482662223e-06
-3.88620791058866e-06
1.49565529078821e-05
-2.74157181198273e-07
-2.31296777424031e-06
1.16914085195531e-05
2.13792247855012e-07
-1.17322329318392e-06
9.2636577939043e-06
1.62966696382184e-07
-5.44348106212265e-07
7.47057419458378e-06
2.47657939798908e-07
-2.93457799901993e-07
3.13943519915926e-05
-2.56594147148478e-06
-3.61401271270901e-06
-1.45869628317177e-05
1.05890230928364e-05
7.56096353446591e-05
-3.08370275253159e-06
-8.74806475475381e-06
2.51675691605764e-05
-5.15289857035471e-06
-5.63282983292045e-06
2.84868757869802e-05
-5.5547703791821e-06
2.19671359425941e-06
3.6038309153178e-05
-4.02058212366167e-06
9.27439634884914e-06
3.92558545260517e-05
-1.60377043012472e-06
9.54913851526901e-06
3.92340771359945e-05
-3.10319981046414e-07
6.76187096754209e-06
3.73845793858547e-05
0.000130249388734791
-3.40678644161916e-06
6.61216262343443e-05
8.65261686065383e-06
1.21086748446355e-07
2.15373316050154e-05
-4.51832042866662e-06
-1.78981902620124e-06
1.81784837879976e-05
-4.0761817856622e-06
-1.06528909303598e-06
1.39482022827131e-05
-1.71193638330479e-06
-6.34595550026519e-07
1.12082299088272e-05
-7.45802418873519e-07
-2.96082335451997e-07
8.7001089812192e-06
-3.23641871032069e-07
-1.52742410621282e-07
7.2241897622577e-06
-8.71210431444503e-09
-8.03476628336749e-08
8.57373159356203e-08
-1.30440579231133e-08
6.0236125395751e-06
1.77642581901028e-07
-1.26088518346464e-07
6.04413373513798e-06
2.56356725136251e-07
-2.90674689004201e-07
6.01865916685498e-06
2.23752826357366e-07
-4.80893517231191e-07
5.99267749805901e-06
2.15936770233719e-07
-6.57010807849969e-07
5.92814762410073e-06
2.54227387030147e-07
-7.34490596996855e-07
5.94024119556115e-06
4.15351463139344e-07
-6.44100709101032e-07
6.50750324677573e-06
9.95309049013246e-07
-3.34753660259532e-07
9.95241416583287e-06
2.93019790244923e-06
1.86856724962955e-07
3.13974094822444e-05
8.88938487910891e-06
-1.16981122698576e-06
6.07976122273078e-07
8.75099478917611e-06
-7.68017572110278e-07
5.95450106748235e-07
1.09024402912648e-05
-1.4985789124617e-06
7.69648889817755e-07
-2.05973670681235e-06
1.14634938778819e-05
7.04035365258319e-07
-2.69961194209067e-06
1.40660596594014e-05
6.18096091373792e-07
-1.44170370560602e-06
6.67756553964288e-07
9.23745266235307e-06
-1.52240544211024e-06
1.02423509470597e-05
1.15160127660926e-06
-2.40176701521639e-06
1.29374920918297e-05
1.02485271130874e-06
-3.4317448765475e-06
1.63668171619058e-05
6.7372449018451e-07
-4.68392956461696e-06
2.27565694255323e-05
-1.21681018708478e-06
4.20794598858246e-07
7.16718457478796e-06
-8.56582922098396e-07
4.10935009541564e-07
7.12231841818562e-06
-6.35312503994097e-07
5.28745753901743e-07
-9.57513594784883e-07
7.36685811534056e-06
4.35102277296236e-07
7.08204503682902e-06
-3.8685515929898e-07
8.8831609770827e-07
-8.72019540128575e-07
8.23110988162417e-06
-2.66850233342665e-06
3.23566708679497e-06
1.80216514086635e-05
-1.32681195572385e-06
2.91242161733431e-06
1.46720733099837e-05
-4.19445792594962e-06
2.28226453325221e-05
2.52132672803448e-06
-5.89502573212928e-06
2.88316863123297e-05
8.28523123493767e-07
-4.63252294835982e-06
3.37699332304176e-05
-5.37454973810407e-07
1.9695710993286e-06
1.23409350751951e-05
2.89435774584023e-05
-9.21159034782179e-06
-4.00026184721074e-06
1.90402845659525e-05
-1.96742842557868e-06
-3.05473807865531e-06
1.3240991258477e-05
1.73984821935546e-07
-1.56594835720523e-06
1.06595901965912e-05
2.24688297335646e-07
-6.86307913638062e-07
8.56291215253181e-06
1.96341363281903e-07
-3.5583287776313e-07
7.01316163965513e-06
2.68169276735002e-07
-1.72957818469169e-07
4.23945963992006e-06
2.37403961868128e-05
-1.03667882916758e-05
0.000151205400602375
-1.42108260173899e-06
7.04786960255664e-05
-6.82561978711944e-06
-1.88519322799516e-06
2.82455655039516e-05
-6.81144808516701e-06
1.34315551097633e-06
3.61518568457791e-05
-5.19366792234084e-06
1.01907351082355e-05
4.03156074029231e-05
-2.50573741848416e-06
1.11020665156167e-05
4.02086392725814e-05
-7.67811447325538e-07
8.7688115224894e-06
3.79949360724382e-05
1.87580679246663e-08
5.5159241399136e-06
3.47800875907824e-05
0.00011596308027214
7.55923646710303e-06
3.73077230385205e-05
1.64857988526247e-05
-3.23664571283011e-06
1.93551707722403e-05
-7.68478186258987e-06
-8.95921833451326e-07
1.65256820732084e-05
-3.2561378149958e-06
-6.45492543366548e-07
1.27146127467058e-05
-1.32421428579849e-06
-3.7457245070609e-07
1.00433030539988e-05
-6.46634486375205e-07
-1.63131365516573e-07
8.15645832260197e-06
-2.34608251728416e-07
-8.31397251174645e-08
6.88319958482589e-06
3.33965663603445e-08
-2.5210882932585e-08
9.99243246347574e-08
2.96825732911387e-08
5.81660764609813e-06
1.84686684273217e-07
-4.88648383710526e-08
5.76170138979785e-06
2.38991867403935e-07
-1.70130383199723e-07
5.68459727899911e-06
2.02623694331149e-07
-3.11782591912118e-07
5.64692403978341e-06
1.98194827259638e-07
-4.54904030829028e-07
5.59237560191579e-06
2.17748323692017e-07
-5.48178278318694e-07
5.52408680652038e-06
2.70712168269713e-07
-5.41132554935527e-07
5.56656100800053e-06
4.16562418455163e-07
-4.01630425154156e-07
6.1578165251392e-06
8.56944686964389e-07
-1.1067914889081e-07
9.39300320790124e-06
2.24719969886804e-06
2.68444463873267e-07
2.8881764383561e-05
-1.03681229712154e-06
6.27721060825495e-07
8.27756536289628e-06
8.18965333876027e-06
5.91233821255413e-07
-7.88770051600244e-07
1.00851836364417e-05
-1.44385651938425e-06
8.09350138812579e-07
8.15916455272873e-06
-4.88356834901538e-07
5.59187694840844e-07
9.95076858796245e-06
-9.6935488704204e-07
7.75046821841103e-07
1.21879135101245e-05
-1.87320562850795e-06
9.96320482877646e-07
-1.74493890765209e-06
1.05865742486905e-05
8.87844050002689e-07
-2.49176773027834e-06
1.29149920701937e-05
9.15121042306718e-07
-3.49321037201329e-06
1.80570294077643e-05
4.10635719469428e-07
-1.15365474034442e-06
8.07381670824867e-07
8.59006342003638e-06
-1.09207150278147e-06
9.54652704110504e-06
1.34939659381588e-06
-1.8920744211012e-06
1.17928623636542e-05
1.51979711387438e-06
-2.9422199126519e-06
1.47018329463294e-05
1.43758763551535e-06
-4.55958654850341e-06
2.0720012396562e-05
1.37483103439827e-06
-5.24641387024903e-06
3.6611630042914e-05
-8.27095825083893e-06
4.4588520062433e-07
-7.10529269679269e-07
6.69206273251258e-06
3.8820227946616e-07
6.66525056619252e-06
-5.89523175913965e-07
3.7915585597896e-07
6.67722916773467e-06
-4.07029578324102e-07
5.82824001627481e-07
-7.16842642431461e-07
6.89957006298384e-06
4.12592349924611e-07
6.67676072481049e-06
-2.24056115942665e-07
9.08725516663301e-07
-5.68866196532496e-07
7.77035933478191e-06
-3.44468181081443e-06
2.011788625624e-05
4.19141516307225e-06
-1.83000613766372e-06
3.72979772728583e-06
1.65285264672251e-05
-7.81250447476493e-07
2.83352917755981e-06
1.38215439081995e-05
-5.75393311759727e-06
2.59964854862895e-05
4.29898072894546e-06
-7.19285650203508e-06
3.49050603848427e-05
-2.4172962889063e-07
1.76380998507251e-06
1.16945539002275e-05
3.5500883900486e-05
-7.0419488009898e-07
-2.46104358805027e-06
2.49617175850838e-05
-8.0922216894071e-06
-3.48200397870669e-06
1.62624974693354e-05
-5.67937230905597e-07
-2.04962690883545e-06
1.19917118022056e-05
3.28091290979236e-07
-9.46450935832003e-07
9.81241789761847e-06
1.63801201413785e-07
-4.22883575303497e-07
8.04726616137809e-06
2.28683186293588e-07
-2.07155876889357e-07
6.67649707436952e-06
2.88132215544205e-07
-6.97003422024032e-08
-5.33461229742084e-06
0.000134671522436156
-1.90273269709101e-06
0.000151687245069196
2.63025625224156e-05
4.20411918939818e-05
-8.29992043512633e-06
4.40104810684383e-06
3.34875630001271e-05
-6.63917124055613e-06
1.18401191774184e-05
4.1141600316211e-05
-3.53587725691306e-06
1.33805493050388e-05
4.15729728010473e-05
-1.3361710302416e-06
1.05913303752561e-05
3.97222605925587e-05
-2.61591474166045e-07
7.54784164340892e-06
3.62246012849067e-05
1.93319221035892e-07
4.43466245845793e-06
3.23993017294357e-05
0.000111053978074796
-4.07154471548791e-05
1.78199688521381e-05
-1.17820193110351e-05
-3.0032520428586e-07
1.90003344029334e-05
-6.85499262741515e-06
-4.42341574000808e-07
1.47789083558598e-05
-2.55655277371206e-06
-3.47598827819402e-07
1.16247184527098e-05
-1.0585442119981e-06
-1.8711301768828e-07
9.34842340161321e-06
-5.21496783551819e-07
-6.8490861825276e-08
7.76565676938102e-06
-1.67596203333461e-07
-1.93160259635289e-08
6.6304344946678e-06
6.6979254380224e-08
2.96203838298173e-08
1.10308295002762e-07
7.36300993022379e-08
5.66928305524176e-06
1.89389445548797e-07
2.17276474152028e-08
5.55662537428594e-06
2.26343673187745e-07
-6.67158078219436e-08
5.43194268416799e-06
1.853898096453e-07
-1.7379533523386e-07
5.36121960612612e-06
1.78925392991917e-07
-2.86892329773386e-07
5.29998678763513e-06
1.93568573886883e-07
-3.7737068606136e-07
5.22799928558885e-06
2.21444653200417e-07
-4.11187700715836e-07
5.17269722140687e-06
2.78077192234346e-07
-3.61614453597156e-07
5.24846784443169e-06
4.03668144886751e-07
-2.13300979505919e-07
5.8567701365321e-06
7.33848953350383e-07
3.70114125779134e-08
8.89058507255198e-06
1.75985539073584e-06
2.85471730871999e-07
2.68364385745895e-05
-7.07055384170929e-07
7.65238045744383e-06
5.95716463948448e-07
-1.23109244694914e-06
9.32633128524209e-06
8.72723107878127e-07
-8.41560391992805e-07
6.88054605236869e-07
7.72330080967368e-06
9.223263391768e-06
8.33421386524623e-07
-9.5854197344646e-07
7.68593496908402e-06
5.63039584237244e-07
-4.99425533258085e-07
1.108493806774e-05
-1.71621951841325e-06
1.13677312786821e-06
7.71584673579065e-06
-2.78385106088677e-07
5.34038043302225e-07
9.26880220919825e-06
-5.9826523071731e-07
7.31713988722389e-07
1.09825135551308e-05
-1.20040463298693e-06
1.11144268489313e-06
1.46400767384322e-05
-2.3543880163144e-06
1.47991818407647e-06
-1.3731062287986e-06
1.11574165885057e-06
9.75924306008283e-06
-2.05541481514937e-06
1.16800560568073e-05
1.23596639520725e-06
-3.12623048029054e-06
1.55718321441813e-05
1.96694892660989e-06
-4.69206259820916e-06
2.7308457483003e-05
-2.49045449966074e-06
-8.60903561267992e-07
9.14108813340377e-07
8.0276099846143e-06
-7.21220394498856e-07
8.98387857616232e-06
1.41134042704028e-06
-1.36754553834723e-06
1.08540499112028e-05
1.82574304812024e-06
-2.30229872342731e-06
1.30237973331478e-05
2.05543933645485e-06
-3.89292610687929e-06
1.70807378493419e-05
3.21583117606709e-06
-5.68956840339238e-06
3.09478546537954e-05
5.53529274585153e-06
-2.52082604094191e-06
5.35509564299912e-05
-2.06448136431785e-05
3.96178294175592e-07
-4.91430687927426e-07
6.24354205458542e-06
4.69162504650052e-07
-5.42162298564975e-07
6.26966462912428e-06
3.57184728804474e-07
6.28333876808156e-06
-3.73893167613725e-07
3.53343200663729e-07
6.33071114378587e-06
-2.28934481683736e-07
6.06661781559757e-07
-4.96521629478684e-07
6.49864048114361e-06
3.97746036467353e-07
6.37414702022399e-06
-9.31092286379518e-08
8.83034553182913e-07
-3.30550696184735e-07
7.37981286799078e-06
-2.4036887025688e-06
1.79739278572929e-05
4.74154499566251e-06
-4.62467329431672e-06
2.19266736313051e-05
6.24669701473226e-06
-1.11772250622378e-06
3.69493186933901e-06
1.5448657839977e-05
-3.87838801094778e-07
2.60009213436675e-06
1.31115006798455e-05
-9.4466160780065e-06
2.79933624652415e-05
1.23573209776724e-05
-4.15479118606069e-08
1.54578715793114e-06
1.11174773053392e-05
0.00012746948147324
-2.24541500122947e-05
2.73068950347292e-05
-1.83871576568451e-05
-1.65301044451824e-06
2.28165571568713e-05
-5.28832776656762e-06
-2.57783172546422e-06
1.41681228816152e-05
1.3554372120284e-07
-1.24629087236053e-06
1.10392476066334e-05
3.32033267011808e-07
-5.29211768761397e-07
9.20711298106388e-06
1.73639260654422e-07
-2.2652836837426e-07
7.66965965390164e-06
2.60669180093123e-07
-8.36972407610352e-08
6.4309190354846e-06
3.02262015582905e-07
1.69420533075646e-08
-5.77502196968535e-06
0.000139012210184087
7.39022163474902e-05
-8.7780612059199e-06
8.65631462855993e-05
4.48213967981562e-05
5.56671193941706e-05
-4.765973479947e-06
1.81274838360865e-05
3.30806809164412e-05
-7.94210652901878e-06
1.31142018978967e-05
4.01555297084828e-05
-4.70163164122635e-06
1.65075142353781e-05
4.27162237648288e-05
-1.9532552431956e-06
1.28102488587861e-05
4.13072731324972e-05
-6.05817032071107e-07
9.370591637076e-06
3.85053097160632e-05
1.6381559389053e-08
6.28011368519383e-06
3.43627569656397e-05
2.59199688531164e-07
3.55124992628696e-06
3.03487066360048e-05
0.000117948231127017
-2.56482586598744e-06
1.64672665050287e-05
-1.10532248915323e-05
1.48211755105882e-07
1.80944377666417e-05
-5.53924729852081e-06
-1.27425246756459e-07
1.33847440282359e-05
-1.9610750428169e-06
-1.5748751821987e-07
1.07068311842376e-05
-8.64422552639348e-07
-5.65531308937681e-08
8.83375201481729e-06
-4.4948889593812e-07
3.4697262305023e-09
7.47644719238449e-06
-1.1236570621017e-07
4.01824998941249e-08
6.44598218916124e-06
9.29423047465064e-08
8.01731164159265e-08
1.19269381738383e-07
1.17045006416999e-07
5.56200009932742e-06
1.9372399359636e-07
8.50853236033184e-08
5.41220070050757e-06
2.17332863192076e-07
2.2043903336325e-08
5.25053200006644e-06
1.7260813579985e-07
-5.85663290525838e-08
5.14410492053921e-06
1.63857856397191e-07
-1.47957093661957e-07
5.0584263833089e-06
1.74538909012866e-07
-2.28397108959255e-07
4.97647430632016e-06
1.9130208615381e-07
-2.78926751369303e-07
4.90443644841076e-06
2.21336541567031e-07
-2.78034272886745e-07
4.86778075668791e-06
2.76000127530191e-07
-2.13528991986229e-07
4.97269591854057e-06
3.81240589697657e-07
-7.69673647616411e-08
5.58950778415993e-06
6.26477535799842e-07
1.21185538668113e-07
8.42839240585622e-06
1.40528940362923e-06
2.68354157973816e-07
2.51627918618084e-05
5.63457855451461e-07
7.21782202270634e-06
-4.45216890117104e-07
-5.75984698951675e-07
7.16247961845499e-06
6.20502347295317e-07
-8.27520740634108e-07
8.55511297935451e-06
8.60292728662827e-07
-9.75072988076429e-07
8.64786978947126e-06
9.68480859771724e-07
-1.40115881868132e-06
1.00626056926974e-05
1.24079394418844e-06
-6.36867262446221e-07
7.37618017762896e-07
7.23080849122475e-06
9.99391965711035e-06
1.22207197051868e-06
-1.11627955090667e-06
8.64859276472152e-06
8.21701341513962e-07
-5.96996845814124e-07
7.31218775159552e-06
5.36667629805172e-07
-2.79092094180319e-07
1.25541047848943e-05
-2.06014079817871e-06
2.15664916122562e-06
7.38664342486044e-06
-1.15776122271652e-07
5.18151436285277e-07
8.7732590175063e-06
-3.32113781742168e-07
7.01739349548571e-07
1.01869373386024e-05
-7.14086245088777e-07
1.09770436643346e-06
1.26225118187579e-05
-1.47578521878682e-06
1.77845027966096e-06
2.22270899358011e-05
-3.24715535915141e-06
6.24480444865035e-07
-1.57943739229026e-06
1.53141045569867e-06
1.05415207952245e-05
-1.01691686198299e-06
1.27485950721427e-06
9.04786022814163e-06
-2.48272376858403e-06
1.30248095362913e-05
2.37277333937897e-06
-4.27890781242137e-06
2.14507030412502e-05
6.4140236132604e-06
-4.17225181958391e-06
4.44269791429472e-05
-1.79590954075172e-05
-5.98337708702776e-07
9.63108480368702e-07
7.54827971948148e-06
-4.2825289749733e-07
8.52396124850824e-06
1.38336484418006e-06
-9.09568687467571e-07
1.01262260210775e-05
1.93100613349503e-06
-1.64553562565222e-06
1.17038051732423e-05
2.38757501794615e-06
-2.89149785806407e-06
1.41370467384474e-05
3.26593848907475e-06
-5.49251604660288e-06
2.038696244638e-05
9.82257092225724e-06
-4.79655351474064e-06
3.6077535341917e-05
2.29878831055141e-05
-1.19579211984209e-06
0.000102245535946748
3.58708302408554e-07
-3.04311724113009e-07
5.91204995325786e-06
4.03749247390866e-07
-3.71888481341011e-07
5.8608206858185e-06
4.77663180603909e-07
-3.8100208127998e-07
5.89781898115679e-06
3.31454897757971e-07
5.98915967106448e-06
-1.99939244824667e-07
3.34130995870928e-07
6.06993425897917e-06
-8.62461171467218e-08
6.03697552410334e-07
-3.12715673893499e-07
6.15310741141615e-06
3.85932495614764e-07
6.15451779653586e-06
1.46905078000611e-08
8.32373257648692e-07
-1.55100451259439e-07
7.04223184597257e-06
-1.47840655561423e-06
4.63791790770554e-06
1.65560770072966e-05
-3.08920162215113e-06
1.89214533397913e-05
6.13431169737041e-06
-6.30474273447294e-06
2.31739448588551e-05
9.42870276920652e-06
-5.95282421828416e-07
3.42339651968212e-06
1.46148043351861e-05
-1.26340739655194e-07
2.31224940829969e-06
1.2487750189556e-05
-1.42470786153509e-05
2.59608161723293e-05
1.40342682368651e-05
7.91880146563861e-08
1.33487294302462e-06
1.05890913980374e-05
7.72644099976237e-05
-1.57419156919381e-07
2.62230992147012e-05
-1.53433972396183e-05
-1.35376035190021e-06
2.01295899305111e-05
-2.9217188801035e-06
-1.55571558510884e-06
1.27573498300719e-05
4.14155339308332e-07
-7.01020610097073e-07
1.03041855900467e-05
3.12393002333953e-07
-2.65319959141372e-07
8.76072286925235e-06
1.96210758976055e-07
-8.90421179957089e-08
7.3945650994198e-06
2.80935330668496e-07
1.95100936358257e-08
6.25411164084843e-06
3.1185466953943e-07
9.06800584832623e-08
4.63041137401274e-06
0.000107724027946848
4.52562178503683e-05
-9.82871197537345e-07
4.22897746443575e-05
4.3357413978225e-05
4.60169651470728e-05
7.03148939691832e-07
-3.11312929617988e-06
3.45761404741297e-05
4.23314961369928e-05
-7.70762574152874e-06
1.72784801196306e-05
3.66239553089024e-05
-5.80006317201928e-06
1.90639249660691e-05
4.33991301046038e-05
-2.60793220791633e-06
1.56872670101179e-05
4.24471076019993e-05
-9.43665590891339e-07
1.13021913364236e-05
4.03193120542967e-05
-1.81774208377352e-07
7.98173842864773e-06
3.69854430947138e-05
1.57402953474287e-07
5.15615593998664e-06
3.26004419586147e-05
2.62738007848259e-07
2.86081392814158e-06
2.86304391796445e-05
7.18677275430722e-05
-5.98391883925739e-07
1.80841703044726e-05
-9.83612565465095e-06
4.81322638114129e-07
1.65175266933475e-05
-4.18233647185108e-06
-1.07472762179671e-09
1.23042989036862e-05
-1.54973169074304e-06
-3.13615729898253e-08
1.00769417403504e-05
-7.42428025070877e-07
2.64506501053092e-08
8.49830177484002e-06
-3.67230536992997e-07
6.7269874683865e-08
7.26610455814134e-06
-6.73775715076026e-08
9.56519233328185e-08
6.30908244372242e-06
1.13925492473475e-07
1.25257997577614e-07
1.25953739578083e-07
1.56030688812146e-07
5.48557679524809e-06
1.97508683481108e-07
1.39094732425648e-07
5.31048139625614e-06
2.11731587482756e-07
9.78837940958824e-08
5.1246286917577e-06
1.63634432712833e-07
3.85541135778618e-08
4.98977662486104e-06
1.52249965291323e-07
-3.2113562920564e-08
4.87601092143425e-06
1.59568693274552e-07
-1.01655860661146e-07
4.77211635307594e-06
1.67838566583501e-07
-1.56061117402857e-07
4.68576995868555e-06
1.87061921435483e-07
-1.80200754338485e-07
4.61954106529691e-06
2.16812458748362e-07
-1.63887617524915e-07
4.60132711756943e-06
2.66131604653516e-07
-9.98541367478939e-08
4.72945112447577e-06
3.51969862885881e-07
1.38303872282126e-08
5.34489287794148e-06
5.34768610425869e-07
1.57064160450705e-07
8.00491263720499e-06
1.15811892635199e-06
2.2960805506207e-07
2.37750659683483e-05
-5.14370259168464e-07
8.39220528585768e-07
8.05967717651489e-06
5.72369652438693e-07
-3.54396095076511e-07
6.78257163378253e-06
5.34171672238722e-07
6.90184769572757e-06
-2.3759428749957e-07
-4.31356452566911e-07
6.72105953118556e-06
6.39658202926709e-07
-6.55700867788158e-07
7.96428002669474e-06
8.91961702353167e-07
-9.17611284167598e-07
9.12297884476474e-06
1.24768332620043e-06
-7.27203601869316e-07
8.05624336684613e-06
1.03953005573193e-06
-1.07323244955151e-06
9.18070362188577e-06
1.34417474754324e-06
-1.59438880716042e-06
1.08117164053711e-05
2.09483915970837e-06
-4.46801353745636e-07
7.59163521883886e-07
6.79777145460679e-06
1.09396331977704e-05
2.13457231362282e-06
-1.2897687378722e-06
9.32891800944127e-06
1.24076718100708e-06
-6.77328239069657e-07
8.23966785648606e-06
8.02203220216521e-07
-3.28943461006571e-07
7.03341235409839e-06
5.1502238739824e-07
-1.06753947602153e-07
1.60898729470068e-05
-2.76374940748478e-06
6.77869506367961e-06
7.14555133694842e-06
1.35214045904963e-08
5.05647587417188e-07
8.40619241503385e-06
-1.37701781369407e-07
6.7826733047632e-07
9.62477121949617e-06
-3.87287258626167e-07
1.05435422601818e-06
1.14345473173977e-05
-8.59081125670056e-07
1.80380081957151e-06
1.82828072329763e-05
-1.96348041521291e-06
2.34155894495331e-06
4.0269028824421e-05
-3.79533888379706e-06
-1.37983543589684e-05
-1.81915386930977e-06
2.34302432942634e-06
1.1140841960097e-05
-1.1422836179443e-06
1.7017969230023e-06
9.61132833051871e-06
-7.03546950459595e-07
1.34682462919848e-06
8.4581197563922e-06
-3.21796580034634e-06
1.51822310481169e-05
6.36666745504832e-06
-5.41259661436944e-06
2.58529199471003e-05
2.5604095489547e-05
1.35963499426024e-06