/*--------------------------------*- C++ -*----------------------------------*\
  =========                 |
  \\      /  F ield         | OpenFOAM: The Open Source CFD Toolbox
   \\    /   O peration     | Website:  https://openfoam.org
    \\  /    A nd           | Version:  12
     \\/     M anipulation  |
\*---------------------------------------------------------------------------*/
/*   Windows 32 and 64 bit porting by blueCAPE: http://www.bluecape.com.pt   *\
|  Based on Windows porting (2.0.x v4) by Symscape: http://www.symscape.com   |
\*---------------------------------------------------------------------------*/
FoamFile
{
    format      ascii;
    class       volVectorField;
    location    "200";
    object      U;
}
// * * * * * * * * * * * * * * * * * * * * * * * * * * * * * * * * * * * * * //

dimensions      [0 1 -1 0 0 0 0];

internalField   nonuniform List<vector> 
10228
(
(-0.000181056758022323 0.000992909128862289 0.000689813639705736)
(-0.000610286197437775 -0.00512049904189487 0.000364487579121268)
(-0.000185182940920894 -0.000846929392541554 0.000562229081345538)
(0.000423831442873368 0.00415059088992559 0.000225014316260754)
(-0.000321759935856763 -0.00301419154501842 -0.00013304246512941)
(-0.00181338023534851 -0.00557428471114736 0.000222921262223293)
(-0.000633968241905625 -0.00240589185686456 0.000690608788181002)
(-0.000142877909973889 0.000855310214401868 0.000255398998966378)
(-9.57753477580709e-05 0.000852850359980959 -7.06722603031886e-06)
(0.00093354136279278 0.00506288639178703 -9.54920290050267e-05)
(-0.000515472673055467 -0.0004532939630613 -5.63192066385038e-05)
(-0.00216233930802379 -0.00340941173506568 -0.000229232126459237)
(0.000437805333415007 -0.00165903019569044 -0.000507729729661295)
(-0.00279725110479634 -0.00558946674220499 0.000225492301629369)
(-0.0012410417743902 -0.00291672557811453 0.000638291709548757)
(-0.000473755112731139 -0.00028765579447744 0.000393553510236964)
(-9.33628430679601e-05 0.00170129851611722 9.31494097095072e-05)
(-0.000102960097710381 0.00173449279035601 -9.85921279742885e-05)
(-1.13055397273262e-05 0.00159919398923718 -0.000399514800661984)
(0.00101691234085042 0.00437971326664625 5.59748201870383e-05)
(-0.000291678742575985 0.000410850365568238 -0.000504891765929394)
(-0.000374668637013107 0.000786059957883604 -1.93994582858758e-05)
(-0.00118264574256693 -0.000884569399614251 -5.13937062505013e-06)
(-0.0032806661802656 -0.00339620400274847 -0.000106669295246106)
(-0.00165254672578637 -0.00272174647011629 -0.000656013068177236)
(0.00115442183182545 -0.00123782366631046 -0.000391896149522253)
(-0.00380232023189544 -0.00574985233446521 0.00018845797655488)
(-0.00192744309452745 -0.00335122632580328 0.000533608157662925)
(-0.000842586247866154 -0.000859106284980907 0.000411733131837639)
(-0.000322420307887949 0.000925419577615963 0.000169008565847254)
(-7.15699800439533e-05 0.00209066469653312 3.5241264783141e-05)
(-6.98365630902492e-05 0.00221665569506922 -0.000107363344337499)
(-4.72392581749343e-05 0.00214668429103223 -0.000401611269793549)
(4.43464331412601e-05 0.00147338570269467 -0.000400146461802217)
(0.000882062351448224 0.0040356147224798 0.000233400647390577)
(-0.000230250738758159 0.00135714515938167 -0.000315089688482425)
(-0.000855161045389106 -2.98124046676067e-05 -0.000451865309814816)
(-9.13066981070442e-05 0.000339330110945354 -0.000507051439926303)
(-0.000695710652379778 0.000320192744166914 -5.97312577581226e-06)
(-0.000249721680967475 0.00156752977881179 -4.23304768378349e-05)
(-0.00187906414553592 -0.00127746457505406 -2.83956836709118e-05)
(-0.00444136025164165 -0.00353312532713074 -4.69235653965626e-05)
(-0.00302496533519785 -0.00258663488038177 -0.00056102058059654)
(-0.000554070888869191 -0.00258646343111284 -0.000664728862844537)
(0.00131614222672861 -0.000170371302285475 -6.73350597952006e-05)
(-0.00494381967465406 -0.00571264278856745 0.00029275426505138)
(-0.00266195939626053 -0.00395857741909769 0.000324375497334368)
(-0.00130487728050628 -0.00137680160062183 0.000356054741821609)
(-0.00058479652489914 0.000428554439943442 0.000185630905892003)
(-0.00024249713836272 0.00159034584236219 7.77345742356175e-05)
(-5.29642589624709e-05 0.00229185779549334 -2.26826217973563e-05)
(-5.46767630338006e-05 0.00243117513804858 -0.00010853718294031)
(-3.14537128855388e-05 0.00243209629488595 -0.000316336267479489)
(-1.75969995145595e-05 0.0021208415640944 -0.000438956461789304)
(7.81346738943787e-05 0.00151209741333514 -0.000288492138362981)
(0.000636271693522536 0.00379449496311799 0.000359916992740705)
(-0.000496132663833529 0.000937602670796762 -0.000281412810384295)
(-0.000139553178334081 0.00191685159632669 -0.00024773164550541)
(-0.000124135996286695 0.00143321340487111 -0.000363001546587642)
(-0.000512326863846612 -5.60834178304397e-06 -0.000542774399020727)
(-0.00147551749866968 -0.000310930857834069 -0.000444992838523028)
(7.23888986476378e-05 0.000408083451336352 -0.000328679077274244)
(-0.00111451147373899 -8.24928730796149e-05 -5.87913909905176e-05)
(-0.0004543425045628 0.00116548174942987 -3.35395178397947e-05)
(-0.000188351931821219 0.00197229064336977 -6.34022878331212e-05)
(-0.00265532250718164 -0.00177793223863168 -0.000172783976712821)
(-0.00584560006380704 -0.00373887852369394 0.000146293800934077)
(-0.0043563145075639 -0.0025571743665385 -0.000465309825614181)
(-0.00219384680800134 -0.00260354703660437 -0.000786423255090457)
(0.000463991491935125 -0.00171379860331459 -0.000439552220470791)
(0.00118195727036804 0.000557243769348883 0.000196032039808361)
(-0.005259437300162 -0.00342681475121864 0.000656522153028932)
(-0.00360455794534344 -0.00450765578537236 0.00018117791342969)
(-0.00193698927234258 -0.00219993623083423 0.00020342226476018)
(-0.000935033921576568 -8.87044004699469e-05 0.000168288447405413)
(-0.000438428740491544 0.00118317528903015 7.18966674816554e-05)
(-0.000185427873887294 0.00191143159280426 5.3004532744667e-06)
(-4.28874326776757e-05 0.00238548315827092 -4.43444561373768e-05)
(-3.71555215621578e-05 0.00251679079917639 -0.000119244343020466)
(-2.0918440290459e-05 0.0025465733617939 -0.000248335169482698)
(-1.10584936676267e-05 0.0023976188013951 -0.000358287089573802)
(7.66210545921672e-06 0.00209912783251515 -0.000381946403227511)
(9.72104581293202e-05 0.00154856165257782 -0.000122131811763476)
(0.000457829703642911 0.00346316423405783 0.000455037487718646)
(-0.000292742776149019 0.00157953885912911 -0.000219904561567949)
(-0.00031232487277721 0.00106893534663297 -0.000336581674942662)
(-0.000840509492016201 0.000604590796444239 -0.000308549978264963)
(-6.47500985208325e-05 0.00195245516631434 -0.00029163012664143)
(-9.06255097386433e-05 0.00217471707894439 -0.000199466241246667)
(-2.6598165431155e-05 0.00148542880946372 -0.000319225617503547)
(-0.000159554564850521 7.13482190176497e-05 -0.000437832588060534)
(-0.00103847654462355 -0.000139383055773712 -0.000606913579227512)
(-0.00224384091214019 -0.000672881411978998 -0.000509870921740358)
(0.000168361277712553 0.000465243277343557 -0.000104806955342663)
(-0.0017236072725711 -0.000680341616117763 -0.000217137422066721)
(-0.000741975634280176 0.000771936160425085 -6.28028903932826e-05)
(-0.000340494784520191 0.00165189945899499 -5.43919767371122e-05)
(-0.000135651137305373 0.00216687176097785 -8.54147649599338e-05)
(-0.00387199847571465 -0.00224444077103739 -0.00025720846748723)
(-0.00713686292365632 -0.00329379244467308 0.000614931247634137)
(-0.00613349656408049 -0.00266889049452819 -0.00042576628255542)
(-0.00378828310534671 -0.00238889883503086 -0.000885460266692584)
(-0.000650427998129344 -0.00193391055939911 -0.000752578608960694)
(0.00082489867886109 -0.000941806953517765 -3.21891198350584e-05)
(0.000937951095353168 0.00096838425765192 0.000328644345003707)
(0.00137402751494983 0.0103650995511223 0.000124452773186319)
(-0.0041661082468688 -0.00349369573442543 0.000387094278990028)
(-0.0029972068869462 -0.0036328861259764 -2.75069569877195e-05)
(-0.00147644399193747 -0.000938179203045747 0.000107460474093409)
(-0.000713708721009492 0.000693295822272428 6.37178969904708e-05)
(-0.000351180617783652 0.00160999965351898 2.38709167939511e-05)
(-0.000150775924828318 0.00208874580506504 -2.47725304323147e-05)
(-3.68545448230649e-05 0.00242531188885519 -4.37351254634934e-05)
(-2.81455551321632e-05 0.00253763267472456 -0.000102477659776936)
(-1.26438880593261e-05 0.00257833080582136 -0.00019473226374502)
(-2.59519537806025e-06 0.00250031820953199 -0.000279300074492717)
(6.08319327926728e-06 0.00233633077951723 -0.000324770206842404)
(2.80802722622989e-05 0.00203631817888495 -0.000264664448434299)
(0.000101434780477304 0.00161141381392209 1.42217769714472e-05)
(0.00030640988655887 0.00318910729225636 0.000445125415367337)
(-0.000188958957614148 0.00191868794065647 -0.000179778421550225)
(-0.000509504766569754 0.0012673124206228 -0.000227293368548133)
(-0.000160924472003457 0.00166508801827285 -0.000259885674314565)
(-0.000124868957467517 0.00116799998600801 -0.000306621718285822)
(-0.000576705154737674 0.000808036533990591 -0.000359208093294265)
(-0.00138542701773677 0.000151719984190843 -0.00041502099863516)
(-2.69237491188769e-05 0.00217439107835031 -0.0002279550801023)
(-3.46541034793664e-06 0.00194862860684232 -0.000265120978908166)
(-5.748213820571e-05 0.00228998907042367 -0.000160532184404388)
(4.64502568005849e-05 0.00147519925550777 -0.000210804263242988)
(7.8656048133503e-05 6.88610253412388e-05 -0.00020171303203201)
(-0.000535853575178599 1.25531550779357e-05 -0.000569518235263759)
(-0.0017669861240779 -0.000327560078310822 -0.000706591642400185)
(-0.00352941068722723 -0.000906947494806261 -0.000663934778890291)
(0.000206190414713081 0.000570928039778259 6.21597290777487e-05)
(-0.00287365782177069 -0.00165921510102454 -0.000536661049410504)
(-0.0012187886278346 0.000165830721209535 -0.000141987399387009)
(-0.000549544533800256 0.00130696494218525 -6.97920031502465e-05)
(-0.000261431443018183 0.00191554574809348 -6.5562594296382e-05)
(-0.000102960563570828 0.00225847950728693 -8.08165563456369e-05)
(-0.00562703319777716 -0.00173656907759701 0.00017246962238288)
(1.35610446755565e-05 0.00681852897674957 0.00017485843931921)
(-0.00830192796864313 -0.00282561777521885 -0.000409536384392095)
(-0.0057302318185057 -0.00217732413558563 -0.0011821034802237)
(-0.00207902187281908 -0.00181437115529265 -0.000979856579517831)
(0.000297906594349241 -0.00142658792952586 -0.00033922900125512)
(0.000808646332517703 -0.00027396672684422 0.000218833228307329)
(0.000679621265277703 0.00119471605987456 0.000379045128998489)
(0.00177866733884271 0.00661972198493294 -0.000135045767316459)
(0.00116659554766434 0.0082687810246486 0.000684376123039469)
(-0.00446899466235255 -0.00534453818236104 -2.72612257003204e-05)
(-0.00241501007569726 -0.0024798237124436 1.14159373728708e-05)
(-0.00116734551638212 -0.000100954222701291 5.32003928281317e-05)
(-0.000571177756205967 0.0011985982110627 2.28342225452715e-05)
(-0.000293332498414072 0.00183148086157761 -5.75334005216993e-06)
(-0.000127270646879171 0.0021849653697574 -2.91239510717816e-05)
(-3.16906293050959e-05 0.00243930436698674 -2.66753617826925e-05)
(-2.353139162557e-05 0.00252990798045534 -7.30592146227831e-05)
(-8.16947591377624e-06 0.00256673090731592 -0.000140219795987925)
(2.58987248279181e-06 0.00252352243628496 -0.000207343487726225)
(1.02313404797873e-05 0.00241700116925395 -0.000253021092085628)
(1.99855818019832e-05 0.00223674750539154 -0.000243913400111519)
(4.04996602067787e-05 0.00197640983993403 -0.00013854832396835)
(9.49191310666688e-05 0.00166644581409896 0.000106683553027768)
(0.000209743910600984 0.00290962766976856 0.000415729925178068)
(-7.6955983496773e-05 0.00195098911025244 -0.00020234926040786)
(-0.000126808568387227 0.00208819862899418 -0.000143160495222661)
(-0.00033177671193868 0.00166497471667695 -0.000179558456839859)
(-0.000308763685126884 0.00141569874595073 -0.000257420631166499)
(-0.000891316260337184 0.000822761435892777 -0.000274806250500237)
(-4.08770543809059e-05 0.00170434048907914 -0.000237305043043385)
(2.23349171333004e-05 0.00117817867811081 -0.000201615362650125)
(-0.000292316947807142 0.00097606941693663 -0.000330557244116716)
(-0.00102631751644947 0.000487272901415144 -0.000430838921864533)
(-0.0024393927851721 -0.00044541972484085 -0.000656899477688031)
(1.89662885746739e-05 0.0021325843681735 -0.000203758899217293)
(-4.71167787735571e-06 0.00226664532162293 -0.000170745200301065)
(4.3468564668215e-05 0.00189368838251079 -0.000191456491043771)
(-3.89940033847056e-05 0.0023326156093218 -0.000117394347249683)
(8.9970817427759e-05 0.00146025155179159 -9.24262348081491e-05)
(-0.000120593075851293 -3.21905926133576e-05 -0.000330663813888427)
(0.000191243482855581 0.000139262508978485 2.30857928381108e-05)
(-0.00112775845930351 -2.34475237471026e-05 -0.000719464439075715)
(-0.00295796360500165 -0.000428998885455587 -0.000946194092534205)
(-0.00588540470619685 -0.000175794230699675 -0.000471585765539169)
(0.000208244425520168 0.000699423118161187 0.000161584962695452)
(-0.00525888745005202 -0.00275255791624625 -0.000452934980850214)
(-0.00212107042977869 -0.000811785715289051 -0.000299309606556707)
(-0.000913761627284147 0.000762689775352076 -9.94310370142883e-05)
(-0.000430446778025908 0.00162509118474138 -6.08915961121908e-05)
(-0.000205655618768909 0.00205517286106024 -6.32731699428332e-05)
(-8.501133033738e-05 0.00229917786434367 -5.79252545471748e-05)
(-3.71134450695861e-05 0.00170878303193075 0.00156043481662418)
(0.00354653613034707 0.0044121924794203 -0.000282716486601105)
(-0.00665729549812329 0.00282406998641421 -0.00062846339715056)
(-0.00811966759375255 -0.00175823663027532 -0.00172731794379938)
(-0.00392682546526294 -0.00166981986338763 -0.00137303003075093)
(-0.00043338633761582 -0.00148826943186711 -0.000593162533865123)
(0.000547553432268112 -0.000843059653786041 8.17564464900559e-05)
(0.000734602762726225 0.000210870530081439 0.000323174657285401)
(0.00048901173628135 0.00126197034859333 0.000400250348377147)
(0.00191583260083095 0.00500488327811339 0.000284225358430848)
(-0.00353896314368626 -0.00400033677937457 0.000286941945089839)
(-0.00406253475000469 -0.00489702995261042 3.27607174773997e-05)
(-0.00196332205065928 -0.00154988147727946 6.36053059524119e-05)
(-0.000947865875742403 0.00047069176610069 3.47440918488707e-05)
(-0.000492451721963599 0.0015127178402549 1.43642007939444e-05)
(-0.000249659806781556 0.00197349988021292 -1.14438286950791e-05)
(-0.000109816135700209 0.00223437074996905 -1.48789057053228e-05)
(-2.72479060233706e-05 0.00244151640573647 1.6274082311123e-07)
(-1.95191947173784e-05 0.00251198505646252 -3.65612614897442e-05)
(-5.49565567796736e-06 0.00254019996055632 -8.78479711872873e-05)
(5.017895076928e-06 0.00250887508247079 -0.000140141332011896)
(1.26862533129118e-05 0.00243049822872899 -0.000181982559615605)
(1.97817501224481e-05 0.00230209346998257 -0.00019240584023264)
(2.89184679296504e-05 0.00213219697833581 -0.000150746301936946)
(4.66653355262885e-05 0.00192047607665633 -3.54432317641648e-05)
(8.52083130211626e-05 0.00168648056114653 0.000162391974230811)
(0.000148850552890522 0.00262388875356195 0.000374377212795127)
(1.12093687283614e-05 0.00194126322693747 -0.000177427269836587)
(-3.08319149142085e-05 0.0020881579856638 -0.000151280075682409)
(-0.000162957225679654 0.0017456488491722 -0.000193110369359954)
(-8.97509411348184e-05 0.00216982010091915 -0.000104291441727334)
(-0.000229420059016863 0.00188204347198403 -0.000135494960704749)
(-0.000595946555115262 0.00128396121101229 -0.000193144019556305)
(-0.000116415148183236 0.00151630857494281 -0.000231059373216159)
(-0.000592393015563675 0.00109232329975693 -0.000278404328101098)
(-0.00165477277501361 0.000200802810875366 -0.000381123492888474)
(5.09080788518468e-05 0.00167856464815316 -0.000166381404920228)
(0.000113075471705034 0.00117630325618648 -7.99346346595987e-05)
(-5.11601342011578e-05 0.00100858750760313 -0.000222265857102355)
(-0.000591712836584941 0.000778900545375551 -0.000377224116289048)
(-0.00187963814436088 0.000120348608683931 -0.000586953792503291)
(-0.00503150388692362 -0.000796040052724833 -0.000491985984421357)
(5.07061010113289e-05 0.00205257818890536 -0.000147640080280041)
(3.11818821327122e-05 0.00220408280244018 -0.000145107600362959)
(6.35146065841635e-06 0.00229790719689131 -0.000114989593255802)
(7.29898746806512e-05 0.00182445695100756 -0.000105350947335288)
(-2.85314337745166e-05 0.00234303430021443 -7.20226490706988e-05)
(0.000113530922245181 0.00144716658458484 3.70619585633908e-06)
(-0.000455087421501653 -6.32595883921893e-05 -0.000475554276753093)
(0.000104965180170707 -3.5376836520751e-05 -6.00343698788095e-05)
(0.000244427304366349 0.000270592798136453 0.000155378983062977)
(-0.00211333397725548 -3.87485573591019e-05 -0.000978571481123876)
(-0.00445406144371039 0.000468888645452542 -0.00108828302926162)
(0.00019804404554717 0.000800098841814757 0.000208157918080144)
(-0.00653863772900454 -0.00359624947715108 0.000595537136773053)
(-0.00422875293427304 -0.00225268178335751 -0.000354770204886904)
(-0.00161087595798213 -0.00015320269815371 -0.000130155780062748)
(-0.000715259191177772 0.00115595689886894 -6.1874130859868e-05)
(-0.000351014411862605 0.00181801405846777 -4.67495698183485e-05)
(-0.000167969618932988 0.00213071574374382 -4.49621164508553e-05)
(-7.18679095781574e-05 0.00231427260754308 -2.491883757302e-05)
(0.00343992784121001 0.000395599993573338 -0.00129565823765835)
(0.00411288778450341 0.00403561465428266 0.000616026492128875)
(-0.00794399725710567 0.00252307382759442 -0.000936294354350939)
(-0.0060449691698058 -0.0015615537185916 -0.00182620815996657)
(-0.0013784056843054 -0.00140511068841723 -0.000866742828974942)
(0.000214108928464647 -0.00110631927186532 -7.7964718773857e-05)
(0.000623420479987908 -0.000291351547732211 0.000274461113637968)
(0.000637498847653099 0.00047935328172297 0.000360217443478084)
(0.000368436826773749 0.00120937571190468 0.000387067103318913)
(0.00212023683271179 -0.00845876573179689 -0.00315759695885924)
(-0.00596941063521852 -0.00755855440971998 0.000157212717081234)
(-0.00340393001910226 -0.00400091020704387 0.000121917812588733)
(-0.00163778457985425 -0.000837635793954067 8.96915321684194e-05)
(-0.000793558993564742 0.000901513448010288 3.0561041284759e-05)
(-0.000420725282319726 0.00170847053717206 1.14973650961478e-05)
(-0.000217418336192266 0.0020537211439713 -2.13105114061854e-07)
(-9.60547931526108e-05 0.00225983527696432 9.08529856520448e-06)
(-2.41332570205153e-05 0.00243804778468195 3.18690907997331e-05)
(-1.66172107650899e-05 0.00249367952511608 3.14695598717257e-06)
(-3.8313017428374e-06 0.00251232089346557 -3.72885084677821e-05)
(5.96999975303416e-06 0.00248244827695749 -7.91908505647625e-05)
(1.35019836507499e-05 0.00241534586193988 -0.000115328935479578)
(1.96202970168417e-05 0.00231228881681919 -0.000133529419827227)
(2.56743465262667e-05 0.0021822874690886 -0.000121871072825166)
(3.42678671494079e-05 0.00203180566477826 -6.83611967332674e-05)
(4.88247069678672e-05 0.00186063772898107 3.88411201862528e-05)
(7.5993181394043e-05 0.00166935521527664 0.000196436626194472)
(0.000110388962951546 0.00235765153906747 0.000322999371952406)
(3.83462012275535e-05 0.00204863939210765 -0.000124434589019383)
(-1.92326645624981e-05 0.00178095099029328 -0.000164024564003222)
(7.34593333148552e-05 0.0018854397467842 -0.00012223300396039)
(-8.21547813724443e-05 0.0019196060622759 -0.000139996995278772)
(-6.5274382361735e-06 0.00215135939773601 -0.000100837910336821)
(-0.000340745077309212 0.00146999208319121 -0.000191242194126596)
(-6.70240374279165e-05 0.00220714033054178 -6.22095946539726e-05)
(-0.000167378867599197 0.00199964976500726 -9.35712314148272e-05)
(-0.000418383500123728 0.00156644149566035 -0.000131644680320936)
(-0.00114435836211111 0.000710713651388154 -0.000207722256608409)
(3.5935874481701e-05 0.0015223136914917 -0.00015792093053232)
(-0.000276661594086517 0.00130407584553429 -0.000235588354257289)
(-0.00116489393803579 0.000678907366551469 -0.000329758517495455)
(-0.00327913317557587 -0.00034871633704072 -0.000447988829343815)
(0.000109765432265385 0.00162984273470707 -8.13626530228837e-05)
(0.000164941609776835 0.0011800233404799 1.83558305217592e-05)
(0.000105104512308101 0.00100687291710717 -8.89242279314464e-05)
(-0.000201275676407078 0.000862454942569494 -0.000253315421921068)
(-0.00113591071421389 0.000574664711134207 -0.000460986349051754)
(-0.00381840255473135 5.43835780048782e-05 -0.000351517369287947)
(-0.00855333643982438 0.000370058343904265 0.000974932883191389)
(5.39920873191125e-05 0.00211266114511641 -9.8797663149852e-05)
(6.9565095117708e-05 0.00196069278681363 -8.2385852926481e-05)
(3.61563628291684e-05 0.00222698711059754 -8.90525416623361e-05)
(1.15252505823478e-05 0.00230303935736599 -6.19581402154848e-05)
(9.01156913593359e-05 0.0017531776886562 -2.95104899772965e-05)
(-2.17347612837572e-05 0.00234090892802806 -2.63812859645793e-05)
(0.000124538223163932 0.00142582370856294 7.23359618087586e-05)
(-5.36834775717435e-05 -0.000144264041762279 -0.000141045793688395)
(-0.000951392835972646 -3.8169766249862e-05 -0.000653043275685682)
(0.000227248602517281 6.49741961221727e-05 0.000115139510798781)
(0.00026590715103012 0.000394256119298564 0.000221549277142468)
(-0.00355665102702841 8.2448108525807e-05 -0.00130657945183695)
(0.000184509606447149 0.000857797711666221 0.00023364227775777)
(-0.00269240735477956 -0.00173506569691124 -0.00507161002696668)
(-0.00767921817415011 -0.00348766265427647 0.000182872804857578)
(-0.00315220200973244 -0.00145763382289685 -0.000113433712548463)
(-0.00126897783740502 0.000332727129997488 -3.95744988519583e-05)
(-0.00058516956885994 0.00141679198002314 -3.433043485798e-05)
(-0.00029139499875188 0.00193224048934931 -2.65252883792954e-05)
(-0.00014220115340799 0.00217065093841902 -1.42807348235337e-05)
(-6.19430005909542e-05 0.00231835995536672 1.11995296070042e-05)
(0.00412575915176646 0.000722856580119797 -0.00204985348502708)
(6.34192331427589e-05 0.00904708859272095 0.000186407571196113)
(-0.00510051625478093 0.00431759812734425 0.000697299599086184)
(-0.00720041186928448 -0.000421111428342111 -0.00157077946099039)
(-0.00259535174866926 -0.00150514337041245 -0.00103085577544121)
(-0.000168761820714274 -0.0012142339703946 -0.000197769497611858)
(0.000440872246162786 -0.000574285282326917 0.000219491831414417)
(0.000641269888117683 7.83653488607679e-05 0.000338166860721382)
(0.000536326254248585 0.000584190343712137 0.000351404728819268)
(0.000283018973027968 0.00109457403979618 0.000346888552432548)
(-0.00572393073157285 -0.00467607300461929 -0.00522153958483022)
(-0.00558981877118609 -0.00649206915267949 0.000291929455176314)
(-0.00292688924983279 -0.0031049374290931 0.000210560416857037)
(-0.00137233417038966 -0.000284631683638718 8.68175151386128e-05)
(-0.00067640857206865 0.00117557335101515 3.35749978205453e-05)
(-0.000369301823182659 0.00180851952430432 2.22095450781922e-05)
(-0.000192215891925539 0.00210110717017158 2.08840837445538e-05)
(-8.55414833881637e-05 0.00227245486753429 3.79150126805059e-05)
(-2.15386374343834e-05 0.00242977388852112 6.36821100036099e-05)
(-1.43813360451104e-05 0.00247781574621797 4.30949744598984e-05)
(-2.78558440320558e-06 0.00248854203950899 1.05232435111821e-05)
(6.21914472483514e-06 0.00245644537032905 -2.37586132623422e-05)
(1.3188970647715e-05 0.00239276433522879 -5.4916649232211e-05)
(1.86974890245371e-05 0.00230099674602814 -7.55698915782656e-05)
(2.35145929926388e-05 0.00219047851594929 -7.87496097093824e-05)
(2.87317340978253e-05 0.00206734516417854 -5.72819383143648e-05)
(3.64673603896074e-05 0.00193617947049214 -3.74447911091315e-06)
(4.83802098848611e-05 0.00179511918269952 8.7948958150909e-05)
(6.6916392836201e-05 0.00162283989471166 0.000207783249087394)
(8.02045636327314e-05 0.00210486644774214 0.000272031374595922)
(5.05982533093691e-05 0.00209699785959163 -7.36523921483632e-05)
(8.35063924379965e-05 0.00197569355087066 -7.79820724153599e-05)
(3.16523725810762e-05 0.00191341549316062 -0.000110863639322868)
(8.5226298553864e-05 0.00175187813430188 -0.000106804226251634)
(-0.000102942978678228 0.00159210740350745 -0.000152803612584571)
(0.000111541077056734 0.00181169373648735 -5.82545574880476e-05)
(-0.000198101304468459 0.00168689895651142 -0.00012837194173096)
(-3.74074716949014e-05 0.00201036814563154 -8.9988656895155e-05)
(6.14643589815853e-06 0.00217919241928826 -5.1622501178488e-05)
(-0.000723929670194766 0.00108617505625915 -0.000183543751184259)
(-5.24248811262563e-05 0.00222333765650741 -1.86947795493951e-05)
(-0.00012786754152255 0.00206432465985194 -5.15267841763352e-05)
(-0.00031114165784508 0.00173349041783384 -8.18628458229157e-05)
(-0.000819989169654072 0.00105113034313477 -0.00011255463647966)
(-0.00216025458836163 0.000156850500375073 -0.000194663061834194)
(-2.19003231694133e-05 0.00136348341432356 -0.000153300291027077)
(0.000134887289533918 0.00148907655263789 -6.9435310844558e-05)
(-0.000597298327884684 0.00106467814081132 -0.000246884201005569)
(-0.0021970120739209 0.000394813221318175 -0.000346507778278606)
(-0.00731109958827654 0.000350097905425103 0.000297155074674345)
(0.000144280687251778 0.00157563464060907 -7.01372213709908e-06)
(0.000191954584512076 0.00117798209385912 8.74913520538955e-05)
(0.000197537236990711 0.00101273191597038 1.88072423543483e-05)
(5.60120733124321e-05 0.000860433133074695 -0.000100343912648978)
(-0.00045930020070626 0.000731384162611167 -0.000292410075851229)
(-0.00204658226542832 0.000462199012468172 -0.000473634938610362)
(-0.00653136122634251 0.00180154732414858 0.000709303161628024)
(-0.00546986194107109 0.00500591911657176 -0.000992720244182507)
(5.34960940610227e-05 0.00213318081325497 -5.00070954538886e-05)
(6.63499241469037e-05 0.00201293982077041 -4.69511021018962e-05)
(7.96830509330845e-05 0.0018680725738658 -2.28194365086153e-05)
(3.70091434839375e-05 0.00223047243374846 -3.6643145073901e-05)
(1.38194664372121e-05 0.00229891692450672 -1.20471162168906e-05)
(9.85327886835066e-05 0.00168140920145679 2.95728471216757e-05)
(-1.73056753635088e-05 0.00233502852968628 1.7767029384339e-05)
(0.000127604455120792 0.00139355434139095 0.000116970458723566)
(0.000167120894018154 -9.20662200029016e-05 8.06557259625961e-05)
(-0.000282705495318171 -0.000225875005835929 -0.000212546704447377)
(-0.00154342542114127 6.04917741427668e-05 -0.000806019573646211)
(0.000294073225172958 0.000185142475176623 0.000206854601933179)
(0.000267743302973131 0.000482643507075793 0.000248245589590054)
(-0.00453876377866882 0.000123986882782472 -0.00138060217589879)
(0.000168034163421882 0.000874766408025567 0.000241069279453909)
(-0.00848724931342722 0.00144322136877335 -0.00107124308099287)
(-0.00651731565486439 -0.00262954925389045 0.00040940887008561)
(-0.00237427709531604 -0.000890367703366895 4.02879870463061e-05)
(-0.0010321980955297 0.000680541071455497 -1.18151277113583e-06)
(-0.000490307368484948 0.00158446169884811 -7.14479291328257e-06)
(-0.000248428025555869 0.00199797147715583 1.84793850889934e-06)
(-0.000123506032948914 0.00219210039771694 1.96182720025254e-05)
(-5.4452942296553e-05 0.00231823624678899 4.79750653619101e-05)
(0.00116799461551455 0.00689362596324744 -0.000897271978840997)
(-0.000748618311210154 0.00629227124663348 0.000600629425122956)
(-0.00321337527460595 0.00572325954288802 0.00115889736851214)
(-0.00563219411354552 0.00282252567657836 -0.000197617424193159)
(-0.0039964881678456 -0.00173155061945531 -0.000768240962031809)
(-0.000474949851433741 -0.00121364172126668 -0.000223889139997007)
(0.00028113991253057 -0.000728045357570439 0.00017204112145013)
(0.000579434004831401 -0.000176921806735913 0.000327246767019229)
(0.000604710167376002 0.000268903574349374 0.000338245624180235)
(0.000440966240666408 0.000579962031347057 0.000326627100805707)
(0.000211925363369307 0.000946157642189225 0.000298658674733495)
(-0.00605605049135921 -0.00368817302456084 7.46076552271252e-05)
(-0.00502679626077676 -0.00546562145307302 0.000423907386092306)
(-0.00246412945034221 -0.0024100025641135 0.000217433409860877)
(-0.00116155422278875 0.000126924792282767 9.00473353014219e-05)
(-0.000614144723804061 0.00139733507989898 5.2283666056116e-05)
(-0.000327098994516746 0.00188755292803003 4.02768488943328e-05)
(-0.000171814113978578 0.00212965034501737 4.68492788972939e-05)
(-7.67704800154364e-05 0.00227649231813356 6.69159346943088e-05)
(-2.00431793622903e-05 0.00242332063671635 9.25166608573131e-05)
(-1.26620632018159e-05 0.00246474309203814 7.96465029073244e-05)
(-1.99222454255787e-06 0.00247026876927527 5.47008038759632e-05)
(6.22230770832554e-06 0.00243566915397538 2.63017258908824e-05)
(1.24746708777742e-05 0.00237234996895233 -8.72722599812649e-07)
(1.73210458251168e-05 0.00228524699962664 -2.1913510453354e-05)
(2.15743048901344e-05 0.00218381600798308 -3.24561095297016e-05)
(2.53022146613182e-05 0.00207417023892831 -2.80415355327147e-05)
(2.97957898529702e-05 0.00196037292861935 -4.52959737343072e-06)
(3.64589950619967e-05 0.00184556809906292 4.32308613799825e-05)
(4.61805788535787e-05 0.00172519019876476 0.000115864809544845)
(5.79382754384205e-05 0.00155349540156183 0.000199975988589981)
(5.57267608356962e-05 0.00187214427174285 0.000227292521956412)
(5.66112639778422e-05 0.00198075089451547 -6.1488689254182e-05)
(8.55696089601366e-05 0.00201697289925117 -3.39151254735766e-05)
(5.50467214155928e-05 0.00211863418668681 -2.52562153900448e-05)
(0.000109255331830519 0.00189060579927108 -2.66279755172934e-05)
(0.000107791555303338 0.00186094045686978 -6.28829059724274e-05)
(-1.05921440829531e-05 0.00174734567217684 -9.46099600361101e-05)
(0.000149575161757138 0.00169357771645558 -4.11995938724631e-05)
(7.19579431211213e-05 0.00160430492363011 -9.05118103016667e-05)
(-0.000293522416403657 0.00136516033311282 -0.000131471224720318)
(0.000132530847782776 0.00173361744945519 -4.53795515626521e-07)