/*--------------------------------*- C++ -*----------------------------------*\
  =========                 |
  \\      /  F ield         | OpenFOAM: The Open Source CFD Toolbox
   \\    /   O peration     | Website:  https://openfoam.org
    \\  /    A nd           | Version:  12
     \\/     M anipulation  |
\*---------------------------------------------------------------------------*/
/*   Windows 32 and 64 bit porting by blueCAPE: http://www.bluecape.com.pt   *\
|  Based on Windows porting (2.0.x v4) by Symscape: http://www.symscape.com   |
\*---------------------------------------------------------------------------*/
FoamFile
{
    format      ascii;
    class       volScalarField;
    location    "300";
    object      k;
}
// * * * * * * * * * * * * * * * * * * * * * * * * * * * * * * * * * * * * * //

dimensions      [0 2 -2 0 0 0 0];

internalField   nonuniform List<scalar> 
10103
(
6.59088035218366e-08
6.6390947460523e-08
5.77418368338079e-07
6.762714634584e-07
6.70179207867762e-08
5.85899014079845e-07
6.84557056282209e-07
2.02407701559824e-06
8.77350948034592e-06
2.55013714389148e-06
6.73047441621404e-08
5.95401999844823e-07
6.91899996178491e-07
2.06043929540485e-06
8.91042494667663e-06
2.57309934729695e-06
4.71279675656652e-06
2.74501212224078e-05
2.83374332398222e-05
6.07828080043824e-06
6.71768540919258e-08
5.9922433010419e-07
6.95555999158689e-07
2.08660386791471e-06
9.01815159486196e-06
2.58906775746388e-06
4.7861452714517e-06
2.77752740350664e-05
2.85993531187912e-05
6.11140688559917e-06
8.35347252671841e-06
5.17810910007618e-05
6.92975101551094e-05
5.38134966049037e-05
1.07908605149326e-05
6.67304437172129e-08
5.99024105909985e-07
6.95404555119755e-07
2.09288817170022e-06
9.06883901329318e-06
2.59166526146709e-06
4.82333370611831e-06
2.79623211585352e-05
2.87491767008058e-05
6.12620896632956e-06
8.45339282242331e-06
5.21890578386342e-05
6.96978950029732e-05
5.40778071996237e-05
1.08389343069314e-05
1.26348891491015e-05
7.74033268060736e-05
0.000110815198650463
0.000111201119638288
8.01916964434274e-05
1.62837633294814e-05
6.59718723062425e-08
5.9614270264863e-07
6.92094677708663e-07
2.08345374043587e-06
9.07319423969594e-06
2.58151426612852e-06
4.81888680500311e-06
2.79941436537565e-05
2.87757508297649e-05
6.11369111272086e-06
8.48626520496279e-06
5.23398919847146e-05
6.98219072953528e-05
5.41685922574332e-05
1.08504617638695e-05
1.27442428445004e-05
7.78137393103677e-05
0.000111247596810733
0.00011157253783807
8.04680127170596e-05
1.63563863215255e-05
1.73881245045896e-05
0.000102481497913816
0.000150769005465199
0.000163982809179011
0.000151616443525217
0.000105747712982965
2.24411903891338e-05
6.48353614376291e-08
5.90580493440229e-07
6.8569851772858e-07
2.06088446645711e-06
9.03920099209041e-06
2.56078288733215e-06
4.77870873427036e-06
2.78888556928097e-05
2.86892468894249e-05
6.07445285553847e-06
8.45328521231068e-06
5.22352267544429e-05
6.96837109302479e-05
5.40798670885961e-05
1.0816107080153e-05
1.27576720515709e-05
7.78684870723842e-05
0.000111265491230136
0.000111581520622478
8.05006372847835e-05
1.63688463963893e-05
1.74976474343706e-05
0.00010285594408978
0.000151188212612573
0.000164387856305935
0.000151993144523409
0.000106062462701718
2.25459430298483e-05
2.24467235336591e-05
0.000126511525138287
0.000188712863108349
0.000213784840824882
0.000214233910432637
0.000190260889423655
0.000130200359857553
2.8890748704124e-05
6.32402752601923e-08
5.81743971791896e-07
6.75767844864837e-07
2.02585787136348e-06
8.96777849513658e-06
2.52995086807e-06
4.70681741521037e-06
2.76599768027037e-05
2.8499854034674e-05
6.01144117579624e-06
8.3628964717933e-06
5.18928917320777e-05
6.92971300282305e-05
5.3813974399825e-05
1.07362418590487e-05
1.26829275382098e-05
7.75801800746996e-05
0.000110894049284645
0.000111241322788551
8.02895327524493e-05
1.63122456817981e-05
1.74825414766655e-05
0.00010279480280484
0.000151076176151095
0.00016427028179499
0.00015191360267586
0.000106058420164008
2.25601319909368e-05
2.2550208000872e-05
0.000126844740565136
0.000189101557362139
0.000214182029306475
0.000214634875713726
0.000190660385482701
0.0001305681441388
2.90325187234404e-05
2.76350150636438e-05
0.000149337086235694
0.000224537248257299
0.000260934068900104
0.000272301678251965
0.000262205014322769
0.000226847970875176
0.000153039803270762
3.5102423084005e-05
6.11035458988947e-08
5.69355305481035e-07
6.61783931849681e-07
1.97796175239991e-06
8.85563868394555e-06
2.48837806177656e-06
4.60404258298846e-06
2.73122690597043e-05
2.82100970279992e-05
5.92498112620716e-06
8.2179794564196e-06
5.13296145691346e-05
6.8673445886608e-05
5.33783878503508e-05
1.06139173626245e-05
1.25267587013709e-05
7.69670854430676e-05
0.000110146689760605
0.000110557294418925
7.98356322267678e-05
1.61850756093408e-05
1.73558878735525e-05
0.000102316773923266
0.000150460409033276
0.000163650160653558
0.000151388715377424
0.000105740361039265
2.24771178133056e-05
2.2504336144134e-05
0.000126669485958738
0.000188854097247294
0.000213916300840095
0.000214399706646709
0.000190505747756912
0.00013053948088453
2.9050080107624e-05
2.77329410784041e-05
0.000149633109427621
0.000224893922006629
0.000261308275270469
0.000272686863386775
0.00026260832376876
0.00022727452131964
0.000153475529015132
3.52769520365822e-05
3.28090944405323e-05
0.000170857266698141
0.000258244657307503
0.000305431368144499
0.000326914803295911
0.000327751780932929
0.000307804222182229
0.00026145731286714
0.000173901680547444
3.98421855779546e-05
5.83593128593452e-08
6.43154880417865e-07
5.52902475004897e-07
1.91595578325391e-06
8.69885713630537e-06
2.43488399336306e-06
4.46994164880412e-06
2.68441074347904e-05
2.78183721735436e-05
5.81475369196877e-06
8.01900253719075e-06
5.05511881114783e-05
6.78171522605769e-05
5.27749877448742e-05
1.04502331162015e-05
1.2292223054615e-05
7.60429855010079e-05
0.000109032648803392
0.000109535368267056
7.91442005562001e-05
1.59900098814101e-05
1.71261799223753e-05
0.000101438498693208
0.000149353136552789
0.000162534819687008
0.000150421562570489
0.000105106305027987
2.22929106699086e-05
2.23234653321865e-05
0.000126011252576595
0.000187998635595892
0.000213010038490428
0.000213543290022171
0.000189807240809199
0.000130125308313227
2.8940384029394e-05
2.76550862743826e-05
0.000149357615437868
0.000224516704743159
0.000260890621070661
0.000272277445563283
0.000262260962392125
0.000227051395191385
0.000153445413555611
3.5286519945468e-05
3.29019220549962e-05
0.00017112585975732
0.000258574190707203
0.000305781205898645
0.000327272353264267
0.000328123086509722
0.00030820412165462
0.000261906433112412
0.000174394780648424
4.00527710461774e-05
3.78651831163504e-05
0.000190996528476935
0.000289859977806493
0.00034731877321416
0.000378370966452576
0.000388819590407335
0.00038036914411564
0.000351195069753008
0.000294265595933784
0.000192273091681459
4.13445042482461e-05
5.4961208898167e-08
6.19186625382971e-07
5.3163522393827e-07
2.36795733534401e-06
8.49327687216849e-06
1.83925557062152e-06
4.30344479670512e-06
2.62498151959015e-05
2.7319745879939e-05
5.67959003383563e-06
7.76612629424629e-06
4.95568940543835e-05
6.67283060151706e-05
5.20035533784571e-05
1.02438133607518e-05
1.19811392419804e-05
7.48118385753283e-05
0.000107556342985293
0.000108176568040762
7.82166072638488e-05
1.57290364724229e-05
1.67956355123856e-05
0.000100170525727646
0.000147761362409245
0.000160928661333251
0.000149015732990347
0.000104159037260499
2.20076716584029e-05
2.20154014837106e-05
0.000124887278916116
0.000186547122195025
0.000211470125432108
0.000212070117793665
0.000188564749662681
0.000129319452361923
2.86961203420827e-05
2.74182956447101e-05
0.000148538970570501
0.000223436067020077
0.000259705199783384
0.000271090958274354
0.000261174951850792
0.000226189172374066
0.000152965100089523
3.51336568319945e-05
3.27942312575141e-05
0.000170762145205181
0.000258079947847137
0.000305218459044121
0.000326688645801802
0.000327567156436151
0.000307735849998813
0.000261601776616479
0.000174332217655186
4.00439633631267e-05
3.79549712984251e-05
0.000191246761073019
0.000290169590209761
0.00034764839069915
0.000378702387661214
0.000389152719680783
0.000380716053586858
0.000351579025884664
0.000294721451020315
0.000192792939852036
4.15266378063545e-05
4.27636191856577e-05
0.000209757436863912
0.000319407666121817
0.000386656552709519
0.000426854849730639
0.000446131950223448
0.000447233036588347
0.000430401566135823
0.000392715321728466
0.000325725850907676
0.000209059472943604
3.7857397435563e-05
5.09132294757587e-08
5.89397473391511e-07
5.05073059483326e-07
2.28571936461809e-06
8.23040598182541e-06
1.74817071381568e-06
5.51719071312776e-06
2.67067289536165e-05
2.55244435410976e-05
4.10515568186311e-06
7.46031383908874e-06
4.83418091485371e-05
6.54038704763626e-05
5.10592256773227e-05
9.99412611744692e-06
1.15944465086201e-05
7.3274249883834e-05
0.000105717935530866
0.000106480078449109
7.70503697125144e-05
1.54021686629612e-05
1.63654104233873e-05
9.8515960071694e-05
0.000145688688540412
0.000158831445268378
0.000147169380109355
0.000102901754049005
2.16214478018664e-05
2.15827841435114e-05
0.000123305058317567
0.000184505891044068
0.000209298493787392
0.000209983105465799
0.000186777368031291
0.000128119198410511
2.83139605255146e-05
2.70308002792773e-05
0.000147192060225512
0.000221664440122409
0.000257759314311715
0.000269130172523299
0.000259350302972043
0.000224683192075175
0.00015202166223992
3.48063805959518e-05
3.25051162693482e-05
0.000169797975806883
0.000256795289244494
0.000303769941495494
0.000325184236752071
0.000326098919786804
0.000306410013755437
0.000260556047112407
0.000173742516651508
3.98365949834494e-05
3.78213266508003e-05
0.000190808716233012
0.000289571403501852
0.000346954670960199
0.000377956271175959
0.000388397516705192
0.000380003269046539
0.000350973767001728
0.000294311070211946
0.000192663534265175
4.15045727367645e-05
4.28518564981836e-05
0.000209997785541494
0.000319705841382993
0.000386972163234815
0.000427166185387505
0.000446432969225749
0.000447529346783202
0.000430709147596854
0.00039306377621414
0.000326161224818005
0.000209544640770585
3.8018530995695e-05
4.74877084656061e-05
0.00022720091889185
0.000346982283629243
0.000423540121967092
0.000472499458340385
0.000500099476883799
0.000509628453402488
0.000502535142756465
0.000478160330588248
0.000432932256017673
0.000357869170693314
0.000235577968171634
4.62994148224459e-08
5.53789360223734e-07
4.73073703006773e-07
2.1864891786653e-06
7.90413739741401e-06
1.64363706225715e-06
5.32448315751484e-06
2.59672252143195e-05
2.46619885610514e-05
3.8775647420218e-06
9.69908442771663e-06
4.99351325042913e-05
6.38380565473398e-05
4.69031686305375e-05
7.10359642055372e-06
1.11339860101062e-05
7.1428369570675e-05
0.000103514304792541
0.000104443303507047
7.56449926788441e-05
1.5010143981395e-05
1.58372651273356e-05
9.64758285635068e-05
0.00014313519815955
0.000156241190962044
0.000144879452983804
0.000101335219530269
2.1134517486571e-05
2.10283406799712e-05
0.000121266436057991
0.000181877162476576
0.000206495797244836
0.000207277553989285
0.000184442558295397
0.000126522142510471
2.77909064081375e-05
2.64966413734813e-05
0.000145323138906255
0.000219207728389906
0.000255055675874498
0.000266392560484222
0.000256784083616592
0.000222526975182169
0.000150604085144555
3.4299447898925e-05
3.20430815522261e-05
0.000168247873912325
0.000254732390570853
0.0003014444418299
0.000322762821237775
0.000323718214351664
0.000304222954212427
0.000258760459630423
0.000172606485618176
3.94111512433446e-05
3.7485157397029e-05
0.000189718136249426
0.00028810278771301
0.000345267642402583
0.000376156442067609
0.000386572318748572
0.000378243675486082
0.000349388543418419
0.000293050524642123
0.000191924181851677
4.12595775461469e-05
4.26941590279808e-05
0.000209498209296816
0.000319017811380609
0.000386161829414715
0.000426273934951363
0.000445497117351314
0.000446593270752171
0.000429824323929595
0.000392298004884716
0.000325609918723608
0.000209323624849314
3.7979411099488e-05
4.7576633017821e-05
0.000227436570363852
0.00034727602697447
0.000423848417666793
0.000472797973414167
0.000500377481830355
0.000509885662826009
0.000502779662364977
0.000478410014759572
0.000433221039956514
0.000358245750533336
0.000236027912920239
3.42036205674373e-05
5.20258297390669e-05
0.000243429075631908
0.000372678025477805
0.000458065411532882
0.000515422135085414
0.000550981676092693
0.000568268365392303
0.000569400161128711
0.000554994002295426
0.000523935737045721
0.000472847965998422
0.000396480833875455
4.12657548469567e-08
5.12762964114958e-07
4.36139782939596e-07
2.06964937257506e-06
7.51199907099619e-06
1.52725474704071e-06
5.0982778192918e-06
2.50897769107484e-05
2.36603388972761e-05
3.62367918837529e-06
9.35585141188231e-06
4.86198081680588e-05
6.2021329041218e-05
4.52419432394049e-05
6.70028406914422e-06
1.4550569130011e-05
7.39949469786303e-05
0.000102061589811035
0.00010094166618565
6.92737621773732e-05
1.06030890677685e-05
1.52150004683001e-05
9.40501491991237e-05
0.000140098803953958
0.00015315550530387
0.000142143785430277
9.9462070474809e-05
2.0559991925993e-05
2.03547603031655e-05
0.000118772273474951
0.000178660750797837
0.000203060305896637
0.000203948704871965
0.000181557938770457
0.000124525894817696
2.71240048601334e-05
2.58197317714627e-05
0.000142935000355622
0.000216067236866298
0.000251594220773497
0.000262877017240666
0.000253470756494462
0.000219713225134267
0.000148692306988687
3.36050814295653e-05
3.14116945795305e-05
0.000166118917824648
0.000251895361628986
0.000298246119602387
0.000319423457196245
0.000320420902241695
0.000301167438698267
0.000256202722464441
0.000170911827933044
3.8763257664988e-05
3.69547471787133e-05
0.000187989695805318
0.000285776585054918
0.000342596699160777
0.000373308105020282
0.000383677899906583
0.000375433949129935
0.000346815944025865
0.000290925795212097
0.000190540405841673
4.07592268301947e-05
4.23146623620077e-05
0.000208298533657385
0.000317384770571193
0.000384259341502005
0.000424205400829774
0.000443346345562335
0.00044444145800798
0.000427757549412808
0.000390425365003551
0.00032409128779475
0.000208392673953697
3.77167480160248e-05
4.73969136792224e-05
0.000226883741377267
0.000346510829973381
0.000422935331652249
0.000471775985868622
0.000499281688111205
0.000508752958432852
0.000501650662647962
0.000477333651713994
0.000432263534847776
0.000357496891600025
0.000235610183317167
3.40296359408309e-05
5.21166728511476e-05
0.00024366635066946
0.000372973351455322
0.000458372516934345
0.000515714810121358
0.000551245926022995
0.000568499295803595
0.000569599834416107
0.000555171250581059
0.00052411049881846
0.000473059474693206
0.000396765125328461
0.000313156458517886
0.000199840664083839
5.63615178000924e-05
0.000258522298398808
0.000396592699737497
0.000490327104745806
0.000555720205492609
0.000598938242173072
0.00062357163473359
0.000632072137473947
0.000625744948965927
0.000604701920906774
0.000567846808273136
0.00051314694853565
3.60027432021911e-08
4.66922732522601e-07
3.94970493654763e-07
1.93550969130887e-06
7.05556347612046e-06
1.40136363130292e-06
4.83731140708916e-06
2.406554163578e-05
2.25205690822922e-05
3.34784323398874e-06
8.96049183514814e-06
4.70973464220449e-05
5.99459980970081e-05
4.33608722391154e-05
6.25643450371031e-06
1.40240656374274e-05
7.20895666344292e-05
9.93254911065435e-05
9.7996865727899e-05
6.68152731484546e-05
1.00077330426237e-05
1.98963640379253e-05
9.72766295297166e-05
0.000138958846040482
0.000149570898206856
0.000136577322599936
9.12407466139073e-05
1.45036510060518e-05
1.95670654358585e-05
0.000115824297931891
0.000174855154015643
0.000198990273745431
0.000199993663413287
0.00017811906938385
0.00012215550558778
2.63217735487681e-05
2.50028084040938e-05
0.000140029085770782
0.000212242711317701
0.000247373085915402
0.000258580642182517
0.000249402205605052
0.000216233237945027
0.000146259539846894
3.27167578205185e-05
3.06156608538379e-05
0.000163414538905463
0.000248286057027063
0.000294174346214926
0.00031516376372997
0.000316202064302053
0.000297235053435091
0.000252869835033622
0.000168639735520398
3.78689875262918e-05
3.62341302376496e-05
0.000185630086037711
0.000282596395900001
0.000338943435821948
0.000369411227641482
0.000379710645401692
0.000371567008617988
0.000343244059413308
0.000287917555699681
0.000188495432347602
4.00120563013126e-05
4.17214247297365e-05
0.000206413607973873
0.000314821079023131
0.000381275525484122
0.000420967137470329
0.000439982969367762
0.000441071716002102
0.000424502361996535
0.000387433788199006
0.000321581290089587
0.00020670178324585
3.71788254774266e-05
4.69759053937266e-05
0.000225589229983631
0.00034473154205151
0.000420838128314705
0.00046946426173589
0.00049683777883165
0.000506250858741946
0.00049916230630864
0.000474938953735173
0.000430065336943052
0.000355644599820245
0.000234318369043715
3.36099082465357e-05
5.1917760883455e-05
0.000243069416617641
0.000372142451479049
0.000457369904901839
0.000514578652051191
0.000550009285016343
0.000567195078156639
0.000568261719579558
0.000553835872336605
0.000522821550690815
0.000471868403796227
0.000395710182522144
0.000312021818722462
0.000198854685894076
5.64552655525635e-05
0.000258764301695373
0.00039689359194846
0.000490638415944435
0.000556013430960061
0.000599197078754284
0.000623787813246213
0.00063224348880099
0.000625874590402528
0.000604801510742097
0.000567945594934317
0.000513299053417662
0.000442695145864877
0.00037988691933312
0.000280351102814438
6.04733070973578e-05
0.00027253158183942
0.000418816384739972
0.000520417067381743
0.000593481522717979
0.000644078288382333
0.000675772726098758
0.000691157830307856
0.000691890570882157
0.000678693684525161
0.00065147689392366
0.000609428437494022
3.06901354701561e-08
4.17390876653919e-07
3.50730098262492e-07
1.78442317327054e-06
6.53760376205859e-06
1.26873821384676e-06
4.5406903310894e-06
2.28865008656857e-05
2.12461127110133e-05
3.05582110990259e-06
8.51087912964504e-06
4.5353112923692e-05
5.76060517766645e-05
4.12667147622532e-05
5.77939021729564e-06
1.34308844620008e-05
6.99144643712097e-05
9.62244236996857e-05
9.4677424647082e-05
6.40605328994595e-05
9.35612422169505e-06
1.91505848862602e-05
9.47776664443235e-05
0.000135318338313535
0.000145482595013527
0.000132571242131985
8.80541309923079e-05
1.3710309377753e-05
2.54038992501477e-05
0.000119408997679716
0.000174125298109661
0.000195410682202027
0.000194282655165911
0.000170460003132875
0.000112426200591451
1.86721695703241e-05
2.40519869924089e-05
0.000136608350163242
0.000207733706060116
0.00024238925232611
0.000253502515189956
0.000244572953818547
0.000212075813524478
0.000143345960808296
3.16485128973184e-05
2.96599262721433e-05
0.000160135768367144
0.000243906194946214
0.000289227590332845
0.000309980049512531
0.000311056575247119
0.000292417820253545
0.000248750338088515
0.000165761751255471
3.67140116048151e-05
3.53287058769954e-05
0.000182643060595191
0.000278563108171017
0.000334309206462699
0.00036446360719314
0.000374665965481714
0.000366635079871439
0.000338660218132025
0.000284003454268326
0.000185757148876676
3.89528380697942e-05
4.09181911288675e-05
0.00020385039173845
0.000311332132512714
0.000377213469591227
0.000416559432385251
0.000435404392755884
0.000436477995025599
0.000420048260471562
0.000383305045359268
0.000318049230046227
0.00020422818390379
3.64225496202863e-05
4.63221458671734e-05
0.000223567916148539
0.000341953847407382
0.000417569335249984
0.000465871048908289
0.000493049801485868
0.00050237913914798
0.000495309870340859
0.000471215980440695
0.000426608703667842
0.000352655063071875
0.000232050290925593
3.28987309202291e-05
5.14580606251783e-05
0.000241688795786601
0.000370233481200398
0.000455098009163713
0.000512047630740302
0.000547300967162887
0.000564380275607735
0.000565404787477067
0.000550999952740628
0.000520075078861474
0.000469290709270188
0.00039337754489026
0.000309720823545247
0.00019700939780985
5.62393782743369e-05
0.000258129746547419
0.000396006090619491
0.000489558433274626
0.00055477750414746
0.000597837095170564
0.000622334325369298
0.000630726165402329
0.000624323141389442
0.000603247556079398
0.000566421775482763
0.000511825325684855
0.000441232290128689
0.000378515280777281
0.000279371329413632
6.05724189136178e-05
0.000272780448115744
0.000419125695545058
0.000520736578004996
0.000593780783717421
0.000644338927455223
0.000675984001892529
0.000691314607205128
0.000691992471334754
0.000678747982552784
0.000651507929798051
0.000609493596729876
0.000552005627379321
0.000485487214993685
0.000423585501913254
0.000328416414233235
6.43401495960796e-05
0.000285494549091239
0.000439418146509286
0.000548421173803074
0.000628787809255402
0.000686485856315145
0.000725009314577139
0.00074698518058037
0.000754234393689792
0.000747787987391792
0.000728023468183014
0.00069478340787026
2.54782385373993e-08
3.65400432024947e-07
3.04599758414428e-07
1.61787613387249e-06
5.96379089079454e-06
1.13075394286744e-06
4.20761611679146e-06
2.15452800925449e-05
1.98440068798732e-05
2.75405724526646e-06
8.00326289139475e-06
4.33660049411414e-05
5.49934968521402e-05
3.89695880694394e-05
5.27856087830728e-06
1.27670548629793e-05
6.74502671885383e-05
9.27467239176977e-05
9.0982526261246e-05
6.10202516185126e-05
8.65834955106368e-06
1.83353119402407e-05
9.19664692919458e-05
0.000131212803069289
0.000140885713754476
0.000128082301605849
8.45005045310599e-05
1.28446179305503e-05
2.43965600320781e-05
0.000116302542368488
0.000169580230091159
0.000190197147558921
0.000188935661813091
0.000165477659489985
0.000108585384682727
1.76790495556815e-05
3.04326664841423e-05
0.00013998509742778
0.000207254610454444
0.00023898630662401
0.000247639181432368
0.000236641503851493
0.000202541035975803
0.000132678806574944
2.29760093976359e-05
2.85513946845372e-05
0.000156286965876705
0.000238755644683037
0.000283403691767705
0.000303867231671684
0.000304980772515999
0.000286711760368976
0.000243845076395795
0.000162305523533726
3.53184660414775e-05
3.4243957022927e-05
0.000179031104376333
0.000273677814746525
0.000328696071876176
0.000358462019370765
0.000368539419440581
0.000360631588224474
0.000333054362307558
0.000279163419156719
0.000182272211865508
3.75516385455697e-05
3.99098558767121e-05
0.00020061281302972
0.000306919673171456
0.000372073590960059
0.000410980833116081
0.000429606870554122
0.000430653547350014
0.00041438430720133
0.00037801895865432
0.00031345711333988
0.000200894715687536
3.53147430994231e-05
4.54399381720964e-05
0.000220825782511248
0.000338184161540752
0.000413133192162061
0.000460997804778345
0.000487916227179786
0.000497133049493149
0.000490084785280027
0.000466150411575746
0.000421866118293216
0.00034848077672353
0.000228811020141692
3.19787218195997e-05
5.07460096048406e-05
0.000239540381410213
0.000367263372528826
0.000451570829833187
0.000508131613649653
0.000543126827348434
0.000560056812944517
0.000561026788018419
0.000546656515803312
0.000515858257589787
0.000465305456439246
0.000389720196778509
0.000306093432641994
0.000194117647949397
5.57442978688873e-05
0.000256671244188389
0.000393981119125917
0.000487130295681072
0.000552049281522492
0.000594890715591975
0.000619239501925289
0.00062754368454841
0.000621108047556776
0.000600052126967284
0.000563296134090044
0.000508811348929836
0.000438337379284728
0.000375741894044249
0.000277157827168164
6.03431770738003e-05
0.000272114092684251
0.000418188887110757
0.000519589530815251
0.000592458063139128
0.000642871299340568
0.000674400669251632
0.000689643058812564
0.000690258885359134
0.000676978163013106
0.00064972568363902
0.000607710622540074
0.000550200111886708
0.000483739526955562
0.00042198114881982
0.000327336086061259
6.44518845728166e-05
0.000285751824580538
0.00043973739777176
0.000548751622262411
0.000629097328749357
0.000686754255669808
0.000725223854194312
0.000747138555723085
0.000754323989428028
0.000747818825310096
0.000728017967140041
0.000694799901981228
0.00064758593934871
0.000587588773621526
0.000522123383599363
0.000455385502819586
0.000361723769372877
6.79444179285917e-05
0.00029744368999595
0.000458461508208084
0.000574415627817205
0.000661715511198089
0.000726232028894508
0.000771369372913963
0.00079973071406009
0.000813195075857974
0.000812943814799004
0.000799591472205766
0.000773315085871559
2.04811994508834e-08
3.12086287426149e-07
2.57651530041373e-07
1.43816324652541e-06
5.34023746420588e-06
9.88870156219976e-07
3.83984250558335e-06
2.00356163314778e-05
1.83156613394688e-05
2.44761671716092e-06
7.43394931425728e-06
4.11138262739156e-05
5.21000152116105e-05
3.6481564649306e-05
4.76263649583198e-06
1.20211051773742e-05
6.46608678341255e-05
8.88750769516042e-05
8.69109055981138e-05
5.77096272583226e-05
7.92608770945975e-06
1.74473954534598e-05
8.88201512539972e-05
0.000126627618664265
0.000135774496931988
0.000123113618408307
8.05936040644016e-05
1.19182604283165e-05
2.33401230522049e-05
0.00011287219856753
0.000164483425819046
0.000184348327535449
0.000182948513628115
0.000159912217002899
0.000104312709059967
1.65977741385678e-05
2.90958874404229e-05
0.000136226148141576
0.000201786771034663
0.000232647837752547
0.000240988334408124
0.000230130960072146
0.000196667448752347
0.000128248363653027
2.17844271181329e-05
3.37374895319174e-05
0.000158296221972243
0.000238169338296265
0.000280120492439936
0.000297973280197979
0.000296824973773816
0.000276701584945675
0.000232836055991292
0.000151876840808868
2.72996334646601e-05
3.29873210613526e-05
0.000174797587604928
0.00026794229905749
0.000322101406684645
0.000351403383835146
0.000361327444161604
0.000353553510102144
0.0003264240209959
0.000273399545591606
0.00017806864231605
3.58082250686723e-05
3.87024381181513e-05
0.000196702479219768
0.000301583726420422
0.000365853550221427
0.000404228093075243
0.000422586973072426
0.000423592844232458
0.000407502273568693
0.000371559320500109
0.000307765799708659
0.000196562855102767
3.37964530369429e-05
4.43347276413125e-05
0.000217365625411965
0.000333424523167127
0.000407530249180045
0.000454843344888826
0.000481433883451224
0.000490506956031545
0.000483478585294373
0.000459726483394335
0.000415806042880323
0.000343052857593076
0.000224467823019913
3.06814244630043e-05
4.97876222701631e-05
0.000236630541917855
0.0003632387310911
0.000446793432382187
0.000502833034261164
0.000537486508845087
0.000554221501845932
0.000555121340420253
0.000540794585041712
0.000510150788932445
0.000459873274622061
0.000384667921870169
0.000301008583765224
0.000190006730869624
5.4978385628071e-05
0.000254405631004803
0.000390836815451927
0.000483369199915928
0.000547840006204265
0.000590365403777509
0.000614507282570964
0.000622696430478113
0.000616225927290769
0.00059520811047654
0.00055855800608702
0.000504235049800403
0.000433923176414798
0.000371442546377282
0.000273556182920047
5.98165295531321e-05
0.000270586812308287
0.000416059036803235
0.000517021420313414
0.000589552724945088
0.000639710665886218
0.000671054413821488
0.000686170787873153
0.00068671235683532
0.000673402991345187
0.000646160613310832
0.000604185122115864
0.000546743178337187
0.000480395086848806
0.00041882339957177
0.000324856584794658
6.42137028301991e-05
0.000285059354524687
0.00043875888661967
0.000547546253724182
0.000627699116204651
0.000685192858472089
0.000723527552282055
0.000745333691258322
0.000752435093351969
0.000745869163870761
0.00072602742992477
0.00069277467610854
0.000645495450086704
0.000585516260340388
0.000520106059106084
0.00045355452870151
0.000360497008911386
6.80610955020862e-05
0.000297711535284383
0.000458791016233767
0.00057475845225117
0.000662038227050953
0.000726512814649156
0.000771593749926792
0.000799889645919229
0.000813284376146042
0.000812967321764997
0.000799571264554178
0.000773311396424857
0.000734047132009545
0.000681759657414691
0.000619324241077697
0.00055121350313678
0.000478052303494586
0.000384982580090649
7.12913932844926e-05
0.000308406014740388
0.000476001538729912
0.000598469997309843
0.000692335915572554
0.000763381209216411
0.000814916151303352
0.000849491523885158
0.000868984985057544
0.00087463790435158
0.000867188790359408
0.000846994068400977
1.58502600485531e-08
2.58609212166629e-07
2.11017448180305e-07
1.24821336370165e-06
4.67412764167225e-06
8.45488597746041e-07
3.43998301901817e-06
1.83537223810884e-05
1.66601529925795e-05
2.13944092759717e-06
6.80321981478817e-06
3.85758309329932e-05
4.89144742588019e-05
3.38100259552793e-05
4.23862581132597e-06
1.11801847904833e-05
6.15060956684874e-05
8.45893848504866e-05
8.24600448597162e-05
5.41432168484653e-05
7.17077157993623e-06
1.64602240161459e-05
8.52794849910488e-05
0.000121537100728049
0.000130140076947008
0.000117668911931194
7.63506762435293e-05
1.09446889382431e-05
2.22344987006817e-05
0.00010909225679781
0.000158821898157196
0.000177857786119953
0.000176320041341835
0.000153769580288441
9.96226381780314e-05
1.54404037446203e-05
2.77346623445668e-05
0.000132157549720397
0.000195698397465438
0.000225556049350481
0.000233550310803995
0.000222858415075763
0.000190118314902999
0.000123326807649299
2.04882666474137e-05
3.19448583286178e-05
0.000153771707249948
0.000231745604712145
0.000272652833238771
0.000290032884269862
0.000288857132447387
0.000269121239587996
0.000226150386199632
0.00014691074838181
2.59147238417775e-05
3.38534949609153e-05
0.00017317495999881
0.000266735152968333
0.000318778918359925
0.000345403219259891
0.000353029397668621
0.00034328639103597
0.000314523561127099
0.000261360330847146
0.000169949224723795
3.15673727265894e-05
3.7304251321444e-05
0.00019212300620943
0.00029532392875042
0.000358553273390944
0.000396299414002489
0.000414341457916956
0.000415293479646918
0.00039940017885831
0.000363922967548346
0.000300967686490306
0.00019125098734385
3.18145966902159e-05
4.30126588423817e-05
0.000213185155755148
0.000327674901482596
0.000400758663749616
0.000447404809778872
0.000473599170738867
0.000482495953599559
0.000475485223306443
0.000451932376401841
0.000408400562277876
0.000336290802824649
0.00021867761387981