/*--------------------------------*- C++ -*----------------------------------*\
  =========                 |
  \\      /  F ield         | OpenFOAM: The Open Source CFD Toolbox
   \\    /   O peration     | Website:  https://openfoam.org
    \\  /    A nd           | Version:  12
     \\/     M anipulation  |
\*---------------------------------------------------------------------------*/
/*   Windows 32 and 64 bit porting by blueCAPE: http://www.bluecape.com.pt   *\
|  Based on Windows porting (2.0.x v4) by Symscape: http://www.symscape.com   |
\*---------------------------------------------------------------------------*/
FoamFile
{
    format      ascii;
    class       volScalarField;
    location    "300";
    object      nut;
}
// * * * * * * * * * * * * * * * * * * * * * * * * * * * * * * * * * * * * * //

dimensions      [0 2 -1 0 0 0 0];

internalField   nonuniform List<scalar> 
10103
(
1.76351739199836e-08
1.77641704930726e-08
1.44831357547318e-07
2.21880357261457e-07
1.79319801999381e-08
1.46957648411175e-07
2.24598902425439e-07
4.81497434885943e-07
8.67699714469569e-06
8.42088718357416e-07
1.8008740025109e-08
1.4934330718268e-07
2.27007857318007e-07
4.90142098323789e-07
8.84871315315332e-06
8.49670973046441e-07
1.08657169178126e-06
3.2376071743937e-05
3.51247682752907e-05
2.03121412650378e-06
1.79746003835628e-08
1.50301446404503e-07
2.28207152095402e-07
4.96377306443981e-07
8.96884703258261e-06
8.54943035240751e-07
1.10347492621927e-06
3.28840010365818e-05
3.55272376239332e-05
2.04228213320878e-06
1.89581099188442e-06
5.94548710356131e-05
0.000134135794391867
6.92395854768834e-05
3.62724804974573e-06
1.78553299309883e-08
1.50251898350027e-07
2.28158458744549e-07
4.97868199241207e-07
9.03669922925926e-06
8.55798518129462e-07
1.11206251406876e-06
3.31461640400106e-05
3.57290573232345e-05
2.04722320526362e-06
1.91848286464331e-06
6.00855332127366e-05
0.00013562610115133
6.94778008288116e-05
3.64339884720108e-06
2.84885522574238e-06
8.46687982437929e-05
0.000232947921134534
0.000249289313786312
0.00010248643895037
5.47566503059068e-06
1.76526183502265e-08
1.49530464066563e-07
2.27070406878659e-07
4.95624772773707e-07
9.06273098477057e-06
8.52446274549537e-07
1.11103390570435e-06
3.32222867622985e-05
3.58143656647233e-05
2.04302708775748e-06
1.92594701708215e-06
6.03226018856904e-05
0.000136061454539129
6.95747459096168e-05
3.64725161682266e-06
2.87350525677659e-06
8.5260435661032e-05
0.000235140712727434
0.000250103195092238
0.000102615555598893
5.5000577085224e-06
3.91649445166747e-06
0.000107410492735029
0.000314364884692739
0.000437943689113123
0.0003494782170248
0.000131565493948282
7.55090199363155e-06
1.73488950966778e-08
1.48137436511427e-07
2.249705157423e-07
4.90258117902873e-07
9.05346613658933e-06
8.45587807441881e-07
1.10177008180598e-06
3.3148103160241e-05
3.57935174139906e-05
2.02988837359436e-06
1.91846548788889e-06
6.0271473588659e-05
0.00013602772248775
6.95243996894299e-05
3.63565373745502e-06
2.87653294434859e-06
8.53938557063243e-05
0.000235627119811005
0.000250240939339619
0.000102630206322235
5.50417898828031e-06
3.94115543697191e-06
0.000107906029235095
0.000316464825053857
0.000439594700210287
0.000349788652408984
0.000131712495438192
7.58607580320352e-06
5.06343216484171e-06
0.00012810046888026
0.000382501634363663
0.000596646154273075
0.000622910691054425
0.000430870801423787
0.000157087817254205
9.7534054050797e-06
1.69226090982721e-08
1.45923934466356e-07
2.21710232792902e-07
4.81929747102541e-07
9.01004105938099e-06
8.35392994096439e-07
1.08519570033857e-06
3.29419981198947e-05
3.56729491332455e-05
2.00878448950945e-06
1.89795054309241e-06
5.99718413672443e-05
0.000135626865144218
6.93186153826115e-05
3.60870807849492e-06
2.85968713803403e-06
8.51788631110208e-05
0.000235323607701455
0.000249862505702262
0.000102455994938548
5.48499455661816e-06
3.93774581172023e-06
0.00010791931438666
0.000316766344462223
0.000439831141348423
0.000349710922381673
0.000131719915984414
7.59067111470956e-06
5.08677124052727e-06
0.00012850412659107
0.000384199669516735
0.000598538704342942
0.000623927297528462
0.000431186179004067
0.000157317744943459
9.80111205053567e-06
6.24580810052114e-06
0.000147021669138853
0.000441005046518911
0.000728100346864427
0.000865551636987547
0.000774911338351564
0.000497141971137731
0.000178675120945161
1.18860417296564e-05
1.63515413886907e-08
1.42820433870205e-07
2.1711934837301e-07
4.70541250549155e-07
8.92929103141323e-06
8.21644803235541e-07
1.06150436211877e-06
3.26099857691975e-05
3.54557389040778e-05
1.97981585361933e-06
1.86506060596526e-06
5.94467721399965e-05
0.00013489354207561
6.89638341679534e-05
3.56741145325695e-06
2.82447281875227e-06
8.46511222085013e-05
0.00023439522234704
0.000248998795977285
0.000102084146477468
5.44193141315301e-06
3.90923368110357e-06
0.000107544727091032
0.000316116497142339
0.000439088771722085
0.000349073274871081
0.000131486855103917
7.56234641434092e-06
5.07641862775535e-06
0.000128406842542976
0.000384220555748874
0.000598643414176856
0.000623873890502968
0.000431102709561181
0.000157360332403878
9.80664069684653e-06
6.26794071935485e-06
0.000147348360662644
0.000442301797805622
0.000729807551237179
0.000867028668502398
0.000775927684068405
0.000497650326795162
0.000179040901915606
1.19448470941987e-05
7.42577810220059e-06
0.000164245444474142
0.000491995225057571
0.000838772062130478
0.00107100955964922
0.0010956964351607
0.000898779275391419
0.000552039673150708
0.000195602892390822
1.33531511617505e-05
1.56180728789066e-08
2.11003960352533e-07
1.3869860930952e-07
4.55797648918065e-07
8.80707338541095e-06
8.03953448588596e-07
1.03059064301467e-06
3.21496915574646e-05
3.514465249444e-05
1.94286999904502e-06
1.81990574838242e-06
5.87019880171788e-05
0.000133842386899811
6.84641230221383e-05
3.51210327685388e-06
2.77159027501658e-06
8.3827135891404e-05
0.000232893287064818
0.000247672971426259
0.000101519020257014
5.3758025379995e-06
3.85748872823073e-06
0.000106810329752254
0.000314668928699034
0.000437469616919588
0.000347856230041058
0.000130999275271984
7.49959231501762e-06
5.03562794917969e-06
0.000127888662247077
0.000383208833378011
0.000597432027458551
0.000622742241401903
0.000430376210509049
0.000157111486743634
9.76872866352758e-06
6.25034357210641e-06
0.000147160977572269
0.000442048639211756
0.000729595530417196
0.000866851219468891
0.000775830073819902
0.000497703557870365
0.000179184446197208
1.19473220352973e-05
7.44678206572693e-06
0.000164513086039479
0.000492973374636118
0.000840176284151078
0.00107255003298109
0.00109723067568305
0.000900021820648499
0.000552816880651167
0.000196110450691695
1.342328970947e-05
8.57709061551056e-06
0.000179785181612696
0.000536715929555544
0.000933289588318129
0.00124467066796271
0.0013762661485045
0.00128784790619549
0.00100241192429149
0.000597637524138882
0.000205375682063332
1.28785168847386e-05
1.47098229516331e-08
2.03136649895971e-07
1.33369692981137e-07
7.81822147611367e-07
8.63939624825464e-06
4.3756007859555e-07
9.92208659038919e-07
3.15528585661404e-05
3.47344808571677e-05
1.89755816867056e-06
1.76251755059459e-06
5.77335933378191e-05
0.000132480494293054
6.78271831177817e-05
3.44230274926917e-06
2.70144790137279e-06
8.2708268553135e-05
0.000230833516876228
0.000245894771050955
0.000100763251720122
5.28718913278529e-06
3.78303581822917e-06
0.000105726534175825
0.000312465532354271
0.000435016485355897
0.000346073367900586
0.00013025997692949
7.40224760664613e-06
4.96613749536715e-06
0.000126974162103565
0.000381283205949382
0.000595021643783561
0.000620554241230918
0.000428965953757484
0.000156550291851992
9.6845377866749e-06
6.19682772383701e-06
0.000146523832706484
0.000440708736794564
0.000727848365310925
0.000865122015774346
0.000774528662555183
0.000497047815431185
0.000179000043763109
1.18938888834212e-05
7.42241494734857e-06
0.000164250620591907
0.000492493337248997
0.000839600767962054
0.00107203682278614
0.00109693234280253
0.000900013555089887
0.0005530397071221
0.000196308510031565
1.34191819952603e-05
8.59741416576372e-06
0.000180011631471997
0.000537462334656431
0.000934416643669222
0.00124607199337225
0.00137792568028176
0.00128959679370313
0.00100393267457118
0.000598684902396644
0.000205975037601685
1.29347989960942e-05
9.69042058951086e-06
0.000193769842607321
0.000575981205260979
0.00101470667883067
0.00139245737780568
0.00161724773258857
0.00163823923053629
0.00145109092289753
0.00109274768550809
0.000635227777894563
0.000203641257194333
7.7614812797203e-06
1.36278474549967e-08
1.93359684942851e-07
1.26716018171537e-07
7.5463418190067e-07
8.41602627646071e-06
4.15900237632022e-07
1.84312556111199e-06
3.42152317366715e-05
3.08123447343901e-05
9.46497797454791e-07
1.69311599105823e-06
5.65310877887843e-05
0.000130804282461388
6.70462256089435e-05
3.35784394165387e-06
2.61425601176226e-06
8.12905250740313e-05
0.000228213273170764
0.000243674428862197
9.98155369787445e-05
5.17604968757904e-06
3.68612992168359e-06
0.000104292416683851
0.000309515054660892
0.000431738917410174
0.000343727001265831
0.000129282131365702
7.27011834831448e-06
4.8685437391128e-06
0.000125668849591239
0.000378473887266892
0.000591449948107125
0.000617340628235792
0.000426873064338473
0.000155669480514481
9.55247497528074e-06
6.10926100551124e-06
0.000145455445561316
0.000438370672512891
0.000724666051242191
0.000861886612548735
0.000772012449759141
0.000495623820127032
0.000178452953324047
1.17797474077523e-05
7.35698154949578e-06
0.000163511758910911
0.000490884368777607
0.000837336832742279
0.0010695998115346
0.0010948467658668
0.000898664957903762
0.000552467501817501
0.000196124421851315
1.33470562650582e-05
8.56715992894547e-06
0.000179690939969029
0.000536801625001154
0.000933513954457887
0.00124513511898918
0.00137720411373321
0.00128927751506754
0.00100404378310204
0.0005990162497148
0.00020617040642494
1.29266946966822e-05
9.71040798830161e-06
0.000193970498730503
0.000576574336541027
0.0010156216616553
0.00139366826745133
0.00161880206198465
0.00164008623241388
0.00145306308124459
0.00109452739503663
0.000636501519983692
0.000203997651689666
7.79426673745294e-06
1.07626397976643e-05
0.00020637147399435
0.000610709340332859
0.00108544505993303
0.00151911049263439
0.00182356222604925
0.00194466806670219
0.00186423930844151
0.00159581473550435
0.00117821054165366
0.000671769485298433
0.000202185285863711
1.23946729853568e-08
1.81673919774076e-07
1.1869738213508e-07
7.21837188435082e-07
8.12934725574473e-06
3.91048944009492e-07
1.77856775158107e-06
3.35709010513821e-05
2.99179926154809e-05
8.94032321278602e-07
3.25808526853319e-06
6.61163615475753e-05
0.000128800581161694
5.50871017412064e-05
1.61216193047976e-06
2.5104374430035e-06
7.95660923371636e-05
0.000225017051575879
0.000241013332536063
9.86872620167512e-05
5.04268741461839e-06
3.56716418334405e-06
0.000102503583939527
0.000305808361833942
0.000427631372973736
0.000340815022784539
0.000128068845122213
7.10320695650993e-06
4.74347130405964e-06
0.000123969685923762
0.000374780932063913
0.000586725131405525
0.000613093172764192
0.000424104857368046
0.000154478125051085
9.37108717811495e-06
5.98852248122789e-06
0.000143958738436944
0.000435053518421165
0.000720079285681483
0.000857157894594446
0.00076828643439217
0.000493412301586251
0.000177527194668155
1.16022180370479e-05
7.25242211051018e-06
0.00016231158461824
0.000488208324332564
0.000833462655044509
0.00106529122074049
0.00109099821022928
0.000895949396660355
0.000551026154527727
0.000195512614535347
1.31991702516248e-05
8.49101761831048e-06
0.000178869780451652
0.000534977693836966
0.000930807986958171
0.00124199040079413
0.00137419674378577
0.00128694009566693
0.0010026622109099
0.000598437476578088
0.000205928699567117
1.28473393835651e-05
9.67468777765944e-06
0.000193605923682152
0.000575778383359543
0.00101445286319937
0.00139231952276265
0.00161755399246855
0.00163921184900872
0.00145273398147993
0.00109469405338076
0.000636862098998906
0.000204142152036232
7.78558470440219e-06
1.07828072865644e-05
0.000206555606446694
0.000611206313017687
0.00108621867679067
0.00152015247291828
0.00182493333796652
0.00194637740789905
0.00186624302309691
0.00159796658249675
0.00118018771812676
0.000672657070164699
0.000202266064384634
1.07430572106093e-05
1.17918455414224e-05
0.000217796731673931
0.000641593075886885
0.00114742799887876
0.00162851782070914
0.00200061320090608
0.00220960692909571
0.00223094433658478
0.00206521324451807
0.00173425498795111
0.00127612803308101
0.000753829117427841
1.10492893569336e-08
1.68210264731081e-07
1.09442232439167e-07
6.83226257823603e-07
7.77560859700414e-06
3.63373208956911e-07
1.7028375211992e-06
3.2781338866651e-05
2.88640971442811e-05
8.35505593515184e-07
3.1421716975503e-06
6.50243603954818e-05
0.000126440936185292
5.33989587848146e-05
1.52063335047691e-06
4.88650396157568e-06
9.73772054599914e-05
0.000237906403612295
0.00022122642307773
7.75283202229027e-05
2.3907369850606e-06
3.42701403607279e-06
0.000100353750473178
0.00030132646140439
0.000422682163422775
0.000337345078541321
0.000126627821699903
6.90610103824452e-06
4.59151984355356e-06
0.000121871488513684
0.000370190849188859
0.000580832281658651
0.000607793013988672
0.000420655404506239
0.000152985579981546
9.13922159382717e-06
5.83552850517748e-06
0.000142031484488238
0.000430750483097683
0.000714085441497287
0.000850939537424054
0.000763339043888609
0.000490401343279256
0.000176195115820409
1.13578519386435e-05
7.10950149487944e-06
0.000160651554180268
0.000484472023258088
0.0008279992878444
0.00105912553454824
0.00108539136702765
0.000891851822163037
0.000548680204233233
0.000194470432049457
1.29724512106199e-05
8.37088813276082e-06
0.000177561641935969
0.000532033971200636
0.000926356371314093
0.0012366838567613
0.00136893839222872
0.00128259616941926
0.000999746476328849
0.000596865040681796
0.000205168590754331
1.26849120063921e-05
9.58870032072223e-06
0.000192720088879168
0.000573780501911279
0.0010113913570473
0.00138854178396776
0.0016136145381236
0.00163571552091487
0.00145014971444987
0.00109318309148046
0.000636179506099806
0.000203762540252472
7.72987378480238e-06
1.07420846537928e-05
0.000206154707128193
0.000610309767190474
0.00108484036776087
0.00151844644208277
0.0018231645080141
0.00194484288368077
0.00186520608322501
0.00159755516378389
0.00118029624019631
0.000672857122265944
0.000202401670148094
1.06879640324748e-05
1.18124636707777e-05
0.000217973389564296
0.000642039268193684
0.00114810881029309
0.00162943064568793
0.00200180427262852
0.00221110268619651
0.00223275290529771
0.00206730997348322
0.00173649277782972
0.00127784964907406
0.000753534088938969
0.000558646047462072
0.000277465044007857
1.27747923535573e-05
0.000228200950528026
0.000669239061907383
0.00120211975598572
0.00172375549479459
0.00215327381260387
0.0024379830232105
0.002550927872244
0.00248559682264865
0.00225366320025733
0.00188379308966705
0.0014275987084149
9.64247265450071e-09
1.53165612440802e-07
9.91239030291075e-08
6.38897301335598e-07
7.35350636866388e-06
3.33435297177121e-07
1.61551144846978e-06
3.18283056688307e-05
2.76481862481833e-05
7.71914346661052e-07
3.00887214967696e-06
6.37376064538402e-05
0.000123694770299516
5.14650408794403e-05
1.41990523522422e-06
4.70804644961969e-06
9.58656714454739e-05
0.000234322126821027
0.00021682175743322
7.51767362928242e-05
2.25649702255169e-06
6.67887493119519e-06
0.00012495828171498
0.000333317021183938
0.000416871048525497
0.000296048300016179
9.78376327117895e-05
3.26679793809872e-06
4.41384565206067e-06
0.000119369550280399
0.00036468320638649
0.000573748170233734
0.00060142473993472
0.000416514592084142
0.000151231307368167
8.86022005922807e-06
5.6508840822343e-06
0.000139668890212281
0.000425445696306853
0.00070666108742839
0.000843208910573944
0.000757122415533806
0.000486565619726964
0.000174400851052845
1.10441709611676e-05
6.92932568579774e-06
0.000158529488459096
0.000479666954689352
0.000820934194683038
0.00105109027421473
0.00107800917636132
0.000886342746613218
0.000545389001404471
0.000192979444650246
1.26576097719874e-05
8.20763476021803e-06
0.000175768184452284
0.000527965090762451
0.000920163286868608
0.00122922122196694
0.00136142910133415
0.00127623304594603
0.000995258634823238
0.000594263720093321
0.000203901139648775
1.24404805196443e-05
9.45428957011739e-06
0.000191325067627618
0.000570616293512496
0.00100648175064209
0.00138237281023531
0.00160701463886774
0.00162961719391075
0.00144530359389647
0.00108993768970849
0.00063433268034873
0.00020276532398597
7.61456974695617e-06
1.06466866505534e-05
0.000205217384367307
0.00060817447181524
0.00108148482940304
0.0015141305875957
0.00181837682540717
0.00194017547711174
0.00186121526590929
0.00159462245902017
0.00117850206024316
0.000671875037384556
0.000201893729767011
1.05544449654178e-05
1.17673921536472e-05
0.000217545077623077
0.000641067345206083
0.00114656918169263
0.00162743141957993
0.00199957096677861
0.00220891773466847
0.00223090607022358
0.00206603064551008
0.00173585306289291
0.00127763084604766
0.000753265171200124
0.000555947105037886
0.000276431746440399
1.27960729974268e-05
0.000228374266167365
0.000669656696160805
0.00120274435493417
0.00172457641188502
0.00215431774778684
0.00243927119330381
0.00255247852415078
0.00248742801187514
0.00225574174656128
0.00188584378277687
0.00142833982752684
0.00109479162620051
0.000986846695414412
0.000635866278489504
1.37068640659414e-05
0.00023768684334861
0.000694106487203403
0.00125067935040247
0.00180723145170706
0.00228567217647235
0.00263510915995025
0.00282819262975938
0.00285473548871102
0.0027196028385187
0.00244367723820293
0.00206913428752567
8.22189600018964e-09
1.36905510482338e-07
8.80316342967577e-08
5.88955328958072e-07
6.86260567489529e-06
3.01888696912839e-07
1.51626198079515e-06
3.06827372976023e-05
2.62693911658999e-05
7.04583920553238e-07
2.85748779233951e-06
6.2226193391977e-05
0.00012053009410982
4.92882467968253e-05
1.31163726362118e-06
4.50773291017466e-06
9.41264848246174e-05
0.000230210329336142
0.000211780252509074
7.25132787772501e-05
2.10957381553921e-06
6.42482150655462e-06
0.000123056056626894
0.000328703160651896
0.000410163656545867
0.000289959651432967
9.49546618952109e-05
3.08810025284456e-06
8.54209797731929e-06
0.000149217376092554
0.000411692739525732
0.000593972276530637
0.000565439244721529
0.000358237962999069
0.00011645984850833
4.21198587544126e-06
5.43600150096516e-06
0.000136867286300085
0.000419119719493589
0.000697770020009466
0.000833938636209745
0.000749596467624792
0.000481840869333463
0.000172261917803363
1.06668968579047e-05
6.71299712963291e-06
0.000155941327841777
0.000473780384623055
0.000812239256806856
0.0010411477119654
0.00106880805582961
0.000879372068942417
0.000541097067509736
0.000190974647035121
1.2249254764878e-05
8.00252437898694e-06
0.000173487845651061
0.000522755769736019
0.000912213331156842
0.00121957818478391
0.00135163982955209
0.001267810618756
0.000989141087674129
0.000590580243941366
0.000202111845253311
1.2089883132663e-05
9.27224664572286e-06
0.000189422349391689
0.000566285725179647
0.000999720834304958
0.00137380771971368
0.00159774397661564
0.00162089587639017
0.00143815588826591
0.001084896757698
0.00063128202278506
0.000201183315711359
7.45215009666767e-06
1.04985179931498e-05
0.000203754338559844
0.000604831216210032
0.00107619232790009
0.00150723843244941
0.00181059439794414
0.00193238812798382
0.00185426782640697
0.00158913661479085
0.00117471566080819
0.000669506797778204
0.000200554906605345
1.03255655326411e-05
1.16632314514173e-05
0.000216562019633207
0.000638823276594055
0.00114297656171837
0.00162266815930861
0.00199404525643223
0.00220316980147459
0.00222550018206754
0.00206144612218799
0.00173237745416718
0.00127526839834568
0.000751560916157585
0.000552557663825443
0.000274018022302872
1.27471559301733e-05
0.000227924283780492
0.000668628116075707
0.00120108173914968
0.00172234462302076
0.00215169549940193
0.00243650623119482
0.00254984700673208
0.00248518881180223
0.00225406350904853
0.00188469852231945
0.00142733171419902
0.00109159909493242
0.000984706414242039
0.000635777720677517
1.37293628359422e-05
0.000237859553253399
0.00069450758815434
0.00125127135155698
0.00180799281034926
0.00228660932740102
0.00263622891434601
0.00282950535771325
0.00285626031333959
0.00272134544442716
0.00244554960770342
0.00207053752402703
0.00170543137717748
0.00145831262656897
0.00129243360533822
0.000889858870770225
1.45833035713556e-05
0.000246325448394379
0.000716528939870434
0.00129400051570068
0.00188083939492897
0.00240118794039484
0.00280590438424715
0.00306814833360523
0.00317603923571207
0.00312997641045812
0.0029438264909014
0.00264920098744793
6.82784537600491e-09
1.1982964079225e-07
7.64573578796171e-08
5.33874428771262e-07
6.30611776753466e-06
2.69051288615936e-07
1.40477280500129e-06
2.93128992992989e-05
2.47304975426387e-05
6.3498949918517e-07
2.68665777774999e-06
6.04269138641973e-05
0.000116892400734523
4.68750235452207e-05
1.19795673522322e-06
4.28432390891522e-06
9.21211268867174e-05
0.000225507754603769
0.000206079656885137
6.95427425653622e-05
1.95223632036608e-06
6.14918702442791e-06
0.000120942238431983
0.000323454344902688
0.000402513646887076
0.000283045510956095
9.17076844410054e-05
2.89310930129909e-06
8.19597385752832e-06
0.000146962700554896
0.000406191989170886
0.000585395784917676
0.000555870224834773
0.000350841074964265
0.000113141145172596
3.98796217014196e-06
1.02396625168795e-05
0.00016985387245672
0.000476297403795008
0.000740767596546224
0.000823079728803622
0.000687376120623811
0.000411753305118697
0.000133624922197383
5.19282404566764e-06
6.46211623948003e-06
0.000152884579822256
0.000466793114701617
0.000801875553099732
0.00102923937676146
0.00105773465925817
0.000870889758764535
0.000535849463108208
0.000188557564744816
1.17557828827524e-05
7.75680819939999e-06
0.000170716477526684
0.000516396821572919
0.000902484791734761
0.00120770778089244
0.00133951642303624
0.00125726516626693
0.000981321512324953
0.000585728457819048
0.000199690738906261
1.16270770350624e-05
9.04372551556562e-06
0.000187009942298819
0.000560776994785042
0.000991085283036161
0.0013628127150782
0.00158576083706045
0.00160949703248718
0.00142863358887771
0.0010779692838015
0.000626951654477527
0.000198916730998906
7.20600044783238e-06
1.02985521485426e-05
0.000201765128543908
0.000600280157513225
0.00106895936796203
0.00149775881462908
0.00179979637037374
0.00192144644517912
0.0018443115082714
0.00158101966460776
0.00116883486075919
0.00066569440527584
0.000198570232478201
1.0028583324173e-05
1.15018174670483e-05
0.000215034895119036
0.000635335924964362
0.00113736951922497
0.00161517408552265
0.0019852477838532
0.00219386348723324
0.00221652148140357
0.00205352071901807
0.00172599305559965
0.00127057063482545
0.000748011473033429
0.000547090853624663
0.000270274989052254
1.26349761868064e-05
0.00022690117816294
0.000666293540394448
0.00119729930419713
0.0017172166708973
0.00214554979617943
0.00242981402270813
0.00254313506851641
0.00247895371485299
0.00224868254131966
0.00188035207552985
0.00142383950313063
0.00108732670669716
0.000979817266520864
0.000631460989001244
1.36774201487129e-05
0.000237392337750463
0.000693435577729352
0.00124951584544294
0.0018055806537361
0.00228367424631104
0.00263297673407162
0.00282618031734995
0.00285311043050194
0.00271857059211908
0.00244322325354626
0.00206848935767795
0.00170249853859432
0.00145557720004778
0.00129056062234954
0.000887551787483798
1.46086635267022e-05
0.000246500347450925
0.000716920934740079
0.00129457595949327
0.00188156741289824
0.00240205672779309
0.00280690396079356
0.00306927465757978
0.00317729769667417
0.00313137331405894
0.00294533696889975
0.00265054200441293
0.00231076716830603
0.00200560783092528
0.0017592135099173
0.00149573317200378
0.00105062776225335
1.54002330317624e-05
0.000254176649781567
0.000736759482550602
0.00133277213977655
0.00194606373636122
0.00250253958230587
0.00295459930502207
0.00327625196965707
0.00345501218053436
0.00348849641914598
0.00338507712951707
0.00316690349764393
5.48918064512044e-09
1.02305465501083e-07
6.46668908687428e-08
4.74390551076922e-07
5.68707990060204e-06
2.35256646444308e-07
1.28157446865544e-06
2.76794862604928e-05
2.30240824582992e-05
5.6427954174313e-07
2.4949579732362e-06
5.82675812821459e-05
0.000112712361845142
4.4233429605429e-05
1.08082021645429e-06
4.03364228543364e-06
8.97526518277877e-05
0.000220096251908425
0.000199687336996794
6.62749892904314e-05
1.78710182828929e-06
5.8512773617748e-06
0.000118574492254776
0.000317484325625929
0.000393858877772012
0.000275290851683953
8.81022814844281e-05
2.68444700048972e-06
7.83811131627179e-06
0.000144585829550625
0.000400004224934402
0.000575630134673819
0.000545001249133232
0.000342480021716192
0.000109415209037741
3.74404586562605e-06
9.77627783837204e-06
0.000167262030063358
0.000469975515275929
0.000730619621502934
0.000810571204842827
0.00067544612226135
0.000403328816976021
0.000129939916832835
4.92352254773658e-06
1.11998879773351e-05
0.000185797658234961
0.000529698769136746
0.000860886726088031
0.0010447329945376
0.00101531285846621
0.000789801139001279
0.000458686322530959
0.000149359179446148
6.17880809931111e-06
7.47217168274868e-06
0.000167449421330466
0.000508871445412062
0.00089093169114126
0.00119354967406856
0.00132498772857676
0.0012445273764394
0.000971767601701992
0.000579759433718214
0.000196727005471779
1.10464203635987e-05
8.77013378712327e-06
0.000184082334920205
0.000554071823654301
0.000980540384725897
0.00134932741892267
0.00157100144184178
0.001595340508823
0.00141664203714371
0.00106904124309324
0.000621184644359626
0.000195689362533626
6.87859035164667e-06
1.00480353411846e-05
0.000199245874137865
0.000594508182836904
0.00105976149466473
0.00148565273895371
0.00178592942113791
0.00190728020721006
0.00183125528414668
0.00157014832101217
0.00116070669512399
0.000660226448892179
0.000195741223531925
9.59713416097418e-06
1.1284580766195e-05
0.000212963727296818
0.00063060315353439
0.00112974375966305
0.00160493561698187
0.00197315075553491
0.0021809529050578
0.00220390176556213
0.00204215562549461
0.00171655593411403
0.00126335387927133
0.000742563501089327
0.00053933344943329
0.000265465182360733
1.2461347141348e-05
0.00022531570747562
0.000662680952164736
0.00119143538470521
0.00170922684043509
0.00213590098741597
0.00241919482025782
0.002532319064948
0.00246867275392089
0.00223951632832557
0.00187264623236331
0.00141746373885747
0.00108031753179307
0.000971378723333705
0.000624319350730702
1.3558086781856e-05
0.000236335454487671
0.000691024695940792
0.00124557949129601
0.00180015855905473
0.00227701934356256
0.00262548803436927
0.00281832770054481
0.0028453647425799
0.00271132980002228
0.00243673900746357
0.00206277238228816
0.00169678948821937
0.00144963755142385
0.00128484826787436
0.000883006906310236
1.45546938178159e-05
0.000246021552907999
0.000715815888521041
0.00129275042719339
0.0018790177216883
0.00239887688102955
0.00280325833550389
0.00306536973039705
0.00317335373282144
0.00312758607453593
0.00294181984558391
0.00264727030224056
0.00230737443621977
0.00200224379201064
0.0017566539712853
0.00149474102462206
0.00104928466975601
1.5426712246034e-05
0.000254358735761442
0.000737147375077525
0.00133334148867404
0.00194677829687964
0.00250337250772328
0.00295552471320277
0.00327725007502826
0.00345607143794223
0.00348961054275456
0.00338623365156985
0.00316791015888768
0.0028759709995858
0.00256582446465722
0.00227314185764118
0.00197718997231261
0.00162611248263468
0.0011605666859317
1.61588295941176e-05
0.000261297334793525
0.000755003731196444
0.00136753002978309
0.00200407052135191
0.00259189447000124
0.00308469432678509
0.00345740142415699
0.00369749901873837
0.00380095279578389
0.00377222312384538
0.00362621412614754
4.24961928772469e-09
8.47056685618321e-08
5.29422837629203e-08
4.11446762692135e-07
5.00962773088638e-06
2.01064718328626e-07
1.14748930060926e-06
2.5745943144779e-05
2.11379431325713e-05
4.93103712044405e-07
2.28231156066627e-06
5.56574096354416e-05
0.000107896995407423
4.13622573899164e-05
9.61784210731057e-07
3.75073339620005e-06
8.69081527346951e-05
0.000213822772726004
0.000192556170081994
6.27173019840405e-05
1.61672623161396e-06
5.5212076785311e-06
0.000115797645104251
0.000310615294113941
0.000384100242634057
0.000266678186818914
8.41472522436292e-05
2.46512832933048e-06
7.46980355005564e-06
0.000142021480388494
0.000393037530746282
0.000564577491753373
0.000532779897411267
0.000333142328210066
0.000105286282423671
3.48296004280105e-06
9.31591569457562e-06
0.000164713383541561
0.000462997309075679
0.00071908382486736
0.000796348542891453
0.000661938842223907
0.000393832003639718
0.000125811091605249
4.63056389606386e-06
1.05809454455601e-05
0.00018278171031495
0.000522660507255332
0.000849331002034733
0.00102971333926032
0.000999316420451766
0.000775972168987318
0.000449439490363868
0.000145359903014677
5.86536946662931e-06
1.04049398669139e-05
0.000193313520479793
0.000572733596646312
0.000960465636532084
0.00122953605739832
0.00130797574277177
0.00117703734428048
0.000877504943098049
0.000500163876779589
0.000163681093252698
7.15053783435475e-06
8.45330497909455e-06
0.000180635118574934
0.000546144741592301
0.000968040046862273
0.00133329053510279
0.0015533800210886
0.00157833525760648
0.0014020941174804
0.00105805426595703
0.000613983919459198
0.000191600209680582
6.43400266458947e-06
9.74841812676087e-06
0.000196185158693153
0.000587494279509208
0.00104855995873288
0.00147086050710123
0.00176891458234895
0.00188979036969612
0.00181498288174455
0.00155637151444865
0.00115012721413239
0.000652695769034885
0.000191430633970108
8.9804598744245e-06
1.10129690261548e-05
0.000210344898829196
0.000624609873603043
0.00112007294958118
0.00159191094682349
0.00195769360374103
0.00216435624913018
0.00218753257708984
0.00202720238555179
0.0017038592059354
0.00125331776970843
0.000734774515093975
0.000528739535058095
0.000258738145094338
1.22279498465443e-05
0.00022316908178072
0.000657788401601617