/*--------------------------------*- C++ -*----------------------------------*\
  =========                 |
  \\      /  F ield         | OpenFOAM: The Open Source CFD Toolbox
   \\    /   O peration     | Website:  https://openfoam.org
    \\  /    A nd           | Version:  12
     \\/     M anipulation  |
\*---------------------------------------------------------------------------*/
/*   Windows 32 and 64 bit porting by blueCAPE: http://www.bluecape.com.pt   *\
|  Based on Windows porting (2.0.x v4) by Symscape: http://www.symscape.com   |
\*---------------------------------------------------------------------------*/
FoamFile
{
    format      ascii;
    class       volScalarField;
    location    "300";
    object      omega;
}
// * * * * * * * * * * * * * * * * * * * * * * * * * * * * * * * * * * * * * //

dimensions      [0 0 -1 0 0 0 0];

internalField   nonuniform List<scalar> 
10103
(
3.73734922155493
3.73735139990989
3.98683253486339
3.04791046762875
3.73734077550497
3.98685621615656
3.04790917893939
4.20371297736552
1.01112278061647
3.02834735616194
3.737337763125
3.98680068813873
3.04791210468647
4.20375907813518
1.00697409809259
3.02834794752523
4.33730861222848
0.847852124850457
0.806764987536069
2.99243724289199
3.73732114530662
3.98681679011599
3.04791498764207
4.203664915431
1.00549731332246
3.02835118919333
4.3373393973255
0.84464399584977
0.804997940496366
2.99244006801209
4.40627919263996
0.870931012023309
0.516622058036665
0.777207088030158
2.97494419100702
3.73728427170651
3.9867989189361
3.04790170369421
4.20369924186754
1.00355658445839
3.02835913660116
4.33728647904058
0.843606552021585
0.804644142741216
2.99244799032097
4.40629050079893
0.868579424166139
0.513897357597896
0.7783465589659
2.97495134666853
4.43507589818257
0.914189505598045
0.475708038563968
0.446072548996657
0.782461536030738
2.97384212483954
3.73722872139226
3.98676421136003
3.04792987876444
4.20369169356904
1.00115453663393
3.02836007758106
4.33729950117782
0.842631449606443
0.803469509948871
2.99246698653983
4.40628175629652
0.867666353051169
0.513164492705559
0.778566871488149
2.97496934782962
4.43508596841634
0.912659414734051
0.473110740885128
0.446106007549891
0.784169731844514
2.97385721902173
4.43971636349095
0.954110676753223
0.4795987491178
0.374438114432228
0.433836605943477
0.803764800400739
2.97198803640423
3.73714643361032
3.98670658375187
3.04794837432847
4.20367229261342
0.998424344413101
3.02840564255434
4.33730123297346
0.841340922525563
0.80152074906757
2.99250586118799
4.40627431959321
0.866665831184717
0.51227580419516
0.777854498998544
2.9750102350848
4.43508636903859
0.911874588965506
0.472210038128807
0.445896346604755
0.784375674273029
2.97389427764657
4.43972528214075
0.953199231024313
0.47774097038065
0.37395322606778
0.434528517367949
0.805257408181823
2.97201657546414
4.43310442460738
0.987596112989577
0.493364854302635
0.358310934033165
0.343923958135948
0.441572946681347
0.828838048254611
2.96211912703611
3.73702866342576
3.9866247707707
3.04797769752047
4.20363732171202
0.995309392713543
3.02845593145822
4.33729825297123
0.839656923724945
0.798920603065963
2.99257645964016
4.40627734069788
0.865287617472102
0.510939554302487
0.776327889742069
2.97509292121143
4.43507521138449
0.910791448033097
0.471240647582333
0.445210146580003
0.783648949001044
2.97397663997968
4.43973336842385
0.952515343421662
0.476932536528078
0.373484881701133
0.434397649467928
0.805181352959242
2.97208661131671
4.43310833819501
0.987086904755866
0.492196043791499
0.357841569396248
0.34400622727031
0.442176476813517
0.829964503913571
2.96216578014264
4.42456998660237
1.01574881519441
0.509148931581831
0.358376520521958
0.314598998622058
0.338367760730597
0.456304202914159
0.856525533388239
2.95324750513219
3.73686764118494
3.98651152396347
3.04801915079783
4.20358842097583
0.991751601867542
3.0285325872903
4.33728088860487
0.837543114952928
0.79564262091164
2.99269304030253
4.40628011236471
0.863455032482739
0.509093651407829
0.774005513097691
2.97524339474053
4.43507851029866
0.909226994693497
0.469918664116473
0.444007345437167
0.782057106628103
2.97414178543704
4.43971614115761
0.951388103264791
0.475965064757526
0.372704043448276
0.433687498515419
0.804189597170735
2.97224123066895
4.43311275021557
0.98646990651097
0.491525230552029
0.357335094271826
0.3436587264036
0.441903387596028
0.829557734724973
2.96228657760098
4.42456977819959
1.01550576304142
0.508462599795859
0.35805093387633
0.314507320568513
0.338444328203153
0.456695211642428
0.857209315709744
2.95331968323941
4.41827024575506
1.04025574191825
0.524892609023358
0.364141084252024
0.305239855564859
0.299126446354514
0.342469203073447
0.473620512407922
0.889054749763015
2.98372909100893
3.73665261468742
3.04807018476487
3.98635918382598
4.20352274260704
0.987712575520848
3.0286380357441
4.33726201484686
0.834972472031624
0.791539258438949
2.99286812541596
4.40627353604342
0.861149508202086
0.506694133535904
0.770841506694085
2.9754914056977
4.43507944353046
0.907140446734572
0.468165700169138
0.442258061653969
0.779599727773493
2.97444144727839
4.43972260943726
0.949706820758767
0.474635793150199
0.371533961218807
0.432424517889859
0.80234264510061
2.97254967116919
4.43310458148978
0.985319967872874
0.490590558517851
0.356542717330645
0.342907989574382
0.441026330392879
0.828235484306492
2.96255378015007
4.42457057845584
1.01492676864368
0.507900454446616
0.357582537438899
0.31409939727616
0.338039180539687
0.456198055249837
0.856354537529058
2.95350873117985
4.41827379458625
1.04019603471698
0.524519586677609
0.363948866049712
0.30513481255008
0.299046584990397
0.342440721528892
0.473767068769517
0.889268165124914
2.98382676028519
4.41468847815087
1.06235968261495
0.540062185310071
0.372144699310382
0.30399283617079
0.282517731639218
0.295352535253416
0.350350051952179
0.492381391810668
0.936201841180823
3.21034670515829
3.73636100712315
3.04812856616502
3.986177159555
3.02876727472946
0.983086853306946
4.20343550655953
4.33723769441154
0.831931444210586
0.786530997606703
2.99310457387179
4.4062689143869
0.858371897352882
0.503684005492642
0.766706665204615
2.97586066853844
4.43508062320651
0.904526716422147
0.465947685764213
0.439930331085997
0.776241396824924
2.97493357574233
4.43972415789802
0.947449252058718
0.47288851764205
0.369936925957165
0.430590004351776
0.799624256934119
2.97310666001544
4.43310349426461
0.983564505149114
0.489261313596358
0.35539904748243
0.341743080142369
0.439579756880393
0.8260569228717
2.96308620753859
4.42456961313311
1.01375296992165
0.506992597072637
0.356812231998958
0.313355750207916
0.337205018325818
0.455065217775575
0.854553422858149
2.95392509349629
4.4182697262471
1.03964383568116
0.524027287940051
0.363528084645482
0.304736403505958
0.298621112400839
0.341923572437838
0.4730253058642
0.888052268478606
2.98408378225068
4.41469615940661
1.06241335356582
0.539888233089394
0.372048585665192
0.303916940333703
0.282419237299655
0.295220998877965
0.350201796186022
0.49228141521607
0.936001479096022
3.21045868736685
4.41297865150931
1.08250816557141
0.554545292805331
0.381052535453001
0.306547874666944
0.275858757587725
0.272996170676453
0.29660551199397
0.359383347992055
0.512770162519153
1.02660667010173
4.87759952916195
3.73597001609313
3.04819214804633
3.98586592895936
3.02891045680058
0.977944425488015
4.2033414642153
2.99338842102497
0.780550871587187
0.828383680668397
4.33720574194912
4.40626270054063
0.855136722809145
0.5000132200998
0.761552573818737
2.97635217452197
4.43508457337518
0.901387336557405
0.463241835420155
0.436976825784726
0.771927618131454
2.97566089829504
4.43972696868825
0.944612879863854
0.470699845925201
0.367887718395051
0.428157751841955
0.795947227679322
2.97401593288769
4.43310881036563
0.981190316603039
0.487499659161316
0.353873551696523
0.340141399839307
0.437547794965092
0.823020658815605
2.96404445955458
4.42456137573636
1.01193915193408
0.505655268523672
0.355693928078837
0.312257051687389
0.33594057071613
0.453334127519511
0.851886502342544
2.95476459648408
4.41826801530798
1.03844504479581
0.523127859793054
0.362781057296438
0.304024209096967
0.297848913613613
0.340961346117438
0.471622396349527
0.885879050714169
2.98467273924207
4.41468665981303
1.06187165733508
0.539438388438615
0.371665221824867
0.303546390597987
0.282018847338726
0.294741252062115
0.349560221285748
0.491324017256746
0.934486852919496
3.21076452338719
4.41298208579994
1.08262744549241
0.554491972884131
0.38101999774612
0.3065049232761
0.275779837269557
0.272869400363496
0.296414624496509
0.359117348726557
0.512428037605255
1.02719143595514
4.87775595528554
4.41227332312209
1.10093180270675
0.568162726052502
0.390199502122405
0.311036926300859
0.274243165239974
0.262064494259284
0.269565790443815
0.299633986295489
0.367448975129724
0.532726148664419
1.16515881541663
3.73542850845234
3.04826009650922
3.98554453769171
3.0290614195225
0.97229668616117
4.20314921555509
2.99369149855641
0.773503969243341
0.824319628593337
4.33716393661953
2.9769277438473
0.755261350374816
0.495634848628505
0.851436491447377
4.40625490917017
4.43507805427943
0.897723734728548
0.460028713680103
0.433350729638242
0.766512223897793
2.97661598811017
4.439735406989
0.941194686621136
0.468055213733085
0.365364191769998
0.425097027120767
0.791255823643664
2.9753486863003
4.43311223617488
0.978194267044984
0.485289263450468
0.351946399074754
0.33808491628565
0.434898481097412
0.819029506401833
2.9656010962143
4.42457074454339
1.00947771899174
0.503863821594694
0.354204989570159
0.310785868232903
0.334229620779061
0.450996001653741
0.84834374488975
2.95628368553332
4.41825931584835
1.03657341715964
0.521769863140086
0.361677202938147
0.302980832803091
0.29671745683582
0.339553724067917
0.469597418387883
0.882840659813129
2.98588096766863
4.41468373781182
1.06064946113525
0.538532337015175
0.370933261467704
0.302865820723811
0.281307840741644
0.293909309966807
0.348460867096361
0.489692801857611
0.93199336593258
3.2115270184991
4.41297538578652
1.08208574052081
0.554063543544669
0.380660199624103
0.306160998235194
0.27541406310119
0.272443901026117
0.295872698931242
0.358363146007031
0.511272250673167
1.02538168997142
4.87817068871056
4.41226776602996
1.10109124741936
0.568181348225736
0.390205422465291
0.31102009952102
0.274189457455972
0.261966492601447
0.26940739021794
0.299386745630236
0.367078078599342
0.532583044798176
1.16691800791359
3.18378836646791
4.41201757233935
1.11768929570693
0.580863540278464
0.399210592717359
0.316497694118552
0.275406398319851
0.257180749168301
0.255228313764373
0.268734477550252
0.302109978455193
0.370533327174709
0.525955849554202
3.73469763655541
3.04834526558004
3.98511409370256
3.02922984717811
0.966097891538739
4.20299215625941
2.99398959432219
0.765367668868236
0.819715190778589
4.33710942990764
2.97751119685036
0.747716822931444
0.490516211856649
0.847243921397782
4.40624563905747
2.97770537882038
0.759879549111029
0.428998918319829
0.45628214198529
0.893528480666204
4.43507133324402
4.43972516836721
0.937186191404585
0.464940262136289
0.36234201146236
0.421360187155853
0.785467752185818
2.97707661850531
4.43312040385567
0.974569810572349
0.482617955547275
0.349602307428176
0.335556184717461
0.431607289067325
0.813971452948161
2.96786816926001
4.42457469765671
1.00636137734277
0.501606487617796
0.352330696234273
0.308925611843635
0.33205527546872
0.448027372162301
0.843907087301129
2.95875325819566
4.41826963566356
1.03403243543007
0.519937890190196
0.360200937344809
0.301591687459873
0.295212318777851
0.337687753967735
0.466943623057219
0.878857655283956
2.98812129146836
4.41467459517049
1.05872920387338
0.537139732656561
0.369832506980854
0.301862196210698
0.2802740445331
0.2927140732846
0.346903892374196
0.487423077886708
0.928701635767561
3.21320532689983
4.41297161728593
1.08083456617739
0.55314666412326
0.379931407189231
0.305504238855245
0.274753564180132
0.27171072984586
0.294974749951995
0.357145448046411
0.509433712792228
1.02272318403318
4.87934849469073
4.41226402572497
1.10055086559913
0.567762222729162
0.389859507648294
0.310696493991263
0.273854436018532
0.261590775636332
0.268951869265078
0.298790090342423
0.36623308634439
0.531311744752144
1.1640723277865
3.18392126296775
4.41200703796252
1.11787200793878
0.580919843897784
0.399241354848005
0.316500006604227
0.275374537641069
0.257111213944348
0.255111003579753
0.268547657439899
0.301821294916928
0.370199635799086
0.526539052648746
0.560563276050293
0.720237263754855
4.41193220525402
1.13287126017934
0.592602438069256
0.407885406012435
0.322389229314006
0.278152382974834
0.255773575450262
0.247781265927337
0.251748370155677
0.268319561165007
0.301437993051297
0.359447613332048
3.73376668954166
3.048482783321
3.98461401927223
3.02945354012724
0.959482881008566
4.20280529136216
2.9942910102377
0.756105018161471
0.814540559013051
4.33706569708152
2.97802345510432
0.738925558118558
0.484628395783058
0.842530609092308
4.40623384469903
2.97874411127788
0.751985205417688
0.423884387078849
0.451969704922633
0.888775922490164
4.43507478299562
2.97899934388573
0.778472848655176
0.416896939576928
0.35879416125418
0.461334595038956
0.932573122273764
4.43971475459327
4.43311048421536
0.97030019514876
0.479471362962438
0.346825112600126
0.332533150257496
0.427641846814019
0.80773953299496
2.9707810159132
4.42458348821906
1.00257892475521
0.498871449776332
0.350059017421798
0.306662606312485
0.329408032952256
0.444407145055514
0.838640058026874
2.96235524925807
4.41827419319998
1.03081477454983
0.517621767769808
0.358340958532623
0.299844619878562
0.293320382827679
0.335350015071313
0.463650411692275
0.873874084496612
2.9917960980358
4.4146859961745
1.05610743273112
0.535255835744548
0.368351400951239
0.300524609435532
0.278905926889317
0.291143541376144
0.344879257916983
0.484494587107668
0.924445212382284
3.21627900450719
4.41296243576115
1.07886337390782
0.551721152379321
0.378820108005821
0.304525041546983
0.273789023899472
0.270659709317144
0.293711552222807
0.355464162637251
0.506959991266404
1.01941386812349
4.88259044344408
4.41225584405502
1.09926959004536
0.566830010182074
0.389129941422295
0.310055331806853
0.273231473196101
0.260930449185752
0.268191603331158
0.297837868172887
0.364925401025025
0.529331467953746
1.16060250763668
3.18443161688371
4.41200226911478
1.1173289659019
0.580504457545591
0.398903016237226
0.316190682974533
0.275063648229715
0.256775102691531
0.254722387089389
0.268067597903355
0.301189980803733
0.36933078537979
0.525326535264716
0.561243715265319
0.719362694244492
4.4119211858135
1.13307119071698
0.59268218211493
0.407932420494535
0.322405796071582
0.278137744244017
0.255727126593636
0.247697868099141
0.251615157268698
0.268116468414026
0.301162588397448
0.359367598330178
0.404364753319549
0.384950287717782
0.440896320969262
4.4118995275966
1.14659935737252
0.603389238483288
0.416107507663151
0.328392648411132
0.281789442515937
0.256449613689444
0.244381455150973
0.24236591222487
0.249556175965322
0.266596948131642
0.294533052382402
3.73273214225141
3.04875147233586
3.98413707827086
3.02981072677852
0.952641616284961
4.20266882073121
2.9946608096763
0.745908053890426
0.808778268854313
4.33705768860459
2.97844811532053
0.728842798369528
0.47793915869822
0.837252640215866
4.40624125098417
2.97952090987583
0.74277143676914
0.417984822736531
0.447055018234173
0.883431751807056
4.43507790662619
2.98071858754717
0.770199119346798
0.411673371333476
0.354694017111821
0.457205826661828
0.92732815045439
4.43972288954153
2.97396486408835
0.800235205889499
0.422949645189886
0.328989567229318
0.343595986623801
0.475828976096869
0.965364475666559
4.43310355791921
4.4245732802205
0.998108122518953
0.495642882924037
0.347376994389672
0.303982216655803
0.326272820619756
0.440136623980952
0.832139585093473
2.96698405533615
4.418283770928
1.02689755553206
0.514808554474597
0.35608669232497
0.297729175168981
0.291031278769391
0.332530257192753
0.459714814632661
0.867977785684749
2.9972445107505
4.41469518915327
1.05277150632526
0.532874287187085
0.366481386583924
0.298843986995158
0.277193640857618
0.289187576162745
0.342378071593763
0.480888849875788
0.919080960563506
3.2219366922213
4.41297483687434
1.0761686379305
0.549779234526789
0.377318804057414
0.303215236315651
0.272511991363073
0.269281945486628
0.292074220812074
0.353310158445481
0.503814806325504
1.01513479476001
4.88752227851304
4.41225570098546
1.09724248194536
0.565370698870536
0.388006236826425
0.30908915197392
0.272313778307116
0.259978382123545
0.267118839731273
0.29652326681977
0.363159118330251
0.526738584644967
1.15704120558978
3.1861432496099
4.41199000804579
1.1160257749533
0.579555402511837
0.398169152724805
0.315559054883086
0.274467675895242
0.25616739809614
0.2540573988863
0.26728806870577
0.30020887053826
0.367993678725959
0.523414052584631
0.560522175008851
0.718965110959367
4.41191577026331
1.13252410961184
0.592266584515946
0.407597932195037
0.32210598084282
0.277844655685126
0.255420781363697
0.247358435128496
0.251217588951195
0.267626690045675
0.300537071990529
0.358588911458524
0.404207270028936
0.384394044054883
0.439416670838858
4.41188856594604
1.14681308522069
0.603486128436535
0.416165987782774
0.328419881051804
0.28178793803294
0.256420828333197
0.244323484074911
0.242272200507405
0.249416326009894
0.266405526081261
0.29436491232695
0.323675074099376
0.332910245820136
0.327742562684606
0.369065730556769
4.41190497621237
1.15901361776534
0.613259454096499
0.423818357990462
0.334312334668611
0.285894262904828
0.258387035084827
0.243464493681316
0.237476409362019
0.238911700705866
0.247305155529086
0.262261493620977
3.73151955475405
3.04933261594638
3.98391687682987
3.03044320290094
0.945715115169193
4.20274494385181
2.99522890948021
0.735010203956872
0.802410337505724
4.33716974658718
2.97889182525409
0.717660429235251
0.470462549375105
0.831350794562165
4.40630343576115
2.97994622591734
0.732191077856471
0.411279532629196
0.441492030976921
0.877449599592087
4.43509295505786
2.98174569539078
0.760416463960743
0.405660969274549
0.35001475066509
0.452514866507515
0.921411384946898
4.43972784740026
2.97665176294687
0.791374559186498
0.417487874237266
0.324903513928903
0.339891675020459
0.471659880493868
0.959733830845365
4.43310362571774
2.97203803679816
0.824150167453197
0.435136972830622
0.322619817252086
0.300869007905614
0.344267856783757
0.49189899257133
0.992919617037891
4.42456921235463
4.41827315177398
1.02225460578434
0.511480647771882
0.353426028106455
0.295234751538376
0.288333912334775
0.329217053574855
0.455062649463835
0.860774394033898
3.00434827639555
4.41469688854442
1.04870430183489
0.529975792478575
0.364212311261617
0.296811882014934
0.27512870548106
0.286838129219201
0.339393723794441
0.476608939569337
0.912772484411858
3.22967143266788
4.41298840925913
1.07273875690078
0.547311455401455
0.375420357186843
0.301568094110787
0.270915298520357
0.267570264907241
0.290056394044926
0.350676929607143
0.499970150969776
1.00994378239928
4.90074117467561
4.41226470640602
1.09446951564374
0.563377211970064
0.386481661084742
0.307791748761973
0.271095239001103
0.258728548349837
0.265727770543147
0.294841627849957
0.360928761158956
0.523484610899099
1.15229265376829
3.18875765259067
4.41199921231785
1.1139605098866
0.578061712076847
0.397030887675713
0.314598666610743
0.273581379496251
0.255283346572682
0.253111369650773
0.266204529002613
0.298876206897928
0.366217700681529
0.52100831448222
0.559492871456397
0.718222757607314
4.41190367474504
1.13120278293166
0.591302624504927
0.406857578529811
0.321479106788561
0.277267261124069
0.254850575450676
0.246759872221218
0.250552498755956
0.266846082513336
0.299569501595236
0.35735161709666
0.403133093839121
0.383481600991207
0.438915201407032
4.41188297337482
1.14626316612749
0.603068115541624
0.41583268648431
0.328126058458378
0.281507443707893
0.256136205278481
0.244019482613631
0.241932060525852
0.249019894857839
0.265929723244065
0.293794415854418
0.323172149293582
0.332335191111597
0.326975069215717
0.368807872033309
4.41189465792056
1.15923497688955
0.613369447680011
0.423885225303586
0.334347483080788
0.285902596605522
0.258371452790739
0.243425121266999
0.237410548661403
0.238814970400563
0.247176460563694
0.262135027788446
0.280247161302469
0.292972915522794
0.296793641394846
0.304456377208993
0.344292985935442
4.41190842946719
1.17022429185201
0.622267536511273
0.430993123785968
0.340027666532328
0.290198018856248
0.26107410625963
0.244099269978859
0.235366775387809
0.23303558815119
0.23621071001116
0.244186501561187
3.73119428472262
3.05053386832833
3.98428819725289
3.03160179573688
0.939012209700195
4.20336756119692
2.99619148125814
0.723843504280455
0.795500162607642
4.33759606027879
2.9795889926814
0.705603791494835
0.462238696436791
0.824750985278075
4.40650204661802
2.98021101692259
0.72043406537105
0.403800956086169
0.435234937303556
0.870760265315569
4.43516288998876
2.98180967585644
0.749066258391837
0.398846835712646
0.344728796517269
0.447212893763892
0.914773178474912
4.43974510435196
2.97777386801731
0.78065878875087
0.411204221270464
0.320254824115332
0.335684576721753
0.466924219992649
0.95336571558334
4.43311186194363
2.97617231439773
0.814447535343043
0.429355922757361
0.318425389772553
0.297306804101008
0.340709573254611
0.487610704900461
0.986982035843657
4.42456125810728
3.01230598021972
0.851981792860171
0.449631662698426
0.325386004861332
0.285214769473097
0.29234828584976
0.350343360223018
0.507614996467605
1.01685642202947
4.41826854400994
4.41468992709466
1.04388290037719
0.526542217043683
0.361533224025336
0.294418733857374
0.272702483478639
0.284086567154241
0.335907495191431
0.471574121421695
0.905156065833548
3.24161347205935
4.412981495787
1.06855706336533
0.544304390776218
0.373114209185477
0.299577469046014
0.268992097535571
0.265518766614266
0.287653664711458
0.347563129954661
0.495449786956553
1.00446366914293
4.91328183671417
4.41227823508888
1.09094166367311
0.560840931702698
0.384549024692553
0.306157241839136
0.269570498001246
0.257176137086355
0.264014847891436
0.292791755557195
0.358235241191494
0.519598780340743
1.14675804600405
3.19693607991513
4.41200460182899
1.11113073067157
0.576017942592307
0.395482098095806
0.313304178024759
0.27240012317223
0.254118968163251
0.251881163259862
0.264815559740082
0.29719438719936
0.364009864668563
0.518026971842634
0.558112210695465
0.715750100182366
4.41191349574454
1.12910739271176
0.589781272836056
0.405703243433151
0.32051919221255
0.27640111000264
0.254013144135897
0.245899673187864
0.249618312638661
0.26577529395446
0.298272036882327
0.355730475480689
0.401662625704674
0.382386949039317
0.43816707362967
4.41187097527514
1.14492687055722
0.602089967619454
0.415085045897358
0.327500442658043
0.280942130638796
0.255592257529636
0.243467353970409
0.24134422788014
0.248366315060474
0.265174321637108
0.292899559497525
0.322222162580076
0.331389792142839
0.325971097166723
0.367898124548215
4.4118896373895
1.15867634829249
0.612949354234364
0.42355140033713
0.334057049574106
0.285630689882682
0.258102345801819
0.243146425002958
0.237110374922803
0.238480779136169
0.24679534031108
0.261693970397431
0.279753229451668
0.292430054060707
0.296077695213666
0.303433518736927
0.343564543828903
4.411898946231
1.17043959348658
0.62238709889663
0.431066202569567
0.340068629341148
0.290213626780574
0.261068278833863
0.244073423634701
0.235320476080864
0.232967923441472
0.236124067866226
0.244107742214628
0.255234538914079
0.265707832630621
0.272452965922842
0.278786313331368
0.293984769565283
0.3317194821783
4.41191565696349
1.18028764045408
0.630462498477456
0.437628413472403
0.345464846768723
0.294526346674927
0.264180520003961
0.245702312132381
0.235019666172637
0.230110172723468
0.229887989625439
0.233575304418334
3.72980706632655
3.05303312703156
3.9858017671708
3.03371779020565
0.933028938029539
4.20505698251919
2.99783450459337
0.712878230091577
0.788163393575788
4.33872403581603
2.98084623152946
0.693094256194576
0.453344173988341
0.817412493630528
4.40704449504757
2.98079964889272
0.707713761403344
0.395605125553585
0.428238912440994
0.863289955652796
4.4353653944105
2.98127239084857
0.73645267064173
0.391278546263295
0.338818002442647
0.441239357949798
0.907346041704051
4.4398049416014
2.97658412991545
0.768139132893086
0.404088377656027
0.315028120528843
0.330943495050318
0.461573229420072
0.946207197032094
4.4331268676292
2.97712680683831
0.802348581996376
0.422677181118238
0.313671426821603
0.293276496690758
0.336675234719614
0.482739627927551
0.980253855806724
4.42457271021127
3.01909300005156
0.841286072796805
0.443396050581897
0.321020700510849
0.281663714755996
0.28905472434527
0.346818159650251
0.503183167141232
1.01066900386537
4.41825941046303
3.2535983286712
0.895824356046074
0.465722902463244
0.331900388972715
0.280921585976712
0.269905156589912
0.291652930728226
0.35842938960169
0.522549394270474
1.03829478009057
4.41468508493501
4.41297828644528
1.06359719928841
0.540742968410524
0.370390950821849
0.297234101322062
0.266735410712047
0.263121208023131
0.284859749341251
0.343954917302064
0.490188223097766
0.998177338441776
4.94475963855479
4.4122706148914
1.08665281907784
0.557749943976195
0.382199091632212
0.304178953489353
0.267734335769889
0.255317182972599
0.261977800501022
0.290375641166845
0.355091643132676
0.515233618446629
1.14233343611011
3.20514503594968
4.41201799720138
1.10752654401675
0.573416937630771
0.393516090680215
0.311670148937201
0.270919571351374
0.252670975340257
0.250365109878658
0.263122783233049
0.295171763177306
0.361397220809666
0.514596270604243
0.556614350947643
0.71363282750584
4.41191902232994
1.12623224633693
0.587696949519842
0.404129384059057
0.319221360834618
0.275242348869426
0.252905715245279
0.244776392345671
0.24841578179028
0.26441960898059
0.296659729731507
0.353752408351951
0.399886220004701
0.381062460646388
0.43248914626871
4.41188085684322
1.14280409150397
0.60054445816496
0.413915461996743
0.326537240061023
0.280087895352995
0.25478629416044
0.242665727623413
0.240508922282307
0.247458632334255
0.26414974421194
0.291714187337371
0.320968885625137
0.33021149980374
0.324770197836665
0.366749997596482
4.41187795539698
1.15732254027291
0.611959876529249
0.422796001412995
0.333430373374395
0.285072643559741
0.257576359539774
0.242626674654494
0.236575414770808
0.237910309947528
0.246168727691811
0.260991159160973
0.278981963790581
0.291609741211124
0.295141403637759
0.302259489194856
0.342676374266084
4.4118952858957
1.16987022781803
0.621962898206986
0.430731220546845
0.339779824250499
0.289947365610751
0.260810055486297
0.243812687314318
0.235048231909481
0.232675859881967
0.235804516935501
0.243750565699647
0.254815925601244
0.265248504075209
0.271889270519023
0.277989638268065
0.292745098246549
0.330590877432541
4.41191028755742
1.1805074391271
0.630587067404225
0.437706099827905
0.345510154237009
0.294547372106201
0.264181897860525
0.245686307337108
0.234987192404428
0.230062279407121
0.229829167248122
0.233531504374999
0.240129299820794
0.247660259816106
0.254177942923245
0.260101459529381
0.26972400288392
0.289123295055682
0.32638073317534
1.189234816561
0.637883843160065
0.443730163920851
0.350580201054692
0.298765032439632
0.267487850544038
0.247894659391074
0.235798867743439
0.229068144565037
0.226519890959536
0.227357253682359
3.73222390316149
3.05702376403129
3.98802086140757
3.03739650218479
0.92838075975745
4.20832058114266
3.00059479822098
0.702759928330376
0.780529796624346
4.34115802681052
2.9830000182944
0.680700011628357
0.443871671233938
0.809352343468203
4.40834345907444
2.98228923855998
0.694454822317422
0.386784429667125
0.420473394724129
0.854980493126888
4.43591004973567
2.9812211633034
0.722855325992125
0.383025553620961
0.3322710159436
0.434531282345135
0.899055704332997
4.43999119860972
2.97371997420901
0.754532553308437
0.396218321015744
0.309225734137729
0.325635668153079
0.455546410482519
0.938193258921682
4.43317923465626
2.97269085907046
0.788245869616326
0.415116753548558
0.30834880342452
0.288760631328693
0.332133494736224
0.477238178300692
0.972681823063782
4.42458602420099
3.02013570071261
0.82767751279075
0.436203983252124
0.316097542456355
0.277664656070904
0.285336977473523
0.342824599470618
0.49814901617711
1.00364924839092
4.41827085300465
3.26799751162666
0.884382246753089
0.458991555504661
0.327355892468882
0.27733299816791
0.266726567671156
0.288500729370345
0.354881180926359
0.517970947601731
1.03189615336179
4.41467513577452
4.96589621338643
0.990364710218944
0.484133041032756
0.339841019279386
0.281666828823132
0.26037010451854
0.264137117358703
0.294526642708961
0.367240916930371
0.536617461243237
1.05783165194325
4.41297355357068
4.41226721043568
1.08157246553531
0.554086690068477
0.379421455824759
0.301849373904771
0.265580870660307
0.253146921422527
0.259613934268364
0.287594197880055
0.351502724184051
0.51037302505224
1.13901255457325
3.22819544540167
4.41201010782603
1.10313201734486
0.570249763844223
0.39112430793695
0.309690272088146
0.269135157872678
0.250936318715793
0.248562277892289
0.261129962648844
0.292822995162256
0.35843940306194
0.511100099087716
0.555511934967462
0.711795568849939
4.41193244564022
1.12256703520951
0.585041447248702
0.402129845635025
0.317580549317007
0.273787227927669
0.251525895683189
0.243389453340147
0.246947676949212
0.262788849439934
0.29475838311253
0.351486119601345
0.397939425120416
0.379398433698288
0.428866058306038
4.41188593691433
1.13988603003365
0.598425814463187
0.41231845519591
0.325231842709403
0.278941274894238
0.253716159565975
0.241614021908574
0.239427952734457
0.246303127848694
0.262871314048127
0.290270197853627
0.319481194469524
0.328857541370695
0.323371632916466
0.364892591813756
4.41188734811947
1.15517273980469
0.610393198072296
0.421611832801189
0.332461728483781
0.284224452691352
0.256791055158527
0.241864956887972
0.235806640707197
0.237107710345131
0.245307379528618
0.260050529752652
0.277977384822228
0.290585072638664
0.294058352408071