/*--------------------------------*- C++ -*----------------------------------*\
  =========                 |
  \\      /  F ield         | OpenFOAM: The Open Source CFD Toolbox
   \\    /   O peration     | Website:  https://openfoam.org
    \\  /    A nd           | Version:  12
     \\/     M anipulation  |
\*---------------------------------------------------------------------------*/
/*   Windows 32 and 64 bit porting by blueCAPE: http://www.bluecape.com.pt   *\
|  Based on Windows porting (2.0.x v4) by Symscape: http://www.symscape.com   |
\*---------------------------------------------------------------------------*/
FoamFile
{
    format      ascii;
    class       volScalarField;
    location    "300";
    object      p;
}
// * * * * * * * * * * * * * * * * * * * * * * * * * * * * * * * * * * * * * //

dimensions      [0 2 -2 0 0 0 0];

internalField   nonuniform List<scalar> 
10103
(
83333.3331795267
83333.3331771468
83333.3331785955
83333.3331790004
83333.3331745975
83333.3331762348
83333.3331765838
83333.333176449
83333.3331781107
83333.333178864
83333.3331718711
83333.3331737287
83333.3331740002
83333.3331740853
83333.3331757248
83333.3331764448
83333.3331734659
83333.333176159
83333.3331780889
83333.3331796504
83333.3331689309
83333.3331710411
83333.3331712446
83333.3331715896
83333.3331731843
83333.3331738507
83333.3331711168
83333.3331737872
83333.3331757028
83333.3331772409
83333.3331696865
83333.3331735279
83333.3331763704
83333.3331790637
83333.3331817144
83333.3331657547
83333.3331681326
83333.3331682793
83333.3331689093
83333.3331704633
83333.3331710805
83333.3331686295
83333.3331712689
83333.3331731447
83333.3331746404
83333.3331673369
83333.3331711971
83333.3331740041
83333.3331766587
83333.3331793331
83333.3331651043
83333.3331697891
83333.3331739445
83333.3331778296
83333.3331815501
83333.333185313
83333.3331623259
83333.3331649837
83333.3331650809
83333.333166009
83333.333167527
83333.3331681042
83333.3331659518
83333.3331685593
83333.3331704007
83333.3331718557
83333.3331648388
83333.333168709
83333.3331714711
83333.3331740676
83333.3331767506
83333.3331627374
83333.3331674609
83333.333171615
83333.3331754478
83333.3331791641
83333.3331829832
83333.3331597876
83333.3331651269
83333.3331702
83333.3331756708
83333.3331809199
83333.3331856965
83333.3331908478
83333.3331586346
83333.3331615786
83333.3331616358
83333.3331628722
83333.333164355
83333.3331649008
83333.3331630567
83333.3331656349
83333.3331674475
83333.3331688666
83333.3331621468
83333.3331660208
83333.3331687409
83333.333171286
83333.3331739742
83333.3331602181
83333.3331649679
83333.3331691119
83333.3331728855
83333.3331765794
83333.3331804448
83333.3331573936
83333.3331627767
83333.3331678799
83333.3331733307
83333.3331785461
83333.3331833603
83333.333188592
83333.3331538155
83333.3331597105
83333.3331654444
83333.3331719807
83333.3331790927
83333.3331856586
83333.3331916921
83333.3331985832
83333.3331546785
83333.3331579094
83333.3331579371
83333.3331594869
83333.3331609337
83333.3331614562
83333.3331599296
83333.3331624786
83333.3331642665
83333.3331656554
83333.3331592399
83333.3331631171
83333.333165801
83333.3331682979
83333.3331709889
83333.3331575055
83333.3331622745
83333.3331664034
83333.3331701204
83333.3331737964
83333.3331777055
83333.3331548486
83333.3331602655
83333.3331653825
83333.3331708081
83333.3331759776
83333.3331808126
83333.3331861208
83333.3331513935
83333.3331573337
83333.3331631085
83333.3331696588
83333.3331767532
83333.333183323
83333.3331894344
83333.3331964364
83333.3331472483
83333.3331536491
83333.333159884
83333.3331671106
83333.3331755005
83333.3331842041
83333.3331922155
83333.3332000251
83333.3332089294
83333.3331504654
83333.3331539749
83333.3331539838
83333.3331558487
83333.3331572581
83333.3331577628
83333.3331565603
83333.3331590766
83333.3331608438
83333.3331622066
83333.3331561058
83333.3331599818
83333.333162632
83333.3331650884
83333.3331677805
83333.3331545813
83333.3331593685
83333.3331634827
83333.3331671443
83333.3331708031
83333.3331747509
83333.3331521142
83333.3331575584
83333.3331626783
83333.3331680732
83333.333173202
83333.3331780583
83333.3331834436
83333.3331488213
83333.3331547988
83333.3331606023
83333.3331671572
83333.3331742246
83333.3331807759
83333.3331869586
83333.3331940636
83333.333144799
83333.3331512437
83333.3331575207
83333.3331647862
83333.3331731849
83333.3331818881
83333.3331899513
83333.3331978868
83333.333206949
83333.3331401259
83333.3331470144
83333.3331536741
83333.3331613414
83333.3331705043
83333.3331806949
83333.3331910315
83333.3332008099
83333.3332110605
83333.3332223215
83333.333146017
83333.3331497847
83333.3331497849
83333.3331519571
83333.3331533267
83333.3331538193
83333.3331529459
83333.3331554256
83333.3331571732
83333.3331585094
83333.3331527368
83333.3331566031
83333.333159219
83333.3331616436
83333.333164333
83333.3331514362
83333.3331562364
83333.3331603319
83333.3331639411
83333.333167587
83333.3331715672
83333.3331491728
83333.3331546422
83333.3331597619
83333.3331651207
83333.3331702118
83333.3331750871
83333.3331805465
83333.3331460644
83333.3331520728
83333.3331578967
83333.333164446
83333.3331714826
83333.3331780148
83333.3331842668
83333.3331914753
83333.3331422021
83333.3331486828
83333.3331549973
83333.3331622872
83333.333170684
83333.3331793702
83333.3331874673
83333.3331955211
83333.3332047302
83333.3331376516
83333.3331445801
83333.3331512822
83333.3331589967
83333.3331681915
83333.3331784021
83333.3331887768
83333.3331986559
83333.3332090966
83333.3332206022
83333.3331324864
83333.3331398454
83333.3331469101
83333.3331548821
83333.3331644691
83333.3331755377
83333.3331874394
83333.333199635
83333.3332114879
83333.3332250786
83333.3332393693
83333.3331413663
83333.3331453606
83333.3331453604
83333.3331496343
83333.3331491499
83333.3331478229
83333.3331490882
83333.3331515278
83333.3331532529
83333.333154561
83333.3331491317
83333.3331529792
83333.3331555577
83333.3331579545
83333.3331606311
83333.3331480657
83333.3331528692
83333.3331569374
83333.3331604983
83333.3331641323
83333.333168133
83333.3331460186
83333.333151506
83333.333156621
83333.3331619368
83333.3331669922
83333.3331718835
83333.3331774074
83333.3331431085
83333.3331491422
83333.3331549827
83333.3331615156
83333.3331685176
83333.3331750333
83333.3331813472
83333.3331886564
83333.3331394275
83333.3331459376
83333.3331522836
83333.3331595856
83333.333167972
83333.3331766362
83333.3331847605
83333.3331929285
83333.3332022801
83333.3331350346
83333.3331419952
83333.3331487369
83333.3331564866
83333.3331656989
83333.3331759126
83333.3331863097
83333.3331962722
83333.3332068918
83333.3332186194
83333.3331299892
83333.3331373834
83333.3331444914
83333.3331525115
83333.3331621408
83333.3331732484
83333.3331851986
83333.3331974841
83333.333209501
83333.3332233931
83333.3332379687
83333.333124372
83333.3331321796
83333.3331396437
83333.333147868
83333.3331576649
83333.3331691779
83333.3331819677
83333.3331956502
83333.3332100298
83333.3332246468
83333.3332427176
83333.3332610986
83333.3331365572
83333.3331407475
83333.3331407334
83333.3331452309
83333.3331447498
83333.3331434669
83333.3331503695
83333.3331490898
83333.3331473942
83333.3331449983
83333.3331452966
83333.3331491131
83333.3331516527
83333.3331540187
83333.333156665
83333.3331444716
83333.3331492657
83333.3331532984
83333.3331568075
83333.3331604254
83333.3331644267
83333.3331426501
83333.3331481452
83333.3331532458
83333.3331585106
83333.3331635283
83333.3331684279
83333.3331739933
83333.3331399502
83333.3331460003
83333.3331518493
83333.3331583531
83333.3331653149
83333.333171814
83333.3331781801
83333.3331855726
83333.3331364627
83333.3331429963
83333.3331493668
83333.3331566702
83333.3331650362
83333.333173677
83333.3331818219
83333.3331900957
83333.3331995789
83333.3331322483
83333.3331392342
83333.3331460098
83333.3331537838
83333.3331630011
83333.3331732071
83333.3331836201
83333.3331936568
83333.3332044504
83333.3332163853
83333.333127356
83333.3331347783
83333.3331419266
83333.3331499847
83333.3331596414
83333.3331707687
83333.333182751
83333.3331951087
83333.3332072662
83333.3332214211
83333.333236361
83333.3331218528
83333.3331296927
83333.3331371995
83333.3331454708
83333.333155313
83333.3331668742
83333.3331797237
83333.3331935002
83333.3332080323
83333.3332229193
83333.333241445
83333.3332602164
83333.3331158185
83333.3331240488
83333.3331319045
83333.3331403676
83333.3331502769
83333.3331619431
83333.3331751694
83333.3331896021
83333.3332052321
83333.3332220655
83333.3332401717
83333.3332655684
83333.3331316446
83333.3331359879
83333.3331359474
83333.3331406457
83333.3331401612
83333.3331389187
83333.3331459593
83333.3331447082
83333.3331430454
83333.3331406983
83333.3331524379
83333.3331498405
83333.3331475157
83333.3331450164
83333.3331412455
83333.3331406623
83333.3331454322
83333.3331494207
83333.3331528684
83333.3331564577
83333.3331604258
83333.3331390719
83333.3331445617
83333.3331496362
83333.333154839
83333.3331598107
83333.3331647032
83333.3331702762
83333.3331365903
83333.3331426457
83333.3331484914
83333.3331549525
83333.3331618646
83333.3331683349
83333.3331747354
83333.333182178
83333.3331333064
83333.3331398549
83333.3331462391
83333.3331535305
83333.333161861
83333.3331704758
83333.333178631
83333.3331869935
83333.3331965806
83333.3331292816
83333.3331362869
83333.3331430895
83333.3331508752
83333.3331600838
83333.3331702741
83333.333180698
83333.333190798
83333.333201756
83333.3332138903
83333.3331245623
83333.3331320056
83333.3331391888
83333.3331472752
83333.3331569459
83333.3331680781
83333.3331800819
83333.333192505
83333.3332047937
83333.3332192008
83333.3332344832
83333.3331192056
83333.3331270702
83333.3331346165
83333.3331429268
83333.3331527994
83333.3331643888
83333.3331772781
83333.3331911311
83333.3332057909
83333.3332209017
83333.3332397884
83333.3332590541
83333.3331132818
83333.3331215401
83333.3331294355
83333.333137944
83333.3331478988
83333.3331596155
83333.3331729054
83333.3331874326
83333.3332032132
83333.3332202843
83333.333238798
83333.3332645241
83333.333295336
83333.3331068733
83333.3331154895
83333.3331237145
83333.3331324202
83333.3331424099
83333.3331540726
83333.3331674149
83333.3331821846
83333.3331982607
83333.3332158741
83333.333234946
83333.3332564337
83333.3331266897
83333.3331311301
83333.3331310587
83333.3331359174
83333.3331354252
83333.333134219
83333.3331413671
83333.3331401454
83333.3331385135
83333.3331362201
83333.3331479733
83333.3331454442
83333.3331431684
83333.333140711
83333.3331370018
83333.3331561203
83333.3331522305
83333.3331486892
83333.3331453161
83333.3331413817
83333.3331366539
83333.3331352947
83333.3331407636
83333.3331457987
83333.3331509235
83333.3331558308
83333.3331606877
83333.3331662128
83333.3331330349
83333.3331390835
83333.3331449117
83333.3331513172
83333.333158161
83333.3331645825
83333.3331709901
83333.3331784384
83333.3331299613
83333.3331365138
83333.3331428991
83333.3331501612
83333.3331584388
83333.333167014
83333.3331751568
83333.3331835788
83333.3331932223
83333.3331261352
83333.3331331511
83333.3331399703
83333.3331477523
83333.3331569352
83333.3331671001
83333.3331775235
83333.3331876671
83333.3331987667
83333.3332110752
83333.3331216
83333.3331290572
83333.3331362677
83333.3331443702
83333.333154039
83333.3331651627
83333.3331771797
83333.3331896613
83333.3332020696
83333.3332167213
83333.333232351
83333.3331164084
83333.3331242888
83333.3331318691
83333.3331402106
83333.3331501004
83333.3331617012
83333.333174615
83333.3331885356
83333.3332033187
83333.3332186372
83333.3332378714
83333.333257646
83333.3331106251
83333.3331189041
83333.3331268347
83333.3331353826
83333.3331453689
83333.3331571161
83333.333170448
83333.3331850498
83333.3332009593
83333.333218226
83333.3332370619
83333.3332632551
83333.3332944297
83333.3331043196
83333.3331129611
83333.3331212227
83333.3331299711
83333.333140005
83333.3331517174
83333.3331651224
83333.3331799814
83333.3331961961
83333.3332140254
83333.3332334391
83333.3332554094
83333.333281892
83333.3332992912
83333.3330975867
83333.3331065446
83333.3331151154
83333.3331240596
83333.3331341258
83333.3331457199
83333.3331589798
83333.3331737937
83333.3331899946
83333.3332076146
83333.3332268422
83333.3332472888
83333.3331217602
83333.3331262314
83333.3331261277
83333.3331310901
83333.3331305897
83333.3331294194
83333.3331366268
83333.3331354391
83333.3331338368
83333.3331316024
83333.3331433058
83333.3331408643
83333.3331386428
83333.3331362291
83333.3331325969
83333.3331515288
83333.3331477634
83333.3331442928
83333.3331410056
83333.333137137
83333.3331324709
83333.3331617714
83333.3331563726
83333.3331515898
83333.333146772
83333.3331417458
83333.3331367661
83333.333131336
83333.333129297
83333.3331353237
83333.3331411183
83333.3331474484
83333.3331541983
83333.3331605405
83333.3331669076
83333.3331742861
83333.3331264357
83333.3331329795
83333.3331393522
83333.3331465657
83333.3331547682
83333.3331632776
83333.3331713753
83333.3331798215
83333.3331894633
83333.3331228128
83333.3331298292
83333.3331366527
83333.3331444128
83333.3331535484
83333.3331636686
83333.33317407
83333.3331842246
83333.3331954235
83333.3332078441
83333.3331184711
83333.3331259323
83333.3331331601
83333.3331412632
83333.3331509113
83333.3331620094
83333.3331740273
83333.3331865517
83333.33319905
83333.3332139185
83333.3332298716
83333.3331134546
83333.3331213429
83333.333128949
83333.3331373097
83333.3331472005
83333.3331587957
83333.3331717209
83333.3331857015
83333.3332006026
83333.3332161232
83333.3332356948
83333.3332560441
83333.3331078283
83333.3331161186
83333.333124079
83333.3331326594
83333.3331426648
83333.3331544253
83333.3331677807
83333.333182443
83333.3331984757
83333.3332159352
83333.3332350613
83333.3332617422
83333.3332933781
83333.3331016548
83333.3331103153
83333.3331186081
83333.333127393
83333.3331374585
83333.3331492008
83333.3331626459
83333.3331775723
83333.3331939045
83333.3332119197
83333.3332316052
83333.3332540007
83333.3332810665
83333.3332987258
83333.3330950157
83333.3331039984
83333.3331126041
83333.3331215863
83333.3331316944
83333.3331433359
83333.333156655
83333.333171551
83333.3331878738
83333.3332056804
83333.3332251968
83333.3332460711
83333.3332683759
83333.3332909838
83333.3333044006
83333.3330880047
83333.3330972666
83333.3331061493
83333.3331153262
83333.3331254708
83333.3331369788
83333.3331500574
83333.3331647129
83333.3331808263
83333.3331982908
83333.3332171086
83333.3332371857
83333.3331169321
83333.3331213581
83333.3331212209
83333.3331262151
83333.333125711
83333.3331245813
83333.3331317807
83333.3331306323
83333.3331290632
83333.3331268956
83333.3331384676
83333.3331361349
83333.3331339758
83333.333131611
83333.3331280691
83333.3331466798
83333.3331430879
83333.333139712
83333.3331365221
83333.3331327298
83333.3331281443
83333.3331569508
83333.3331517657
83333.3331471011
83333.3331424054
83333.3331374989
83333.3331325927
83333.3331272197
83333.3331696486
83333.3331624559
83333.3331562009
83333.3331499773
83333.3331433554
83333.3331371262
83333.333131383
83333.3331253953
83333.3331227447
83333.3331292643
83333.3331356085
83333.3331427495
83333.3331508479
83333.3331592551
83333.3331672575
83333.3331756637
83333.3331852067
83333.333119325
83333.3331263293
83333.3331331443
83333.3331408608
83333.3331499222
83333.3331599658
83333.3331703145
83333.3331804393
83333.3331916924
83333.3332041494
83333.3331151805
83333.3331226348
83333.3331298685
83333.3331379539
83333.3331475581
83333.3331586064
83333.3331706024
83333.3331831414
83333.3331956849
83333.3332107188
83333.333226919
83333.3331103476
83333.3331182336
83333.3331258553
83333.3331342194
83333.333144092
83333.3331556607
83333.3331685802
83333.3331826063
83333.3331976069
83333.3332133009
83333.3332331802
83333.3332540797
83333.3331048857
83333.3331131794
83333.3331211622
83333.3331297631
83333.3331397715
83333.3331515264
83333.3331648877
83333.3331795983
83333.3331957499
83333.3332134042
83333.3332328057
83333.3332599982
83333.3332922264
83333.3330988611
83333.3331075308
83333.3331158488
83333.3331246635
83333.3331347489
83333.3331465042
83333.3331599695
83333.3331749449
83333.3331913832
83333.3332095826
83333.3332295303
83333.3332523182
83333.3332800196
83333.3332980409
83333.333092343
83333.3331013445
83333.3331099795
83333.3331189943
83333.3331291319
83333.3331408014
83333.3331541568
83333.3331691116
83333.3331855339
83333.3332035029
83333.3332232608
83333.3332444851
83333.3332672851
83333.333290381
83333.3333040075
83333.3330854169
83333.3330947006
83333.3331036192
83333.3331128317
83333.3331230143
83333.3331345665
83333.3331476996
83333.3331624292
83333.3331786488
83333.3331962702
83333.3332153258
83333.3332357505
83333.3332569826
83333.3332779076
83333.3332990124
83333.3333113745
83333.333078182
83333.3330877071
83333.3330968708
83333.3331062602
83333.3331164871
83333.3331279124
83333.3331407735
83333.3331551558
83333.3331710136
83333.3331882266
83333.3332066497
83333.3332261179
83333.3331122869
83333.3331165807
83333.3331164137
83333.333121357
83333.3331208549
83333.3331197695
83333.3331268743
83333.3331257788
83333.3331242494
83333.3331221595
83333.333133508
83333.3331313007
83333.3331292137
83333.3331269032
83333.3331234638
83333.3331416077
83333.3331382356
83333.3331349836
83333.3331319052
83333.3331281996
83333.3331237118
83333.3331517628
83333.3331468893
83333.3331423964
83333.3331378573
83333.3331330909
83333.3331282752
83333.3331229778
83333.3331644816
83333.3331576265
83333.3331515642
83333.3331455097
83333.3331390569
83333.3331329578
83333.3331272855
83333.3331213543
83333.3331803201
83333.3331710306
83333.3331627727
83333.3331549341
83333.3331466809
83333.333138726
83333.333131684
83333.333125386
83333.333118908
83333.333115688
83333.3331226656
83333.3331294565
83333.333137105
83333.3331460586
83333.3331559846
83333.3331662298
83333.3331762575
83333.3331874821
83333.333199826
83333.3331117398
83333.3331191748
83333.3331264009
83333.3331344485
83333.3331439802
83333.3331549447
83333.3331668833
83333.3331793974
83333.3331919388
83333.3332070807
83333.3332234923
83333.3331070948
83333.3331149662
83333.3331225913
83333.3331309415
83333.3331407728
83333.3331522878
83333.333165175
83333.3331792204
83333.3331942871
83333.3332101005
83333.3332302402
83333.3332515921
83333.3331018031
83333.3331100896
83333.3331180844
83333.3331266908
83333.3331366826
83333.3331484096
83333.3331617551
83333.3331764965
83333.3331927531
83333.3332105865
83333.3332302325
83333.3332579117
83333.333290649
83333.3330959345
83333.3331046035
83333.3331129395
83333.3331217732
83333.3331318623
83333.3331436113
83333.3331570766
83333.3331720837
83333.3331886183
83333.3332070047
83333.333227222
83333.3332503986
83333.3332788124
83333.3332972913
83333.3330895538
83333.3330985628
83333.3331072199
83333.3331162619
83333.333126418
83333.333138099
83333.33315147
83333.3331664624
83333.3331829673
83333.333201091
83333.3332210893
83333.3332426391
83333.3332659114
83333.3332895215
83333.3333034495
83333.3330827365
83333.3330920379
83333.3331009859
83333.3331102289
83333.3331204378
83333.3331320153
83333.3331451798
83333.333159959
83333.3331762612
83333.3331940157
83333.3332132739
83333.3332339927
83333.3332556199
83333.3332770153
83333.3332985772
83333.3333111913
83333.3330755662
83333.3330851202
83333.3330943174
83333.333103746
83333.3331140077
83333.3331254733
83333.3331383837
83333.3331528315
83333.3331687815
83333.3331861264
83333.3332047443
83333.3332244927
83333.3332450501
83333.3332654879
83333.3332857981
83333.3333044823
83333.3333155666
83333.3330681931
83333.3330779172
83333.3330873381
83333.3330969117
83333.3331072125
83333.3331185672
83333.3331312089
83333.3331452691
83333.3331607653
83333.3331776158
83333.3331956542
83333.3332146291
83333.3331079045
83333.3331119762
83333.3331117858
83333.3331165863
83333.3331160946
83333.3331150522
83333.3331219712
83333.3331209431
83333.3331194617
83333.3331174554
83333.3331284736
83333.3331264103
83333.3331244102
83333.33312216
83333.3331188354
83333.3331363905
83333.3331332552
83333.3331301555
83333.3331272017
83333.3331235914
83333.3331192176
83333.3331462625
83333.3331417775
83333.3331375123
83333.3331331652
83333.3331285617
83333.3331238512
83333.3331186488
83333.3331587654
83333.3331524173
83333.3331466466
83333.3331408277
83333.333134585
83333.3331286448
83333.333123062
83333.3331172059
83333.3331747244
83333.3331658817
83333.3331579097
83333.3331503129
83333.3331422809
83333.3331345145
83333.3331276019
83333.3331213691
83333.3331149509
83333.3331946887
83333.3331826583
83333.3331716036
83333.3331617851
83333.3331517191
83333.333141965
83333.3331331598
83333.3331256053
83333.3331188566
83333.3331119228
83333.3331081649
83333.3331155678
83333.3331227706
83333.3331307573
83333.3331401823
83333.3331510192
83333.3331628473
83333.3331752706
83333.3331877278
83333.333202869
83333.3332193277
83333.3331037071
83333.3331115519
83333.3331191661
83333.3331274836
83333.3331372459
83333.3331486715
83333.3331614878
83333.3331755122
83333.3331906026
83333.3332064751
83333.3332268544
83333.3332487535
83333.3330985898
83333.3331068571
83333.3331148505
83333.333123446
83333.3331333982
83333.3331450695
83333.3331583691
83333.3331731128
83333.3331894461
83333.333207424
83333.3332272615
83333.3332553682
83333.3332884799
83333.3330928809
83333.3331015379
83333.3331098818
83333.3331187209
83333.333128794
83333.333140514
83333.3331539545
83333.3331689706
83333.333185585
83333.3332041491
83333.3332246287
83333.3332481783
83333.3332773934
83333.333296362
83333.3330866456
83333.333095651
83333.3331043214
83333.3331133804
83333.3331235398
83333.3331352129
83333.3331485779
83333.3331635866
83333.3331801584
83333.3331984318
83333.3332186806
83333.3332405677
83333.3332643315
83333.3332884894
83333.3333028545
83333.3330799536
83333.3330892599
83333.3330982282
83333.3331074965
83333.3331177221
83333.3331293086
83333.3331424835
83333.3331572896
83333.3331736534
83333.3331915264
83333.3332109812
83333.3332319821
83333.3332539792
83333.3332758333
83333.3332979321
83333.3333108963
83333.3330728762
83333.3330824485
83333.3330916737
83333.3331011341
83333.33311142
83333.3331229074
83333.333135844
83333.3331503324
83333.3331663496
83333.333183802
83333.3332025827
83333.3332225716
83333.3332434521
83333.3332642814
83333.3332850239
83333.3333040962
83333.3333154634
83333.3330655491
83333.3330753044
83333.3330847582
83333.3330943738
83333.3331047116
83333.3331161033
83333.3331287891
83333.3331429066
83333.3331584819
83333.3331754435
83333.3331936427
83333.333212846
83333.3332327529
83333.333252789
83333.333272738
83333.3332917757
83333.3333081875
83333.3333180862
83333.3330579574
83333.3330679475
83333.3330775795
83333.333087337
83333.3330976875
83333.3331089785
83333.3331214162
83333.333135147
83333.3331502333
83333.3331666403
83333.3331842329
83333.3332027654
83333.3331038698
83333.3331076276
83333.3331074169
83333.333111981
83333.3331115064
83333.3331105061
83333.3331171501
83333.3331161965
83333.333114771
83333.3331128481
83333.3331234316
83333.333121528
83333.3331196292
83333.3331174439
83333.3331142473
83333.3331310849
83333.3331281947
83333.333125278
83333.3331224635
83333.3331189585
83333.3331147136
83333.3331405927
83333.3331364975
83333.3331325007
83333.3331283777
83333.3331239562
83333.3331193644
83333.3331142757
83333.3331525995
83333.3331468718
83333.3331414858
83333.3331359666
83333.3331299795
83333.3331242251
83333.3331187497
83333.3331129868
83333.3331683168
83333.3331601838
83333.3331526634
83333.3331454172
83333.3331376771
83333.333130145
83333.3331233924
83333.3331172446
83333.3331109027
83333.3331886339
83333.3331771302
83333.3331664334
83333.3331569574
83333.3331471701
83333.3331376579
83333.3331290461
83333.3331216129
83333.3331149265
83333.3331080537
83333.3332142257
83333.3331978961
83333.3331829345
83333.3331706979
83333.3331584695
83333.3331468282
83333.3331361749
83333.3331268954
83333.3331189948
83333.3331118336
83333.3331044762
83333.3331002007
83333.3331080062
83333.3331155944
83333.3331238578
83333.3331335185
83333.33314481
83333.3331575011
83333.3331714404
83333.3331864816
83333.3332023083
83333.3332227833
83333.3332451279
83333.3330952582
83333.3331034932
83333.3331114715
83333.3331200371
83333.3331299237
83333.3331415039
83333.3331547169
83333.3331694195
83333.3331857874
83333.3332038666
83333.3332238359
83333.3332524385
83333.3332861794
83333.3330897095
83333.3330983421
83333.3331066831
83333.3331155112
83333.3331255463
83333.3331372093
83333.333150593
83333.333165586
83333.3331822506
83333.3332009664
83333.3332216786
83333.3332455616
83333.3332756262
83333.3332951141
83333.3330836249
83333.333092614
83333.3331012874
83333.3331103504
83333.3331204944
83333.3331321368
83333.3331454696
83333.3331604685
83333.333177085
83333.3331954943
83333.3332159922
83333.3332382184
83333.3332625025
83333.3332872341
83333.3333021253
83333.3330770667
83333.3330863654
83333.3330953438
83333.3331046264
83333.3331148548
83333.3331264316
83333.3331395947
83333.333154404
83333.3331708084
83333.3331887869
83333.333208439
83333.333229736
83333.3332521175
83333.3332744215
83333.3332970799
83333.3333104426
83333.3330701004
83333.3330796759
83333.3330889195
83333.3330984038
83333.3331087049
83333.3331201989
83333.333133141
83333.3331476463
83333.3331637072
83333.3331812472
83333.3332001776
83333.3332203922
83333.3332415793
83333.3332627894
83333.3332839948
83333.333303527
83333.3333152351
83333.3330628488
83333.3330726226
83333.3330821022
83333.3330917516
83333.3331021143
83333.3331135253
83333.3331262324
83333.333140382
83333.3331560103
83333.3331730575
83333.3331913862
83333.3332107834
83333.3332309552
83333.3332513089
83333.3332716233
83333.3332910483
83333.3333077962
83333.3333179421
83333.3330553236
83333.3330653061
83333.3330749757
83333.3330847711
83333.3330951632
83333.3331064917
83333.3331189691
83333.3331327497
83333.3331479029
83333.3331644027
83333.3331821286
83333.3332008504
83333.3332202469
83333.3332398778
83333.3332594978
83333.3332785741
83333.3332961401
83333.3333107114
83333.3333198106
83333.3330577178
83333.3330676151
83333.333077536
83333.3330879482
83333.3330991771
83333.3331114302
83333.3331248478
83333.3331395166
83333.3331554419
83333.3331725317
83333.3331905821
83333.3331002637
83333.3331036218
83333.3331033882
83333.3331076243
83333.3331071683
83333.333106209
83333.3331124917
83333.3331116152
83333.3331102496
83333.3331084092
83333.3331184668
83333.333116732
83333.3331149403
83333.3331128244
83333.3331097655
83333.3331257677
83333.3331231308
83333.3331204163
83333.3331177513
83333.3331143611
83333.3331102558
83333.3331348134
83333.3331311039
83333.333127413
83333.3331235469
83333.3331193252
83333.3331148651
83333.3331099064
83333.3331462468
83333.3331411041
83333.3331361466
83333.3331309774
83333.3331252868
83333.3331197417
83333.3331143904
83333.3331087385
83333.3331612494
83333.3331540077
83333.3331470694
83333.3331402794
83333.3331329033
83333.3331256564
83333.3331190925
83333.3331130481
83333.3331067986
83333.3331814267
83333.3331708366
83333.3331607333
83333.3331517535
83333.333142361
83333.3331331636
83333.3331247935
83333.33311751
83333.3331109054
83333.3331041097
83333.3332080554
83333.3331920325
83333.3331774581
83333.3331656252
83333.3331537341
83333.3331423787
83333.3331319748
83333.3331228845
83333.3331150951
83333.3331079951
83333.3331006987
83333.3332405912
83333.3332178452
83333.3331974352
83333.3331818202
83333.3331669548
83333.3331531988
83333.3331407065
83333.3331296025
83333.3331200805
83333.3331118951
83333.3331043491
83333.3330965952
83333.3330918244
83333.3331000139
83333.3331079621
83333.3331164772
83333.3331262681
83333.3331377146
83333.3331507866
83333.3331653838
83333.333181717
83333.3331998195
83333.3332197899
83333.3332487306
83333.3332829939
83333.3330864353
83333.3330950301
83333.3331033548
83333.3331121535
83333.3331221258
83333.3331336982
83333.3331469837
83333.3331619079
83333.333178577
83333.3331974046
83333.3332183081
83333.3332425046
83333.3332734408
83333.3332935739
83333.3330805003
83333.3330894592
83333.333098125
83333.3331071783
83333.3331172857
83333.3331288702
83333.3331421385
83333.3331570925
83333.3331737197
83333.3331922368
83333.3332129642
83333.333235507
83333.3332603073
83333.3332856012
83333.3333010036
83333.333074083
83333.3330833607
83333.3330923361
83333.3331016204
83333.3331118348
83333.3331233796
83333.3331365045
83333.3331512884
83333.3331677066
83333.33318577
83333.3332056105
83333.3332272085
83333.3332499893
83333.3332727444
83333.333295998
83333.3333098333
83333.3330672367
83333.3330768024
83333.3330860516
83333.3330955475
83333.3331058508
83333.3331173339
83333.3331302593
83333.3331447565
83333.3331608365
83333.3331784445
83333.3331975147
83333.3332179585
83333.3332394619
83333.3332610491
83333.3332827228
83333.333302754
83333.3333148298
83333.3330600799
83333.3330698565
83333.3330793522
83333.3330890248
83333.3330994019
83333.3331108177
83333.3331235261
83333.3331376837
83333.3331533403
83333.3331704498
83333.3331888894
83333.3332084592
83333.333228877
83333.3332495433
83333.3332702368
83333.3332900908
83333.3333072572
83333.3333177194
83333.3330526352
83333.3330626164
83333.3330723082
83333.3330821332
83333.3330925555
83333.3331039035
83333.3331163985
83333.3331302037
83333.3331453976
83333.3331619637
83333.3331797912
83333.333198668
83333.3332182814
83333.3332381725
83333.3332580919
83333.3332775102
83333.3332954367
83333.3333103226
83333.3333196333
83333.3330550951
83333.3330649922
83333.3330749448
83333.3330853991
83333.3330966675
83333.3331089582
83333.3331224191
83333.3331371444
83333.3331531466
83333.3331703459
83333.3331885529
83333.3332074743
83333.3332267286
83333.3332460247
83333.3332649743
83333.3332829832
83333.3332991634
83333.3333123365
83333.3333208886
83333.3330573603
83333.33306748
83333.3330779888
83333.3330891823
83333.3331012739
83333.3331144059
83333.3331286751
83333.3331441156
83333.3331606753